<LesHouchesEvents version="3.0">
<header>
<!--
#*********************************************************************
#                                                                    *
#                        MadGraph5_aMC@NLO                           *
#                                                                    *
#                           Going Beyond                             *
#                                                                    *
#                   http://madgraph.hep.uiuc.edu                     *
#                   http://madgraph.phys.ucl.ac.be                   *
#                   http://amcatnlo.cern.ch                          *
#                                                                    *
#                     The MadGraph5_aMC@NLO team                     *
#                                                                    *
#....................................................................*
#                                                                    *
# This file contains all the information necessary to reproduce      *
# the events generated:                                              *
#                                                                    *
# 1. software version                                                *
# 2. proc_card          : code generation info including model       *
# 3. param_card         : model primary parameters in the LH format  *
# 4. run_card           : running parameters (collider and cuts)     *
# 5. pythia_card        : present only if pythia has been run        *
# 6. pgs_card           : present only if pgs has been run           *
# 7. delphes_cards      : present only if delphes has been run       *
#                                                                    *
#                                                                    *
#*********************************************************************
-->
<MGVersion>
#5.2.2.3
</MGVersion>
<MG5ProcCard>
#************************************************************
#*                     MadGraph5_aMC@NLO                    *
#*                                                          *
#*                *                       *                 *
#*                  *        * *        *                   *
#*                    * * * * 5 * * * *                     *
#*                  *        * *        *                   *
#*                *                       *                 *
#*                                                          *
#*                                                          *
#*         VERSION 2.2.3                 2015-02-10         *
#*                                                          *
#*    The MadGraph5_aMC@NLO Development Team - Find us at   *
#*    https://server06.fynu.ucl.ac.be/projects/madgraph     *
#*                                                          *
#************************************************************
#*                                                          *
#*               Command File for MadGraph5_aMC@NLO         *
#*                                                          *
#*     run as ./bin/mg5_aMC  filename                       *
#*                                                          *
#************************************************************
set group_subprocesses Auto
set ignore_six_quark_processes False
set loop_optimized_output True
set gauge unitary
set complex_mass_scheme False
import model sm
define p = g u c d s u~ c~ d~ s~
define j = g u c d s u~ c~ d~ s~
define l+ = e+ mu+
define l- = e- mu-
define vl = ve vm vt
define vl~ = ve~ vm~ vt~
import model Zprime_UFO
generate p p > zph, zph > j j
add process p p > zph, zph > b b~
output Dijet_signal
</MG5ProcCard>
<MGProcCard>
#*********************************************************************
#                        MadGraph/MadEvent                           *
#                   http://madgraph.hep.uiuc.edu                     *
#                                                                    *
#                          proc_card.dat                             *
#*********************************************************************
#                                                                    *
#            This Files is generated by MADGRAPH 5                   *
#                                                                    *
# WARNING: This Files is generated for MADEVENT (compatibility issue)*
#          This files is NOT a valid MG4 proc_card.dat               *
#          Running this in MG4 will NEVER reproduce the result of MG5*
#                                                                    *
#*********************************************************************
#*********************************************************************
# Process(es) requested : mg2 input                                  *
#*********************************************************************
# Begin PROCESS # This is TAG. Do not modify this line
p p > zph , zph > j j           #Process
# Be carefull the coupling are here in MG5 convention
          
end_coup           # End the couplings input

done               # this tells MG there are no more procs
# End PROCESS  # This is TAG. Do not modify this line
#*********************************************************************
# Model information                                                  *
#*********************************************************************
# Begin MODEL  # This is TAG. Do not modify this line
Zprime_UFO
# End   MODEL  # This is TAG. Do not modify this line
#*********************************************************************
# Start multiparticle definitions                                    *
#*********************************************************************
# Begin MULTIPARTICLES # This is TAG. Do not modify this line

# End  MULTIPARTICLES # This is TAG. Do not modify this line
</MGProcCard>
<MGRunCard>
#*********************************************************************
#                       MadGraph5_aMC@NLO                            *
#                                                                    *
#                     run_card.dat MadEvent                          *
#                                                                    *
#  This file is used to set the parameters of the run.               *
#                                                                    *
#  Some notation/conventions:                                        *
#                                                                    *
#   Lines starting with a '# ' are info or comments                  *
#                                                                    *
#   mind the format:   value    = variable     ! comment             *
#*********************************************************************
#
#*******************                                                 
# Running parameters
#*******************                                                 
#                                                                    
#*********************************************************************
# Tag name for the run (one word)                                    *
#*********************************************************************
  tag_1     = run_tag ! name of the run 
#*********************************************************************
# Run to generate the grid pack                                      *
#*********************************************************************
  .false.     = gridpack  !True = setting up the grid pack
#*********************************************************************
# Number of events and rnd seed                                      *
# Warning: Do not generate more than 1M events in a single run       *
# If you want to run Pythia, avoid more than 50k events in a run.    *
#*********************************************************************
  2000 = nevents ! Number of unweighted events requested 
 2595 = iseed   ! rnd seed (0=assigned automatically=default))
#*********************************************************************
# Collider type and energy                                           *
# lpp: 0=No PDF, 1=proton, -1=antiproton, 2=photon from proton,      *
#                                         3=photon from electron     *
#*********************************************************************
        1     = lpp1    ! beam 1 type 
        1     = lpp2    ! beam 2 type
     4000     = ebeam1  ! beam 1 total energy in GeV
     4000     = ebeam2  ! beam 2 total energy in GeV
#*********************************************************************
# Beam polarization from -100 (left-handed) to 100 (right-handed)    *
#*********************************************************************
        0     = polbeam1 ! beam polarization for beam 1
        0     = polbeam2 ! beam polarization for beam 2
#*********************************************************************
# PDF CHOICE: this automatically fixes also alpha_s and its evol.    *
#*********************************************************************
 'nn23lo1'    = pdlabel     ! PDF set                                     
 230000    = lhaid     ! if pdlabel=lhapdf, this is the lhapdf number
#*********************************************************************
# Renormalization and factorization scales                           *
#*********************************************************************
 F        = fixed_ren_scale  ! if .true. use fixed ren scale
 F        = fixed_fac_scale  ! if .true. use fixed fac scale
 91.1880  = scale            ! fixed ren scale
 91.1880  = dsqrt_q2fact1    ! fixed fact scale for pdf1
 91.1880  = dsqrt_q2fact2    ! fixed fact scale for pdf2
 1        = scalefact        ! scale factor for event-by-event scales
#*********************************************************************
# Matching - Warning! ickkw > 1 is still beta
#*********************************************************************
 0        = ickkw            ! 0 no matching, 1 MLM, 2 CKKW matching
 1        = highestmult      ! for ickkw=2, highest mult group
 1        = ktscheme         ! for ickkw=1, 1 Durham kT, 2 Pythia pTE
 1        = alpsfact         ! scale factor for QCD emission vx
 F        = chcluster        ! cluster only according to channel diag
 T        = pdfwgt           ! for ickkw=1, perform pdf reweighting
 5        = asrwgtflavor     ! highest quark flavor for a_s reweight
 T        = clusinfo         ! include clustering tag in output
 3.0      = lhe_version       ! Change the way clustering information pass to shower.        
#*********************************************************************
#**********************************************************
#
#**********************************************************
# Automatic ptj and mjj cuts if xqcut > 0
# (turn off for VBF and single top processes)
#**********************************************************
   T  = auto_ptj_mjj  ! Automatic setting of ptj and mjj
#**********************************************************
#                                                                    
#**********************************
# BW cutoff (M+/-bwcutoff*Gamma)
#**********************************
  15  = bwcutoff      ! (M+/-bwcutoff*Gamma)
#**********************************************************
# Apply pt/E/eta/dr/mij cuts on decay products or not
# (note that etmiss/ptll/ptheavy/ht/sorted cuts always apply)
#**********************************************************
   T  = cut_decays    ! Cut decay products 
#*************************************************************
# Number of helicities to sum per event (0 = all helicities)
# 0 gives more stable result, but longer run time (needed for
# long decay chains e.g.).
# Use >=2 if most helicities contribute, e.g. pure QCD.
#*************************************************************
   0  = nhel          ! Number of helicities used per event
#*******************                                                 
# Standard Cuts
#*******************                                                 
#                                                                    
#*********************************************************************
# Minimum and maximum pt's (for max, -1 means no cut)                *
#*********************************************************************
 20  = ptj       ! minimum pt for the jets 
  0  = ptb       ! minimum pt for the b 
 10  = pta       ! minimum pt for the photons 
 10  = ptl       ! minimum pt for the charged leptons 
  0  = misset    ! minimum missing Et (sum of neutrino's momenta)
  0  = ptheavy   ! minimum pt for one heavy final state
 1.0 = ptonium   ! minimum pt for the quarkonium states
 -1  = ptjmax    ! maximum pt for the jets
 -1  = ptbmax    ! maximum pt for the b
 -1  = ptamax    ! maximum pt for the photons
 -1  = ptlmax    ! maximum pt for the charged leptons
 -1  = missetmax ! maximum missing Et (sum of neutrino's momenta)
#*********************************************************************
# Minimum and maximum E's (in the center of mass frame)              *
#*********************************************************************
  0  = ej     ! minimum E for the jets 
  0  = eb     ! minimum E for the b 
  0  = ea     ! minimum E for the photons 
  0  = el     ! minimum E for the charged leptons 
 -1   = ejmax ! maximum E for the jets
 -1   = ebmax ! maximum E for the b
 -1   = eamax ! maximum E for the photons
 -1   = elmax ! maximum E for the charged leptons
#*********************************************************************
# Maximum and minimum absolute rapidity (for max, -1 means no cut)   *
#*********************************************************************
   5  = etaj    ! max rap for the jets 
  -1  = etab    ! max rap for the b
 2.5  = etaa    ! max rap for the photons 
 2.5  = etal    ! max rap for the charged leptons 
 0.6  = etaonium ! max rap for the quarkonium states
   0  = etajmin ! min rap for the jets
   0  = etabmin ! min rap for the b
   0  = etaamin ! min rap for the photons
   0  = etalmin ! main rap for the charged leptons
#*********************************************************************
# Minimum and maximum DeltaR distance                                *
#*********************************************************************
 0.4 = drjj    ! min distance between jets 
 0   = drbb    ! min distance between b's 
 0.4 = drll    ! min distance between leptons 
 0.4 = draa    ! min distance between gammas 
 0   = drbj    ! min distance between b and jet 
 0.4 = draj    ! min distance between gamma and jet 
 0.4 = drjl    ! min distance between jet and lepton 
 0   = drab    ! min distance between gamma and b 
 0   = drbl    ! min distance between b and lepton 
 0.4 = dral    ! min distance between gamma and lepton 
 -1  = drjjmax ! max distance between jets
 -1  = drbbmax ! max distance between b's
 -1  = drllmax ! max distance between leptons
 -1  = draamax ! max distance between gammas
 -1  = drbjmax ! max distance between b and jet
 -1  = drajmax ! max distance between gamma and jet
 -1  = drjlmax ! max distance between jet and lepton
 -1  = drabmax ! max distance between gamma and b
 -1  = drblmax ! max distance between b and lepton
 -1  = dralmax ! maxdistance between gamma and lepton
#*********************************************************************
# Minimum and maximum invariant mass for pairs                       *
# WARNING: for four lepton final state mmll cut require to have      *
#          different lepton masses for each flavor!                  *           
#*********************************************************************
 0   = mmjj    ! min invariant mass of a jet pair 
 0   = mmbb    ! min invariant mass of a b pair 
 0   = mmaa    ! min invariant mass of gamma gamma pair
 0   = mmll    ! min invariant mass of l+l- (same flavour) lepton pair
 -1  = mmjjmax ! max invariant mass of a jet pair
 -1  = mmbbmax ! max invariant mass of a b pair
 -1  = mmaamax ! max invariant mass of gamma gamma pair
 -1  = mmllmax ! max invariant mass of l+l- (same flavour) lepton pair
#*********************************************************************
# Minimum and maximum invariant mass for all letpons                 *
#*********************************************************************
 0   = mmnl    ! min invariant mass for all letpons (l+- and vl) 
 -1  = mmnlmax ! max invariant mass for all letpons (l+- and vl) 
#*********************************************************************
# Minimum and maximum pt for 4-momenta sum of leptons                *
#*********************************************************************
 0   = ptllmin  ! Minimum pt for 4-momenta sum of leptons(l and vl)
 -1  = ptllmax  ! Maximum pt for 4-momenta sum of leptons(l and vl)
#*********************************************************************
# Inclusive cuts                                                     *
#*********************************************************************
 0  = xptj ! minimum pt for at least one jet  
 0  = xptb ! minimum pt for at least one b 
 0  = xpta ! minimum pt for at least one photon 
 0  = xptl ! minimum pt for at least one charged lepton 
#*********************************************************************
# Control the pt's of the jets sorted by pt                          *
#*********************************************************************
 0   = ptj1min ! minimum pt for the leading jet in pt
 0   = ptj2min ! minimum pt for the second jet in pt
 0   = ptj3min ! minimum pt for the third jet in pt
 0   = ptj4min ! minimum pt for the fourth jet in pt
 -1  = ptj1max ! maximum pt for the leading jet in pt 
 -1  = ptj2max ! maximum pt for the second jet in pt
 -1  = ptj3max ! maximum pt for the third jet in pt
 -1  = ptj4max ! maximum pt for the fourth jet in pt
 0   = cutuse  ! reject event if fails any (0) / all (1) jet pt cuts
#*********************************************************************
# Control the pt's of leptons sorted by pt                           *
#*********************************************************************
 0   = ptl1min ! minimum pt for the leading lepton in pt
 0   = ptl2min ! minimum pt for the second lepton in pt
 0   = ptl3min ! minimum pt for the third lepton in pt
 0   = ptl4min ! minimum pt for the fourth lepton in pt
 -1  = ptl1max ! maximum pt for the leading lepton in pt 
 -1  = ptl2max ! maximum pt for the second lepton in pt
 -1  = ptl3max ! maximum pt for the third lepton in pt
 -1  = ptl4max ! maximum pt for the fourth lepton in pt
#*********************************************************************
# Control the Ht(k)=Sum of k leading jets                            *
#*********************************************************************
 0   = htjmin ! minimum jet HT=Sum(jet pt)
 -1  = htjmax ! maximum jet HT=Sum(jet pt)
 0   = ihtmin  !inclusive Ht for all partons (including b)
 -1  = ihtmax  !inclusive Ht for all partons (including b)
 0   = ht2min ! minimum Ht for the two leading jets
 0   = ht3min ! minimum Ht for the three leading jets
 0   = ht4min ! minimum Ht for the four leading jets
 -1  = ht2max ! maximum Ht for the two leading jets
 -1  = ht3max ! maximum Ht for the three leading jets
 -1  = ht4max ! maximum Ht for the four leading jets
#***********************************************************************
# Photon-isolation cuts, according to hep-ph/9801442                   *
# When ptgmin=0, all the other parameters are ignored                  *
# When ptgmin>0, pta and draj are not going to be used                 *
#***********************************************************************
   0 = ptgmin ! Min photon transverse momentum
 0.4 = R0gamma ! Radius of isolation code
 1.0 = xn ! n parameter of eq.(3.4) in hep-ph/9801442
 1.0 = epsgamma ! epsilon_gamma parameter of eq.(3.4) in hep-ph/9801442
 .true. = isoEM ! isolate photons from EM energy (photons and leptons)
#*********************************************************************
# WBF cuts                                                           *
#*********************************************************************
 0   = xetamin ! minimum rapidity for two jets in the WBF case  
 0   = deltaeta ! minimum rapidity for two jets in the WBF case 
#*********************************************************************
# KT DURHAM CUT                                                      *
#*********************************************************************
 -1    =  ktdurham        
 0.4  =  dparameter 
#*********************************************************************
# maximal pdg code for quark to be considered as a light jet         *
# (otherwise b cuts are applied)                                     *
#*********************************************************************
 4 = maxjetflavor    ! Maximum jet pdg code
#*********************************************************************
# Jet measure cuts                                                   *
#*********************************************************************
 0   = xqcut   ! minimum kt jet measure between partons
#*********************************************************************
#
#*********************************************************************
# Store info for systematics studies                                 *
# WARNING: If use_syst is T, matched Pythia output is                *
#          meaningful ONLY if plotted taking matchscale              *
#          reweighting into account!                                 *
#*********************************************************************
   F  = use_syst      ! Enable systematics studies
#
#**************************************
# Parameter of the systematics study
#  will be used by SysCalc (if installed)
#**************************************                                  
#
0.5 1 2 = sys_scalefact  # factorization/renormalization scale factor
0.5 1 2 = sys_alpsfact  # \alpha_s emission scale factors
30 50 = sys_matchscale # variation of merging scale
# PDF sets and number of members (0 or none for all members).
CT10nlo.LHgrid = sys_pdf # matching scales
# MSTW2008nlo68cl.LHgrid 1  = sys_pdf
</MGRunCard>
<slha>
######################################################################
## PARAM_CARD AUTOMATICALY GENERATED BY MG5 FOLLOWING UFO MODEL   ####
######################################################################
##                                                                  ##
##  Width set on Auto will be computed following the information    ##
##        present in the decay.py files of the model.               ##
##        See  arXiv:1402.1178 for more details.                    ##
##                                                                  ##
######################################################################

###################################
## INFORMATION FOR CKMBLOCK
###################################
Block ckmblock 
    1 2.277360e-01 # cabi 

###################################
## INFORMATION FOR FRBLOCK
###################################
Block frblock 
    1 1.400000e+00 # gz 

###################################
## INFORMATION FOR MASS
###################################
Block mass 
    1 5.040000e-03 # MD 
    2 2.550000e-03 # MU 
    3 1.010000e-01 # MS 
    4 1.270000e+00 # MC 
    5 4.700000e+00 # MB 
    6 1.720000e+02 # MT 
   11 5.110000e-04 # Me 
   13 1.056600e-01 # MM 
   15 1.777000e+00 # MTA 
   23 9.118760e+01 # MZ 
   25 1.200000e+02 # MH 
  10030 2.200000e+03 # MZph 
  10031 3.000000e+02 # MZpl 
## Dependent parameters, given by model restrictions.
## Those values should be edited following the 
## analytical expression. MG5 ignores those values 
## but they are important for interfacing the output of MG5
## to external program such as Pythia.
  12 0.000000 # ve : 0.0 
  14 0.000000 # vm : 0.0 
  16 0.000000 # vt : 0.0 
  21 0.000000 # g : 0.0 
  22 0.000000 # a : 0.0 
  24 79.824360 # w+ : cmath.sqrt(MZ__exp__2/2. + cmath.sqrt(MZ__exp__4/4. - (aEW*cmath.pi*MZ__exp__2)/(Gf*sqrt__2))) 

###################################
## INFORMATION FOR SMINPUTS
###################################
Block sminputs 
    1 1.279000e+02 # aEWM1 
    2 1.166370e-05 # Gf 
    3 1.184000e-01 # aS 

###################################
## INFORMATION FOR YUKAWA
###################################
Block yukawa 
    1 5.040000e-03 # ymdo 
    2 2.550000e-03 # ymup 
    3 1.010000e-01 # yms 
    4 1.270000e+00 # ymc 
    5 4.700000e+00 # ymb 
    6 1.720000e+02 # ymt 
   11 5.110000e-04 # yme 
   13 1.056600e-01 # ymm 
   15 1.777000e+00 # ymtau 

###################################
## INFORMATION FOR DECAY
###################################
DECAY   6 1.508336e+00 # WT 
DECAY  23 2.495200e+00 # WZ 
DECAY  24 2.085000e+00 # WW 
DECAY  25 5.753088e-03 # WH 
## Dependent parameters, given by model restrictions.
## Those values should be edited following the 
## analytical expression. MG5 ignores those values 
## but they are important for interfacing the output of MG5
## to external program such as Pythia.
DECAY  1 0.000000 # d : 0.0 
DECAY  2 0.000000 # u : 0.0 
DECAY  3 0.000000 # s : 0.0 
DECAY  4 0.000000 # c : 0.0 
DECAY  5 0.000000 # b : 0.0 
DECAY  11 0.000000 # e- : 0.0 
DECAY  12 0.000000 # ve : 0.0 
DECAY  13 0.000000 # mu- : 0.0 
DECAY  14 0.000000 # vm : 0.0 
DECAY  15 0.000000 # ta- : 0.0 
DECAY  16 0.000000 # vt : 0.0 
DECAY  21 0.000000 # g : 0.0 
DECAY  22 0.000000 # a : 0.0 
DECAY  10030 0.308725 # zph : (gz__exp__2*MZph*(5 + cmath.sqrt(1 - (4*MT__exp__2)/MZph__exp__2)))/(144.*cmath.pi) 
DECAY  10031 0.132629 # zpl : (5*gz__exp__2*MZpl)/(144.*cmath.pi) 
#===========================================================
# QUANTUM NUMBERS OF NEW STATE(S) (NON SM PDG CODE)
#===========================================================

Block QNUMBERS 10030  # zph 
        1 0  # 3 times electric charge
        2 3  # number of spin states (2S+1)
        3 1  # colour rep (1: singlet, 3: triplet, 8: octet)
        4 0  # Particle/Antiparticle distinction (0=own anti)
Block QNUMBERS 10031  # zpl 
        1 0  # 3 times electric charge
        2 3  # number of spin states (2S+1)
        3 1  # colour rep (1: singlet, 3: triplet, 8: octet)
        4 0  # Particle/Antiparticle distinction (0=own anti)
</slha>
## END BANNER##
<MGGenerationInfo>
#  Number of Events        :         3956
#  Integrated weight (pb)  :  0.36691E-01
#  Max wgt                 :  0.14042E-04
#  Average wgt             :  0.92748E-05
</MGGenerationInfo>
</header>
<init>
     2212     2212  0.40000000000E+04  0.40000000000E+04 0 0  247000  247000 2   1
  0.36700858932E-01  0.75198200452E-04  0.14041590000E-04   0
</init>
<event>
 5   0  0.1241430E-04  0.2142810E+04  0.7818609E-02  0.8542616E-01
        2   -1    0    0  501    0  0.00000000000E+00  0.00000000000E+00  0.10769906008E+04  0.10769906008E+04  0.25500000920E-02 0. -1.
       -2   -1    0    0    0  501  0.00000000000E+00  0.00000000000E+00 -0.10658485667E+04  0.10658485667E+04  0.25500000920E-02 0.  1.
    10030    2    1    2    0    0  0.00000000000E+00  0.00000000000E+00  0.11142034119E+02  0.21428391675E+04  0.21428101999E+04 0.  0.
        1    1    3    3  502    0  0.93375409537E+03 -0.29545152148E+03 -0.42885467101E+03  0.10691607181E+04  0.50400001928E-02 0.  1.
       -1    1    3    3    0  502 -0.93375409537E+03  0.29545152148E+03  0.43999670513E+03  0.10736784494E+04  0.50400001928E-02 0. -1.
</event>
<event>
 5   0  0.1241430E-04  0.2032481E+04  0.7818609E-02  0.8591584E-01
       -2   -1    0    0    0  501  0.00000000000E+00  0.00000000000E+00  0.74951251164E+03  0.74951251165E+03  0.25500000920E-02 0.  1.
        2   -1    0    0  501    0  0.00000000000E+00  0.00000000000E+00 -0.13778883379E+04  0.13778883379E+04  0.25500000920E-02 0. -1.
    10030    2    1    2    0    0  0.00000000000E+00  0.00000000000E+00 -0.62837582621E+03  0.21274008495E+04  0.20324807983E+04 0.  0.
        1    1    3    3  502    0  0.42598580379E+03 -0.90637985613E+03 -0.13363204273E+03  0.10103691758E+04  0.50400001928E-02 0. -1.
       -1    1    3    3    0  502 -0.42598580379E+03  0.90637985613E+03 -0.49474378348E+03  0.11170316737E+04  0.50400001928E-02 0.  1.
</event>
<event>
 5   0  0.1252124E-04  0.2200755E+04  0.7818609E-02  0.8518114E-01
        2   -1    0    0  501    0  0.00000000000E+00  0.00000000000E+00  0.18002435219E+04  0.18002435219E+04  0.25500000920E-02 0. -1.
       -2   -1    0    0    0  501  0.00000000000E+00  0.00000000000E+00 -0.67259274686E+03  0.67259274687E+03  0.25500000920E-02 0.  1.
    10030    2    1    2    0    0  0.00000000000E+00  0.00000000000E+00  0.11276507751E+04  0.24728362688E+04  0.22007550845E+04 0.  0.
        3    1    3    3  502    0 -0.16766460548E+03  0.10773021589E+04  0.73101381650E+03  0.13126585891E+04  0.10100000352E+00 0.  1.
       -3    1    3    3    0  502  0.16766460548E+03 -0.10773021589E+04  0.39663695856E+03  0.11601776797E+04  0.10100000352E+00 0. -1.
</event>
<event>
 5   0  0.1241430E-04  0.2205611E+04  0.7818609E-02  0.8516096E-01
       -2   -1    0    0    0  501  0.00000000000E+00  0.00000000000E+00  0.66527746927E+03  0.66527746928E+03  0.25500000920E-02 0.  1.
        2   -1    0    0  501    0  0.00000000000E+00  0.00000000000E+00 -0.18280797548E+04  0.18280797548E+04  0.25500000920E-02 0. -1.
    10030    2    1    2    0    0  0.00000000000E+00  0.00000000000E+00 -0.11628022855E+04  0.24933572241E+04  0.22056112739E+04 0.  0.
        1    1    3    3  502    0 -0.36409049463E+03  0.57973676651E+03  0.39598911276E+03  0.79086280996E+03  0.50400001928E-02 0.  1.
       -1    1    3    3    0  502  0.36409049463E+03 -0.57973676651E+03 -0.15587913983E+04  0.17024944141E+04  0.50400001928E-02 0. -1.
</event>
<event>
 5   0  0.1252124E-04  0.2233419E+04  0.7818609E-02  0.8504646E-01
        2   -1    0    0  501    0  0.00000000000E+00  0.00000000000E+00  0.15034886180E+04  0.15034886180E+04  0.25500000920E-02 0.  1.
       -2   -1    0    0    0  501  0.00000000000E+00  0.00000000000E+00 -0.82943092453E+03  0.82943092453E+03  0.25500000920E-02 0. -1.
    10030    2    1    2    0    0  0.00000000000E+00  0.00000000000E+00  0.67405769343E+03  0.23329195425E+04  0.22334188630E+04 0.  0.
        3    1    3    3  502    0 -0.11126037174E+04 -0.73805358162E+02  0.27344253673E+03  0.11480875811E+04  0.10100000352E+00 0. -1.
       -3    1    3    3    0  502  0.11126037174E+04  0.73805358162E+02  0.40061515669E+03  0.11848319614E+04  0.10100000352E+00 0.  1.
</event>
<event>
 5   0  0.5861816E-05  0.2215353E+04  0.7818609E-02  0.8512065E-01
       -1   -1    0    0    0  501  0.00000000000E+00  0.00000000000E+00  0.64906754624E+03  0.64906754626E+03  0.50400001928E-02 0.  1.
        1   -1    0    0  501    0  0.00000000000E+00  0.00000000000E+00 -0.18903223324E+04  0.18903223324E+04  0.50400001928E-02 0. -1.
    10030    2    1    2    0    0  0.00000000000E+00  0.00000000000E+00 -0.12412547862E+04  0.25393898787E+04  0.22153526834E+04 0.  0.
        1    1    3    3  502    0  0.66836490327E+03 -0.49763706887E+03  0.21590750856E+03  0.86079634555E+03  0.50400001928E-02 0.  1.
       -1    1    3    3    0  502 -0.66836490327E+03  0.49763706887E+03 -0.14571622947E+04  0.16785935331E+04  0.50400001928E-02 0. -1.
</event>
<event>
 5   0  0.6263558E-05  0.2177931E+04  0.7818609E-02  0.8527670E-01
        1   -1    0    0  501    0  0.00000000000E+00  0.00000000000E+00  0.17585991456E+04  0.17585991456E+04  0.50400001928E-02 0. -1.
       -1   -1    0    0    0  501  0.00000000000E+00  0.00000000000E+00 -0.67431303103E+03  0.67431303105E+03  0.50400001928E-02 0.  1.
    10030    2    1    2    0    0  0.00000000000E+00  0.00000000000E+00  0.10842861146E+04  0.24329121767E+04  0.21779314225E+04 0.  0.
        3    1    3    3  502    0  0.82282885954E+03 -0.55757526742E+03  0.10390954467E+04  0.14379349319E+04  0.10100000352E+00 0.  1.
       -3    1    3    3    0  502 -0.82282885954E+03  0.55757526742E+03  0.45190667925E+02  0.99497724476E+03  0.10100000352E+00 0. -1.
</event>
<event>
 5   0  0.1241430E-04  0.1537443E+04  0.7818609E-02  0.8859928E-01
        2   -1    0    0  501    0  0.00000000000E+00  0.00000000000E+00  0.99386847039E+03  0.99386847040E+03  0.25500000920E-02 0.  1.
       -2   -1    0    0    0  501  0.00000000000E+00  0.00000000000E+00 -0.59457872212E+03  0.59457872213E+03  0.25500000920E-02 0. -1.
    10030    2    1    2    0    0  0.00000000000E+00  0.00000000000E+00  0.39928974827E+03  0.15884471925E+04  0.15374433909E+04 0.  0.
        1    1    3    3  502    0 -0.21814282317E+03  0.21000295073E+02 -0.56162012874E+03  0.60286356062E+03  0.50400001928E-02 0. -1.
       -1    1    3    3    0  502  0.21814282317E+03 -0.21000295073E+02  0.96090987702E+03  0.98558363190E+03  0.50400001928E-02 0.  1.
</event>
<event>
 5   0  0.5849604E-05  0.2180033E+04  0.7818609E-02  0.8526785E-01
       -1   -1    0    0    0  501  0.00000000000E+00  0.00000000000E+00  0.17751447775E+04  0.17751447775E+04  0.50400001928E-02 0.  1.
        1   -1    0    0  501    0  0.00000000000E+00  0.00000000000E+00 -0.66931761711E+03  0.66931761713E+03  0.50400001928E-02 0. -1.
    10030    2    1    2    0    0  0.00000000000E+00  0.00000000000E+00  0.11058271604E+04  0.24444623946E+04  0.21800327268E+04 0.  0.
        2    1    3    3  502    0 -0.14067553543E+02  0.32509069853E+03  0.17194140277E+04  0.17499332721E+04  0.25500000920E-02 0.  1.
       -2    1    3    3    0  502  0.14067553543E+02 -0.32509069853E+03 -0.61358686727E+03  0.69452912252E+03  0.25500000920E-02 0. -1.
</event>
<event>
 5   0  0.1241430E-04  0.2144386E+04  0.7818609E-02  0.8541939E-01
       -2   -1    0    0    0  501  0.00000000000E+00  0.00000000000E+00  0.17629889977E+04  0.17629889977E+04  0.25500000920E-02 0. -1.
        2   -1    0    0  501    0  0.00000000000E+00  0.00000000000E+00 -0.65207301048E+03  0.65207301048E+03  0.25500000920E-02 0.  1.
    10030    2    1    2    0    0  0.00000000000E+00  0.00000000000E+00  0.11109159872E+04  0.24150620082E+04  0.21443857332E+04 0.  0.
        1    1    3    3  502    0  0.10086518409E+04 -0.21664963372E+03  0.88435045603E+03  0.13588198295E+04  0.50400001928E-02 0. -1.
       -1    1    3    3    0  502 -0.10086518409E+04  0.21664963372E+03  0.22656553119E+03  0.10562421787E+04  0.50400001928E-02 0.  1.
</event>
<event>
 5   0  0.1404159E-04  0.1983773E+04  0.7818609E-02  0.8614245E-01
       -2   -1    0    0    0  501  0.00000000000E+00  0.00000000000E+00  0.68235532795E+03  0.68235532795E+03  0.25500000920E-02 0.  1.
        2   -1    0    0  501    0  0.00000000000E+00  0.00000000000E+00 -0.14418277189E+04  0.14418277189E+04  0.25500000920E-02 0. -1.
    10030    2    1    2    0    0  0.00000000000E+00  0.00000000000E+00 -0.75947239096E+03  0.21241830469E+04  0.19837729971E+04 0.  0.
        5    1    3    3  502    0 -0.75795241876E+03  0.15641656003E+03  0.28454297293E+03  0.82458765622E+03  0.46999998093E+01 0.  1.
       -5    1    3    3    0  502  0.75795241876E+03 -0.15641656003E+03 -0.10440153639E+04  0.12995953906E+04  0.46999998093E+01 0. -1.
</event>
<event>
 5   0  0.1404159E-04  0.2116475E+04  0.7818609E-02  0.8554020E-01
        2   -1    0    0  501    0  0.00000000000E+00  0.00000000000E+00  0.17235412945E+04  0.17235412945E+04  0.25500000920E-02 0. -1.
       -2   -1    0    0    0  501  0.00000000000E+00  0.00000000000E+00 -0.64974774782E+03  0.64974774783E+03  0.25500000920E-02 0.  1.
    10030    2    1    2    0    0  0.00000000000E+00  0.00000000000E+00  0.10737935467E+04  0.23732890423E+04  0.21164754422E+04 0.  0.
        5    1    3    3  502    0 -0.56574808071E+02 -0.54146652620E+01 -0.64802347478E+03  0.65052789438E+03  0.46999998093E+01 0.  1.
       -5    1    3    3    0  502  0.56574808071E+02  0.54146652620E+01  0.17218170215E+04  0.17227611479E+04  0.46999998093E+01 0. -1.
</event>
<event>
 5   0  0.5895063E-05  0.1615145E+04  0.7818609E-02  0.8811297E-01
       -1   -1    0    0    0  501  0.00000000000E+00  0.00000000000E+00  0.22634185944E+04  0.22634185944E+04  0.50400001928E-02 0.  1.
        1   -1    0    0  501    0  0.00000000000E+00  0.00000000000E+00 -0.28813657747E+03  0.28813657751E+03  0.50400001928E-02 0. -1.
    10030    2    1    2    0    0  0.00000000000E+00  0.00000000000E+00  0.19752820169E+04  0.25515551719E+04  0.16151454265E+04 0.  0.
        5    1    3    3  502    0 -0.68254752998E+02 -0.18117057356E+03 -0.25091137277E+03  0.31695440526E+03  0.46999998093E+01 0. -1.
       -5    1    3    3    0  502  0.68254752998E+02  0.18117057356E+03  0.22261933897E+04  0.22346007666E+04  0.46999998093E+01 0.  1.
</event>
<event>
 5   0  0.5861816E-05  0.2256146E+04  0.7818609E-02  0.8495416E-01
       -1   -1    0    0    0  501  0.00000000000E+00  0.00000000000E+00  0.99354385857E+03  0.99354385859E+03  0.50400001928E-02 0. -1.
        1   -1    0    0  501    0  0.00000000000E+00  0.00000000000E+00 -0.12808178795E+04  0.12808178796E+04  0.50400001928E-02 0.  1.
    10030    2    1    2    0    0  0.00000000000E+00  0.00000000000E+00 -0.28727402097E+03  0.22743617381E+04  0.22561460398E+04 0.  0.
        1    1    3    3  502    0 -0.13010788489E+03 -0.69305874069E+03 -0.10312517310E+04  0.12492952463E+04  0.50400001928E-02 0.  1.
       -1    1    3    3    0  502  0.13010788489E+03  0.69305874069E+03  0.74397770999E+03  0.10250664919E+04  0.50400001928E-02 0. -1.
</event>
<event>
 5   0  0.6263558E-05  0.1361660E+04  0.7818609E-02  0.8982048E-01
        1   -1    0    0  501    0  0.00000000000E+00  0.00000000000E+00  0.70937154903E+03  0.70937154905E+03  0.50400001928E-02 0. -1.
       -1   -1    0    0    0  501  0.00000000000E+00  0.00000000000E+00 -0.65343729711E+03  0.65343729713E+03  0.50400001928E-02 0.  1.
    10030    2    1    2    0    0  0.00000000000E+00  0.00000000000E+00  0.55934251917E+02  0.13628088462E+04  0.13616604976E+04 0.  0.
        3    1    3    3  502    0  0.72826897112E+02  0.30513377511E+03  0.63272785739E+03  0.70622583454E+03  0.10100000352E+00 0. -1.
       -3    1    3    3    0  502 -0.72826897112E+02 -0.30513377511E+03 -0.57679360547E+03  0.65658301164E+03  0.10100000352E+00 0.  1.
</event>
<event>
 5   0  0.6263558E-05  0.2319197E+04  0.7818609E-02  0.8470390E-01
       -1   -1    0    0    0  501  0.00000000000E+00  0.00000000000E+00  0.21038361306E+04  0.21038361306E+04  0.50400001928E-02 0. -1.
        1   -1    0    0  501    0  0.00000000000E+00  0.00000000000E+00 -0.63915074663E+03  0.63915074665E+03  0.50400001928E-02 0.  1.
    10030    2    1    2    0    0  0.00000000000E+00  0.00000000000E+00  0.14646853840E+04  0.27429868773E+04  0.23191967866E+04 0.  0.
        3    1    3    3  502    0  0.77968600341E+03 -0.79931869267E+03  0.36237684585E+03  0.11739410654E+04  0.10100000352E+00 0.  1.
       -3    1    3    3    0  502 -0.77968600341E+03  0.79931869267E+03  0.11023085381E+04  0.15690458119E+04  0.10100000352E+00 0. -1.
</event>
<event>
 5   0  0.1241430E-04  0.2134530E+04  0.7818609E-02  0.8546183E-01
        2   -1    0    0  501    0  0.00000000000E+00  0.00000000000E+00  0.21339477051E+04  0.21339477051E+04  0.25500000920E-02 0.  1.
       -2   -1    0    0    0  501  0.00000000000E+00  0.00000000000E+00 -0.53377813419E+03  0.53377813419E+03  0.25500000920E-02 0. -1.
    10030    2    1    2    0    0  0.00000000000E+00  0.00000000000E+00  0.16001695709E+04  0.26677258393E+04  0.21345300415E+04 0.  0.
        1    1    3    3  502    0  0.20636572543E+03  0.77215482394E+03  0.16840398515E+04  0.18640815718E+04  0.50400001928E-02 0.  1.
       -1    1    3    3    0  502 -0.20636572543E+03 -0.77215482394E+03 -0.83870280567E+02  0.80364426754E+03  0.50400001928E-02 0. -1.
</event>
<event>
 5   0  0.5981239E-05  0.2042343E+04  0.7818609E-02  0.8587076E-01
        1   -1    0    0  501    0  0.00000000000E+00  0.00000000000E+00  0.24702750458E+04  0.24702750458E+04  0.50400001928E-02 0.  1.
       -1   -1    0    0    0  501  0.00000000000E+00  0.00000000000E+00 -0.42213561106E+03  0.42213561109E+03  0.50400001928E-02 0. -1.
    10030    2    1    2    0    0  0.00000000000E+00  0.00000000000E+00  0.20481394348E+04  0.28924106569E+04  0.20423428371E+04 0.  0.
        4    1    3    3  502    0 -0.58184043922E+03 -0.88922153650E+02 -0.15772821978E+03  0.60936462840E+03  0.12699999809E+01 0. -1.
       -4    1    3    3    0  502  0.58184043922E+03  0.88922153650E+02  0.22058676546E+04  0.22830460285E+04  0.12699999809E+01 0.  1.
</event>
<event>
 5   0  0.5861816E-05  0.2164066E+04  0.7818609E-02  0.8533535E-01
        1   -1    0    0  501    0  0.00000000000E+00  0.00000000000E+00  0.10202385619E+04  0.10202385619E+04  0.50400001928E-02 0.  1.
       -1   -1    0    0    0  501  0.00000000000E+00  0.00000000000E+00 -0.11475698292E+04  0.11475698292E+04  0.50400001928E-02 0. -1.
    10030    2    1    2    0    0  0.00000000000E+00  0.00000000000E+00 -0.12733126730E+03  0.21678083911E+04  0.21640656110E+04 0.  0.
        1    1    3    3  502    0  0.70094353724E+03 -0.29956245508E+03  0.70560490389E+03  0.10387193015E+04  0.50400001928E-02 0.  1.
       -1    1    3    3    0  502 -0.70094353724E+03  0.29956245508E+03 -0.83293617119E+03  0.11290890896E+04  0.50400001928E-02 0. -1.
</event>
<event>
 5   0  0.1226021E-04  0.2244432E+04  0.7818609E-02  0.8500159E-01
        2   -1    0    0  501    0  0.00000000000E+00  0.00000000000E+00  0.20087528594E+04  0.20087528594E+04  0.25500000920E-02 0. -1.
       -2   -1    0    0    0  501  0.00000000000E+00  0.00000000000E+00 -0.62694078360E+03  0.62694078360E+03  0.25500000920E-02 0.  1.
    10030    2    1    2    0    0  0.00000000000E+00  0.00000000000E+00  0.13818120758E+04  0.26356936430E+04  0.22444323039E+04 0.  0.
        2    1    3    3  502    0 -0.10401800269E+04 -0.34904233865E+03  0.41409375209E+03  0.11727227627E+04  0.25500000920E-02 0.  1.
       -2    1    3    3    0  502  0.10401800269E+04  0.34904233865E+03  0.96771832373E+03  0.14629708803E+04  0.25500000920E-02 0. -1.
</event>
<event>
 5   0  0.6263558E-05  0.2179663E+04  0.7818609E-02  0.8526941E-01
       -1   -1    0    0    0  501  0.00000000000E+00  0.00000000000E+00  0.87469786152E+03  0.87469786154E+03  0.50400001928E-02 0.  1.
        1   -1    0    0  501    0  0.00000000000E+00  0.00000000000E+00 -0.13578778387E+04  0.13578778387E+04  0.50400001928E-02 0. -1.
    10030    2    1    2    0    0  0.00000000000E+00  0.00000000000E+00 -0.48317997713E+03  0.22325757002E+04  0.21796631315E+04 0.  0.
        3    1    3    3  502    0 -0.47946964024E+03 -0.17000141511E+03 -0.12288031372E+04  0.13299431481E+04  0.10100000352E+00 0. -1.
       -3    1    3    3    0  502  0.47946964024E+03  0.17000141511E+03  0.74562316006E+03  0.90263255208E+03  0.10100000352E+00 0.  1.
</event>
<event>
 5   0  0.1252124E-04  0.1972308E+04  0.7818609E-02  0.8619678E-01
       -2   -1    0    0    0  501  0.00000000000E+00  0.00000000000E+00  0.81806477977E+03  0.81806477977E+03  0.25500000920E-02 0. -1.
        2   -1    0    0  501    0  0.00000000000E+00  0.00000000000E+00 -0.11887812985E+04  0.11887812985E+04  0.25500000920E-02 0.  1.
    10030    2    1    2    0    0  0.00000000000E+00  0.00000000000E+00 -0.37071651877E+03  0.20068460783E+04  0.19723084051E+04 0.  0.
        3    1    3    3  502    0  0.50167272302E+03 -0.25464561221E+03 -0.10094671539E+04  0.11556573255E+04  0.10100000352E+00 0.  1.
       -3    1    3    3    0  502 -0.50167272302E+03  0.25464561221E+03  0.63875063517E+03  0.85118875284E+03  0.10100000352E+00 0. -1.
</event>
<event>
 5   0  0.5861816E-05  0.2200025E+04  0.7818609E-02  0.8518418E-01
       -1   -1    0    0    0  501  0.00000000000E+00  0.00000000000E+00  0.77762300498E+03  0.77762300500E+03  0.50400001928E-02 0.  1.
        1   -1    0    0  501    0  0.00000000000E+00  0.00000000000E+00 -0.15560586112E+04  0.15560586112E+04  0.50400001928E-02 0. -1.
    10030    2    1    2    0    0  0.00000000000E+00  0.00000000000E+00 -0.77843560625E+03  0.23336816162E+04  0.22000245210E+04 0.  0.
        1    1    3    3  502    0 -0.53487659042E+03  0.13213974151E+03  0.62071282398E+03  0.82996282335E+03  0.50400001928E-02 0.  1.
       -1    1    3    3    0  502  0.53487659042E+03 -0.13213974151E+03 -0.13991484302E+04  0.15037187929E+04  0.50400001928E-02 0. -1.
</event>
<event>
 5   0  0.1226021E-04  0.2146729E+04  0.7818609E-02  0.8540934E-01
       -2   -1    0    0    0  501  0.00000000000E+00  0.00000000000E+00  0.10835409269E+04  0.10835409269E+04  0.25500000920E-02 0. -1.
        2   -1    0    0  501    0  0.00000000000E+00  0.00000000000E+00 -0.10632835196E+04  0.10632835196E+04  0.25500000920E-02 0.  1.
    10030    2    1    2    0    0  0.00000000000E+00  0.00000000000E+00  0.20257407248E+02  0.21468244465E+04  0.21467288701E+04 0.  0.
        2    1    3    3  502    0 -0.27005648350E+03  0.10163491372E+04  0.22511533744E+03  0.10754408343E+04  0.25500000920E-02 0. -1.
       -2    1    3    3    0  502  0.27005648350E+03 -0.10163491372E+04 -0.20485793020E+03  0.10713836122E+04  0.25500000920E-02 0.  1.
</event>
<event>
 5   0  0.5849604E-05  0.2188395E+04  0.7818609E-02  0.8523274E-01
        1   -1    0    0  501    0  0.00000000000E+00  0.00000000000E+00  0.11779550874E+04  0.11779550874E+04  0.50400001928E-02 0.  1.
       -1   -1    0    0    0  501  0.00000000000E+00  0.00000000000E+00 -0.10163954828E+04  0.10163954828E+04  0.50400001928E-02 0. -1.
    10030    2    1    2    0    0  0.00000000000E+00  0.00000000000E+00  0.16155960459E+03  0.21943505702E+04  0.21883950555E+04 0.  0.
        2    1    3    3  502    0  0.39485338221E+03 -0.42771617721E+03  0.10098096594E+04  0.11655753386E+04  0.25500000920E-02 0.  1.
       -2    1    3    3    0  502 -0.39485338221E+03  0.42771617721E+03 -0.84825005480E+03  0.10287752316E+04  0.25500000920E-02 0. -1.
</event>
<event>
 5   0  0.1252124E-04  0.2235666E+04  0.7818609E-02  0.8503728E-01
        2   -1    0    0  501    0  0.00000000000E+00  0.00000000000E+00  0.11771199531E+04  0.11771199531E+04  0.25500000920E-02 0. -1.
       -2   -1    0    0    0  501  0.00000000000E+00  0.00000000000E+00 -0.10615325725E+04  0.10615325725E+04  0.25500000920E-02 0.  1.
    10030    2    1    2    0    0  0.00000000000E+00  0.00000000000E+00  0.11558738062E+03  0.22386525257E+04  0.22356664975E+04 0.  0.
        3    1    3    3  502    0 -0.30459319582E+03 -0.64730214808E+03 -0.80229129487E+03  0.10749178656E+04  0.10100000352E+00 0.  1.
       -3    1    3    3    0  502  0.30459319582E+03  0.64730214808E+03  0.91787867549E+03  0.11637346600E+04  0.10100000352E+00 0. -1.
</event>
<event>
 5   0  0.1404159E-04  0.2218113E+04  0.7818609E-02  0.8510927E-01
       -2   -1    0    0    0  501  0.00000000000E+00  0.00000000000E+00  0.65607316595E+03  0.65607316595E+03  0.25500000920E-02 0. -1.
        2   -1    0    0  501    0  0.00000000000E+00  0.00000000000E+00 -0.18748001272E+04  0.18748001272E+04  0.25500000920E-02 0.  1.
    10030    2    1    2    0    0  0.00000000000E+00  0.00000000000E+00 -0.12187269612E+04  0.25308732931E+04  0.22181127608E+04 0.  0.
        5    1    3    3  502    0  0.41624159722E+03 -0.88937330647E+03 -0.21174480849E+02  0.98219773679E+03  0.46999998093E+01 0. -1.
       -5    1    3    3    0  502 -0.41624159722E+03  0.88937330647E+03 -0.11975524804E+04  0.15486755563E+04  0.46999998093E+01 0.  1.
</event>
<event>
 5   0  0.5849604E-05  0.2146496E+04  0.7818609E-02  0.8541034E-01
       -1   -1    0    0    0  501  0.00000000000E+00  0.00000000000E+00  0.73866129081E+03  0.73866129083E+03  0.50400001928E-02 0.  1.
        1   -1    0    0  501    0  0.00000000000E+00  0.00000000000E+00 -0.15593900359E+04  0.15593900359E+04  0.50400001928E-02 0. -1.
    10030    2    1    2    0    0  0.00000000000E+00  0.00000000000E+00 -0.82072874509E+03  0.22980513267E+04  0.21464958018E+04 0.  0.
        2    1    3    3  502    0 -0.82350862476E+03 -0.56170608575E+03 -0.83616536343E+03  0.13010967285E+04  0.25500000920E-02 0.  1.
       -2    1    3    3    0  502  0.82350862476E+03  0.56170608575E+03  0.15436618341E+02  0.99695459827E+03  0.25500000920E-02 0. -1.
</event>
<event>
 5   0  0.1252124E-04  0.2215664E+04  0.7818609E-02  0.8511937E-01
       -2   -1    0    0    0  501  0.00000000000E+00  0.00000000000E+00  0.77829191864E+03  0.77829191864E+03  0.25500000920E-02 0.  1.
        2   -1    0    0  501    0  0.00000000000E+00  0.00000000000E+00 -0.15769043094E+04  0.15769043094E+04  0.25500000920E-02 0. -1.
    10030    2    1    2    0    0  0.00000000000E+00  0.00000000000E+00 -0.79861239076E+03  0.23551962280E+04  0.22156641266E+04 0.  0.
        3    1    3    3  502    0 -0.52860977568E+03 -0.56360749218E+03 -0.12431573999E+04  0.14637356425E+04  0.10100000352E+00 0. -1.
       -3    1    3    3    0  502  0.52860977568E+03  0.56360749218E+03  0.44454500911E+03  0.89146058550E+03  0.10100000352E+00 0.  1.
</event>
<event>
 5   0  0.1241430E-04  0.2241063E+04  0.7818609E-02  0.8501529E-01
        2   -1    0    0  501    0  0.00000000000E+00  0.00000000000E+00  0.10017095981E+04  0.10017095981E+04  0.25500000920E-02 0. -1.
       -2   -1    0    0    0  501  0.00000000000E+00  0.00000000000E+00 -0.12534481389E+04  0.12534481389E+04  0.25500000920E-02 0.  1.
    10030    2    1    2    0    0  0.00000000000E+00  0.00000000000E+00 -0.25173854080E+03  0.22551577369E+04  0.22410631686E+04 0.  0.
        1    1    3    3  502    0  0.13520512122E+03 -0.78189426967E+03 -0.92201638755E+03  0.12164511058E+04  0.50400001928E-02 0.  1.
       -1    1    3    3    0  502 -0.13520512122E+03  0.78189426967E+03  0.67027784676E+03  0.10387066312E+04  0.50400001928E-02 0. -1.
</event>
<event>
 5   0  0.5895063E-05  0.2138635E+04  0.7818609E-02  0.8544413E-01
       -1   -1    0    0    0  501  0.00000000000E+00  0.00000000000E+00  0.10581336265E+04  0.10581336265E+04  0.50400001928E-02 0.  1.
        1   -1    0    0  501    0  0.00000000000E+00  0.00000000000E+00 -0.10806198502E+04  0.10806198502E+04  0.50400001928E-02 0. -1.
    10030    2    1    2    0    0  0.00000000000E+00  0.00000000000E+00 -0.22486223674E+02  0.21387534767E+04  0.21386352667E+04 0.  0.
        5    1    3    3  502    0  0.92858839023E+03  0.53008531343E+03  0.10568759490E+01  0.10692474199E+04  0.46999998093E+01 0. -1.
       -5    1    3    3    0  502 -0.92858839023E+03 -0.53008531343E+03 -0.23543099623E+02  0.10695060568E+04  0.46999998093E+01 0.  1.
</event>
<event>
 5   0  0.1252124E-04  0.2217997E+04  0.7818609E-02  0.8510974E-01
        2   -1    0    0  501    0  0.00000000000E+00  0.00000000000E+00  0.62906398148E+03  0.62906398149E+03  0.25500000920E-02 0.  1.
       -2   -1    0    0    0  501  0.00000000000E+00  0.00000000000E+00 -0.19550921041E+04  0.19550921042E+04  0.25500000920E-02 0. -1.
    10030    2    1    2    0    0  0.00000000000E+00  0.00000000000E+00 -0.13260281227E+04  0.25841560856E+04  0.22179973158E+04 0.  0.
        3    1    3    3  502    0 -0.58159276779E+02 -0.50055234565E+03 -0.18139997441E+04  0.18826922835E+04  0.10100000352E+00 0. -1.
       -3    1    3    3    0  502  0.58159276779E+02  0.50055234565E+03  0.48797162148E+03  0.70146380219E+03  0.10100000352E+00 0.  1.
</event>
<event>
 5   0  0.5981239E-05  0.2216564E+04  0.7818609E-02  0.8511565E-01
        1   -1    0    0  501    0  0.00000000000E+00  0.00000000000E+00  0.20487575978E+04  0.20487575978E+04  0.50400001928E-02 0.  1.
       -1   -1    0    0    0  501  0.00000000000E+00  0.00000000000E+00 -0.59952852282E+03  0.59952852284E+03  0.50400001928E-02 0. -1.
    10030    2    1    2    0    0  0.00000000000E+00  0.00000000000E+00  0.14492290750E+04  0.26482861206E+04  0.22165636614E+04 0.  0.
        4    1    3    3  502    0  0.12523141459E+03  0.99011184191E+03  0.14878615295E+03  0.10090308711E+04  0.12699999809E+01 0.  1.
       -4    1    3    3    0  502 -0.12523141459E+03 -0.99011184191E+03  0.13004429220E+04  0.16392552495E+04  0.12699999809E+01 0. -1.
</event>
<event>
 5   0  0.5861816E-05  0.2199661E+04  0.7818609E-02  0.8518569E-01
        1   -1    0    0  501    0  0.00000000000E+00  0.00000000000E+00  0.14102336444E+04  0.14102336444E+04  0.50400001928E-02 0. -1.
       -1   -1    0    0    0  501  0.00000000000E+00  0.00000000000E+00 -0.85774911129E+03  0.85774911130E+03  0.50400001928E-02 0.  1.
    10030    2    1    2    0    0  0.00000000000E+00  0.00000000000E+00  0.55248453314E+03  0.22679827557E+04  0.21996605695E+04 0.  0.
        1    1    3    3  502    0  0.11343276525E+03 -0.29313928087E+03 -0.81045278087E+03  0.86927057943E+03  0.50400001928E-02 0.  1.
       -1    1    3    3    0  502 -0.11343276525E+03  0.29313928087E+03  0.13629373140E+04  0.13987121763E+04  0.50400001928E-02 0. -1.
</event>
<event>
 5   0  0.6263558E-05  0.2197511E+04  0.7818609E-02  0.8519465E-01
       -1   -1    0    0    0  501  0.00000000000E+00  0.00000000000E+00  0.13180160283E+04  0.13180160283E+04  0.50400001928E-02 0. -1.
        1   -1    0    0  501    0  0.00000000000E+00  0.00000000000E+00 -0.91597026688E+03  0.91597026690E+03  0.50400001928E-02 0.  1.
    10030    2    1    2    0    0  0.00000000000E+00  0.00000000000E+00  0.40204576144E+03  0.22339862952E+04  0.21975108584E+04 0.  0.
        3    1    3    3  502    0  0.58323809493E+03  0.91469296481E+03  0.23674980105E+02  0.10850762232E+04  0.10100000352E+00 0. -1.
       -3    1    3    3    0  502 -0.58323809493E+03 -0.91469296481E+03  0.37837078133E+03  0.11489100720E+04  0.10100000352E+00 0.  1.
</event>
<event>
 5   0  0.1311472E-04  0.2136650E+04  0.7818609E-02  0.8545268E-01
       -2   -1    0    0    0  501  0.00000000000E+00  0.00000000000E+00  0.65757078059E+03  0.65757078059E+03  0.25500000920E-02 0. -1.
        2   -1    0    0  501    0  0.00000000000E+00  0.00000000000E+00 -0.17356581589E+04  0.17356581589E+04  0.25500000920E-02 0.  1.
    10030    2    1    2    0    0  0.00000000000E+00  0.00000000000E+00 -0.10780873783E+04  0.23932289395E+04  0.21366497985E+04 0.  0.
        4    1    3    3  502    0  0.39734939374E+03  0.80682142498E+03  0.10679872043E+03  0.90567926557E+03  0.12699999809E+01 0. -1.
       -4    1    3    3    0  502 -0.39734939374E+03 -0.80682142498E+03 -0.11848860988E+04  0.14875496739E+04  0.12699999809E+01 0.  1.
</event>
<event>
 5   0  0.1311472E-04  0.2152051E+04  0.7818609E-02  0.8538655E-01
        2   -1    0    0  501    0  0.00000000000E+00  0.00000000000E+00  0.13434399045E+04  0.13434399045E+04  0.25500000920E-02 0. -1.
       -2   -1    0    0    0  501  0.00000000000E+00  0.00000000000E+00 -0.86184057142E+03  0.86184057142E+03  0.25500000920E-02 0.  1.
    10030    2    1    2    0    0  0.00000000000E+00  0.00000000000E+00  0.48159933304E+03  0.22052804759E+04  0.21520511285E+04 0.  0.
        4    1    3    3  502    0 -0.85214411733E+03 -0.60391334344E+03 -0.24383813089E+02  0.10447282452E+04  0.12699999809E+01 0.  1.
       -4    1    3    3    0  502  0.85214411733E+03  0.60391334344E+03  0.50598314613E+03  0.11605522307E+04  0.12699999809E+01 0. -1.
</event>
<event>
 5   0  0.4586375E-05  0.2187347E+04  0.7818609E-02  0.8523713E-01
       -4   -1    0    0    0  501  0.00000000000E+00  0.00000000000E+00  0.16481095639E+04  0.16481100532E+04  0.12699999809E+01 0. -1.
        4   -1    0    0  501    0  0.00000000000E+00  0.00000000000E+00 -0.72575282561E+03  0.72575393680E+03  0.12699999809E+01 0.  1.
    10030    2    1    2    0    0  0.00000000000E+00  0.00000000000E+00  0.92235673830E+03  0.23738639900E+04  0.21873473182E+04 0.  0.
        1    1    3    3  502    0 -0.61545283469E+01 -0.34873015863E+03  0.15861343497E+04  0.16240297956E+04  0.50400001928E-02 0. -1.
       -1    1    3    3    0  502  0.61545283469E+01  0.34873015863E+03 -0.66377761136E+03  0.74983419443E+03  0.50400001928E-02 0.  1.
</event>
<event>
 5   0  0.6263558E-05  0.2168340E+04  0.7818609E-02  0.8531723E-01
        1   -1    0    0  501    0  0.00000000000E+00  0.00000000000E+00  0.17541931461E+04  0.17541931461E+04  0.50400001928E-02 0.  1.
       -1   -1    0    0    0  501  0.00000000000E+00  0.00000000000E+00 -0.67006548270E+03  0.67006548272E+03  0.50400001928E-02 0. -1.
    10030    2    1    2    0    0  0.00000000000E+00  0.00000000000E+00  0.10841276634E+04  0.24242586288E+04  0.21683397125E+04 0.  0.
        3    1    3    3  502    0 -0.60132922768E+03  0.62161164660E+03  0.12730047785E+04  0.15390058660E+04  0.10100000352E+00 0.  1.
       -3    1    3    3    0  502  0.60132922768E+03 -0.62161164660E+03 -0.18887711513E+03  0.88525276281E+03  0.10100000352E+00 0. -1.
</event>
<event>
 5   0  0.5895063E-05  0.2198588E+04  0.7818609E-02  0.8519016E-01
       -1   -1    0    0    0  501  0.00000000000E+00  0.00000000000E+00  0.65580015570E+03  0.65580015572E+03  0.50400001928E-02 0.  1.
        1   -1    0    0  501    0  0.00000000000E+00  0.00000000000E+00 -0.18427072843E+04  0.18427072843E+04  0.50400001928E-02 0. -1.
    10030    2    1    2    0    0  0.00000000000E+00  0.00000000000E+00 -0.11869071286E+04  0.24985074401E+04  0.21985883871E+04 0.  0.
        5    1    3    3  502    0  0.63744406308E+03  0.79021432791E+03 -0.10724384262E+04  0.14767937857E+04  0.46999998093E+01 0. -1.
       -5    1    3    3    0  502 -0.63744406308E+03 -0.79021432791E+03 -0.11446870242E+03  0.10217136543E+04  0.46999998093E+01 0.  1.
</event>
<event>
 5   0  0.1226021E-04  0.2241918E+04  0.7818609E-02  0.8501181E-01
        2   -1    0    0  501    0  0.00000000000E+00  0.00000000000E+00  0.13723346900E+04  0.13723346901E+04  0.25500000920E-02 0. -1.
       -2   -1    0    0    0  501  0.00000000000E+00  0.00000000000E+00 -0.91562907538E+03  0.91562907538E+03  0.25500000920E-02 0.  1.
    10030    2    1    2    0    0  0.00000000000E+00  0.00000000000E+00  0.45670561467E+03  0.22879637654E+04  0.22419184136E+04 0.  0.
        2    1    3    3  502    0 -0.38049694159E+03  0.95350512354E+03  0.68770800012E+03  0.12356748102E+04  0.25500000920E-02 0. -1.
       -2    1    3    3    0  502  0.38049694159E+03 -0.95350512354E+03 -0.23100238545E+03  0.10522889552E+04  0.25500000920E-02 0.  1.
</event>
<event>
 5   0  0.1252124E-04  0.2230634E+04  0.7818609E-02  0.8505785E-01
       -2   -1    0    0    0  501  0.00000000000E+00  0.00000000000E+00  0.99894536387E+03  0.99894536387E+03  0.25500000920E-02 0. -1.
        2   -1    0    0  501    0  0.00000000000E+00  0.00000000000E+00 -0.12452454577E+04  0.12452454577E+04  0.25500000920E-02 0.  1.
    10030    2    1    2    0    0  0.00000000000E+00  0.00000000000E+00 -0.24630009384E+03  0.22441908216E+04  0.22306341492E+04 0.  0.
        3    1    3    3  502    0  0.33750800705E+03  0.30879167961E+03 -0.11465184131E+04  0.12344101579E+04  0.10100000352E+00 0.  1.
       -3    1    3    3    0  502 -0.33750800705E+03 -0.30879167961E+03  0.90021831924E+03  0.10097806637E+04  0.10100000352E+00 0. -1.
</event>
<event>
 5   0  0.1241430E-04  0.2162565E+04  0.7818609E-02  0.8534173E-01
        2   -1    0    0  501    0  0.00000000000E+00  0.00000000000E+00  0.18062714310E+04  0.18062714310E+04  0.25500000920E-02 0.  1.
       -2   -1    0    0    0  501  0.00000000000E+00  0.00000000000E+00 -0.64728470356E+03  0.64728470356E+03  0.25500000920E-02 0. -1.
    10030    2    1    2    0    0  0.00000000000E+00  0.00000000000E+00  0.11589867274E+04  0.24535561346E+04  0.21625650212E+04 0.  0.
        1    1    3    3  502    0  0.10494883845E+04 -0.10109240984E+03  0.30737357021E+03  0.10982367943E+04  0.50400001928E-02 0.  1.
       -1    1    3    3    0  502 -0.10494883845E+04  0.10109240984E+03  0.85161315722E+03  0.13553193403E+04  0.50400001928E-02 0. -1.
</event>
<event>
 5   0  0.1226021E-04  0.2194761E+04  0.7818609E-02  0.8520612E-01
        2   -1    0    0  501    0  0.00000000000E+00  0.00000000000E+00  0.53833237787E+03  0.53833237788E+03  0.25500000920E-02 0.  1.
       -2   -1    0    0    0  501  0.00000000000E+00  0.00000000000E+00 -0.22369891038E+04  0.22369891038E+04  0.25500000920E-02 0. -1.
    10030    2    1    2    0    0  0.00000000000E+00  0.00000000000E+00 -0.16986567259E+04  0.27753214817E+04  0.21947607282E+04 0.  0.
        2    1    3    3  502    0 -0.40324012312E+02 -0.16825944219E+03 -0.22196320622E+04  0.22263655938E+04  0.25500000920E-02 0. -1.
       -2    1    3    3    0  502  0.40324012312E+02  0.16825944219E+03  0.52097533624E+03  0.54895588788E+03  0.25500000920E-02 0.  1.
</event>
<event>
 5   0  0.1252124E-04  0.2208266E+04  0.7818609E-02  0.8514995E-01
       -2   -1    0    0    0  501  0.00000000000E+00  0.00000000000E+00  0.17917489386E+04  0.17917489386E+04  0.25500000920E-02 0.  1.
        2   -1    0    0  501    0  0.00000000000E+00  0.00000000000E+00 -0.68040215961E+03  0.68040215962E+03  0.25500000920E-02 0. -1.
    10030    2    1    2    0    0  0.00000000000E+00  0.00000000000E+00  0.11113467790E+04  0.24721510982E+04  0.22082661500E+04 0.  0.
        3    1    3    3  502    0  0.10225498679E+04  0.36478358899E+03  0.33056077154E+03  0.11348769682E+04  0.10100000352E+00 0. -1.
       -3    1    3    3    0  502 -0.10225498679E+04 -0.36478358899E+03  0.78078600744E+03  0.13372741300E+04  0.10100000352E+00 0.  1.
</event>
<event>
 5   0  0.6263558E-05  0.2196675E+04  0.7818609E-02  0.8519813E-01
       -1   -1    0    0    0  501  0.00000000000E+00  0.00000000000E+00  0.58404772342E+03  0.58404772344E+03  0.50400001928E-02 0. -1.
        1   -1    0    0  501    0  0.00000000000E+00  0.00000000000E+00 -0.20654907198E+04  0.20654907198E+04  0.50400001928E-02 0.  1.
    10030    2    1    2    0    0  0.00000000000E+00  0.00000000000E+00 -0.14814429964E+04  0.26495384432E+04  0.21966748987E+04 0.  0.
        3    1    3    3  502    0 -0.49753303814E+03 -0.96280790088E+03 -0.95583394960E+03  0.14450455797E+04  0.10100000352E+00 0. -1.
       -3    1    3    3    0  502  0.49753303814E+03  0.96280790088E+03 -0.52560904676E+03  0.12044928635E+04  0.10100000352E+00 0.  1.
</event>
<event>
 5   0  0.1404159E-04  0.2215064E+04  0.7818609E-02  0.8512184E-01
        2   -1    0    0  501    0  0.00000000000E+00  0.00000000000E+00  0.15614956260E+04  0.15614956260E+04  0.25500000920E-02 0. -1.
       -2   -1    0    0    0  501  0.00000000000E+00  0.00000000000E+00 -0.78554621488E+03  0.78554621488E+03  0.25500000920E-02 0.  1.
    10030    2    1    2    0    0  0.00000000000E+00  0.00000000000E+00  0.77594941111E+03  0.23470418409E+04  0.22150638623E+04 0.  0.
        5    1    3    3  502    0 -0.35549078656E+03  0.15686197681E+03 -0.71094288863E+03  0.81021062693E+03  0.46999998093E+01 0.  1.
       -5    1    3    3    0  502  0.35549078656E+03 -0.15686197681E+03  0.14868922997E+04  0.15368312139E+04  0.46999998093E+01 0. -1.
</event>
<event>
 5   0  0.5895063E-05  0.2180306E+04  0.7818609E-02  0.8526670E-01
        1   -1    0    0  501    0  0.00000000000E+00  0.00000000000E+00  0.11519125282E+04  0.11519125282E+04  0.50400001928E-02 0.  1.
       -1   -1    0    0    0  501  0.00000000000E+00  0.00000000000E+00 -0.10317051479E+04  0.10317051479E+04  0.50400001928E-02 0. -1.
    10030    2    1    2    0    0  0.00000000000E+00  0.00000000000E+00  0.12020738024E+03  0.21836176761E+04  0.21803064787E+04 0.  0.
        5    1    3    3  502    0 -0.71194093731E+03  0.48825740230E+03 -0.60660753589E+03  0.10551066210E+04  0.46999998093E+01 0. -1.
       -5    1    3    3    0  502  0.71194093731E+03 -0.48825740230E+03  0.72681491613E+03  0.11285110551E+04  0.46999998093E+01 0.  1.
</event>
<event>
 5   0  0.6263558E-05  0.2183887E+04  0.7818609E-02  0.8525165E-01
       -1   -1    0    0    0  501  0.00000000000E+00  0.00000000000E+00  0.55450746360E+03  0.55450746363E+03  0.50400001928E-02 0. -1.
        1   -1    0    0  501    0  0.00000000000E+00  0.00000000000E+00 -0.21502689145E+04  0.21502689145E+04  0.50400001928E-02 0.  1.
    10030    2    1    2    0    0  0.00000000000E+00  0.00000000000E+00 -0.15957614508E+04  0.27047763781E+04  0.21838865922E+04 0.  0.
        3    1    3    3  502    0  0.60411641590E+03 -0.70407283892E+03 -0.15111459803E+04  0.17731997605E+04  0.10100000352E+00 0.  1.
       -3    1    3    3    0  502 -0.60411641590E+03  0.70407283892E+03 -0.84615470537E+02  0.93157661763E+03  0.10100000352E+00 0. -1.
</event>
<event>
 5   0  0.1252124E-04  0.2202189E+04  0.7818609E-02  0.8517518E-01
        2   -1    0    0  501    0  0.00000000000E+00  0.00000000000E+00  0.18619597990E+04  0.18619597990E+04  0.25500000920E-02 0.  1.
       -2   -1    0    0    0  501  0.00000000000E+00  0.00000000000E+00 -0.65114647293E+03  0.65114647293E+03  0.25500000920E-02 0. -1.
    10030    2    1    2    0    0  0.00000000000E+00  0.00000000000E+00  0.12108133260E+04  0.25131062719E+04  0.22021885077E+04 0.  0.
        3    1    3    3  502    0 -0.37814343093E+03  0.70587825119E+03  0.14678532496E+04  0.16720794635E+04  0.10100000352E+00 0.  1.
       -3    1    3    3    0  502  0.37814343093E+03 -0.70587825119E+03 -0.25703992356E+03  0.84102680835E+03  0.10100000352E+00 0. -1.
</event>
<event>
 5   0  0.5861816E-05  0.2140798E+04  0.7818609E-02  0.8543481E-01
        1   -1    0    0  501    0  0.00000000000E+00  0.00000000000E+00  0.21081964780E+04  0.21081964780E+04  0.50400001928E-02 0. -1.
       -1   -1    0    0    0  501  0.00000000000E+00  0.00000000000E+00 -0.54347593358E+03  0.54347593361E+03  0.50400001928E-02 0.  1.
    10030    2    1    2    0    0  0.00000000000E+00  0.00000000000E+00  0.15647205444E+04  0.26516724116E+04  0.21407980279E+04 0.  0.
        1    1    3    3  502    0  0.93811398365E+03 -0.51495444561E+03  0.75416605413E+03  0.13091991310E+04  0.50400001928E-02 0.  1.
       -1    1    3    3    0  502 -0.93811398365E+03  0.51495444561E+03  0.81055449024E+03  0.13424732806E+04  0.50400001928E-02 0. -1.
</event>
<event>
 5   0  0.6263558E-05  0.2388774E+04  0.7818609E-02  0.8443718E-01
        1   -1    0    0  501    0  0.00000000000E+00  0.00000000000E+00  0.11598301367E+04  0.11598301367E+04  0.50400001928E-02 0.  1.
       -1   -1    0    0    0  501  0.00000000000E+00  0.00000000000E+00 -0.12299737894E+04  0.12299737894E+04  0.50400001928E-02 0. -1.
    10030    2    1    2    0    0  0.00000000000E+00  0.00000000000E+00 -0.70143652766E+02  0.23898039261E+04  0.23887743035E+04 0.  0.
        3    1    3    3  502    0 -0.77943767362E+03 -0.60516579861E+03 -0.70827488513E+03  0.12146612919E+04  0.10100000352E+00 0. -1.
       -3    1    3    3    0  502  0.77943767362E+03  0.60516579861E+03  0.63813123236E+03  0.11751426342E+04  0.10100000352E+00 0.  1.
</event>
<event>
 5   0  0.5849604E-05  0.2205925E+04  0.7818609E-02  0.8515966E-01
        1   -1    0    0  501    0  0.00000000000E+00  0.00000000000E+00  0.12711560405E+04  0.12711560405E+04  0.50400001928E-02 0.  1.
       -1   -1    0    0    0  501  0.00000000000E+00  0.00000000000E+00 -0.95702368058E+03  0.95702368060E+03  0.50400001928E-02 0. -1.
    10030    2    1    2    0    0  0.00000000000E+00  0.00000000000E+00  0.31413235994E+03  0.22281797211E+04  0.22059251415E+04 0.  0.
        2    1    3    3  502    0  0.16322777940E+02  0.70063115310E+03  0.10173485721E+04  0.12353738555E+04  0.25500000920E-02 0.  1.
       -2    1    3    3    0  502 -0.16322777940E+02 -0.70063115310E+03 -0.70321621214E+03  0.99280586561E+03  0.25500000920E-02 0. -1.
</event>
<event>
 5   0  0.5895063E-05  0.2154895E+04  0.7818609E-02  0.8537440E-01
        1   -1    0    0  501    0  0.00000000000E+00  0.00000000000E+00  0.12934097807E+04  0.12934097807E+04  0.50400001928E-02 0. -1.
       -1   -1    0    0    0  501  0.00000000000E+00  0.00000000000E+00 -0.89754452920E+03  0.89754452921E+03  0.50400001928E-02 0.  1.
    10030    2    1    2    0    0  0.00000000000E+00  0.00000000000E+00  0.39586525147E+03  0.21909543099E+04  0.21548947748E+04 0.  0.
        5    1    3    3  502    0  0.99895052237E+03 -0.39877469620E+03  0.13405310904E+03  0.10839352981E+04  0.46999998093E+01 0. -1.
       -5    1    3    3    0  502 -0.99895052237E+03  0.39877469620E+03  0.26181214243E+03  0.11070190118E+04  0.46999998093E+01 0.  1.
</event>
<event>
 5   0  0.1311472E-04  0.2180050E+04  0.7818609E-02  0.8526778E-01
       -2   -1    0    0    0  501  0.00000000000E+00  0.00000000000E+00  0.13605414526E+04  0.13605414526E+04  0.25500000920E-02 0. -1.
        2   -1    0    0  501    0  0.00000000000E+00  0.00000000000E+00 -0.87329526645E+03  0.87329526645E+03  0.25500000920E-02 0.  1.
    10030    2    1    2    0    0  0.00000000000E+00  0.00000000000E+00  0.48724618616E+03  0.22338367191E+04  0.21800499172E+04 0.  0.
        4    1    3    3  502    0  0.83417582568E+03 -0.69217619849E+03  0.36132935063E+03  0.11425925391E+04  0.12699999809E+01 0. -1.
       -4    1    3    3    0  502 -0.83417582568E+03  0.69217619849E+03  0.12591683552E+03  0.10912441799E+04  0.12699999809E+01 0.  1.
</event>
<event>
 5   0  0.1241430E-04  0.2213423E+04  0.7818609E-02  0.8512862E-01
        2   -1    0    0  501    0  0.00000000000E+00  0.00000000000E+00  0.13863796123E+04  0.13863796123E+04  0.25500000920E-02 0. -1.
       -2   -1    0    0    0  501  0.00000000000E+00  0.00000000000E+00 -0.88345922016E+03  0.88345922017E+03  0.25500000920E-02 0.  1.
    10030    2    1    2    0    0  0.00000000000E+00  0.00000000000E+00  0.50292039215E+03  0.22698388325E+04  0.22134225545E+04 0.  0.
        1    1    3    3  502    0  0.99060872379E+03 -0.48692823667E+03  0.33353193619E+03  0.11531037697E+04  0.50400001928E-02 0.  1.
       -1    1    3    3    0  502 -0.99060872379E+03  0.48692823667E+03  0.16938845596E+03  0.11167350627E+04  0.50400001928E-02 0. -1.
</event>
<event>
 5   0  0.5981239E-05  0.1949185E+04  0.7818609E-02  0.8630754E-01
        1   -1    0    0  501    0  0.00000000000E+00  0.00000000000E+00  0.12576940563E+04  0.12576940563E+04  0.50400001928E-02 0.  1.
       -1   -1    0    0    0  501  0.00000000000E+00  0.00000000000E+00 -0.75521608484E+03  0.75521608485E+03  0.50400001928E-02 0. -1.
    10030    2    1    2    0    0  0.00000000000E+00  0.00000000000E+00  0.50247797144E+03  0.20129101411E+04  0.19491852463E+04 0.  0.
        4    1    3    3  502    0 -0.39709447451E+03 -0.14681946213E+03 -0.65529215870E+03  0.78015985689E+03  0.12699999809E+01 0. -1.
       -4    1    3    3    0  502  0.39709447451E+03  0.14681946213E+03  0.11577701301E+04  0.12327502842E+04  0.12699999809E+01 0.  1.
</event>
<event>
 5   0  0.1226021E-04  0.2197447E+04  0.7818609E-02  0.8519491E-01
        2   -1    0    0  501    0  0.00000000000E+00  0.00000000000E+00  0.17677158459E+04  0.17677158459E+04  0.25500000920E-02 0. -1.
       -2   -1    0    0    0  501  0.00000000000E+00  0.00000000000E+00 -0.68291160598E+03  0.68291160599E+03  0.25500000920E-02 0.  1.
    10030    2    1    2    0    0  0.00000000000E+00  0.00000000000E+00  0.10848042399E+04  0.24506274519E+04  0.21974473075E+04 0.  0.
        2    1    3    3  502    0 -0.73437165989E+03 -0.65230002148E+03 -0.66607793860E+01  0.98226341622E+03  0.25500000920E-02 0.  1.
       -2    1    3    3    0  502  0.73437165989E+03  0.65230002148E+03  0.10914650193E+04  0.14683640357E+04  0.25500000920E-02 0. -1.
</event>
<event>
 5   0  0.5895063E-05  0.2128382E+04  0.7818609E-02  0.8548843E-01
        1   -1    0    0  501    0  0.00000000000E+00  0.00000000000E+00  0.80875524428E+03  0.80875524429E+03  0.50400001928E-02 0.  1.
       -1   -1    0    0    0  501  0.00000000000E+00  0.00000000000E+00 -0.14003033564E+04  0.14003033564E+04  0.50400001928E-02 0. -1.
    10030    2    1    2    0    0  0.00000000000E+00  0.00000000000E+00 -0.59154811208E+03  0.22090586007E+04  0.21283821866E+04 0.  0.
        5    1    3    3  502    0 -0.66751586650E+03 -0.21585701892E+03  0.53475033859E+03  0.88212907177E+03  0.46999998093E+01 0.  1.
       -5    1    3    3    0  502  0.66751586650E+03  0.21585701892E+03 -0.11262984507E+04  0.13269295289E+04  0.46999998093E+01 0. -1.
</event>
<event>
 5   0  0.1226021E-04  0.2094521E+04  0.7818609E-02  0.8563661E-01
       -2   -1    0    0    0  501  0.00000000000E+00  0.00000000000E+00  0.50379849197E+03  0.50379849198E+03  0.25500000920E-02 0.  1.
        2   -1    0    0  501    0  0.00000000000E+00  0.00000000000E+00 -0.21769700974E+04  0.21769700974E+04  0.25500000920E-02 0. -1.
    10030    2    1    2    0    0  0.00000000000E+00  0.00000000000E+00 -0.16731716054E+04  0.26807685894E+04  0.20945207109E+04 0.  0.
        2    1    3    3  502    0  0.75576456030E+01 -0.26398334897E+03 -0.21336515406E+04  0.21499333067E+04  0.25500000920E-02 0. -1.
       -2    1    3    3    0  502 -0.75576456030E+01  0.26398334897E+03  0.46047993522E+03  0.53083528263E+03  0.25500000920E-02 0.  1.
</event>
<event>
 5   0  0.5981239E-05  0.1594571E+04  0.7818609E-02  0.8823890E-01
       -1   -1    0    0    0  501  0.00000000000E+00  0.00000000000E+00  0.70518812321E+03  0.70518812323E+03  0.50400001928E-02 0. -1.
        1   -1    0    0  501    0  0.00000000000E+00  0.00000000000E+00 -0.90141023789E+03  0.90141023790E+03  0.50400001928E-02 0.  1.
    10030    2    1    2    0    0  0.00000000000E+00  0.00000000000E+00 -0.19622211468E+03  0.16065983611E+04  0.15945705302E+04 0.  0.
        4    1    3    3  502    0  0.42774827641E+03  0.10390086119E+03  0.57165742124E+03  0.72149691412E+03  0.12699999809E+01 0. -1.
       -4    1    3    3    0  502 -0.42774827641E+03 -0.10390086119E+03 -0.76787953591E+03  0.88510144701E+03  0.12699999809E+01 0.  1.
</event>
<event>
 5   0  0.5849604E-05  0.2209790E+04  0.7818609E-02  0.8514364E-01
       -1   -1    0    0    0  501  0.00000000000E+00  0.00000000000E+00  0.12093628929E+04  0.12093628929E+04  0.50400001928E-02 0.  1.
        1   -1    0    0  501    0  0.00000000000E+00  0.00000000000E+00 -0.10094515511E+04  0.10094515511E+04  0.50400001928E-02 0. -1.
    10030    2    1    2    0    0  0.00000000000E+00  0.00000000000E+00  0.19991134174E+03  0.22188144440E+04  0.22097902598E+04 0.  0.
        2    1    3    3  502    0 -0.52317784265E+03  0.71668477656E+03  0.76100670112E+03  0.11689667759E+04  0.25500000920E-02 0.  1.
       -2    1    3    3    0  502  0.52317784265E+03 -0.71668477656E+03 -0.56109535937E+03  0.10498476681E+04  0.25500000920E-02 0. -1.
</event>
<event>
 5   0  0.5849604E-05  0.2199815E+04  0.7818609E-02  0.8518505E-01
        1   -1    0    0  501    0  0.00000000000E+00  0.00000000000E+00  0.22166056448E+04  0.22166056448E+04  0.50400001928E-02 0.  1.
       -1   -1    0    0    0  501  0.00000000000E+00  0.00000000000E+00 -0.54578805822E+03  0.54578805824E+03  0.50400001928E-02 0. -1.
    10030    2    1    2    0    0  0.00000000000E+00  0.00000000000E+00  0.16708175866E+04  0.27623937031E+04  0.21998153475E+04 0.  0.
        2    1    3    3  502    0  0.22025188975E+03  0.32831347431E+03 -0.45348118374E+03  0.60161932845E+03  0.25500000920E-02 0. -1.
       -2    1    3    3    0  502 -0.22025188975E+03 -0.32831347431E+03  0.21242987704E+04  0.21607743746E+04  0.25500000920E-02 0.  1.
</event>
<event>
 5   0  0.1226021E-04  0.2169979E+04  0.7818609E-02  0.8531029E-01
       -2   -1    0    0    0  501  0.00000000000E+00  0.00000000000E+00  0.11248157674E+04  0.11248157674E+04  0.25500000920E-02 0. -1.
        2   -1    0    0  501    0  0.00000000000E+00  0.00000000000E+00 -0.10465728876E+04  0.10465728876E+04  0.25500000920E-02 0.  1.
    10030    2    1    2    0    0  0.00000000000E+00  0.00000000000E+00  0.78242879759E+02  0.21713886549E+04  0.21699785120E+04 0.  0.
        2    1    3    3  502    0 -0.42929193796E+03 -0.65426918565E+03 -0.71292663358E+03  0.10585953524E+04  0.25500000920E-02 0.  1.
       -2    1    3    3    0  502  0.42929193796E+03  0.65426918565E+03  0.79116951334E+03  0.11127933025E+04  0.25500000920E-02 0. -1.
</event>
<event>
 5   0  0.5895063E-05  0.2169376E+04  0.7818609E-02  0.8531283E-01
        1   -1    0    0  501    0  0.00000000000E+00  0.00000000000E+00  0.16076275509E+04  0.16076275509E+04  0.50400001928E-02 0. -1.
       -1   -1    0    0    0  501  0.00000000000E+00  0.00000000000E+00 -0.73185393971E+03  0.73185393973E+03  0.50400001928E-02 0.  1.
    10030    2    1    2    0    0  0.00000000000E+00  0.00000000000E+00  0.87577361115E+03  0.23394814906E+04  0.21693764604E+04 0.  0.
        5    1    3    3  502    0 -0.48660210694E+02  0.82258994262E+03  0.11985338275E+04  0.14544852889E+04  0.46999998093E+01 0. -1.
       -5    1    3    3    0  502  0.48660210694E+02 -0.82258994262E+03 -0.32276021638E+03  0.88499620173E+03  0.46999998093E+01 0.  1.
</event>
<event>
 5   0  0.1404159E-04  0.2176177E+04  0.7818609E-02  0.8528410E-01
        2   -1    0    0  501    0  0.00000000000E+00  0.00000000000E+00  0.25300872879E+04  0.25300872879E+04  0.25500000920E-02 0.  1.
       -2   -1    0    0    0  501  0.00000000000E+00  0.00000000000E+00 -0.46794292154E+03  0.46794292155E+03  0.25500000920E-02 0. -1.
    10030    2    1    2    0    0  0.00000000000E+00  0.00000000000E+00  0.20621443663E+04  0.29980302094E+04  0.21761768653E+04 0.  0.
        5    1    3    3  502    0  0.98056575994E+02  0.10185940959E+04  0.52158904713E+03  0.11485757478E+04  0.46999998093E+01 0. -1.
       -5    1    3    3    0  502 -0.98056575994E+02 -0.10185940959E+04  0.15405553192E+04  0.18494544617E+04  0.46999998093E+01 0.  1.
</event>
<event>
 5   0  0.1404159E-04  0.2191080E+04  0.7818609E-02  0.8522150E-01
        2   -1    0    0  501    0  0.00000000000E+00  0.00000000000E+00  0.94917739057E+03  0.94917739057E+03  0.25500000920E-02 0.  1.
       -2   -1    0    0    0  501  0.00000000000E+00  0.00000000000E+00 -0.12644716403E+04  0.12644716403E+04  0.25500000920E-02 0. -1.
    10030    2    1    2    0    0  0.00000000000E+00  0.00000000000E+00 -0.31529424973E+03  0.22136490309E+04  0.21910800004E+04 0.  0.
        5    1    3    3  502    0  0.35959879842E+03 -0.46295620211E+03  0.77738362168E+03  0.97364630444E+03  0.46999998093E+01 0.  1.
       -5    1    3    3    0  502 -0.35959879842E+03  0.46295620211E+03 -0.10926778714E+04  0.12400027264E+04  0.46999998093E+01 0. -1.
</event>
<event>
 5   0  0.1311472E-04  0.2288653E+04  0.7818609E-02  0.8482409E-01
       -2   -1    0    0    0  501  0.00000000000E+00  0.00000000000E+00  0.52415858299E+03  0.52415858300E+03  0.25500000920E-02 0.  1.
        2   -1    0    0  501    0  0.00000000000E+00  0.00000000000E+00 -0.24982570096E+04  0.24982570096E+04  0.25500000920E-02 0. -1.
    10030    2    1    2    0    0  0.00000000000E+00  0.00000000000E+00 -0.19740984266E+04  0.30224155926E+04  0.22886527514E+04 0.  0.
        4    1    3    3  502    0 -0.15352938646E+03 -0.87182658982E+03 -0.29422433370E+02  0.88573143091E+03  0.12699999809E+01 0.  1.
       -4    1    3    3    0  502  0.15352938646E+03  0.87182658982E+03 -0.19446759932E+04  0.21366841617E+04  0.12699999809E+01 0. -1.
</event>
<event>
 5   0  0.5981239E-05  0.2009399E+04  0.7818609E-02  0.8602239E-01
       -1   -1    0    0    0  501  0.00000000000E+00  0.00000000000E+00  0.72883679270E+03  0.72883679272E+03  0.50400001928E-02 0.  1.
        1   -1    0    0  501    0  0.00000000000E+00  0.00000000000E+00 -0.13849760254E+04  0.13849760254E+04  0.50400001928E-02 0. -1.
    10030    2    1    2    0    0  0.00000000000E+00  0.00000000000E+00 -0.65613923274E+03  0.21138128182E+04  0.20093993972E+04 0.  0.
        4    1    3    3  502    0  0.92652561717E+03  0.38376887305E+03 -0.39198535758E+03  0.10767462100E+04  0.12699999809E+01 0.  1.
       -4    1    3    3    0  502 -0.92652561717E+03 -0.38376887305E+03 -0.26415387515E+03  0.10370666082E+04  0.12699999809E+01 0. -1.
</event>
<event>
 5   0  0.5849604E-05  0.2234917E+04  0.7818609E-02  0.8504034E-01
       -1   -1    0    0    0  501  0.00000000000E+00  0.00000000000E+00  0.12553237822E+04  0.12553237823E+04  0.50400001928E-02 0. -1.
        1   -1    0    0  501    0  0.00000000000E+00  0.00000000000E+00 -0.99473395876E+03  0.99473395877E+03  0.50400001928E-02 0.  1.
    10030    2    1    2    0    0  0.00000000000E+00  0.00000000000E+00  0.26058982349E+03  0.22500577410E+04  0.22349167282E+04 0.  0.
        2    1    3    3  502    0 -0.70761925122E+03 -0.61731466469E+03 -0.47954039150E+03  0.10544009612E+04  0.25500000920E-02 0.  1.
       -2    1    3    3    0  502  0.70761925122E+03  0.61731466469E+03  0.74013021499E+03  0.11956567798E+04  0.25500000920E-02 0. -1.
</event>
<event>
 5   0  0.1226021E-04  0.1984867E+04  0.7818609E-02  0.8613729E-01
        2   -1    0    0  501    0  0.00000000000E+00  0.00000000000E+00  0.16431139629E+04  0.16431139629E+04  0.25500000920E-02 0.  1.
       -2   -1    0    0    0  501  0.00000000000E+00  0.00000000000E+00 -0.59942514831E+03  0.59942514832E+03  0.25500000920E-02 0. -1.
    10030    2    1    2    0    0  0.00000000000E+00  0.00000000000E+00  0.10436888145E+04  0.22425391112E+04  0.19848665757E+04 0.  0.
        2    1    3    3  502    0 -0.70814112271E+03 -0.65107172800E+03  0.79758862726E+03  0.12496022819E+04  0.25500000920E-02 0. -1.
       -2    1    3    3    0  502  0.70814112271E+03  0.65107172800E+03  0.24610018728E+03  0.99293682924E+03  0.25500000920E-02 0.  1.
</event>
<event>
 5   0  0.5849604E-05  0.2188003E+04  0.7818609E-02  0.8523438E-01
       -1   -1    0    0    0  501  0.00000000000E+00  0.00000000000E+00  0.82186268540E+03  0.82186268541E+03  0.50400001928E-02 0. -1.
        1   -1    0    0  501    0  0.00000000000E+00  0.00000000000E+00 -0.14562515471E+04  0.14562515471E+04  0.50400001928E-02 0.  1.
    10030    2    1    2    0    0  0.00000000000E+00  0.00000000000E+00 -0.63438886171E+03  0.22781142325E+04  0.21880025659E+04 0.  0.
        2    1    3    3  502    0 -0.97932369909E+03 -0.34313673644E+03  0.43514117678E+02  0.10386102281E+04  0.25500000920E-02 0. -1.
       -2    1    3    3    0  502  0.97932369909E+03  0.34313673644E+03 -0.67790297939E+03  0.12395040044E+04  0.25500000920E-02 0.  1.
</event>
<event>
 5   0  0.1252124E-04  0.2249723E+04  0.7818609E-02  0.8498013E-01
       -2   -1    0    0    0  501  0.00000000000E+00  0.00000000000E+00  0.55232903207E+03  0.55232903207E+03  0.25500000920E-02 0. -1.
        2   -1    0    0  501    0  0.00000000000E+00  0.00000000000E+00 -0.22908684083E+04  0.22908684083E+04  0.25500000920E-02 0.  1.
    10030    2    1    2    0    0  0.00000000000E+00  0.00000000000E+00 -0.17385393762E+04  0.28431974403E+04  0.22497227656E+04 0.  0.
        3    1    3    3  502    0 -0.51591396664E+03 -0.99439103930E+03 -0.99773260764E+03  0.15001503680E+04  0.10100000352E+00 0. -1.
       -3    1    3    3    0  502  0.51591396664E+03  0.99439103930E+03 -0.74080676857E+03  0.13430470724E+04  0.10100000352E+00 0.  1.
</event>
<event>
 5   0  0.1404159E-04  0.1850349E+04  0.7818609E-02  0.8679974E-01
       -2   -1    0    0    0  501  0.00000000000E+00  0.00000000000E+00  0.99197660287E+03  0.99197660287E+03  0.25500000920E-02 0.  1.
        2   -1    0    0  501    0  0.00000000000E+00  0.00000000000E+00 -0.86287064129E+03  0.86287064129E+03  0.25500000920E-02 0. -1.
    10030    2    1    2    0    0  0.00000000000E+00  0.00000000000E+00  0.12910596158E+03  0.18548472442E+04  0.18503486023E+04 0.  0.
        5    1    3    3  502    0 -0.61261274030E+03 -0.69267567336E+03  0.35648185396E+02  0.92541171441E+03  0.46999998093E+01 0. -1.
       -5    1    3    3    0  502  0.61261274030E+03  0.69267567336E+03  0.93457776189E+02  0.92943552976E+03  0.46999998093E+01 0.  1.
</event>
<event>
 5   0  0.5895063E-05  0.2189338E+04  0.7818609E-02  0.8522879E-01
       -1   -1    0    0    0  501  0.00000000000E+00  0.00000000000E+00  0.47447882217E+03  0.47447882220E+03  0.50400001928E-02 0.  1.
        1   -1    0    0  501    0  0.00000000000E+00  0.00000000000E+00 -0.25255084196E+04  0.25255084196E+04  0.50400001928E-02 0. -1.
    10030    2    1    2    0    0  0.00000000000E+00  0.00000000000E+00 -0.20510295974E+04  0.29999872418E+04  0.21893380373E+04 0.  0.
        5    1    3    3  502    0 -0.91444233255E+03 -0.71908167636E+02 -0.20689650627E+03  0.94032112517E+03  0.46999998093E+01 0.  1.
       -5    1    3    3    0  502  0.91444233255E+03  0.71908167636E+02 -0.18441330911E+04  0.20596661166E+04  0.46999998093E+01 0. -1.
</event>
<event>
 5   0  0.6263558E-05  0.2203292E+04  0.7818609E-02  0.8517059E-01
       -1   -1    0    0    0  501  0.00000000000E+00  0.00000000000E+00  0.98025494718E+03  0.98025494719E+03  0.50400001928E-02 0.  1.
        1   -1    0    0  501    0  0.00000000000E+00  0.00000000000E+00 -0.12380692177E+04  0.12380692177E+04  0.50400001928E-02 0. -1.
    10030    2    1    2    0    0  0.00000000000E+00  0.00000000000E+00 -0.25781427050E+03  0.22183241649E+04  0.22032916063E+04 0.  0.
        3    1    3    3  502    0  0.44478167214E+03 -0.39557123118E+02  0.88505285928E+03  0.99131936115E+03  0.10100000352E+00 0.  1.
       -3    1    3    3    0  502 -0.44478167214E+03  0.39557123118E+02 -0.11428671298E+04  0.12270048037E+04  0.10100000352E+00 0. -1.
</event>
<event>
 5   0  0.1252124E-04  0.2084040E+04  0.7818609E-02  0.8568307E-01
        2   -1    0    0  501    0  0.00000000000E+00  0.00000000000E+00  0.11598333831E+04  0.11598333831E+04  0.25500000920E-02 0. -1.
       -2   -1    0    0    0  501  0.00000000000E+00  0.00000000000E+00 -0.93617408900E+03  0.93617408900E+03  0.25500000920E-02 0.  1.
    10030    2    1    2    0    0  0.00000000000E+00  0.00000000000E+00  0.22365929412E+03  0.20960074721E+04  0.20840402691E+04 0.  0.
        3    1    3    3  502    0  0.58576756006E+03  0.80677449531E+03 -0.19289073784E+03  0.10154878471E+04  0.10100000352E+00 0.  1.
       -3    1    3    3    0  502 -0.58576756006E+03 -0.80677449531E+03  0.41655003196E+03  0.10805196250E+04  0.10100000352E+00 0. -1.
</event>
<event>
 5   0  0.1241430E-04  0.2060635E+04  0.7818609E-02  0.8578785E-01
        2   -1    0    0  501    0  0.00000000000E+00  0.00000000000E+00  0.22020307804E+04  0.22020307804E+04  0.25500000920E-02 0. -1.
       -2   -1    0    0    0  501  0.00000000000E+00  0.00000000000E+00 -0.48207977356E+03  0.48207977357E+03  0.25500000920E-02 0.  1.
    10030    2    1    2    0    0  0.00000000000E+00  0.00000000000E+00  0.17199510069E+04  0.26841105540E+04  0.20606353389E+04 0.  0.
        1    1    3    3  502    0 -0.85492027439E+02  0.65421352687E+03  0.18907726812E+04  0.20025797257E+04  0.50400001928E-02 0. -1.
       -1    1    3    3    0  502  0.85492027439E+02 -0.65421352687E+03 -0.17082167438E+03  0.68153082833E+03  0.50400001928E-02 0.  1.
</event>
<event>
 5   0  0.1241430E-04  0.2192271E+04  0.7818609E-02  0.8521652E-01
        2   -1    0    0  501    0  0.00000000000E+00  0.00000000000E+00  0.17908655673E+04  0.17908655673E+04  0.25500000920E-02 0. -1.
       -2   -1    0    0    0  501  0.00000000000E+00  0.00000000000E+00 -0.67091203242E+03  0.67091203242E+03  0.25500000920E-02 0.  1.
    10030    2    1    2    0    0  0.00000000000E+00  0.00000000000E+00  0.11199535349E+04  0.24617775997E+04  0.21922712036E+04 0.  0.
        1    1    3    3  502    0 -0.25488693082E+03  0.54707996187E+02  0.17555479574E+04  0.17747982824E+04  0.50400001928E-02 0. -1.
       -1    1    3    3    0  502  0.25488693082E+03 -0.54707996187E+02 -0.63559442258E+03  0.68697931729E+03  0.50400001928E-02 0.  1.
</event>
<event>
 5   0  0.1226021E-04  0.2170966E+04  0.7818609E-02  0.8530611E-01
       -2   -1    0    0    0  501  0.00000000000E+00  0.00000000000E+00  0.56265110293E+03  0.56265110294E+03  0.25500000920E-02 0.  1.
        2   -1    0    0  501    0  0.00000000000E+00  0.00000000000E+00 -0.20941465211E+04  0.20941465211E+04  0.25500000920E-02 0. -1.
    10030    2    1    2    0    0  0.00000000000E+00  0.00000000000E+00 -0.15314954182E+04  0.26567976241E+04  0.21709664666E+04 0.  0.
        2    1    3    3  502    0 -0.54138758182E+02 -0.88217905525E+03  0.54343555163E+01  0.88385543099E+03  0.25500000920E-02 0.  1.
       -2    1    3    3    0  502  0.54138758182E+02  0.88217905525E+03 -0.15369297737E+04  0.17729421931E+04  0.25500000920E-02 0. -1.
</event>
<event>
 5   0  0.5861816E-05  0.2199956E+04  0.7818609E-02  0.8518446E-01
       -1   -1    0    0    0  501  0.00000000000E+00  0.00000000000E+00  0.12134970518E+04  0.12134970519E+04  0.50400001928E-02 0.  1.
        1   -1    0    0  501    0  0.00000000000E+00  0.00000000000E+00 -0.99707816285E+03  0.99707816286E+03  0.50400001928E-02 0. -1.
    10030    2    1    2    0    0  0.00000000000E+00  0.00000000000E+00  0.21641888900E+03  0.22105752147E+04  0.21999558278E+04 0.  0.
        1    1    3    3  502    0 -0.27225431958E+03  0.10162230887E+04 -0.21446309696E+03  0.10736974436E+04  0.50400001928E-02 0. -1.
       -1    1    3    3    0  502  0.27225431958E+03 -0.10162230887E+04  0.43088198595E+03  0.11368777711E+04  0.50400001928E-02 0.  1.
</event>
<event>
 5   0  0.1241430E-04  0.2155870E+04  0.7818609E-02  0.8537024E-01
        2   -1    0    0  501    0  0.00000000000E+00  0.00000000000E+00  0.93522700987E+03  0.93522700987E+03  0.25500000920E-02 0. -1.
       -2   -1    0    0    0  501  0.00000000000E+00  0.00000000000E+00 -0.12424192465E+04  0.12424192465E+04  0.25500000920E-02 0.  1.
    10030    2    1    2    0    0  0.00000000000E+00  0.00000000000E+00 -0.30719223662E+03  0.21776462564E+04  0.21558701602E+04 0.  0.
        1    1    3    3  502    0 -0.47230510737E+03  0.91036089292E+03 -0.48878369081E+03  0.11361067583E+04  0.50400001928E-02 0.  1.
       -1    1    3    3    0  502  0.47230510737E+03 -0.91036089292E+03  0.18159145418E+03  0.10415394981E+04  0.50400001928E-02 0. -1.
</event>
<event>
 5   0  0.1311472E-04  0.2181018E+04  0.7818609E-02  0.8526371E-01
        2   -1    0    0  501    0  0.00000000000E+00  0.00000000000E+00  0.12991860057E+04  0.12991860057E+04  0.25500000920E-02 0. -1.
       -2   -1    0    0    0  501  0.00000000000E+00  0.00000000000E+00 -0.91534957302E+03  0.91534957302E+03  0.25500000920E-02 0.  1.
    10030    2    1    2    0    0  0.00000000000E+00  0.00000000000E+00  0.38383643272E+03  0.22145355788E+04  0.21810175200E+04 0.  0.
        4    1    3    3  502    0  0.10833478508E+04 -0.93670210579E+02  0.10824382504E+03  0.10927648479E+04  0.12699999809E+01 0.  1.
       -4    1    3    3    0  502 -0.10833478508E+04  0.93670210579E+02  0.27559260768E+03  0.11217707308E+04  0.12699999809E+01 0. -1.
</event>
<event>
 5   0  0.1252124E-04  0.1913434E+04  0.7818609E-02  0.8648198E-01
        2   -1    0    0  501    0  0.00000000000E+00  0.00000000000E+00  0.89140792192E+03  0.89140792192E+03  0.25500000920E-02 0.  1.
       -2   -1    0    0    0  501  0.00000000000E+00  0.00000000000E+00 -0.10268111275E+04  0.10268111275E+04  0.25500000920E-02 0. -1.
    10030    2    1    2    0    0  0.00000000000E+00  0.00000000000E+00 -0.13540320561E+03  0.19182190495E+04  0.19134341623E+04 0.  0.
        3    1    3    3  502    0  0.32950871173E+03 -0.84530862027E+03  0.23667733051E+03  0.93762403104E+03  0.10100000352E+00 0.  1.
       -3    1    3    3    0  502 -0.32950871173E+03  0.84530862027E+03 -0.37208053612E+03  0.98059501843E+03  0.10100000352E+00 0. -1.
</event>
<event>
 5   0  0.5895063E-05  0.2179995E+04  0.7818609E-02  0.8526801E-01
       -1   -1    0    0    0  501  0.00000000000E+00  0.00000000000E+00  0.82706122285E+03  0.82706122287E+03  0.50400001928E-02 0.  1.
        1   -1    0    0  501    0  0.00000000000E+00  0.00000000000E+00 -0.14365250290E+04  0.14365250290E+04  0.50400001928E-02 0. -1.
    10030    2    1    2    0    0  0.00000000000E+00  0.00000000000E+00 -0.60946380616E+03  0.22635862519E+04  0.21799946304E+04 0.  0.
        5    1    3    3  502    0 -0.24920931601E+03  0.34591161823E+03 -0.13463486015E+04  0.14122452965E+04  0.46999998093E+01 0. -1.
       -5    1    3    3    0  502  0.24920931601E+03 -0.34591161823E+03  0.73688479529E+03  0.85134095540E+03  0.46999998093E+01 0.  1.
</event>
<event>
 5   0  0.4586375E-05  0.2205335E+04  0.7818609E-02  0.8516211E-01
       -4   -1    0    0    0  501  0.00000000000E+00  0.00000000000E+00  0.11108449634E+04  0.11108456894E+04  0.12699999809E+01 0.  1.
        4   -1    0    0  501    0  0.00000000000E+00  0.00000000000E+00 -0.10945489870E+04  0.10945497238E+04  0.12699999809E+01 0. -1.
    10030    2    1    2    0    0  0.00000000000E+00  0.00000000000E+00  0.16295976399E+02  0.22053954132E+04  0.22053352058E+04 0.  0.
        5    1    3    3  502    0  0.49223947179E+03 -0.91250574653E+03  0.38350782915E+03  0.11054712932E+04  0.46999998093E+01 0.  1.
       -5    1    3    3    0  502 -0.49223947179E+03  0.91250574653E+03 -0.36721185275E+03  0.10999241200E+04  0.46999998093E+01 0. -1.
</event>
<event>
 5   0  0.1241430E-04  0.2173649E+04  0.7818609E-02  0.8529477E-01
        2   -1    0    0  501    0  0.00000000000E+00  0.00000000000E+00  0.21602272077E+04  0.21602272077E+04  0.25500000920E-02 0. -1.
       -2   -1    0    0    0  501  0.00000000000E+00  0.00000000000E+00 -0.54678848683E+03  0.54678848683E+03  0.25500000920E-02 0.  1.
    10030    2    1    2    0    0  0.00000000000E+00  0.00000000000E+00  0.16134387209E+04  0.27070156945E+04  0.21736488825E+04 0.  0.
        1    1    3    3  502    0  0.74769771679E+03 -0.33423329118E+03 -0.83028092676E+02  0.82319950973E+03  0.50400001928E-02 0.  1.
       -1    1    3    3    0  502 -0.74769771679E+03  0.33423329118E+03  0.16964668135E+04  0.18838161848E+04  0.50400001928E-02 0. -1.
</event>
<event>
 5   0  0.1311472E-04  0.2230694E+04  0.7818609E-02  0.8505760E-01
        2   -1    0    0  501    0  0.00000000000E+00  0.00000000000E+00  0.19970253073E+04  0.19970253073E+04  0.25500000920E-02 0.  1.
       -2   -1    0    0    0  501  0.00000000000E+00  0.00000000000E+00 -0.62292592008E+03  0.62292592008E+03  0.25500000920E-02 0. -1.
    10030    2    1    2    0    0  0.00000000000E+00  0.00000000000E+00  0.13740993872E+04  0.26199512274E+04  0.22306939073E+04 0.  0.
        4    1    3    3  502    0 -0.24497118832E+03  0.87675252589E+03 -0.69834895468E+02  0.91300843385E+03  0.12699999809E+01 0. -1.
       -4    1    3    3    0  502  0.24497118832E+03 -0.87675252589E+03  0.14439342827E+04  0.17069427935E+04  0.12699999809E+01 0.  1.
</event>
<event>
 5   0  0.1252124E-04  0.2174899E+04  0.7818609E-02  0.8528949E-01
       -2   -1    0    0    0  501  0.00000000000E+00  0.00000000000E+00  0.55779896348E+03  0.55779896349E+03  0.25500000920E-02 0.  1.
        2   -1    0    0  501    0  0.00000000000E+00  0.00000000000E+00 -0.21200230400E+04  0.21200230400E+04  0.25500000920E-02 0. -1.
    10030    2    1    2    0    0  0.00000000000E+00  0.00000000000E+00 -0.15622240765E+04  0.26778220035E+04  0.21748992200E+04 0.  0.
        3    1    3    3  502    0 -0.10022002415E+04  0.69069452201E+02 -0.26845082831E+03  0.10398277601E+04  0.10100000352E+00 0.  1.
       -3    1    3    3    0  502  0.10022002415E+04 -0.69069452201E+02 -0.12937732482E+04  0.16379942433E+04  0.10100000352E+00 0. -1.
</event>
<event>
 5   0  0.5861816E-05  0.2237569E+04  0.7818609E-02  0.8502952E-01
        1   -1    0    0  501    0  0.00000000000E+00  0.00000000000E+00  0.84876198393E+03  0.84876198395E+03  0.50400001928E-02 0.  1.
       -1   -1    0    0    0  501  0.00000000000E+00  0.00000000000E+00 -0.14747110317E+04  0.14747110317E+04  0.50400001928E-02 0. -1.
    10030    2    1    2    0    0  0.00000000000E+00  0.00000000000E+00 -0.62594904772E+03  0.23234730156E+04  0.22375689138E+04 0.  0.
        1    1    3    3  502    0 -0.25407800898E+03 -0.12197579327E+01 -0.14443553271E+04  0.14665331341E+04  0.50400001928E-02 0. -1.
       -1    1    3    3    0  502  0.25407800898E+03  0.12197579327E+01  0.81840627936E+03  0.85693988154E+03  0.50400001928E-02 0.  1.
</event>
<event>
 5   0  0.1226021E-04  0.2055724E+04  0.7818609E-02  0.8581002E-01
       -2   -1    0    0    0  501  0.00000000000E+00  0.00000000000E+00  0.93474524166E+03  0.93474524166E+03  0.25500000920E-02 0. -1.
        2   -1    0    0  501    0  0.00000000000E+00  0.00000000000E+00 -0.11302544901E+04  0.11302544901E+04  0.25500000920E-02 0.  1.
    10030    2    1    2    0    0  0.00000000000E+00  0.00000000000E+00 -0.19550924845E+03  0.20649997318E+04  0.20557237232E+04 0.  0.
        2    1    3    3  502    0 -0.19990227228E+03  0.96327974167E+03  0.20129869945E+03  0.10041862106E+04  0.25500000920E-02 0.  1.
       -2    1    3    3    0  502  0.19990227228E+03 -0.96327974167E+03 -0.39680794790E+03  0.10608135212E+04  0.25500000920E-02 0. -1.
</event>
<event>
 5   0  0.5861816E-05  0.2240709E+04  0.7818609E-02  0.8501672E-01
        1   -1    0    0  501    0  0.00000000000E+00  0.00000000000E+00  0.11338552761E+04  0.11338552761E+04  0.50400001928E-02 0.  1.
       -1   -1    0    0    0  501  0.00000000000E+00  0.00000000000E+00 -0.11070148393E+04  0.11070148393E+04  0.50400001928E-02 0. -1.
    10030    2    1    2    0    0  0.00000000000E+00  0.00000000000E+00  0.26840436854E+02  0.22408701154E+04  0.22407093665E+04 0.  0.
        1    1    3    3  502    0  0.33854148424E+03  0.20023363300E+03  0.10625382654E+04  0.11330010634E+04  0.50400001928E-02 0.  1.
       -1    1    3    3    0  502 -0.33854148424E+03 -0.20023363300E+03 -0.10356978285E+04  0.11078690520E+04  0.50400001928E-02 0. -1.
</event>
<event>
 5   0  0.5849604E-05  0.2203750E+04  0.7818609E-02  0.8516869E-01
        1   -1    0    0  501    0  0.00000000000E+00  0.00000000000E+00  0.12644145693E+04  0.12644145693E+04  0.50400001928E-02 0. -1.
       -1   -1    0    0    0  501  0.00000000000E+00  0.00000000000E+00 -0.96023012719E+03  0.96023012720E+03  0.50400001928E-02 0.  1.
    10030    2    1    2    0    0  0.00000000000E+00  0.00000000000E+00  0.30418444215E+03  0.22246446966E+04  0.22037504058E+04 0.  0.
        2    1    3    3  502    0  0.85846720410E+03  0.42432578338E+03 -0.39815437472E+03  0.10370849614E+04  0.25500000920E-02 0.  1.
       -2    1    3    3    0  502 -0.85846720410E+03 -0.42432578338E+03  0.70233881687E+03  0.11875597352E+04  0.25500000920E-02 0. -1.
</event>
<event>
 5   0  0.1404159E-04  0.2218699E+04  0.7818609E-02  0.8510685E-01
        2   -1    0    0  501    0  0.00000000000E+00  0.00000000000E+00  0.15411388990E+04  0.15411388990E+04  0.25500000920E-02 0.  1.
       -2   -1    0    0    0  501  0.00000000000E+00  0.00000000000E+00 -0.79853662430E+03  0.79853662430E+03  0.25500000920E-02 0. -1.
    10030    2    1    2    0    0  0.00000000000E+00  0.00000000000E+00  0.74260227474E+03  0.23396755233E+04  0.22186985861E+04 0.  0.
        5    1    3    3  502    0  0.22405289994E+03 -0.99182214428E+03 -0.96417612067E+02  0.10213859769E+04  0.46999998093E+01 0. -1.
       -5    1    3    3    0  502 -0.22405289994E+03  0.99182214428E+03  0.83901988681E+03  0.13182895465E+04  0.46999998093E+01 0.  1.
</event>
<event>
 5   0  0.5861816E-05  0.1456492E+04  0.7818609E-02  0.8913912E-01
        1   -1    0    0  501    0  0.00000000000E+00  0.00000000000E+00  0.80477022510E+03  0.80477022512E+03  0.50400001928E-02 0.  1.
       -1   -1    0    0    0  501  0.00000000000E+00  0.00000000000E+00 -0.65899817666E+03  0.65899817668E+03  0.50400001928E-02 0. -1.
    10030    2    1    2    0    0  0.00000000000E+00  0.00000000000E+00  0.14577204844E+03  0.14637684018E+04  0.14564918276E+04 0.  0.
        1    1    3    3  502    0 -0.66612434724E+03  0.13638142476E+03  0.33499654627E+03  0.75798695573E+03  0.50400001928E-02 0. -1.
       -1    1    3    3    0  502  0.66612434724E+03 -0.13638142476E+03 -0.18922449783E+03  0.70578144607E+03  0.50400001928E-02 0.  1.
</event>
<event>
 5   0  0.1311472E-04  0.2601011E+04  0.7818609E-02  0.8367858E-01
        2   -1    0    0  501    0  0.00000000000E+00  0.00000000000E+00  0.26306488299E+04  0.26306488299E+04  0.25500000920E-02 0. -1.
       -2   -1    0    0    0  501  0.00000000000E+00  0.00000000000E+00 -0.64292691192E+03  0.64292691193E+03  0.25500000920E-02 0.  1.
    10030    2    1    2    0    0  0.00000000000E+00  0.00000000000E+00  0.19877219180E+04  0.32735757419E+04  0.26010112869E+04 0.  0.
        4    1    3    3  502    0 -0.23716187078E+03  0.47689015729E+03  0.24870901525E+04  0.25434797060E+04  0.12699999809E+01 0. -1.
       -4    1    3    3    0  502  0.23716187078E+03 -0.47689015729E+03 -0.49936823451E+03  0.73009603588E+03  0.12699999809E+01 0.  1.
</event>
<event>
 5   0  0.4586375E-05  0.2201110E+04  0.7818609E-02  0.8517966E-01
        3   -1    0    0  501    0  0.00000000000E+00  0.00000000000E+00  0.90908216865E+03  0.90908217426E+03  0.10100000352E+00 0. -1.
       -3   -1    0    0    0  501  0.00000000000E+00  0.00000000000E+00 -0.13323564136E+04  0.13323564174E+04  0.10100000352E+00 0.  1.
    10030    2    1    2    0    0  0.00000000000E+00  0.00000000000E+00 -0.42327424497E+03  0.22414385917E+04  0.22011101458E+04 0.  0.
        2    1    3    3  502    0  0.10624119635E+04 -0.12895647062E+02  0.80562685777E+02  0.10655401561E+04  0.25500000920E-02 0. -1.
       -2    1    3    3    0  502 -0.10624119635E+04  0.12895647062E+02 -0.50383693074E+03  0.11758984356E+04  0.25500000920E-02 0.  1.
</event>
<event>
 5   0  0.1252124E-04  0.2188011E+04  0.7818609E-02  0.8523435E-01
       -2   -1    0    0    0  501  0.00000000000E+00  0.00000000000E+00  0.81559776788E+03  0.81559776789E+03  0.25500000920E-02 0.  1.
        2   -1    0    0  501    0  0.00000000000E+00  0.00000000000E+00 -0.14674485187E+04  0.14674485187E+04  0.25500000920E-02 0. -1.
    10030    2    1    2    0    0  0.00000000000E+00  0.00000000000E+00 -0.65185075085E+03  0.22830462866E+04  0.21880107279E+04 0.  0.
        3    1    3    3  502    0 -0.21880924576E+03 -0.99648566507E+03 -0.73803130082E+03  0.12591867923E+04  0.10100000352E+00 0. -1.
       -3    1    3    3    0  502  0.21880924576E+03  0.99648566507E+03  0.86180549972E+02  0.10238594943E+04  0.10100000352E+00 0.  1.
</event>
<event>
 5   0  0.1252124E-04  0.1926230E+04  0.7818609E-02  0.8641909E-01
        2   -1    0    0  501    0  0.00000000000E+00  0.00000000000E+00  0.12228451708E+04  0.12228451708E+04  0.25500000920E-02 0.  1.
       -2   -1    0    0    0  501  0.00000000000E+00  0.00000000000E+00 -0.75855108880E+03  0.75855108881E+03  0.25500000920E-02 0. -1.
    10030    2    1    2    0    0  0.00000000000E+00  0.00000000000E+00  0.46429408198E+03  0.19813962596E+04  0.19262300338E+04 0.  0.
        3    1    3    3  502    0  0.55983724194E+03 -0.50155002948E+03  0.85157282429E+03  0.11358461405E+04  0.10100000352E+00 0.  1.
       -3    1    3    3    0  502 -0.55983724194E+03  0.50155002948E+03 -0.38727874230E+03  0.84555011914E+03  0.10100000352E+00 0. -1.
</event>
<event>
 5   0  0.6263558E-05  0.1379529E+04  0.7818609E-02  0.8968772E-01
        1   -1    0    0  501    0  0.00000000000E+00  0.00000000000E+00  0.12155913495E+04  0.12155913495E+04  0.50400001928E-02 0.  1.
       -1   -1    0    0    0  501  0.00000000000E+00  0.00000000000E+00 -0.39139365372E+03  0.39139365375E+03  0.50400001928E-02 0. -1.
    10030    2    1    2    0    0  0.00000000000E+00  0.00000000000E+00  0.82419769578E+03  0.16069850033E+04  0.13795285278E+04 0.  0.
        3    1    3    3  502    0 -0.50895382522E+03 -0.32419578293E+03  0.80131138989E+03  0.10031135806E+04  0.10100000352E+00 0.  1.
       -3    1    3    3    0  502  0.50895382522E+03  0.32419578293E+03  0.22886305895E+02  0.60387142263E+03  0.10100000352E+00 0. -1.
</event>
<event>
 5   0  0.1226021E-04  0.2127197E+04  0.7818609E-02  0.8549356E-01
        2   -1    0    0  501    0  0.00000000000E+00  0.00000000000E+00  0.83921259835E+03  0.83921259835E+03  0.25500000920E-02 0.  1.
       -2   -1    0    0    0  501  0.00000000000E+00  0.00000000000E+00 -0.13479804186E+04  0.13479804186E+04  0.25500000920E-02 0. -1.
    10030    2    1    2    0    0  0.00000000000E+00  0.00000000000E+00 -0.50876782028E+03  0.21871930170E+04  0.21271973577E+04 0.  0.
        2    1    3    3  502    0 -0.65287018809E+03  0.39701398422E+03  0.50633603899E+03  0.91664375335E+03  0.25500000920E-02 0.  1.
       -2    1    3    3    0  502  0.65287018809E+03 -0.39701398422E+03 -0.10151038593E+04  0.12705492636E+04  0.25500000920E-02 0. -1.
</event>
<event>
 5   0  0.1311472E-04  0.2199657E+04  0.7818609E-02  0.8518571E-01
        2   -1    0    0  501    0  0.00000000000E+00  0.00000000000E+00  0.19133559875E+04  0.19133559875E+04  0.25500000920E-02 0. -1.
       -2   -1    0    0    0  501  0.00000000000E+00  0.00000000000E+00 -0.63219926422E+03  0.63219926422E+03  0.25500000920E-02 0.  1.
    10030    2    1    2    0    0  0.00000000000E+00  0.00000000000E+00  0.12811567232E+04  0.25455552517E+04  0.21996565618E+04 0.  0.
        4    1    3    3  502    0  0.43173128252E+03 -0.62620563363E+03  0.15599161277E+04  0.17354726544E+04  0.12699999809E+01 0. -1.
       -4    1    3    3    0  502 -0.43173128252E+03  0.62620563363E+03 -0.27875940446E+03  0.81008259726E+03  0.12699999809E+01 0.  1.
</event>
<event>
 5   0  0.1311472E-04  0.2189325E+04  0.7818609E-02  0.8522885E-01
        2   -1    0    0  501    0  0.00000000000E+00  0.00000000000E+00  0.23118988516E+04  0.23118988516E+04  0.25500000920E-02 0.  1.
       -2   -1    0    0    0  501  0.00000000000E+00  0.00000000000E+00 -0.51831225238E+03  0.51831225238E+03  0.25500000920E-02 0. -1.
    10030    2    1    2    0    0  0.00000000000E+00  0.00000000000E+00  0.17935865993E+04  0.28302111040E+04  0.21893245544E+04 0.  0.
        4    1    3    3  502    0 -0.35008136948E+03  0.59788194512E+03  0.19923901209E+04  0.21094169318E+04  0.12699999809E+01 0.  1.
       -4    1    3    3    0  502  0.35008136948E+03 -0.59788194512E+03 -0.19880352163E+03  0.72079417220E+03  0.12699999809E+01 0. -1.
</event>
<event>
 5   0  0.5981239E-05  0.2174622E+04  0.7818609E-02  0.8529066E-01
        1   -1    0    0  501    0  0.00000000000E+00  0.00000000000E+00  0.10570276092E+04  0.10570276092E+04  0.50400001928E-02 0. -1.
       -1   -1    0    0    0  501  0.00000000000E+00  0.00000000000E+00 -0.11184623593E+04  0.11184623593E+04  0.50400001928E-02 0.  1.
    10030    2    1    2    0    0  0.00000000000E+00  0.00000000000E+00 -0.61434750172E+02  0.21754899685E+04  0.21746223522E+04 0.  0.
        4    1    3    3  502    0  0.61673943773E+03 -0.40717654343E+03  0.76714938778E+03  0.10652136254E+04  0.12699999809E+01 0.  1.
       -4    1    3    3    0  502 -0.61673943773E+03  0.40717654343E+03 -0.82858413795E+03  0.11102763431E+04  0.12699999809E+01 0. -1.
</event>
<event>
 5   0  0.6263558E-05  0.2215052E+04  0.7818609E-02  0.8512189E-01
       -1   -1    0    0    0  501  0.00000000000E+00  0.00000000000E+00  0.65320901784E+03  0.65320901786E+03  0.50400001928E-02 0.  1.
        1   -1    0    0  501    0  0.00000000000E+00  0.00000000000E+00 -0.18778277278E+04  0.18778277278E+04  0.50400001928E-02 0. -1.
    10030    2    1    2    0    0  0.00000000000E+00  0.00000000000E+00 -0.12246187099E+04  0.25310367456E+04  0.22150521491E+04 0.  0.
        3    1    3    3  502    0 -0.63962020085E+03 -0.88867904208E+03 -0.42196390415E+03  0.11734214877E+04  0.10100000352E+00 0.  1.
       -3    1    3    3    0  502  0.63962020085E+03  0.88867904208E+03 -0.80265480577E+03  0.13576152579E+04  0.10100000352E+00 0. -1.
</event>
<event>
 5   0  0.5861816E-05  0.2148461E+04  0.7818609E-02  0.8540191E-01
        1   -1    0    0  501    0  0.00000000000E+00  0.00000000000E+00  0.16472907655E+04  0.16472907655E+04  0.50400001928E-02 0.  1.
       -1   -1    0    0    0  501  0.00000000000E+00  0.00000000000E+00 -0.70052653762E+03  0.70052653763E+03  0.50400001928E-02 0. -1.
    10030    2    1    2    0    0  0.00000000000E+00  0.00000000000E+00  0.94676422790E+03  0.23478173032E+04  0.21484607480E+04 0.  0.
        1    1    3    3  502    0  0.10326233956E+03 -0.42015694926E+03 -0.60110147952E+03  0.74061998453E+03  0.50400001928E-02 0. -1.
       -1    1    3    3    0  502 -0.10326233956E+03  0.42015694926E+03  0.15478657074E+04  0.16071973186E+04  0.50400001928E-02 0.  1.
</event>
<event>
 5   0  0.5981239E-05  0.1836190E+04  0.7818609E-02  0.8687287E-01
       -1   -1    0    0    0  501  0.00000000000E+00  0.00000000000E+00  0.52371857762E+03  0.52371857764E+03  0.50400001928E-02 0.  1.
        1   -1    0    0  501    0  0.00000000000E+00  0.00000000000E+00 -0.16094490235E+04  0.16094490235E+04  0.50400001928E-02 0. -1.
    10030    2    1    2    0    0  0.00000000000E+00  0.00000000000E+00 -0.10857304459E+04  0.21331676012E+04  0.18361899176E+04 0.  0.
        4    1    3    3  502    0  0.55749280156E+03 -0.28761881386E+03  0.23590855430E+03  0.67020688207E+03  0.12699999809E+01 0.  1.
       -4    1    3    3    0  502 -0.55749280156E+03  0.28761881386E+03 -0.13216390002E+04  0.14629607191E+04  0.12699999809E+01 0. -1.
</event>
<event>
 5   0  0.5861816E-05  0.2174684E+04  0.7818609E-02  0.8529040E-01
        1   -1    0    0  501    0  0.00000000000E+00  0.00000000000E+00  0.11181331971E+04  0.11181331971E+04  0.50400001928E-02 0. -1.
       -1   -1    0    0    0  501  0.00000000000E+00  0.00000000000E+00 -0.10573984772E+04  0.10573984773E+04  0.50400001928E-02 0.  1.
    10030    2    1    2    0    0  0.00000000000E+00  0.00000000000E+00  0.60734719858E+02  0.21755316744E+04  0.21746837379E+04 0.  0.
        1    1    3    3  502    0 -0.94755401340E+03 -0.52668017636E+03  0.11443418741E+03  0.10901127463E+04  0.50400001928E-02 0.  1.
       -1    1    3    3    0  502  0.94755401340E+03  0.52668017636E+03 -0.53699467549E+02  0.10854189280E+04  0.50400001928E-02 0. -1.
</event>
<event>
 5   0  0.1226021E-04  0.2218143E+04  0.7818609E-02  0.8510914E-01
       -2   -1    0    0    0  501  0.00000000000E+00  0.00000000000E+00  0.16699739583E+04  0.16699739583E+04  0.25500000920E-02 0. -1.
        2   -1    0    0  501    0  0.00000000000E+00  0.00000000000E+00 -0.73656236748E+03  0.73656236749E+03  0.25500000920E-02 0.  1.
    10030    2    1    2    0    0  0.00000000000E+00  0.00000000000E+00  0.93341159079E+03  0.24065363258E+04  0.22181433428E+04 0.  0.
        2    1    3    3  502    0 -0.45008938192E+03 -0.38975294989E+03 -0.54847600892E+03  0.80951451255E+03  0.25500000920E-02 0.  1.
       -2    1    3    3    0  502  0.45008938192E+03  0.38975294989E+03  0.14818875997E+04  0.15970218132E+04  0.25500000920E-02 0. -1.
</event>
<event>
 5   0  0.5981239E-05  0.2135129E+04  0.7818609E-02  0.8545925E-01
        1   -1    0    0  501    0  0.00000000000E+00  0.00000000000E+00  0.16599504943E+04  0.16599504943E+04  0.50400001928E-02 0.  1.
       -1   -1    0    0    0  501  0.00000000000E+00  0.00000000000E+00 -0.68658335862E+03  0.68658335864E+03  0.50400001928E-02 0. -1.
    10030    2    1    2    0    0  0.00000000000E+00  0.00000000000E+00  0.97336713564E+03  0.23465338529E+04  0.21351293970E+04 0.  0.
        4    1    3    3  502    0  0.24883533237E+03 -0.84006701980E+03 -0.18367904859E+03  0.89519340155E+03  0.12699999809E+01 0. -1.
       -4    1    3    3    0  502 -0.24883533237E+03  0.84006701980E+03  0.11570461842E+04  0.14513404514E+04  0.12699999809E+01 0.  1.
</event>
<event>
 5   0  0.1226021E-04  0.1835390E+04  0.7818609E-02  0.8687702E-01
       -2   -1    0    0    0  501  0.00000000000E+00  0.00000000000E+00  0.54016521654E+03  0.54016521654E+03  0.25500000920E-02 0.  1.
        2   -1    0    0  501    0  0.00000000000E+00  0.00000000000E+00 -0.15590866102E+04  0.15590866102E+04  0.25500000920E-02 0. -1.
    10030    2    1    2    0    0  0.00000000000E+00  0.00000000000E+00 -0.10189213937E+04  0.20992518268E+04  0.18353902652E+04 0.  0.
        2    1    3    3  502    0  0.24358218691E+01  0.39244026461E+03  0.43934520390E+03  0.58910058794E+03  0.25500000920E-02 0.  1.
       -2    1    3    3    0  502 -0.24358218691E+01 -0.39244026461E+03 -0.14582665976E+04  0.15101512388E+04  0.25500000920E-02 0. -1.
</event>
<event>
 5   0  0.5861816E-05  0.2190001E+04  0.7818609E-02  0.8522601E-01
       -1   -1    0    0    0  501  0.00000000000E+00  0.00000000000E+00  0.12699525219E+04  0.12699525219E+04  0.50400001928E-02 0. -1.
        1   -1    0    0  501    0  0.00000000000E+00  0.00000000000E+00 -0.94415069280E+03  0.94415069281E+03  0.50400001928E-02 0.  1.
    10030    2    1    2    0    0  0.00000000000E+00  0.00000000000E+00  0.32580182913E+03  0.22141032147E+04  0.21900014186E+04 0.  0.
        1    1    3    3  502    0  0.38565355921E+03 -0.96023995586E+03  0.52494406228E+03  0.11603256910E+04  0.50400001928E-02 0. -1.
       -1    1    3    3    0  502 -0.38565355921E+03  0.96023995586E+03 -0.19914223315E+03  0.10537775238E+04  0.50400001928E-02 0.  1.
</event>
<event>
 5   0  0.6263558E-05  0.2253328E+04  0.7818609E-02  0.8496554E-01
       -1   -1    0    0    0  501  0.00000000000E+00  0.00000000000E+00  0.15015534096E+04  0.15015534096E+04  0.50400001928E-02 0. -1.
        1   -1    0    0  501    0  0.00000000000E+00  0.00000000000E+00 -0.84537269199E+03  0.84537269201E+03  0.50400001928E-02 0.  1.
    10030    2    1    2    0    0  0.00000000000E+00  0.00000000000E+00  0.65618071762E+03  0.23469261016E+04  0.22533284253E+04 0.  0.
        3    1    3    3  502    0 -0.26147305431E+03 -0.60624890364E+03 -0.62277484308E+03  0.90760917067E+03  0.10100000352E+00 0.  1.
       -3    1    3    3    0  502  0.26147305431E+03  0.60624890364E+03  0.12789555607E+04  0.14393169310E+04  0.10100000352E+00 0. -1.
</event>
<event>
 5   0  0.1226021E-04  0.2161048E+04  0.7818609E-02  0.8534818E-01
       -2   -1    0    0    0  501  0.00000000000E+00  0.00000000000E+00  0.51581564506E+03  0.51581564506E+03  0.25500000920E-02 0. -1.
        2   -1    0    0  501    0  0.00000000000E+00  0.00000000000E+00 -0.22634679594E+04  0.22634679594E+04  0.25500000920E-02 0.  1.
    10030    2    1    2    0    0  0.00000000000E+00  0.00000000000E+00 -0.17476523144E+04  0.27792836045E+04  0.21610480657E+04 0.  0.
        2    1    3    3  502    0  0.39856887366E+03  0.93769827316E+03 -0.41119964152E+03  0.10987357934E+04  0.25500000920E-02 0. -1.
       -2    1    3    3    0  502 -0.39856887366E+03 -0.93769827316E+03 -0.13364526728E+04  0.16805478111E+04  0.25500000920E-02 0.  1.
</event>
<event>
 5   0  0.1241430E-04  0.2210787E+04  0.7818609E-02  0.8513952E-01
       -2   -1    0    0    0  501  0.00000000000E+00  0.00000000000E+00  0.11017598330E+04  0.11017598330E+04  0.25500000920E-02 0. -1.
        2   -1    0    0  501    0  0.00000000000E+00  0.00000000000E+00 -0.11090393145E+04  0.11090393145E+04  0.25500000920E-02 0.  1.
    10030    2    1    2    0    0  0.00000000000E+00  0.00000000000E+00 -0.72794815327E+01  0.22107991476E+04  0.22107871630E+04 0.  0.
        1    1    3    3  502    0 -0.55088219847E+03 -0.72881370585E+02  0.95193442125E+03  0.11022531620E+04  0.50400001928E-02 0. -1.
       -1    1    3    3    0  502  0.55088219847E+03  0.72881370585E+02 -0.95921390278E+03  0.11085459855E+04  0.50400001928E-02 0.  1.
</event>
<event>
 5   0  0.1404159E-04  0.2165723E+04  0.7818609E-02  0.8532832E-01
        2   -1    0    0  501    0  0.00000000000E+00  0.00000000000E+00  0.21879980744E+04  0.21879980744E+04  0.25500000920E-02 0. -1.
       -2   -1    0    0    0  501  0.00000000000E+00  0.00000000000E+00 -0.53591856133E+03  0.53591856133E+03  0.25500000920E-02 0.  1.
    10030    2    1    2    0    0  0.00000000000E+00  0.00000000000E+00  0.16520795131E+04  0.27239166358E+04  0.21657227710E+04 0.  0.
        5    1    3    3  502    0 -0.75853567827E+03  0.16362551092E+03  0.17759600857E+04  0.19380933927E+04  0.46999998093E+01 0. -1.
       -5    1    3    3    0  502  0.75853567827E+03 -0.16362551092E+03 -0.12388057257E+03  0.78582324303E+03  0.46999998093E+01 0.  1.
</event>
<event>
 5   0  0.5981239E-05  0.2135991E+04  0.7818609E-02  0.8545553E-01
       -1   -1    0    0    0  501  0.00000000000E+00  0.00000000000E+00  0.74864143242E+03  0.74864143244E+03  0.50400001928E-02 0.  1.
        1   -1    0    0  501    0  0.00000000000E+00  0.00000000000E+00 -0.15235788468E+04  0.15235788468E+04  0.50400001928E-02 0. -1.
    10030    2    1    2    0    0  0.00000000000E+00  0.00000000000E+00 -0.77493741434E+03  0.22722202792E+04  0.21359908710E+04 0.  0.
        4    1    3    3  502    0 -0.27479872942E+03  0.95131002370E+03 -0.81312290834E+03  0.12812788845E+04  0.12699999809E+01 0. -1.
       -4    1    3    3    0  502  0.27479872942E+03 -0.95131002370E+03  0.38185494006E+02  0.99094139470E+03  0.12699999809E+01 0.  1.
</event>
<event>
 5   0  0.5861816E-05  0.2187365E+04  0.7818609E-02  0.8523705E-01
       -1   -1    0    0    0  501  0.00000000000E+00  0.00000000000E+00  0.69331019108E+03  0.69331019110E+03  0.50400001928E-02 0.  1.
        1   -1    0    0  501    0  0.00000000000E+00  0.00000000000E+00 -0.17252623235E+04  0.17252623236E+04  0.50400001928E-02 0. -1.
    10030    2    1    2    0    0  0.00000000000E+00  0.00000000000E+00 -0.10319521325E+04  0.24185725146E+04  0.21873654941E+04 0.  0.
        1    1    3    3  502    0  0.11471585630E+03  0.57454753735E+03  0.50515396054E+03  0.77359235017E+03  0.50400001928E-02 0.  1.
       -1    1    3    3    0  502 -0.11471585630E+03 -0.57454753735E+03 -0.15371060930E+04  0.16449801645E+04  0.50400001928E-02 0. -1.
</event>
<event>
 5   0  0.6263558E-05  0.1848877E+04  0.7818609E-02  0.8680730E-01
       -1   -1    0    0    0  501  0.00000000000E+00  0.00000000000E+00  0.38881091753E+03  0.38881091756E+03  0.50400001928E-02 0.  1.
        1   -1    0    0  501    0  0.00000000000E+00  0.00000000000E+00 -0.21979497295E+04  0.21979497295E+04  0.50400001928E-02 0. -1.
    10030    2    1    2    0    0  0.00000000000E+00  0.00000000000E+00 -0.18091388119E+04  0.25867606470E+04  0.18488773362E+04 0.  0.
        3    1    3    3  502    0 -0.32120178862E+03 -0.63305436880E+03 -0.76073663396E+02  0.71394372000E+03  0.10100000352E+00 0.  1.
       -3    1    3    3    0  502  0.32120178862E+03  0.63305436880E+03 -0.17330651485E+04  0.18728169270E+04  0.10100000352E+00 0. -1.
</event>
<event>
 5   0  0.1252124E-04  0.2181387E+04  0.7818609E-02  0.8526215E-01
        2   -1    0    0  501    0  0.00000000000E+00  0.00000000000E+00  0.13453218898E+04  0.13453218898E+04  0.25500000920E-02 0. -1.
       -2   -1    0    0    0  501  0.00000000000E+00  0.00000000000E+00 -0.88425840332E+03  0.88425840332E+03  0.25500000920E-02 0.  1.
    10030    2    1    2    0    0  0.00000000000E+00  0.00000000000E+00  0.46106348645E+03  0.22295802931E+04  0.21813868856E+04 0.  0.
        3    1    3    3  502    0 -0.18728613898E+03  0.83071726799E+03 -0.46602663100E+03  0.97074616054E+03  0.10100000352E+00 0.  1.
       -3    1    3    3    0  502  0.18728613898E+03 -0.83071726799E+03  0.92709011745E+03  0.12588341325E+04  0.10100000352E+00 0. -1.
</event>
<event>
 5   0  0.1226021E-04  0.2199722E+04  0.7818609E-02  0.8518544E-01
        2   -1    0    0  501    0  0.00000000000E+00  0.00000000000E+00  0.21036412588E+04  0.21036412588E+04  0.25500000920E-02 0.  1.
       -2   -1    0    0    0  501  0.00000000000E+00  0.00000000000E+00 -0.57504761523E+03  0.57504761524E+03  0.25500000920E-02 0. -1.
    10030    2    1    2    0    0  0.00000000000E+00  0.00000000000E+00  0.15285936436E+04  0.26786888741E+04  0.21997216999E+04 0.  0.
        2    1    3    3  502    0 -0.49209235540E+03  0.32381247888E+02 -0.43286627236E+03  0.65618338992E+03  0.25500000920E-02 0. -1.
       -2    1    3    3    0  502  0.49209235540E+03 -0.32381247888E+02  0.19614599160E+04  0.20225054842E+04  0.25500000920E-02 0.  1.
</event>
<event>
 5   0  0.4586375E-05  0.2223837E+04  0.7818609E-02  0.8508572E-01
       -4   -1    0    0    0  501  0.00000000000E+00  0.00000000000E+00  0.86021000270E+03  0.86021094020E+03  0.12699999809E+01 0.  1.
        4   -1    0    0  501    0  0.00000000000E+00  0.00000000000E+00 -0.14372775910E+04  0.14372781521E+04  0.12699999809E+01 0. -1.
    10030    2    1    2    0    0  0.00000000000E+00  0.00000000000E+00 -0.57706758835E+03  0.22974890923E+04  0.22238365785E+04 0.  0.
        5    1    3    3  502    0 -0.10034233240E+04 -0.45754802384E+03 -0.14194861386E+03  0.11119262837E+04  0.46999998093E+01 0. -1.
       -5    1    3    3    0  502  0.10034233240E+04  0.45754802384E+03 -0.43511897449E+03  0.11855628087E+04  0.46999998093E+01 0.  1.
</event>
<event>
 5   0  0.5849604E-05  0.2188798E+04  0.7818609E-02  0.8523105E-01
        1   -1    0    0  501    0  0.00000000000E+00  0.00000000000E+00  0.11384819402E+04  0.11384819402E+04  0.50400001928E-02 0. -1.
       -1   -1    0    0    0  501  0.00000000000E+00  0.00000000000E+00 -0.10520230925E+04  0.10520230925E+04  0.50400001928E-02 0.  1.
    10030    2    1    2    0    0  0.00000000000E+00  0.00000000000E+00  0.86458847748E+02  0.21905050327E+04  0.21887981099E+04 0.  0.
        2    1    3    3  502    0  0.23834594386E+03 -0.62248854356E+03  0.91189740259E+03  0.11295386884E+04  0.25500000920E-02 0. -1.
       -2    1    3    3    0  502 -0.23834594386E+03  0.62248854356E+03 -0.82543855484E+03  0.10609663443E+04  0.25500000920E-02 0.  1.
</event>
<event>
 5   0  0.1311472E-04  0.2225540E+04  0.7818609E-02  0.8507873E-01
        2   -1    0    0  501    0  0.00000000000E+00  0.00000000000E+00  0.94060831142E+03  0.94060831142E+03  0.25500000920E-02 0. -1.
       -2   -1    0    0    0  501  0.00000000000E+00  0.00000000000E+00 -0.13164422512E+04  0.13164422512E+04  0.25500000920E-02 0.  1.
    10030    2    1    2    0    0  0.00000000000E+00  0.00000000000E+00 -0.37583393975E+03  0.22570505626E+04  0.22255395058E+04 0.  0.
        4    1    3    3  502    0 -0.56985910477E+03  0.26394030707E+02 -0.11568600915E+04  0.12898693455E+04  0.12699999809E+01 0.  1.
       -4    1    3    3    0  502  0.56985910477E+03 -0.26394030707E+02  0.78102615176E+03  0.96718121713E+03  0.12699999809E+01 0. -1.
</event>
<event>
 5   0  0.6263558E-05  0.2208882E+04  0.7818609E-02  0.8514740E-01
       -1   -1    0    0    0  501  0.00000000000E+00  0.00000000000E+00  0.62431690952E+03  0.62431690954E+03  0.50400001928E-02 0. -1.
        1   -1    0    0  501    0  0.00000000000E+00  0.00000000000E+00 -0.19537987528E+04  0.19537987529E+04  0.50400001928E-02 0.  1.
    10030    2    1    2    0    0  0.00000000000E+00  0.00000000000E+00 -0.13294818433E+04  0.25781156624E+04  0.22088817073E+04 0.  0.
        3    1    3    3  502    0 -0.47201250494E+03 -0.79207595024E+03 -0.13743211168E+04  0.16549739146E+04  0.10100000352E+00 0.  1.
       -3    1    3    3    0  502  0.47201250494E+03  0.79207595024E+03  0.44839273513E+02  0.92314174774E+03  0.10100000352E+00 0. -1.
</event>
<event>
 5   0  0.1241430E-04  0.2211381E+04  0.7818609E-02  0.8513706E-01
        2   -1    0    0  501    0  0.00000000000E+00  0.00000000000E+00  0.15902765364E+04  0.15902765364E+04  0.25500000920E-02 0.  1.
       -2   -1    0    0    0  501  0.00000000000E+00  0.00000000000E+00 -0.76876694437E+03  0.76876694437E+03  0.25500000920E-02 0. -1.
    10030    2    1    2    0    0  0.00000000000E+00  0.00000000000E+00  0.82150959202E+03  0.23590434808E+04  0.22113814990E+04 0.  0.
        1    1    3    3  502    0  0.82178369884E+02 -0.94751002129E+03  0.10123465658E+04  0.13890191122E+04  0.50400001928E-02 0.  1.
       -1    1    3    3    0  502 -0.82178369884E+02  0.94751002129E+03 -0.19083697376E+03  0.97002436851E+03  0.50400001928E-02 0. -1.
</event>
<event>
 5   0  0.5849604E-05  0.2212682E+04  0.7818609E-02  0.8513168E-01
        1   -1    0    0  501    0  0.00000000000E+00  0.00000000000E+00  0.77028546766E+03  0.77028546767E+03  0.50400001928E-02 0. -1.
       -1   -1    0    0    0  501  0.00000000000E+00  0.00000000000E+00 -0.15890086139E+04  0.15890086139E+04  0.50400001928E-02 0.  1.
    10030    2    1    2    0    0  0.00000000000E+00  0.00000000000E+00 -0.81872314620E+03  0.23592940815E+04  0.22126818508E+04 0.  0.
        2    1    3    3  502    0 -0.32102249527E+03  0.17645495360E+03 -0.15224667371E+04  0.15659172260E+04  0.25500000920E-02 0.  1.
       -2    1    3    3    0  502  0.32102249527E+03 -0.17645495360E+03  0.70374359091E+03  0.79337685552E+03  0.25500000920E-02 0. -1.
</event>
<event>
 5   0  0.5981239E-05  0.2200975E+04  0.7818609E-02  0.8518023E-01
       -1   -1    0    0    0  501  0.00000000000E+00  0.00000000000E+00  0.77926202077E+03  0.77926202079E+03  0.50400001928E-02 0.  1.
        1   -1    0    0  501    0  0.00000000000E+00  0.00000000000E+00 -0.15541273787E+04  0.15541273788E+04  0.50400001928E-02 0. -1.
    10030    2    1    2    0    0  0.00000000000E+00  0.00000000000E+00 -0.77486535797E+03  0.23333893995E+04  0.22009747311E+04 0.  0.
        4    1    3    3  502    0 -0.31722330289E+03 -0.13118582949E+03 -0.14959131097E+04  0.15347957488E+04  0.12699999809E+01 0. -1.
       -4    1    3    3    0  502  0.31722330289E+03  0.13118582949E+03  0.72104775177E+03  0.79859365073E+03  0.12699999809E+01 0.  1.
</event>
<event>
 5   0  0.1311472E-04  0.1868886E+04  0.7818609E-02  0.8670501E-01
        2   -1    0    0  501    0  0.00000000000E+00  0.00000000000E+00  0.17999606568E+04  0.17999606568E+04  0.25500000920E-02 0.  1.
       -2   -1    0    0    0  501  0.00000000000E+00  0.00000000000E+00 -0.48511260738E+03  0.48511260739E+03  0.25500000920E-02 0. -1.
    10030    2    1    2    0    0  0.00000000000E+00  0.00000000000E+00  0.13148480494E+04  0.22850732642E+04  0.18688858792E+04 0.  0.
        4    1    3    3  502    0 -0.25681020535E+03 -0.46074651658E+03  0.16005182474E+04  0.16852000200E+04  0.12699999809E+01 0.  1.
       -4    1    3    3    0  502  0.25681020535E+03  0.46074651658E+03 -0.28567019805E+03  0.59987324416E+03  0.12699999809E+01 0. -1.
</event>
<event>
 5   0  0.1226021E-04  0.2171747E+04  0.7818609E-02  0.8530280E-01
        2   -1    0    0  501    0  0.00000000000E+00  0.00000000000E+00  0.10261157398E+04  0.10261157398E+04  0.25500000920E-02 0.  1.
       -2   -1    0    0    0  501  0.00000000000E+00  0.00000000000E+00 -0.11491118043E+04  0.11491118043E+04  0.25500000920E-02 0. -1.
    10030    2    1    2    0    0  0.00000000000E+00  0.00000000000E+00 -0.12299606448E+03  0.21752275440E+04  0.21717474154E+04 0.  0.
        2    1    3    3  502    0 -0.38114677423E+03  0.60897170201E+03 -0.87705236989E+03  0.11337284758E+04  0.25500000920E-02 0. -1.
       -2    1    3    3    0  502  0.38114677423E+03 -0.60897170201E+03  0.75405630541E+03  0.10414990682E+04  0.25500000920E-02 0.  1.
</event>
<event>
 5   0  0.5895063E-05  0.1676531E+04  0.7818609E-02  0.8774864E-01
       -1   -1    0    0    0  501  0.00000000000E+00  0.00000000000E+00  0.13526016271E+04  0.13526016271E+04  0.50400001928E-02 0.  1.
        1   -1    0    0  501    0  0.00000000000E+00  0.00000000000E+00 -0.51950944029E+03  0.51950944032E+03  0.50400001928E-02 0. -1.
    10030    2    1    2    0    0  0.00000000000E+00  0.00000000000E+00  0.83309218677E+03  0.18721110674E+04  0.16765313170E+04 0.  0.
        5    1    3    3  502    0 -0.19201449835E+03 -0.40740967874E+03 -0.37290383142E+03  0.58474915254E+03  0.46999998093E+01 0. -1.
       -5    1    3    3    0  502  0.19201449835E+03  0.40740967874E+03  0.12059960182E+04  0.12873619148E+04  0.46999998093E+01 0.  1.
</event>
<event>
 5   0  0.1252124E-04  0.2237412E+04  0.7818609E-02  0.8503016E-01
       -2   -1    0    0    0  501  0.00000000000E+00  0.00000000000E+00  0.69035140006E+03  0.69035140006E+03  0.25500000920E-02 0. -1.
        2   -1    0    0  501    0  0.00000000000E+00  0.00000000000E+00 -0.18128499961E+04  0.18128499961E+04  0.25500000920E-02 0.  1.
    10030    2    1    2    0    0  0.00000000000E+00  0.00000000000E+00 -0.11224985960E+04  0.25032013961E+04  0.22374123740E+04 0.  0.
        3    1    3    3  502    0  0.57976276083E+03 -0.39676996198E+03  0.41277700112E+03  0.81482275645E+03  0.10100000352E+00 0. -1.
       -3    1    3    3    0  502 -0.57976276083E+03  0.39676996198E+03 -0.15352755971E+04  0.16883786397E+04  0.10100000352E+00 0.  1.
</event>
<event>
 5   0  0.1226021E-04  0.2164525E+04  0.7818609E-02  0.8533340E-01
        2   -1    0    0  501    0  0.00000000000E+00  0.00000000000E+00  0.11090133666E+04  0.11090133667E+04  0.25500000920E-02 0. -1.
       -2   -1    0    0    0  501  0.00000000000E+00  0.00000000000E+00 -0.10561570721E+04  0.10561570722E+04  0.25500000920E-02 0.  1.
    10030    2    1    2    0    0  0.00000000000E+00  0.00000000000E+00  0.52856294502E+02  0.21651704388E+04  0.21645251768E+04 0.  0.
        2    1    3    3  502    0 -0.57537699648E+03  0.12871066644E+03 -0.88140352386E+03  0.10604231682E+04  0.25500000920E-02 0.  1.
       -2    1    3    3    0  502  0.57537699648E+03 -0.12871066644E+03  0.93425981836E+03  0.11047472706E+04  0.25500000920E-02 0. -1.
</event>
<event>
 5   0  0.1404159E-04  0.2075710E+04  0.7818609E-02  0.8572020E-01
       -2   -1    0    0    0  501  0.00000000000E+00  0.00000000000E+00  0.10633985732E+04  0.10633985732E+04  0.25500000920E-02 0.  1.
        2   -1    0    0  501    0  0.00000000000E+00  0.00000000000E+00 -0.10129247118E+04  0.10129247118E+04  0.25500000920E-02 0. -1.
    10030    2    1    2    0    0  0.00000000000E+00  0.00000000000E+00  0.50473861350E+02  0.20763232850E+04  0.20757097035E+04 0.  0.
        5    1    3    3  502    0  0.61946854653E+03  0.22473857216E+03 -0.77679300670E+03  0.10186648964E+04  0.46999998093E+01 0. -1.
       -5    1    3    3    0  502 -0.61946854653E+03 -0.22473857216E+03  0.82726686805E+03  0.10576583886E+04  0.46999998093E+01 0.  1.
</event>
<event>
 5   0  0.6263558E-05  0.2178323E+04  0.7818609E-02  0.8527505E-01
       -1   -1    0    0    0  501  0.00000000000E+00  0.00000000000E+00  0.87419227244E+03  0.87419227245E+03  0.50400001928E-02 0.  1.
        1   -1    0    0  501    0  0.00000000000E+00  0.00000000000E+00 -0.13569930312E+04  0.13569930313E+04  0.50400001928E-02 0. -1.
    10030    2    1    2    0    0  0.00000000000E+00  0.00000000000E+00 -0.48280075881E+03  0.22311853037E+04  0.21783230446E+04 0.  0.
        3    1    3    3  502    0  0.80620241560E+03 -0.72379685523E+03 -0.12721138018E+03  0.10908835722E+04  0.10100000352E+00 0. -1.
       -3    1    3    3    0  502 -0.80620241560E+03  0.72379685523E+03 -0.35558937862E+03  0.11403017315E+04  0.10100000352E+00 0.  1.
</event>
<event>
 5   0  0.1241430E-04  0.2197482E+04  0.7818609E-02  0.8519477E-01
        2   -1    0    0  501    0  0.00000000000E+00  0.00000000000E+00  0.19604790649E+04  0.19604790649E+04  0.25500000920E-02 0. -1.
       -2   -1    0    0    0  501  0.00000000000E+00  0.00000000000E+00 -0.61578425133E+03  0.61578425134E+03  0.25500000920E-02 0.  1.
    10030    2    1    2    0    0  0.00000000000E+00  0.00000000000E+00  0.13446948135E+04  0.25762633162E+04  0.21974823169E+04 0.  0.
        1    1    3    3  502    0  0.84942271827E+03  0.28390817938E+03  0.14185400799E+04  0.16776110297E+04  0.50400001928E-02 0. -1.
       -1    1    3    3    0  502 -0.84942271827E+03 -0.28390817938E+03 -0.73845266384E+02  0.89865228650E+03  0.50400001928E-02 0.  1.
</event>
<event>
 5   0  0.6263558E-05  0.2359521E+04  0.7818609E-02  0.8454816E-01
       -1   -1    0    0    0  501  0.00000000000E+00  0.00000000000E+00  0.75961032840E+03  0.75961032841E+03  0.50400001928E-02 0. -1.
        1   -1    0    0  501    0  0.00000000000E+00  0.00000000000E+00 -0.18323016500E+04  0.18323016500E+04  0.50400001928E-02 0.  1.
    10030    2    1    2    0    0  0.00000000000E+00  0.00000000000E+00 -0.10726913216E+04  0.25919119785E+04  0.23595213567E+04 0.  0.
        3    1    3    3  502    0 -0.29162950058E+03  0.39016906016E+03  0.64398519303E+03  0.80746306427E+03  0.10100000352E+00 0. -1.
       -3    1    3    3    0  502  0.29162950058E+03 -0.39016906016E+03 -0.17166765147E+04  0.17844489142E+04  0.10100000352E+00 0.  1.
</event>
<event>
 5   0  0.1226021E-04  0.2128660E+04  0.7818609E-02  0.8548722E-01
       -2   -1    0    0    0  501  0.00000000000E+00  0.00000000000E+00  0.13251417559E+04  0.13251417559E+04  0.25500000920E-02 0. -1.
        2   -1    0    0  501    0  0.00000000000E+00  0.00000000000E+00 -0.85485086226E+03  0.85485086227E+03  0.25500000920E-02 0.  1.
    10030    2    1    2    0    0  0.00000000000E+00  0.00000000000E+00  0.47029089364E+03  0.21799926182E+04  0.21286602102E+04 0.  0.
        2    1    3    3  502    0  0.35026607215E+03  0.19505896787E+03  0.12448543053E+04  0.13078213042E+04  0.25500000920E-02 0. -1.
       -2    1    3    3    0  502 -0.35026607215E+03 -0.19505896787E+03 -0.77456341166E+03  0.87217131399E+03  0.25500000920E-02 0.  1.
</event>
<event>
 5   0  0.1241430E-04  0.2119012E+04  0.7818609E-02  0.8552914E-01
       -2   -1    0    0    0  501  0.00000000000E+00  0.00000000000E+00  0.19544493519E+04  0.19544493519E+04  0.25500000920E-02 0. -1.
        2   -1    0    0  501    0  0.00000000000E+00  0.00000000000E+00 -0.57435788149E+03  0.57435788149E+03  0.25500000920E-02 0.  1.
    10030    2    1    2    0    0  0.00000000000E+00  0.00000000000E+00  0.13800914704E+04  0.25288072334E+04  0.21190124013E+04 0.  0.
        1    1    3    3  502    0 -0.87117445604E+03 -0.60104768268E+03  0.74789915662E+03  0.12959770053E+04  0.50400001928E-02 0.  1.
       -1    1    3    3    0  502  0.87117445604E+03  0.60104768268E+03  0.63219231378E+03  0.12328302281E+04  0.50400001928E-02 0. -1.
</event>
<event>
 5   0  0.1241430E-04  0.2240194E+04  0.7818609E-02  0.8501882E-01
        2   -1    0    0  501    0  0.00000000000E+00  0.00000000000E+00  0.13863007845E+04  0.13863007845E+04  0.25500000920E-02 0. -1.
       -2   -1    0    0    0  501  0.00000000000E+00  0.00000000000E+00 -0.90501117101E+03  0.90501117101E+03  0.25500000920E-02 0.  1.
    10030    2    1    2    0    0  0.00000000000E+00  0.00000000000E+00  0.48128961350E+03  0.22913119555E+04  0.22401943633E+04 0.  0.
        1    1    3    3  502    0 -0.53999260634E+03 -0.98078779299E+03  0.20701621621E+03  0.11385922991E+04  0.50400001928E-02 0. -1.
       -1    1    3    3    0  502  0.53999260634E+03  0.98078779299E+03  0.27427339728E+03  0.11527196564E+04  0.50400001928E-02 0.  1.
</event>
<event>
 5   0  0.1404159E-04  0.2111559E+04  0.7818609E-02  0.8556169E-01
        2   -1    0    0  501    0  0.00000000000E+00  0.00000000000E+00  0.13892381020E+04  0.13892381020E+04  0.25500000920E-02 0. -1.
       -2   -1    0    0    0  501  0.00000000000E+00  0.00000000000E+00 -0.80236086854E+03  0.80236086854E+03  0.25500000920E-02 0.  1.
    10030    2    1    2    0    0  0.00000000000E+00  0.00000000000E+00  0.58687723345E+03  0.21915989705E+04  0.21115589408E+04 0.  0.
        5    1    3    3  502    0  0.56833099112E+03  0.24181260930E+03  0.11821518112E+04  0.13337835088E+04  0.46999998093E+01 0. -1.
       -5    1    3    3    0  502 -0.56833099112E+03 -0.24181260930E+03 -0.59527457778E+03  0.85781546176E+03  0.46999998093E+01 0.  1.
</event>
<event>
 5   0  0.5981239E-05  0.2175852E+04  0.7818609E-02  0.8528547E-01
       -1   -1    0    0    0  501  0.00000000000E+00  0.00000000000E+00  0.16337257485E+04  0.16337257485E+04  0.50400001928E-02 0.  1.
        1   -1    0    0  501    0  0.00000000000E+00  0.00000000000E+00 -0.72446866155E+03  0.72446866157E+03  0.50400001928E-02 0. -1.
    10030    2    1    2    0    0  0.00000000000E+00  0.00000000000E+00  0.90925708690E+03  0.23581944100E+04  0.21758521148E+04 0.  0.
        4    1    3    3  502    0  0.39267560911E+03 -0.22940138634E+03  0.15257647253E+04  0.15920988474E+04  0.12699999809E+01 0.  1.
       -4    1    3    3    0  502 -0.39267560911E+03  0.22940138634E+03 -0.61650763837E+03  0.76609556265E+03  0.12699999809E+01 0. -1.
</event>
<event>
 5   0  0.5895063E-05  0.2195968E+04  0.7818609E-02  0.8520108E-01
        1   -1    0    0  501    0  0.00000000000E+00  0.00000000000E+00  0.13054494463E+04  0.13054494463E+04  0.50400001928E-02 0. -1.
       -1   -1    0    0    0  501  0.00000000000E+00  0.00000000000E+00 -0.92348946765E+03  0.92348946766E+03  0.50400001928E-02 0.  1.
    10030    2    1    2    0    0  0.00000000000E+00  0.00000000000E+00  0.38195997861E+03  0.22289389139E+04  0.21959679544E+04 0.  0.
        5    1    3    3  502    0  0.10795415841E+04 -0.19674805040E+03  0.22932143671E+03  0.11210398023E+04  0.46999998093E+01 0.  1.
       -5    1    3    3    0  502 -0.10795415841E+04  0.19674805040E+03  0.15263854190E+03  0.11078991116E+04  0.46999998093E+01 0. -1.
</event>
<event>
 5   0  0.1311472E-04  0.2158603E+04  0.7818609E-02  0.8535859E-01
       -2   -1    0    0    0  501  0.00000000000E+00  0.00000000000E+00  0.10488775527E+04  0.10488775527E+04  0.25500000920E-02 0.  1.
        2   -1    0    0  501    0  0.00000000000E+00  0.00000000000E+00 -0.11106076730E+04  0.11106076730E+04  0.25500000920E-02 0. -1.
    10030    2    1    2    0    0  0.00000000000E+00  0.00000000000E+00 -0.61730120340E+02  0.21594852258E+04  0.21586027500E+04 0.  0.
        4    1    3    3  502    0  0.52295497962E+03  0.27283488727E+03 -0.93509798299E+03  0.11055906282E+04  0.12699999809E+01 0. -1.
       -4    1    3    3    0  502 -0.52295497962E+03 -0.27283488727E+03  0.87336786265E+03  0.10538945976E+04  0.12699999809E+01 0.  1.
</event>
<event>
 5   0  0.5981239E-05  0.2143533E+04  0.7818609E-02  0.8542306E-01
       -1   -1    0    0    0  501  0.00000000000E+00  0.00000000000E+00  0.58516411349E+03  0.58516411351E+03  0.50400001928E-02 0.  1.
        1   -1    0    0  501    0  0.00000000000E+00  0.00000000000E+00 -0.19630100532E+04  0.19630100532E+04  0.50400001928E-02 0. -1.
    10030    2    1    2    0    0  0.00000000000E+00  0.00000000000E+00 -0.13778459397E+04  0.25481741667E+04  0.21435326334E+04 0.  0.
        4    1    3    3  502    0 -0.45893189402E+03 -0.55712620374E+02 -0.18383867806E+04  0.18956238940E+04  0.12699999809E+01 0. -1.
       -4    1    3    3    0  502  0.45893189402E+03  0.55712620374E+02  0.46054084090E+03  0.65255027274E+03  0.12699999809E+01 0.  1.
</event>
<event>
 5   0  0.5861816E-05  0.2208930E+04  0.7818609E-02  0.8514720E-01
        1   -1    0    0  501    0  0.00000000000E+00  0.00000000000E+00  0.96162308118E+03  0.96162308119E+03  0.50400001928E-02 0. -1.
       -1   -1    0    0    0  501  0.00000000000E+00  0.00000000000E+00 -0.12685249756E+04  0.12685249756E+04  0.50400001928E-02 0.  1.
    10030    2    1    2    0    0  0.00000000000E+00  0.00000000000E+00 -0.30690189442E+03  0.22301480568E+04  0.22089299632E+04 0.  0.
        1    1    3    3  502    0 -0.91156775758E+03 -0.11345962454E+03  0.46563903478E+03  0.10298779412E+04  0.50400001928E-02 0.  1.
       -1    1    3    3    0  502  0.91156775758E+03  0.11345962454E+03 -0.77254092920E+03  0.12002701156E+04  0.50400001928E-02 0. -1.
</event>
<event>
 5   0  0.1241430E-04  0.1929167E+04  0.7818609E-02  0.8640473E-01
       -2   -1    0    0    0  501  0.00000000000E+00  0.00000000000E+00  0.82222105047E+03  0.82222105047E+03  0.25500000920E-02 0.  1.
        2   -1    0    0  501    0  0.00000000000E+00  0.00000000000E+00 -0.11315954190E+04  0.11315954190E+04  0.25500000920E-02 0. -1.
    10030    2    1    2    0    0  0.00000000000E+00  0.00000000000E+00 -0.30937436849E+03  0.19538164694E+04  0.19291672546E+04 0.  0.
        1    1    3    3  502    0  0.33852728465E+03 -0.32937953587E+03  0.69708786689E+03  0.84203509148E+03  0.50400001928E-02 0.  1.
       -1    1    3    3    0  502 -0.33852728465E+03  0.32937953587E+03 -0.10064622354E+04  0.11117813780E+04  0.50400001928E-02 0. -1.
</event>
<event>
 5   0  0.5895063E-05  0.2115803E+04  0.7818609E-02  0.8554314E-01
        1   -1    0    0  501    0  0.00000000000E+00  0.00000000000E+00  0.70961520833E+03  0.70961520835E+03  0.50400001928E-02 0.  1.
       -1   -1    0    0    0  501  0.00000000000E+00  0.00000000000E+00 -0.15771304955E+04  0.15771304955E+04  0.50400001928E-02 0. -1.
    10030    2    1    2    0    0  0.00000000000E+00  0.00000000000E+00 -0.86751528713E+03  0.22867457038E+04  0.21158031904E+04 0.  0.
        5    1    3    3  502    0 -0.12972989713E+03 -0.76420861472E+03  0.34433017750E+03  0.84819220355E+03  0.46999998093E+01 0.  1.
       -5    1    3    3    0  502  0.12972989713E+03  0.76420861472E+03 -0.12118454646E+04  0.14385535003E+04  0.46999998093E+01 0. -1.
</event>
<event>
 5   0  0.1311472E-04  0.2176779E+04  0.7818609E-02  0.8528156E-01
       -2   -1    0    0    0  501  0.00000000000E+00  0.00000000000E+00  0.59659394826E+03  0.59659394827E+03  0.25500000920E-02 0.  1.
        2   -1    0    0  501    0  0.00000000000E+00  0.00000000000E+00 -0.19855910839E+04  0.19855910839E+04  0.25500000920E-02 0. -1.
    10030    2    1    2    0    0  0.00000000000E+00  0.00000000000E+00 -0.13889971356E+04  0.25821850321E+04  0.21767789271E+04 0.  0.
        4    1    3    3  502    0 -0.10685400652E+04 -0.81295832835E+02 -0.46879101976E+03  0.11696809465E+04  0.12699999809E+01 0.  1.
       -4    1    3    3    0  502  0.10685400652E+04  0.81295832835E+02 -0.92020611586E+03  0.14125040857E+04  0.12699999809E+01 0. -1.
</event>
<event>
 5   0  0.1241430E-04  0.2162325E+04  0.7818609E-02  0.8534275E-01
       -2   -1    0    0    0  501  0.00000000000E+00  0.00000000000E+00  0.23179657400E+04  0.23179657400E+04  0.25500000920E-02 0. -1.
        2   -1    0    0  501    0  0.00000000000E+00  0.00000000000E+00 -0.50428368091E+03  0.50428368092E+03  0.25500000920E-02 0.  1.
    10030    2    1    2    0    0  0.00000000000E+00  0.00000000000E+00  0.18136820591E+04  0.28222494209E+04  0.21623249484E+04 0.  0.
        1    1    3    3  502    0  0.63479564638E+03  0.25878410820E+03  0.19980452894E+04  0.21123730035E+04  0.50400001928E-02 0. -1.
       -1    1    3    3    0  502 -0.63479564638E+03 -0.25878410820E+03 -0.18436323032E+03  0.70987641744E+03  0.50400001928E-02 0.  1.
</event>
<event>
 5   0  0.1252124E-04  0.2234613E+04  0.7818609E-02  0.8504158E-01
        2   -1    0    0  501    0  0.00000000000E+00  0.00000000000E+00  0.18867919741E+04  0.18867919741E+04  0.25500000920E-02 0.  1.
       -2   -1    0    0    0  501  0.00000000000E+00  0.00000000000E+00 -0.66163823491E+03  0.66163823492E+03  0.25500000920E-02 0. -1.
    10030    2    1    2    0    0  0.00000000000E+00  0.00000000000E+00  0.12251537391E+04  0.25484302090E+04  0.22346129073E+04 0.  0.
        3    1    3    3  502    0 -0.55042171857E+02  0.55908387026E+03  0.17140085410E+04  0.18037266155E+04  0.10100000352E+00 0.  1.
       -3    1    3    3    0  502  0.55042171857E+02 -0.55908387026E+03 -0.48885480184E+03  0.74470359349E+03  0.10100000352E+00 0. -1.
</event>
<event>
 5   0  0.1226021E-04  0.2208922E+04  0.7818609E-02  0.8514724E-01
        2   -1    0    0  501    0  0.00000000000E+00  0.00000000000E+00  0.53198110133E+03  0.53198110134E+03  0.25500000920E-02 0. -1.
       -2   -1    0    0    0  501  0.00000000000E+00  0.00000000000E+00 -0.22930026215E+04  0.22930026215E+04  0.25500000920E-02 0.  1.
    10030    2    1    2    0    0  0.00000000000E+00  0.00000000000E+00 -0.17610215202E+04  0.28249837229E+04  0.22089219633E+04 0.  0.
        2    1    3    3  502    0  0.84466838624E+03 -0.49227847503E+03 -0.22336264400E+03  0.10028427845E+04  0.25500000920E-02 0. -1.
       -2    1    3    3    0  502 -0.84466838624E+03  0.49227847503E+03 -0.15376588762E+04  0.18221409384E+04  0.25500000920E-02 0.  1.
</event>
<event>
 5   0  0.1241430E-04  0.2195191E+04  0.7818609E-02  0.8520433E-01
       -2   -1    0    0    0  501  0.00000000000E+00  0.00000000000E+00  0.10200195489E+04  0.10200195489E+04  0.25500000920E-02 0. -1.
        2   -1    0    0  501    0  0.00000000000E+00  0.00000000000E+00 -0.11810709481E+04  0.11810709481E+04  0.25500000920E-02 0.  1.
    10030    2    1    2    0    0  0.00000000000E+00  0.00000000000E+00 -0.16105139915E+03  0.22010904970E+04  0.21951906120E+04 0.  0.
        1    1    3    3  502    0 -0.31839082843E+02 -0.22120036994E+02  0.10193328053E+04  0.10200697972E+04  0.50400001928E-02 0. -1.
       -1    1    3    3    0  502  0.31839082843E+02  0.22120036994E+02 -0.11803842044E+04  0.11810206998E+04  0.50400001928E-02 0.  1.
</event>
<event>
 5   0  0.1252124E-04  0.2194608E+04  0.7818609E-02  0.8520676E-01
        2   -1    0    0  501    0  0.00000000000E+00  0.00000000000E+00  0.26027826807E+04  0.26027826807E+04  0.25500000920E-02 0.  1.
       -2   -1    0    0    0  501  0.00000000000E+00  0.00000000000E+00 -0.46261119924E+03  0.46261119925E+03  0.25500000920E-02 0. -1.
    10030    2    1    2    0    0  0.00000000000E+00  0.00000000000E+00  0.21401714815E+04  0.30653938800E+04  0.21946083180E+04 0.  0.
        3    1    3    3  502    0 -0.71414131653E+03  0.75677168518E+03  0.58346092657E+03  0.11929492305E+04  0.10100000352E+00 0. -1.
       -3    1    3    3    0  502  0.71414131653E+03 -0.75677168518E+03  0.15567105549E+04  0.18724446495E+04  0.10100000352E+00 0.  1.
</event>
<event>
 5   0  0.1226021E-04  0.1686631E+04  0.7818609E-02  0.8769026E-01
        2   -1    0    0  501    0  0.00000000000E+00  0.00000000000E+00  0.14286133757E+04  0.14286133757E+04  0.25500000920E-02 0.  1.
       -2   -1    0    0    0  501  0.00000000000E+00  0.00000000000E+00 -0.49781184868E+03  0.49781184869E+03  0.25500000920E-02 0. -1.
    10030    2    1    2    0    0  0.00000000000E+00  0.00000000000E+00  0.93080152702E+03  0.19264252244E+04  0.16866305649E+04 0.  0.
        2    1    3    3  502    0  0.38305418125E+03 -0.20323075175E+03 -0.36072132523E+03  0.56405063489E+03  0.25500000920E-02 0. -1.
       -2    1    3    3    0  502 -0.38305418125E+03  0.20323075175E+03  0.12915228522E+04  0.13623745895E+04  0.25500000920E-02 0.  1.
</event>
<event>
 5   0  0.6263558E-05  0.2224486E+04  0.7818609E-02  0.8508305E-01
        1   -1    0    0  501    0  0.00000000000E+00  0.00000000000E+00  0.18600371875E+04  0.18600371875E+04  0.50400001928E-02 0.  1.
       -1   -1    0    0    0  501  0.00000000000E+00  0.00000000000E+00 -0.66508583257E+03  0.66508583259E+03  0.50400001928E-02 0. -1.
    10030    2    1    2    0    0  0.00000000000E+00  0.00000000000E+00  0.11949513550E+04  0.25251230201E+04  0.22244859015E+04 0.  0.
        3    1    3    3  502    0  0.53678322623E+02 -0.10892999611E+04  0.84521035852E+03  0.13797957558E+04  0.10100000352E+00 0.  1.
       -3    1    3    3    0  502 -0.53678322623E+02  0.10892999611E+04  0.34974099644E+03  0.11453272643E+04  0.10100000352E+00 0. -1.
</event>
<event>
 5   0  0.5861816E-05  0.2187598E+04  0.7818609E-02  0.8523608E-01
       -1   -1    0    0    0  501  0.00000000000E+00  0.00000000000E+00  0.17381155119E+04  0.17381155119E+04  0.50400001928E-02 0.  1.
        1   -1    0    0  501    0  0.00000000000E+00  0.00000000000E+00 -0.68832970479E+03  0.68832970480E+03  0.50400001928E-02 0. -1.
    10030    2    1    2    0    0  0.00000000000E+00  0.00000000000E+00  0.10497858071E+04  0.24264452167E+04  0.21875982604E+04 0.  0.
        1    1    3    3  502    0 -0.82752630906E+02  0.60060376364E+03 -0.48490389794E+03  0.77634056256E+03  0.50400001928E-02 0. -1.
       -1    1    3    3    0  502  0.82752630906E+02 -0.60060376364E+03  0.15346897051E+04  0.16501046542E+04  0.50400001928E-02 0.  1.
</event>
<event>
 5   0  0.1226021E-04  0.2162463E+04  0.7818609E-02  0.8534216E-01
        2   -1    0    0  501    0  0.00000000000E+00  0.00000000000E+00  0.14513582730E+04  0.14513582730E+04  0.25500000920E-02 0. -1.
       -2   -1    0    0    0  501  0.00000000000E+00  0.00000000000E+00 -0.80549448495E+03  0.80549448495E+03  0.25500000920E-02 0.  1.
    10030    2    1    2    0    0  0.00000000000E+00  0.00000000000E+00  0.64586378809E+03  0.22568527580E+04  0.21624625635E+04 0.  0.
        2    1    3    3  502    0  0.80201007177E+03  0.62657463699E+03 -0.58028948883E+02  0.10194033990E+04  0.25500000920E-02 0.  1.
       -2    1    3    3    0  502 -0.80201007177E+03 -0.62657463699E+03  0.70389273697E+03  0.12374493590E+04  0.25500000920E-02 0. -1.
</event>
<event>
 5   0  0.1404159E-04  0.2084938E+04  0.7818609E-02  0.8567908E-01
        2   -1    0    0  501    0  0.00000000000E+00  0.00000000000E+00  0.11736741464E+04  0.11736741464E+04  0.25500000920E-02 0. -1.
       -2   -1    0    0    0  501  0.00000000000E+00  0.00000000000E+00 -0.92593116529E+03  0.92593116530E+03  0.25500000920E-02 0.  1.
    10030    2    1    2    0    0  0.00000000000E+00  0.00000000000E+00  0.24774298115E+03  0.20996053117E+04  0.20849378601E+04 0.  0.
        5    1    3    3  502    0  0.63377564700E+03 -0.59762966922E+03  0.70051362599E+03  0.11178435590E+04  0.46999998093E+01 0. -1.
       -5    1    3    3    0  502 -0.63377564700E+03  0.59762966922E+03 -0.45277064484E+03  0.98176175271E+03  0.46999998093E+01 0.  1.
</event>
<event>
 5   0  0.1404159E-04  0.2240443E+04  0.7818609E-02  0.8501781E-01
       -2   -1    0    0    0  501  0.00000000000E+00  0.00000000000E+00  0.51372332501E+03  0.51372332501E+03  0.25500000920E-02 0.  1.
        2   -1    0    0  501    0  0.00000000000E+00  0.00000000000E+00 -0.24427466620E+04  0.24427466620E+04  0.25500000920E-02 0. -1.
    10030    2    1    2    0    0  0.00000000000E+00  0.00000000000E+00 -0.19290233370E+04  0.29564699870E+04  0.22404427575E+04 0.  0.
        5    1    3    3  502    0 -0.10477055599E+04 -0.15861900874E+03 -0.48503126342E+03  0.11653859218E+04  0.46999998093E+01 0.  1.
       -5    1    3    3    0  502  0.10477055599E+04  0.15861900874E+03 -0.14439920736E+04  0.17910840652E+04  0.46999998093E+01 0. -1.
</event>
<event>
 5   0  0.5981239E-05  0.2198128E+04  0.7818609E-02  0.8519208E-01
        1   -1    0    0  501    0  0.00000000000E+00  0.00000000000E+00  0.14391089735E+04  0.14391089735E+04  0.50400001928E-02 0. -1.
       -1   -1    0    0    0  501  0.00000000000E+00  0.00000000000E+00 -0.83936794093E+03  0.83936794094E+03  0.50400001928E-02 0.  1.
    10030    2    1    2    0    0  0.00000000000E+00  0.00000000000E+00  0.59974103255E+03  0.22784769144E+04  0.21981282364E+04 0.  0.
        4    1    3    3  502    0 -0.36766676804E+03 -0.27290441784E+01 -0.77372745834E+03  0.85664583854E+03  0.12699999809E+01 0.  1.
       -4    1    3    3    0  502  0.36766676804E+03  0.27290441784E+01  0.13734684909E+04  0.14218310759E+04  0.12699999809E+01 0. -1.
</event>
<event>
 5   0  0.5895063E-05  0.2223670E+04  0.7818609E-02  0.8508640E-01
        1   -1    0    0  501    0  0.00000000000E+00  0.00000000000E+00  0.79222302444E+03  0.79222302446E+03  0.50400001928E-02 0.  1.
       -1   -1    0    0    0  501  0.00000000000E+00  0.00000000000E+00 -0.15603904321E+04  0.15603904321E+04  0.50400001928E-02 0. -1.
    10030    2    1    2    0    0  0.00000000000E+00  0.00000000000E+00 -0.76816740762E+03  0.23526134565E+04  0.22236701441E+04 0.  0.
        5    1    3    3  502    0 -0.77094289307E+03 -0.34499750397E+03  0.38087720681E+03  0.92653427286E+03  0.46999998093E+01 0.  1.
       -5    1    3    3    0  502  0.77094289307E+03  0.34499750397E+03 -0.11490446144E+04  0.14260791837E+04  0.46999998093E+01 0. -1.
</event>
<event>
 5   0  0.1241430E-04  0.2227146E+04  0.7818609E-02  0.8507214E-01
       -2   -1    0    0    0  501  0.00000000000E+00  0.00000000000E+00  0.67525378974E+03  0.67525378975E+03  0.25500000920E-02 0. -1.
        2   -1    0    0  501    0  0.00000000000E+00  0.00000000000E+00 -0.18364127018E+04  0.18364127018E+04  0.25500000920E-02 0.  1.
    10030    2    1    2    0    0  0.00000000000E+00  0.00000000000E+00 -0.11611589121E+04  0.25116664916E+04  0.22271458295E+04 0.  0.
        1    1    3    3  502    0 -0.85881787568E+03  0.68808774011E+03 -0.38849142028E+03  0.11670297620E+04  0.50400001928E-02 0. -1.
       -1    1    3    3    0  502  0.85881787568E+03 -0.68808774011E+03 -0.77266749179E+03  0.13446367296E+04  0.50400001928E-02 0.  1.
</event>
<event>
 5   0  0.1311472E-04  0.1964136E+04  0.7818609E-02  0.8623574E-01
       -2   -1    0    0    0  501  0.00000000000E+00  0.00000000000E+00  0.83480586255E+03  0.83480586255E+03  0.25500000920E-02 0.  1.
        2   -1    0    0  501    0  0.00000000000E+00  0.00000000000E+00 -0.11553078329E+04  0.11553078329E+04  0.25500000920E-02 0. -1.
    10030    2    1    2    0    0  0.00000000000E+00  0.00000000000E+00 -0.32050197032E+03  0.19901136954E+04  0.19641361989E+04 0.  0.
        4    1    3    3  502    0 -0.60163550442E+03  0.49209593093E+03 -0.76846717766E+03  0.10930082806E+04  0.12699999809E+01 0. -1.
       -4    1    3    3    0  502  0.60163550442E+03 -0.49209593093E+03  0.44796520734E+03  0.89710541482E+03  0.12699999809E+01 0.  1.
</event>
<event>
 5   0  0.1226021E-04  0.1984259E+04  0.7818609E-02  0.8614015E-01
        2   -1    0    0  501    0  0.00000000000E+00  0.00000000000E+00  0.12466911221E+04  0.12466911221E+04  0.25500000920E-02 0. -1.
       -2   -1    0    0    0  501  0.00000000000E+00  0.00000000000E+00 -0.78954704130E+03  0.78954704130E+03  0.25500000920E-02 0.  1.
    10030    2    1    2    0    0  0.00000000000E+00  0.00000000000E+00  0.45714408080E+03  0.20362381634E+04  0.19842593448E+04 0.  0.
        2    1    3    3  502    0  0.98178442409E+02  0.74202660896E+03 -0.43970019128E+03  0.86808913895E+03  0.25500000920E-02 0.  1.
       -2    1    3    3    0  502 -0.98178442409E+02 -0.74202660896E+03  0.89684427207E+03  0.11681490244E+04  0.25500000920E-02 0. -1.
</event>
<event>
 5   0  0.1226021E-04  0.1859346E+04  0.7818609E-02  0.8675361E-01
        2   -1    0    0  501    0  0.00000000000E+00  0.00000000000E+00  0.11273222658E+04  0.11273222658E+04  0.25500000920E-02 0.  1.
       -2   -1    0    0    0  501  0.00000000000E+00  0.00000000000E+00 -0.76667723310E+03  0.76667723310E+03  0.25500000920E-02 0. -1.
    10030    2    1    2    0    0  0.00000000000E+00  0.00000000000E+00  0.36064503270E+03  0.18939994989E+04  0.18593464611E+04 0.  0.
        2    1    3    3  502    0 -0.46852642217E+03  0.45999669158E+03 -0.49010666627E+03  0.81934028881E+03  0.25500000920E-02 0. -1.
       -2    1    3    3    0  502  0.46852642217E+03 -0.45999669158E+03  0.85075169897E+03  0.10746592101E+04  0.25500000920E-02 0.  1.
</event>
<event>
 5   0  0.4586375E-05  0.2238265E+04  0.7818609E-02  0.8502668E-01
       -4   -1    0    0    0  501  0.00000000000E+00  0.00000000000E+00  0.12015958833E+04  0.12015965545E+04  0.12699999809E+01 0.  1.
        4   -1    0    0  501    0  0.00000000000E+00  0.00000000000E+00 -0.10423269709E+04  0.10423277446E+04  0.12699999809E+01 0. -1.
    10030    2    1    2    0    0  0.00000000000E+00  0.00000000000E+00  0.15926891241E+03  0.22439242991E+04  0.22382648801E+04 0.  0.
        3    1    3    3  502    0  0.25825582262E+02  0.53430441805E+03 -0.90586136360E+03  0.10520137794E+04  0.10100000352E+00 0. -1.
       -3    1    3    3    0  502 -0.25825582262E+02 -0.53430441805E+03  0.10651302760E+04  0.11919105197E+04  0.10100000352E+00 0.  1.
</event>
<event>
 5   0  0.6263558E-05  0.2152165E+04  0.7818609E-02  0.8538606E-01
       -1   -1    0    0    0  501  0.00000000000E+00  0.00000000000E+00  0.58411474234E+03  0.58411474236E+03  0.50400001928E-02 0.  1.
        1   -1    0    0  501    0  0.00000000000E+00  0.00000000000E+00 -0.19824084024E+04  0.19824084024E+04  0.50400001928E-02 0. -1.
    10030    2    1    2    0    0  0.00000000000E+00  0.00000000000E+00 -0.13982936601E+04  0.25665231448E+04  0.21521653963E+04 0.  0.
        3    1    3    3  502    0 -0.34954030004E+03  0.35375405229E+03 -0.18371445161E+04  0.19032657024E+04  0.10100000352E+00 0. -1.
       -3    1    3    3    0  502  0.34954030004E+03 -0.35375405229E+03  0.43885085599E+03  0.66325744237E+03  0.10100000352E+00 0.  1.
</event>
<event>
 5   0  0.1404159E-04  0.2050721E+04  0.7818609E-02  0.8583267E-01
        2   -1    0    0  501    0  0.00000000000E+00  0.00000000000E+00  0.10312784669E+04  0.10312784669E+04  0.25500000920E-02 0. -1.
       -2   -1    0    0    0  501  0.00000000000E+00  0.00000000000E+00 -0.10194762752E+04  0.10194762752E+04  0.25500000920E-02 0.  1.
    10030    2    1    2    0    0  0.00000000000E+00  0.00000000000E+00  0.11802191701E+02  0.20507547422E+04  0.20507207808E+04 0.  0.
        5    1    3    3  502    0 -0.68967809873E+03  0.20370137334E+03  0.73679739779E+03  0.10295837143E+04  0.46999998093E+01 0. -1.
       -5    1    3    3    0  502  0.68967809873E+03 -0.20370137334E+03 -0.72499520609E+03  0.10211710279E+04  0.46999998093E+01 0.  1.
</event>
<event>
 5   0  0.1241430E-04  0.2004512E+04  0.7818609E-02  0.8604514E-01
        2   -1    0    0  501    0  0.00000000000E+00  0.00000000000E+00  0.14466742513E+04  0.14466742513E+04  0.25500000920E-02 0.  1.
       -2   -1    0    0    0  501  0.00000000000E+00  0.00000000000E+00 -0.69436275401E+03  0.69436275401E+03  0.25500000920E-02 0. -1.
    10030    2    1    2    0    0  0.00000000000E+00  0.00000000000E+00  0.75231149733E+03  0.21410370053E+04  0.20045116286E+04 0.  0.
        1    1    3    3  502    0 -0.79891381153E+03 -0.30276439629E+03 -0.18354476536E+03  0.87385252693E+03  0.50400001928E-02 0. -1.
       -1    1    3    3    0  502  0.79891381153E+03  0.30276439629E+03  0.93585626268E+03  0.12671844784E+04  0.50400001928E-02 0.  1.
</event>
<event>
 5   0  0.5981239E-05  0.2176529E+04  0.7818609E-02  0.8528261E-01
        1   -1    0    0  501    0  0.00000000000E+00  0.00000000000E+00  0.15631539345E+04  0.15631539345E+04  0.50400001928E-02 0.  1.
       -1   -1    0    0    0  501  0.00000000000E+00  0.00000000000E+00 -0.75764720175E+03  0.75764720177E+03  0.50400001928E-02 0. -1.
    10030    2    1    2    0    0  0.00000000000E+00  0.00000000000E+00  0.80550673270E+03  0.23208011362E+04  0.21765286163E+04 0.  0.
        4    1    3    3  502    0 -0.36107122959E+03 -0.10213550590E+04  0.29204949107E+03  0.11219773204E+04  0.12699999809E+01 0. -1.
       -4    1    3    3    0  502  0.36107122959E+03  0.10213550590E+04  0.51345724163E+03  0.11988238158E+04  0.12699999809E+01 0.  1.
</event>
<event>
 5   0  0.6263558E-05  0.1382216E+04  0.7818609E-02  0.8966793E-01
       -1   -1    0    0    0  501  0.00000000000E+00  0.00000000000E+00  0.61330884616E+03  0.61330884618E+03  0.50400001928E-02 0.  1.
        1   -1    0    0  501    0  0.00000000000E+00  0.00000000000E+00 -0.77877555094E+03  0.77877555096E+03  0.50400001928E-02 0. -1.
    10030    2    1    2    0    0  0.00000000000E+00  0.00000000000E+00 -0.16546670478E+03  0.13920843971E+04  0.13822155181E+04 0.  0.
        3    1    3    3  502    0 -0.59565140321E+03 -0.76650578224E+02  0.26169379658E+03  0.65510270848E+03  0.10100000352E+00 0.  1.
       -3    1    3    3    0  502  0.59565140321E+03  0.76650578224E+02 -0.42716050136E+03  0.73698168866E+03  0.10100000352E+00 0. -1.
</event>
<event>
 5   0  0.1404159E-04  0.2282107E+04  0.7818609E-02  0.8485010E-01
       -2   -1    0    0    0  501  0.00000000000E+00  0.00000000000E+00  0.11613070849E+04  0.11613070849E+04  0.25500000920E-02 0. -1.
        2   -1    0    0  501    0  0.00000000000E+00  0.00000000000E+00 -0.11211527070E+04  0.11211527070E+04  0.25500000920E-02 0.  1.
    10030    2    1    2    0    0  0.00000000000E+00  0.00000000000E+00  0.40154377890E+02  0.22824597919E+04  0.22821065548E+04 0.  0.
        5    1    3    3  502    0  0.10002172192E+04 -0.99853267068E+02  0.56013792776E+03  0.11507309628E+04  0.46999998093E+01 0. -1.
       -5    1    3    3    0  502 -0.10002172192E+04  0.99853267068E+02 -0.51998354987E+03  0.11317288291E+04  0.46999998093E+01 0.  1.
</event>
<event>
 5   0  0.1404159E-04  0.2191539E+04  0.7818609E-02  0.8521958E-01
        2   -1    0    0  501    0  0.00000000000E+00  0.00000000000E+00  0.94350926372E+03  0.94350926373E+03  0.25500000920E-02 0. -1.
       -2   -1    0    0    0  501  0.00000000000E+00  0.00000000000E+00 -0.12726003895E+04  0.12726003895E+04  0.25500000920E-02 0.  1.
    10030    2    1    2    0    0  0.00000000000E+00  0.00000000000E+00 -0.32909112577E+03  0.22161096532E+04  0.21915385066E+04 0.  0.
        5    1    3    3  502    0  0.77213527569E+03 -0.77667648219E+03 -0.20056691759E+03  0.11134039790E+04  0.46999998093E+01 0. -1.
       -5    1    3    3    0  502 -0.77213527569E+03  0.77667648219E+03 -0.12852420819E+03  0.11027056743E+04  0.46999998093E+01 0.  1.
</event>
<event>
 5   0  0.1226021E-04  0.2196492E+04  0.7818609E-02  0.8519890E-01
       -2   -1    0    0    0  501  0.00000000000E+00  0.00000000000E+00  0.78820041381E+03  0.78820041382E+03  0.25500000920E-02 0. -1.
        2   -1    0    0  501    0  0.00000000000E+00  0.00000000000E+00 -0.15302503873E+04  0.15302503873E+04  0.25500000920E-02 0.  1.
    10030    2    1    2    0    0  0.00000000000E+00  0.00000000000E+00 -0.74204997352E+03  0.23184508012E+04  0.21964917378E+04 0.  0.
        2    1    3    3  502    0  0.86601301269E+03 -0.13350866109E+03  0.32780945655E+03  0.93555445622E+03  0.25500000920E-02 0. -1.
       -2    1    3    3    0  502 -0.86601301269E+03  0.13350866109E+03 -0.10698594301E+04  0.13828963449E+04  0.25500000920E-02 0.  1.
</event>
<event>
 5   0  0.1311472E-04  0.2214007E+04  0.7818609E-02  0.8512621E-01
       -2   -1    0    0    0  501  0.00000000000E+00  0.00000000000E+00  0.68646740219E+03  0.68646740220E+03  0.25500000920E-02 0. -1.
        2   -1    0    0  501    0  0.00000000000E+00  0.00000000000E+00 -0.17851633317E+04  0.17851633317E+04  0.25500000920E-02 0.  1.
    10030    2    1    2    0    0  0.00000000000E+00  0.00000000000E+00 -0.10986959295E+04  0.24716307339E+04  0.22140067162E+04 0.  0.
        4    1    3    3  502    0  0.22912997218E+03  0.36479590661E+03 -0.16877506064E+04  0.17418611656E+04  0.12699999809E+01 0.  1.
       -4    1    3    3    0  502 -0.22912997218E+03 -0.36479590661E+03  0.58905467691E+03  0.72976956837E+03  0.12699999809E+01 0. -1.
</event>
<event>
 5   0  0.5861816E-05  0.2204659E+04  0.7818609E-02  0.8516492E-01
        1   -1    0    0  501    0  0.00000000000E+00  0.00000000000E+00  0.14471083698E+04  0.14471083698E+04  0.50400001928E-02 0.  1.
       -1   -1    0    0    0  501  0.00000000000E+00  0.00000000000E+00 -0.83969521885E+03  0.83969521887E+03  0.50400001928E-02 0. -1.
    10030    2    1    2    0    0  0.00000000000E+00  0.00000000000E+00  0.60741315098E+03  0.22868035887E+04  0.22046586850E+04 0.  0.
        1    1    3    3  502    0 -0.73313389459E+03 -0.32935065257E+03 -0.47883888736E+03  0.93554467548E+03  0.50400001928E-02 0. -1.
       -1    1    3    3    0  502  0.73313389459E+03  0.32935065257E+03  0.10862520383E+04  0.13512589132E+04  0.50400001928E-02 0.  1.
</event>
<event>
 5   0  0.5861816E-05  0.2239197E+04  0.7818609E-02  0.8502289E-01
       -1   -1    0    0    0  501  0.00000000000E+00  0.00000000000E+00  0.71990885722E+03  0.71990885723E+03  0.50400001928E-02 0.  1.
        1   -1    0    0  501    0  0.00000000000E+00  0.00000000000E+00 -0.17411930299E+04  0.17411930299E+04  0.50400001928E-02 0. -1.
    10030    2    1    2    0    0  0.00000000000E+00  0.00000000000E+00 -0.10212841727E+04  0.24611018871E+04  0.22391965384E+04 0.  0.
        1    1    3    3  502    0 -0.42950501699E+03 -0.23434015165E+03  0.59618556787E+03  0.77125034694E+03  0.50400001928E-02 0.  1.
       -1    1    3    3    0  502  0.42950501699E+03  0.23434015165E+03 -0.16174697405E+04  0.16898515402E+04  0.50400001928E-02 0. -1.
</event>
<event>
 5   0  0.6263558E-05  0.2226317E+04  0.7818609E-02  0.8507553E-01
        1   -1    0    0  501    0  0.00000000000E+00  0.00000000000E+00  0.63198147309E+03  0.63198147311E+03  0.50400001928E-02 0. -1.
       -1   -1    0    0    0  501  0.00000000000E+00  0.00000000000E+00 -0.19606940549E+04  0.19606940549E+04  0.50400001928E-02 0.  1.
    10030    2    1    2    0    0  0.00000000000E+00  0.00000000000E+00 -0.13287125818E+04  0.25926755280E+04  0.22263174231E+04 0.  0.
        3    1    3    3  502    0  0.84522846016E+03  0.71594373266E+03 -0.79264664776E+03  0.13620849080E+04  0.10100000352E+00 0. -1.
       -3    1    3    3    0  502 -0.84522846016E+03 -0.71594373266E+03 -0.53606593404E+03  0.12305906200E+04  0.10100000352E+00 0.  1.
</event>
<event>
 5   0  0.1241430E-04  0.1483009E+04  0.7818609E-02  0.8895831E-01
        2   -1    0    0  501    0  0.00000000000E+00  0.00000000000E+00  0.12274904642E+04  0.12274904642E+04  0.25500000920E-02 0.  1.
       -2   -1    0    0    0  501  0.00000000000E+00  0.00000000000E+00 -0.44792899637E+03  0.44792899637E+03  0.25500000920E-02 0. -1.
    10030    2    1    2    0    0  0.00000000000E+00  0.00000000000E+00  0.77956146779E+03  0.16754194605E+04  0.14830085255E+04 0.  0.
        1    1    3    3  502    0  0.41905449208E+03  0.23276348488E+03 -0.24934178234E+03  0.54033029867E+03  0.50400001928E-02 0. -1.
       -1    1    3    3    0  502 -0.41905449208E+03 -0.23276348488E+03  0.10289032501E+04  0.11350891619E+04  0.50400001928E-02 0.  1.
</event>
<event>
 5   0  0.4586375E-05  0.2181431E+04  0.7818609E-02  0.8526197E-01
        3   -1    0    0  501    0  0.00000000000E+00  0.00000000000E+00  0.63124092200E+03  0.63124093008E+03  0.10100000352E+00 0.  1.
       -3   -1    0    0    0  501  0.00000000000E+00  0.00000000000E+00 -0.18846369583E+04  0.18846369610E+04  0.10100000352E+00 0. -1.
    10030    2    1    2    0    0  0.00000000000E+00  0.00000000000E+00 -0.12533960363E+04  0.25158778911E+04  0.21814307092E+04 0.  0.
        5    1    3    3  502    0  0.17457503279E+03 -0.31521546651E+03 -0.18139973662E+04  0.18494447186E+04  0.46999998093E+01 0. -1.
       -5    1    3    3    0  502 -0.17457503279E+03  0.31521546651E+03  0.56060132988E+03  0.66643317254E+03  0.46999998093E+01 0.  1.
</event>
<event>
 5   0  0.1226021E-04  0.2182191E+04  0.7818609E-02  0.8525878E-01
        2   -1    0    0  501    0  0.00000000000E+00  0.00000000000E+00  0.18034938776E+04  0.18034938776E+04  0.25500000920E-02 0.  1.
       -2   -1    0    0    0  501  0.00000000000E+00  0.00000000000E+00 -0.66010143431E+03  0.66010143431E+03  0.25500000920E-02 0. -1.
    10030    2    1    2    0    0  0.00000000000E+00  0.00000000000E+00  0.11433924433E+04  0.24635953119E+04  0.21821905465E+04 0.  0.
        2    1    3    3  502    0  0.54078136307E+02  0.34062496184E+03 -0.59694367165E+03  0.68941392253E+03  0.25500000920E-02 0. -1.
       -2    1    3    3    0  502 -0.54078136307E+02 -0.34062496184E+03  0.17403361149E+04  0.17741813893E+04  0.25500000920E-02 0.  1.
</event>
<event>
 5   0  0.5981239E-05  0.2225793E+04  0.7818609E-02  0.8507769E-01
        1   -1    0    0  501    0  0.00000000000E+00  0.00000000000E+00  0.15220719832E+04  0.15220719832E+04  0.50400001928E-02 0. -1.
       -1   -1    0    0    0  501  0.00000000000E+00  0.00000000000E+00 -0.81371874095E+03  0.81371874096E+03  0.50400001928E-02 0.  1.
    10030    2    1    2    0    0  0.00000000000E+00  0.00000000000E+00  0.70835324223E+03  0.23357907241E+04  0.22257928905E+04 0.  0.
        4    1    3    3  502    0 -0.95941074946E+03  0.15240281706E+03 -0.21565077136E+03  0.99508917837E+03  0.12699999809E+01 0.  1.
       -4    1    3    3    0  502  0.95941074946E+03 -0.15240281706E+03  0.92400401359E+03  0.13407015458E+04  0.12699999809E+01 0. -1.
</event>
<event>
 5   0  0.5895063E-05  0.1845763E+04  0.7818609E-02  0.8682335E-01
       -1   -1    0    0    0  501  0.00000000000E+00  0.00000000000E+00  0.74730864307E+03  0.74730864308E+03  0.50400001928E-02 0. -1.
        1   -1    0    0  501    0  0.00000000000E+00  0.00000000000E+00 -0.11397039945E+04  0.11397039945E+04  0.50400001928E-02 0.  1.
    10030    2    1    2    0    0  0.00000000000E+00  0.00000000000E+00 -0.39239535145E+03  0.18870126376E+04  0.18457634146E+04 0.  0.
        5    1    3    3  502    0 -0.14551629146E+02 -0.44955413446E+03  0.62765114189E+03  0.77219085441E+03  0.46999998093E+01 0. -1.
       -5    1    3    3    0  502  0.14551629146E+02  0.44955413446E+03 -0.10200464933E+04  0.11148217832E+04  0.46999998093E+01 0.  1.
</event>
<event>
 5   0  0.1241430E-04  0.2160168E+04  0.7818609E-02  0.8535192E-01
       -2   -1    0    0    0  501  0.00000000000E+00  0.00000000000E+00  0.13807039749E+04  0.13807039749E+04  0.25500000920E-02 0.  1.
        2   -1    0    0  501    0  0.00000000000E+00  0.00000000000E+00 -0.84491776005E+03  0.84491776005E+03  0.25500000920E-02 0. -1.
    10030    2    1    2    0    0  0.00000000000E+00  0.00000000000E+00  0.53578621489E+03  0.22256217350E+04  0.21601678729E+04 0.  0.
        1    1    3    3  502    0 -0.21491044789E+03 -0.95372612123E+03 -0.20514974877E+03  0.99893264756E+03  0.50400001928E-02 0.  1.
       -1    1    3    3    0  502  0.21491044789E+03  0.95372612123E+03  0.74093596366E+03  0.12266890874E+04  0.50400001928E-02 0. -1.
</event>
<event>
 5   0  0.6263558E-05  0.2283032E+04  0.7818609E-02  0.8484641E-01
       -1   -1    0    0    0  501  0.00000000000E+00  0.00000000000E+00  0.71582053971E+03  0.71582053972E+03  0.50400001928E-02 0. -1.
        1   -1    0    0  501    0  0.00000000000E+00  0.00000000000E+00 -0.18203712396E+04  0.18203712396E+04  0.50400001928E-02 0.  1.
    10030    2    1    2    0    0  0.00000000000E+00  0.00000000000E+00 -0.11045506999E+04  0.25361917793E+04  0.22830323022E+04 0.  0.
        3    1    3    3  502    0  0.41442184898E+03  0.10621600545E+04 -0.61442215433E+03  0.12951617830E+04  0.10100000352E+00 0.  1.
       -3    1    3    3    0  502 -0.41442184898E+03 -0.10621600545E+04 -0.49012854555E+03  0.12410299963E+04  0.10100000352E+00 0. -1.
</event>
<event>
 5   0  0.1226021E-04  0.2169492E+04  0.7818609E-02  0.8531235E-01
        2   -1    0    0  501    0  0.00000000000E+00  0.00000000000E+00  0.15817082264E+04  0.15817082264E+04  0.25500000920E-02 0. -1.
       -2   -1    0    0    0  501  0.00000000000E+00  0.00000000000E+00 -0.74392600945E+03  0.74392600945E+03  0.25500000920E-02 0.  1.
    10030    2    1    2    0    0  0.00000000000E+00  0.00000000000E+00  0.83778221692E+03  0.23256342358E+04  0.21694920041E+04 0.  0.
        2    1    3    3  502    0 -0.25738503407E+03  0.26650277946E+03  0.15117783664E+04  0.15565168217E+04  0.25500000920E-02 0. -1.
       -2    1    3    3    0  502  0.25738503407E+03 -0.26650277946E+03 -0.67399614945E+03  0.76911741412E+03  0.25500000920E-02 0.  1.
</event>
<event>
 5   0  0.1226021E-04  0.2025968E+04  0.7818609E-02  0.8594575E-01
       -2   -1    0    0    0  501  0.00000000000E+00  0.00000000000E+00  0.12674016174E+04  0.12674016174E+04  0.25500000920E-02 0.  1.
        2   -1    0    0  501    0  0.00000000000E+00  0.00000000000E+00 -0.80963771932E+03  0.80963771932E+03  0.25500000920E-02 0. -1.
    10030    2    1    2    0    0  0.00000000000E+00  0.00000000000E+00  0.45776389807E+03  0.20770393367E+04  0.20259675762E+04 0.  0.
        2    1    3    3  502    0 -0.67507244040E+03  0.39276347355E+03  0.89024098201E+03  0.11842782410E+04  0.25500000920E-02 0.  1.
       -2    1    3    3    0  502  0.67507244040E+03 -0.39276347355E+03 -0.43247708394E+03  0.89276109575E+03  0.25500000920E-02 0. -1.
</event>
<event>
 5   0  0.1226021E-04  0.2203535E+04  0.7818609E-02  0.8516958E-01
       -2   -1    0    0    0  501  0.00000000000E+00  0.00000000000E+00  0.81784925682E+03  0.81784925682E+03  0.25500000920E-02 0. -1.
        2   -1    0    0  501    0  0.00000000000E+00  0.00000000000E+00 -0.14842480764E+04  0.14842480764E+04  0.25500000920E-02 0.  1.
    10030    2    1    2    0    0  0.00000000000E+00  0.00000000000E+00 -0.66639881955E+03  0.23020973332E+04  0.22035346026E+04 0.  0.
        2    1    3    3  502    0  0.47876592790E+03  0.92304652829E+03 -0.71371543437E+03  0.12611984096E+04  0.25500000920E-02 0.  1.
       -2    1    3    3    0  502 -0.47876592790E+03 -0.92304652829E+03  0.47316614817E+02  0.10408989236E+04  0.25500000920E-02 0. -1.
</event>
<event>
 5   0  0.1252124E-04  0.2074816E+04  0.7818609E-02  0.8572419E-01
        2   -1    0    0  501    0  0.00000000000E+00  0.00000000000E+00  0.13706911793E+04  0.13706911793E+04  0.25500000920E-02 0.  1.
       -2   -1    0    0    0  501  0.00000000000E+00  0.00000000000E+00 -0.78516225268E+03  0.78516225268E+03  0.25500000920E-02 0. -1.
    10030    2    1    2    0    0  0.00000000000E+00  0.00000000000E+00  0.58552892661E+03  0.21558534320E+04  0.20748156295E+04 0.  0.
        3    1    3    3  502    0  0.81380680208E+03 -0.64322570271E+03  0.27828653859E+03  0.10739945174E+04  0.10100000352E+00 0.  1.
       -3    1    3    3    0  502 -0.81380680208E+03  0.64322570271E+03  0.30724238802E+03  0.10818589145E+04  0.10100000352E+00 0. -1.
</event>
<event>
 5   0  0.1241430E-04  0.2239784E+04  0.7818609E-02  0.8502049E-01
        2   -1    0    0  501    0  0.00000000000E+00  0.00000000000E+00  0.16419907379E+04  0.16419907379E+04  0.25500000920E-02 0.  1.
       -2   -1    0    0    0  501  0.00000000000E+00  0.00000000000E+00 -0.76380362371E+03  0.76380362371E+03  0.25500000920E-02 0. -1.
    10030    2    1    2    0    0  0.00000000000E+00  0.00000000000E+00  0.87818711423E+03  0.24057943617E+04  0.22397843430E+04 0.  0.
        1    1    3    3  502    0  0.53065644219E+03  0.19515197123E+03  0.14774269505E+04  0.15819200187E+04  0.50400001928E-02 0.  1.
       -1    1    3    3    0  502 -0.53065644219E+03 -0.19515197123E+03 -0.59923983629E+03  0.82387434293E+03  0.50400001928E-02 0. -1.
</event>
<event>
 5   0  0.1404159E-04  0.2235941E+04  0.7818609E-02  0.8503616E-01
        2   -1    0    0  501    0  0.00000000000E+00  0.00000000000E+00  0.11103838444E+04  0.11103838444E+04  0.25500000920E-02 0. -1.
       -2   -1    0    0    0  501  0.00000000000E+00  0.00000000000E+00 -0.11256086313E+04  0.11256086313E+04  0.25500000920E-02 0.  1.
    10030    2    1    2    0    0  0.00000000000E+00  0.00000000000E+00 -0.15224786831E+02  0.22359924757E+04  0.22359406426E+04 0.  0.
        5    1    3    3  502    0 -0.75210107444E+03  0.35559050948E+03  0.73922143791E+03  0.11129110750E+04  0.46999998093E+01 0. -1.
       -5    1    3    3    0  502  0.75210107444E+03 -0.35559050948E+03 -0.75444622475E+03  0.11230814007E+04  0.46999998093E+01 0.  1.
</event>
<event>
 5   0  0.5981239E-05  0.2195482E+04  0.7818609E-02  0.8520311E-01
        1   -1    0    0  501    0  0.00000000000E+00  0.00000000000E+00  0.55073694909E+03  0.55073694911E+03  0.50400001928E-02 0. -1.
       -1   -1    0    0    0  501  0.00000000000E+00  0.00000000000E+00 -0.21880419215E+04  0.21880419215E+04  0.50400001928E-02 0.  1.
    10030    2    1    2    0    0  0.00000000000E+00  0.00000000000E+00 -0.16373049724E+04  0.27387788706E+04  0.21954822089E+04 0.  0.
        4    1    3    3  502    0 -0.10504496228E+04  0.24462636915E+03 -0.10735361600E+04  0.15217647552E+04  0.12699999809E+01 0.  1.
       -4    1    3    3    0  502  0.10504496228E+04 -0.24462636915E+03 -0.56376881246E+03  0.12170141155E+04  0.12699999809E+01 0. -1.
</event>
<event>
 5   0  0.5895063E-05  0.2152160E+04  0.7818609E-02  0.8538608E-01
        1   -1    0    0  501    0  0.00000000000E+00  0.00000000000E+00  0.43749099524E+03  0.43749099527E+03  0.50400001928E-02 0.  1.
       -1   -1    0    0    0  501  0.00000000000E+00  0.00000000000E+00 -0.26467931663E+04  0.26467931663E+04  0.50400001928E-02 0. -1.
    10030    2    1    2    0    0  0.00000000000E+00  0.00000000000E+00 -0.22093021711E+04  0.30842841616E+04  0.21521600095E+04 0.  0.
        5    1    3    3  502    0 -0.79845260039E+03  0.25156987787E+03 -0.13572377227E+03  0.84809020209E+03  0.46999998093E+01 0.  1.
       -5    1    3    3    0  502  0.79845260039E+03 -0.25156987787E+03 -0.20735783988E+04  0.22361939595E+04  0.46999998093E+01 0. -1.
</event>
<event>
 5   0  0.1311472E-04  0.2164645E+04  0.7818609E-02  0.8533290E-01
        2   -1    0    0  501    0  0.00000000000E+00  0.00000000000E+00  0.11056380027E+04  0.11056380027E+04  0.25500000920E-02 0. -1.
       -2   -1    0    0    0  501  0.00000000000E+00  0.00000000000E+00 -0.10594982736E+04  0.10594982736E+04  0.25500000920E-02 0.  1.
    10030    2    1    2    0    0  0.00000000000E+00  0.00000000000E+00  0.46139729177E+02  0.21651362763E+04  0.21646445945E+04 0.  0.
        4    1    3    3  502    0  0.10443038532E+04  0.13106155373E+03 -0.22932110625E+03  0.10771896079E+04  0.12699999809E+01 0.  1.
       -4    1    3    3    0  502 -0.10443038532E+04 -0.13106155373E+03  0.27546083543E+03  0.10879466684E+04  0.12699999809E+01 0. -1.
</event>
<event>
 5   0  0.1226021E-04  0.2201178E+04  0.7818609E-02  0.8517938E-01
       -2   -1    0    0    0  501  0.00000000000E+00  0.00000000000E+00  0.13384935352E+04  0.13384935352E+04  0.25500000920E-02 0.  1.
        2   -1    0    0  501    0  0.00000000000E+00  0.00000000000E+00 -0.90497008404E+03  0.90497008405E+03  0.25500000920E-02 0. -1.
    10030    2    1    2    0    0  0.00000000000E+00  0.00000000000E+00  0.43352345114E+03  0.22434636192E+04  0.22011784181E+04 0.  0.
        2    1    3    3  502    0 -0.44658170147E+02 -0.95735899514E+03 -0.33471109327E+03  0.10151660523E+04  0.25500000920E-02 0. -1.
       -2    1    3    3    0  502  0.44658170147E+02  0.95735899514E+03  0.76823454441E+03  0.12282975669E+04  0.25500000920E-02 0.  1.
</event>
<event>
 5   0  0.5895063E-05  0.1592187E+04  0.7818609E-02  0.8825362E-01
        1   -1    0    0  501    0  0.00000000000E+00  0.00000000000E+00  0.15228231108E+04  0.15228231108E+04  0.50400001928E-02 0.  1.
       -1   -1    0    0    0  501  0.00000000000E+00  0.00000000000E+00 -0.41617754563E+03  0.41617754566E+03  0.50400001928E-02 0. -1.
    10030    2    1    2    0    0  0.00000000000E+00  0.00000000000E+00  0.11066455652E+04  0.19390006565E+04  0.15921869045E+04 0.  0.
        5    1    3    3  502    0  0.77637114078E+03 -0.11475890589E+03  0.39074948588E+03  0.87671489404E+03  0.46999998093E+01 0. -1.
       -5    1    3    3    0  502 -0.77637114078E+03  0.11475890589E+03  0.71589607931E+03  0.10622857624E+04  0.46999998093E+01 0.  1.
</event>
<event>
 5   0  0.5849604E-05  0.2193865E+04  0.7818609E-02  0.8520986E-01
        1   -1    0    0  501    0  0.00000000000E+00  0.00000000000E+00  0.10027191231E+04  0.10027191231E+04  0.50400001928E-02 0.  1.
       -1   -1    0    0    0  501  0.00000000000E+00  0.00000000000E+00 -0.11999975428E+04  0.11999975428E+04  0.50400001928E-02 0. -1.
    10030    2    1    2    0    0  0.00000000000E+00  0.00000000000E+00 -0.19727841966E+03  0.22027166659E+04  0.21938646119E+04 0.  0.
        2    1    3    3  502    0  0.66719454359E+03  0.59485102422E+03  0.53974398818E+03  0.10441838309E+04  0.25500000920E-02 0.  1.
       -2    1    3    3    0  502 -0.66719454359E+03 -0.59485102422E+03 -0.73702240784E+03  0.11585328350E+04  0.25500000920E-02 0. -1.
</event>
<event>
 5   0  0.1404159E-04  0.2193792E+04  0.7818609E-02  0.8521017E-01
       -2   -1    0    0    0  501  0.00000000000E+00  0.00000000000E+00  0.12317797015E+04  0.12317797015E+04  0.25500000920E-02 0. -1.
        2   -1    0    0  501    0  0.00000000000E+00  0.00000000000E+00 -0.97678208156E+03  0.97678208157E+03  0.25500000920E-02 0.  1.
    10030    2    1    2    0    0  0.00000000000E+00  0.00000000000E+00  0.25499761998E+03  0.22085617831E+04  0.21937915497E+04 0.  0.
        5    1    3    3  502    0  0.69116033536E+03  0.57514997885E+03 -0.50494905076E+03  0.10312592987E+04  0.46999998093E+01 0.  1.
       -5    1    3    3    0  502 -0.69116033536E+03 -0.57514997885E+03  0.75994667074E+03  0.11773024844E+04  0.46999998093E+01 0. -1.
</event>
<event>
 5   0  0.5849604E-05  0.2207834E+04  0.7818609E-02  0.8515175E-01
       -1   -1    0    0    0  501  0.00000000000E+00  0.00000000000E+00  0.93977126941E+03  0.93977126942E+03  0.50400001928E-02 0. -1.
        1   -1    0    0  501    0  0.00000000000E+00  0.00000000000E+00 -0.12967332844E+04  0.12967332844E+04  0.50400001928E-02 0.  1.
    10030    2    1    2    0    0  0.00000000000E+00  0.00000000000E+00 -0.35696201500E+03  0.22365045538E+04  0.22078339474E+04 0.  0.
        2    1    3    3  502    0  0.95078100912E+03  0.53244691669E+03  0.30005718896E+00  0.10897175489E+04  0.25500000920E-02 0. -1.
       -2    1    3    3    0  502 -0.95078100912E+03 -0.53244691669E+03 -0.35726207219E+03  0.11467870049E+04  0.25500000920E-02 0.  1.
</event>
<event>
 5   0  0.6263558E-05  0.2216861E+04  0.7818609E-02  0.8511443E-01
       -1   -1    0    0    0  501  0.00000000000E+00  0.00000000000E+00  0.10611774508E+04  0.10611774508E+04  0.50400001928E-02 0. -1.
        1   -1    0    0  501    0  0.00000000000E+00  0.00000000000E+00 -0.11577878534E+04  0.11577878534E+04  0.50400001928E-02 0.  1.
    10030    2    1    2    0    0  0.00000000000E+00  0.00000000000E+00 -0.96610402626E+02  0.22189653042E+04  0.22168611710E+04 0.  0.
        3    1    3    3  502    0 -0.41502417865E+03 -0.35169307603E+02  0.97986809101E+03  0.10647175377E+04  0.10100000352E+00 0. -1.
       -3    1    3    3    0  502  0.41502417865E+03  0.35169307603E+02 -0.10764784936E+04  0.11542477665E+04  0.10100000352E+00 0.  1.
</event>
<event>
 5   0  0.5861816E-05  0.2268119E+04  0.7818609E-02  0.8490599E-01
       -1   -1    0    0    0  501  0.00000000000E+00  0.00000000000E+00  0.69278755674E+03  0.69278755676E+03  0.50400001928E-02 0.  1.
        1   -1    0    0  501    0  0.00000000000E+00  0.00000000000E+00 -0.18563995636E+04  0.18563995637E+04  0.50400001928E-02 0. -1.
    10030    2    1    2    0    0  0.00000000000E+00  0.00000000000E+00 -0.11636120069E+04  0.25491871204E+04  0.22681186195E+04 0.  0.
        1    1    3    3  502    0  0.75978308958E+02  0.75022048829E+03  0.37020721873E+03  0.84003385009E+03  0.50400001928E-02 0.  1.
       -1    1    3    3    0  502 -0.75978308958E+02 -0.75022048829E+03 -0.15338192256E+04  0.17091532703E+04  0.50400001928E-02 0. -1.
</event>
<event>
 5   0  0.1241430E-04  0.2183833E+04  0.7818609E-02  0.8525187E-01
       -2   -1    0    0    0  501  0.00000000000E+00  0.00000000000E+00  0.14975902075E+04  0.14975902075E+04  0.25500000920E-02 0.  1.
        2   -1    0    0  501    0  0.00000000000E+00  0.00000000000E+00 -0.79613363242E+03  0.79613363242E+03  0.25500000920E-02 0. -1.
    10030    2    1    2    0    0  0.00000000000E+00  0.00000000000E+00  0.70145657506E+03  0.22937238399E+04  0.21838332645E+04 0.  0.
        1    1    3    3  502    0 -0.62119176721E+03  0.72119857749E+03  0.91269891251E+03  0.13187213143E+04  0.50400001928E-02 0.  1.
       -1    1    3    3    0  502  0.62119176721E+03 -0.72119857749E+03 -0.21124233745E+03  0.97500252563E+03  0.50400001928E-02 0. -1.
</event>
<event>
 5   0  0.1252124E-04  0.2228220E+04  0.7818609E-02  0.8506773E-01
       -2   -1    0    0    0  501  0.00000000000E+00  0.00000000000E+00  0.13286942626E+04  0.13286942626E+04  0.25500000920E-02 0. -1.
        2   -1    0    0  501    0  0.00000000000E+00  0.00000000000E+00 -0.93418093320E+03  0.93418093321E+03  0.25500000920E-02 0.  1.
    10030    2    1    2    0    0  0.00000000000E+00  0.00000000000E+00  0.39451332943E+03  0.22628751958E+04  0.22282197793E+04 0.  0.
        3    1    3    3  502    0 -0.52250859726E+03 -0.47539794699E+03  0.10721792019E+04  0.12839730112E+04  0.10100000352E+00 0. -1.
       -3    1    3    3    0  502  0.52250859726E+03  0.47539794699E+03 -0.67766587248E+03  0.97890218466E+03  0.10100000352E+00 0.  1.
</event>
<event>
 5   0  0.1404159E-04  0.2208016E+04  0.7818609E-02  0.8515099E-01
        2   -1    0    0  501    0  0.00000000000E+00  0.00000000000E+00  0.19281343953E+04  0.19281343953E+04  0.25500000920E-02 0. -1.
       -2   -1    0    0    0  501  0.00000000000E+00  0.00000000000E+00 -0.63213134398E+03  0.63213134398E+03  0.25500000920E-02 0.  1.
    10030    2    1    2    0    0  0.00000000000E+00  0.00000000000E+00  0.12960030513E+04  0.25602657392E+04  0.22080164734E+04 0.  0.
        5    1    3    3  502    0  0.23382164120E+03 -0.97426715436E+03  0.11855831778E+04  0.15522559742E+04  0.46999998093E+01 0. -1.
       -5    1    3    3    0  502 -0.23382164120E+03  0.97426715436E+03  0.11041987346E+03  0.10080097650E+04  0.46999998093E+01 0.  1.
</event>
<event>
 5   0  0.1311472E-04  0.2203467E+04  0.7818609E-02  0.8516986E-01
        2   -1    0    0  501    0  0.00000000000E+00  0.00000000000E+00  0.17148352849E+04  0.17148352849E+04  0.25500000920E-02 0. -1.
       -2   -1    0    0    0  501  0.00000000000E+00  0.00000000000E+00 -0.70783304982E+03  0.70783304983E+03  0.25500000920E-02 0.  1.
    10030    2    1    2    0    0  0.00000000000E+00  0.00000000000E+00  0.10070022351E+04  0.24226683347E+04  0.22034673491E+04 0.  0.
        4    1    3    3  502    0 -0.75332968613E+03 -0.42313591334E+03  0.12550710007E+04  0.15237304378E+04  0.12699999809E+01 0. -1.
       -4    1    3    3    0  502  0.75332968613E+03  0.42313591334E+03 -0.24806876568E+03  0.89893789695E+03  0.12699999809E+01 0.  1.
</event>
<event>
 5   0  0.1241430E-04  0.2176022E+04  0.7818609E-02  0.8528475E-01
        2   -1    0    0  501    0  0.00000000000E+00  0.00000000000E+00  0.17534912862E+04  0.17534912862E+04  0.25500000920E-02 0.  1.
       -2   -1    0    0    0  501  0.00000000000E+00  0.00000000000E+00 -0.67509174373E+03  0.67509174374E+03  0.25500000920E-02 0. -1.
    10030    2    1    2    0    0  0.00000000000E+00  0.00000000000E+00  0.10783995425E+04  0.24285830300E+04  0.21760215900E+04 0.  0.
        1    1    3    3  502    0 -0.84558908780E+03  0.36367909003E+03  0.11865987831E+04  0.15017656468E+04  0.50400001928E-02 0.  1.
       -1    1    3    3    0  502  0.84558908780E+03 -0.36367909003E+03 -0.10819924063E+03  0.92681738311E+03  0.50400001928E-02 0. -1.
</event>
<event>
 5   0  0.5849604E-05  0.2189185E+04  0.7818609E-02  0.8522943E-01
       -1   -1    0    0    0  501  0.00000000000E+00  0.00000000000E+00  0.93586856134E+03  0.93586856135E+03  0.50400001928E-02 0. -1.
        1   -1    0    0  501    0  0.00000000000E+00  0.00000000000E+00 -0.12802356340E+04  0.12802356340E+04  0.50400001928E-02 0.  1.
    10030    2    1    2    0    0  0.00000000000E+00  0.00000000000E+00 -0.34436707266E+03  0.22161041954E+04  0.21891845797E+04 0.  0.
        2    1    3    3  502    0  0.80481327473E+03 -0.44790523199E+03 -0.77088556678E+03  0.12010862005E+04  0.25500000920E-02 0.  1.
       -2    1    3    3    0  502 -0.80481327473E+03  0.44790523199E+03  0.42651849412E+03  0.10150179948E+04  0.25500000920E-02 0. -1.
</event>
<event>
 5   0  0.6263558E-05  0.2188858E+04  0.7818609E-02  0.8523080E-01
        1   -1    0    0  501    0  0.00000000000E+00  0.00000000000E+00  0.16713709253E+04  0.16713709253E+04  0.50400001928E-02 0.  1.
       -1   -1    0    0    0  501  0.00000000000E+00  0.00000000000E+00 -0.71664204246E+03  0.71664204247E+03  0.50400001928E-02 0. -1.
    10030    2    1    2    0    0  0.00000000000E+00  0.00000000000E+00  0.95472888288E+03  0.23880129678E+04  0.21888578516E+04 0.  0.
        3    1    3    3  502    0  0.21940046172E+03  0.54283027138E+03 -0.53141314229E+03  0.79069665747E+03  0.10100000352E+00 0. -1.
       -3    1    3    3    0  502 -0.21940046172E+03 -0.54283027138E+03  0.14861420252E+04  0.15973163104E+04  0.10100000352E+00 0.  1.
</event>
<event>
 5   0  0.1252124E-04  0.1734223E+04  0.7818609E-02  0.8742083E-01
       -2   -1    0    0    0  501  0.00000000000E+00  0.00000000000E+00  0.70516147956E+03  0.70516147956E+03  0.25500000920E-02 0.  1.
        2   -1    0    0  501    0  0.00000000000E+00  0.00000000000E+00 -0.10662556611E+04  0.10662556611E+04  0.25500000920E-02 0. -1.
    10030    2    1    2    0    0  0.00000000000E+00  0.00000000000E+00 -0.36109418156E+03  0.17714171407E+04  0.17342230763E+04 0.  0.
        3    1    3    3  502    0  0.29564055193E+03  0.80098907759E+03 -0.25989043687E+02  0.85420271537E+03  0.10100000352E+00 0.  1.
       -3    1    3    3    0  502 -0.29564055193E+03 -0.80098907759E+03 -0.33510513787E+03  0.91721442530E+03  0.10100000352E+00 0. -1.
</event>
<event>
 5   0  0.1252124E-04  0.2209227E+04  0.7818609E-02  0.8514597E-01
       -2   -1    0    0    0  501  0.00000000000E+00  0.00000000000E+00  0.14932941783E+04  0.14932941783E+04  0.25500000920E-02 0. -1.
        2   -1    0    0  501    0  0.00000000000E+00  0.00000000000E+00 -0.81710023927E+03  0.81710023927E+03  0.25500000920E-02 0.  1.
    10030    2    1    2    0    0  0.00000000000E+00  0.00000000000E+00  0.67619393904E+03  0.23103944176E+04  0.22092270417E+04 0.  0.
        3    1    3    3  502    0  0.46023793459E+03  0.58648552675E+03 -0.51432821186E+03  0.90571394449E+03  0.10100000352E+00 0.  1.
       -3    1    3    3    0  502 -0.46023793459E+03 -0.58648552675E+03  0.11905221509E+04  0.14046804731E+04  0.10100000352E+00 0. -1.
</event>
<event>
 5   0  0.5849604E-05  0.2194490E+04  0.7818609E-02  0.8520725E-01
       -1   -1    0    0    0  501  0.00000000000E+00  0.00000000000E+00  0.11373094624E+04  0.11373094624E+04  0.50400001928E-02 0.  1.
        1   -1    0    0  501    0  0.00000000000E+00  0.00000000000E+00 -0.10585915520E+04  0.10585915520E+04  0.50400001928E-02 0. -1.
    10030    2    1    2    0    0  0.00000000000E+00  0.00000000000E+00  0.78717910365E+02  0.21959010144E+04  0.21944896344E+04 0.  0.
        2    1    3    3  502    0 -0.24512847704E+03 -0.10683666944E+04 -0.10178692436E+02  0.10961746985E+04  0.25500000920E-02 0.  1.
       -2    1    3    3    0  502  0.24512847704E+03  0.10683666944E+04  0.88896602801E+02  0.10997263159E+04  0.25500000920E-02 0. -1.
</event>
<event>
 5   0  0.5861816E-05  0.2249911E+04  0.7818609E-02  0.8497936E-01
       -1   -1    0    0    0  501  0.00000000000E+00  0.00000000000E+00  0.10465143263E+04  0.10465143263E+04  0.50400001928E-02 0. -1.
        1   -1    0    0  501    0  0.00000000000E+00  0.00000000000E+00 -0.12092766175E+04  0.12092766175E+04  0.50400001928E-02 0.  1.
    10030    2    1    2    0    0  0.00000000000E+00  0.00000000000E+00 -0.16276229116E+03  0.22557909438E+04  0.22499113802E+04 0.  0.
        1    1    3    3  502    0 -0.45716433392E+03 -0.54928764111E+03 -0.95244906307E+03  0.11907457154E+04  0.50400001928E-02 0.  1.
       -1    1    3    3    0  502  0.45716433392E+03  0.54928764111E+03  0.78968677191E+03  0.10650452285E+04  0.50400001928E-02 0. -1.
</event>
<event>
 5   0  0.1404159E-04  0.2184937E+04  0.7818609E-02  0.8524724E-01
        2   -1    0    0  501    0  0.00000000000E+00  0.00000000000E+00  0.27566525533E+04  0.27566525533E+04  0.25500000920E-02 0. -1.
       -2   -1    0    0    0  501  0.00000000000E+00  0.00000000000E+00 -0.43294812552E+03  0.43294812552E+03  0.25500000920E-02 0.  1.
    10030    2    1    2    0    0  0.00000000000E+00  0.00000000000E+00  0.23237044278E+04  0.31896006788E+04  0.21849371210E+04 0.  0.
        5    1    3    3  502    0  0.60504846244E+02  0.98860131322E+03  0.48895566766E+03  0.11045782579E+04  0.46999998093E+01 0.  1.
       -5    1    3    3    0  502 -0.60504846244E+02 -0.98860131322E+03  0.18347487601E+04  0.20850224209E+04  0.46999998093E+01 0. -1.
</event>
<event>
 5   0  0.5981239E-05  0.2233839E+04  0.7818609E-02  0.8504474E-01
        1   -1    0    0  501    0  0.00000000000E+00  0.00000000000E+00  0.10281560082E+04  0.10281560082E+04  0.50400001928E-02 0. -1.
       -1   -1    0    0    0  501  0.00000000000E+00  0.00000000000E+00 -0.12133456567E+04  0.12133456568E+04  0.50400001928E-02 0.  1.
    10030    2    1    2    0    0  0.00000000000E+00  0.00000000000E+00 -0.18518964858E+03  0.22415016649E+04  0.22338385143E+04 0.  0.
        4    1    3    3  502    0 -0.20671206299E+03 -0.99713562286E+03 -0.55296900085E+03  0.11587862858E+04  0.12699999809E+01 0.  1.
       -4    1    3    3    0  502  0.20671206299E+03  0.99713562286E+03  0.36777935227E+03  0.10827153791E+04  0.12699999809E+01 0. -1.
</event>
<event>
 5   0  0.5861816E-05  0.2299321E+04  0.7818609E-02  0.8478189E-01
        1   -1    0    0  501    0  0.00000000000E+00  0.00000000000E+00  0.12910771086E+04  0.12910771086E+04  0.50400001928E-02 0. -1.
       -1   -1    0    0    0  501  0.00000000000E+00  0.00000000000E+00 -0.10237335322E+04  0.10237335322E+04  0.50400001928E-02 0.  1.
    10030    2    1    2    0    0  0.00000000000E+00  0.00000000000E+00  0.26734357640E+03  0.23148106408E+04  0.22993207073E+04 0.  0.
        1    1    3    3  502    0 -0.58487235830E+03  0.97759715247E+03  0.28946266714E+03  0.11753980193E+04  0.50400001928E-02 0. -1.
       -1    1    3    3    0  502  0.58487235830E+03 -0.97759715247E+03 -0.22119090734E+02  0.11394126216E+04  0.50400001928E-02 0.  1.
</event>
<event>
 5   0  0.1311472E-04  0.2150796E+04  0.7818609E-02  0.8539192E-01
        2   -1    0    0  501    0  0.00000000000E+00  0.00000000000E+00  0.13141353881E+04  0.13141353881E+04  0.25500000920E-02 0. -1.
       -2   -1    0    0    0  501  0.00000000000E+00  0.00000000000E+00 -0.88003159551E+03  0.88003159552E+03  0.25500000920E-02 0.  1.
    10030    2    1    2    0    0  0.00000000000E+00  0.00000000000E+00  0.43410379259E+03  0.21941669836E+04  0.21507958177E+04 0.  0.
        4    1    3    3  502    0  0.82927215870E+03  0.54056528392E+03 -0.21163106204E+03  0.10122709413E+04  0.12699999809E+01 0.  1.
       -4    1    3    3    0  502 -0.82927215870E+03 -0.54056528392E+03  0.64573485464E+03  0.11818960423E+04  0.12699999809E+01 0. -1.
</event>
<event>
 5   0  0.5861816E-05  0.2346162E+04  0.7818609E-02  0.8459939E-01
        1   -1    0    0  501    0  0.00000000000E+00  0.00000000000E+00  0.13868636377E+04  0.13868636377E+04  0.50400001928E-02 0.  1.
       -1   -1    0    0    0  501  0.00000000000E+00  0.00000000000E+00 -0.99225237114E+03  0.99225237115E+03  0.50400001928E-02 0. -1.
    10030    2    1    2    0    0  0.00000000000E+00  0.00000000000E+00  0.39461126660E+03  0.23791160089E+04  0.23461617446E+04 0.  0.
        1    1    3    3  502    0  0.24451465290E+03  0.10963176355E+04  0.54031554304E+03  0.12464512263E+04  0.50400001928E-02 0.  1.
       -1    1    3    3    0  502 -0.24451465290E+03 -0.10963176355E+04 -0.14570427644E+03  0.11326647826E+04  0.50400001928E-02 0. -1.
</event>
<event>
 5   0  0.5861816E-05  0.2198656E+04  0.7818609E-02  0.8518988E-01
        1   -1    0    0  501    0  0.00000000000E+00  0.00000000000E+00  0.98079969894E+03  0.98079969895E+03  0.50400001928E-02 0.  1.
       -1   -1    0    0    0  501  0.00000000000E+00  0.00000000000E+00 -0.12321803116E+04  0.12321803116E+04  0.50400001928E-02 0. -1.
    10030    2    1    2    0    0  0.00000000000E+00  0.00000000000E+00 -0.25138061264E+03  0.22129800105E+04  0.21986560246E+04 0.  0.
        1    1    3    3  502    0 -0.35711356284E+03  0.84454733350E+03 -0.73604991347E+03  0.11758230183E+04  0.50400001928E-02 0. -1.
       -1    1    3    3    0  502  0.35711356284E+03 -0.84454733350E+03  0.48466930083E+03  0.10371569922E+04  0.50400001928E-02 0.  1.
</event>
<event>
 5   0  0.5861816E-05  0.2204498E+04  0.7818609E-02  0.8516558E-01
       -1   -1    0    0    0  501  0.00000000000E+00  0.00000000000E+00  0.97490111371E+03  0.97490111373E+03  0.50400001928E-02 0.  1.
        1   -1    0    0  501    0  0.00000000000E+00  0.00000000000E+00 -0.12462315968E+04  0.12462315968E+04  0.50400001928E-02 0. -1.
    10030    2    1    2    0    0  0.00000000000E+00  0.00000000000E+00 -0.27133048304E+03  0.22211327105E+04  0.22044977402E+04 0.  0.
        1    1    3    3  502    0 -0.10012306470E+04  0.33604376480E+03 -0.45358446152E+03  0.11494029250E+04  0.50400001928E-02 0. -1.
       -1    1    3    3    0  502  0.10012306470E+04 -0.33604376480E+03  0.18225397848E+03  0.10717297855E+04  0.50400001928E-02 0.  1.
</event>
<event>
 5   0  0.5895063E-05  0.2207966E+04  0.7818609E-02  0.8515120E-01
        1   -1    0    0  501    0  0.00000000000E+00  0.00000000000E+00  0.10140070574E+04  0.10140070574E+04  0.50400001928E-02 0.  1.
       -1   -1    0    0    0  501  0.00000000000E+00  0.00000000000E+00 -0.12019431206E+04  0.12019431206E+04  0.50400001928E-02 0. -1.
    10030    2    1    2    0    0  0.00000000000E+00  0.00000000000E+00 -0.18793606325E+03  0.22159501780E+04  0.22079663103E+04 0.  0.
        5    1    3    3  502    0 -0.85386229432E+03 -0.69449369389E+03 -0.79000892207E+01  0.11006756152E+04  0.46999998093E+01 0.  1.
       -5    1    3    3    0  502  0.85386229432E+03  0.69449369389E+03 -0.18003597403E+03  0.11152745628E+04  0.46999998093E+01 0. -1.
</event>
<event>
 5   0  0.5895063E-05  0.2206437E+04  0.7818609E-02  0.8515754E-01
       -1   -1    0    0    0  501  0.00000000000E+00  0.00000000000E+00  0.12849569290E+04  0.12849569290E+04  0.50400001928E-02 0.  1.
        1   -1    0    0  501    0  0.00000000000E+00  0.00000000000E+00 -0.94718426939E+03  0.94718426941E+03  0.50400001928E-02 0. -1.
    10030    2    1    2    0    0  0.00000000000E+00  0.00000000000E+00  0.33777265959E+03  0.22321411984E+04  0.22064369377E+04 0.  0.
        5    1    3    3  502    0  0.43459811041E+03  0.39940996386E+02  0.11939016861E+04  0.12711782435E+04  0.46999998093E+01 0.  1.
       -5    1    3    3    0  502 -0.43459811041E+03 -0.39940996386E+02 -0.85612902646E+03  0.96096295491E+03  0.46999998093E+01 0. -1.
</event>
<event>
 5   0  0.5849604E-05  0.2480998E+04  0.7818609E-02  0.8409786E-01
        1   -1    0    0  501    0  0.00000000000E+00  0.00000000000E+00  0.11406528442E+04  0.11406528442E+04  0.50400001928E-02 0.  1.
       -1   -1    0    0    0  501  0.00000000000E+00  0.00000000000E+00 -0.13490852461E+04  0.13490852462E+04  0.50400001928E-02 0. -1.
    10030    2    1    2    0    0  0.00000000000E+00  0.00000000000E+00 -0.20843240193E+03  0.24897380904E+04  0.24809981243E+04 0.  0.
        2    1    3    3  502    0  0.86218483348E+03 -0.76144390954E+03  0.36183170713E+03  0.12058531000E+04  0.25500000920E-02 0.  1.
       -2    1    3    3    0  502 -0.86218483348E+03  0.76144390954E+03 -0.57026410905E+03  0.12838849904E+04  0.25500000920E-02 0. -1.
</event>
<event>
 5   0  0.5849604E-05  0.2214430E+04  0.7818609E-02  0.8512446E-01
       -1   -1    0    0    0  501  0.00000000000E+00  0.00000000000E+00  0.54760635316E+03  0.54760635318E+03  0.50400001928E-02 0. -1.
        1   -1    0    0  501    0  0.00000000000E+00  0.00000000000E+00 -0.22386976476E+04  0.22386976476E+04  0.50400001928E-02 0.  1.
    10030    2    1    2    0    0  0.00000000000E+00  0.00000000000E+00 -0.16910912944E+04  0.27863040008E+04  0.22144299986E+04 0.  0.
        2    1    3    3  502    0 -0.60979227883E+03 -0.41863854388E+02 -0.20071798005E+04  0.20981825367E+04  0.25500000920E-02 0.  1.
       -2    1    3    3    0  502  0.60979227883E+03  0.41863854388E+02  0.31608850610E+03  0.68812146407E+03  0.25500000920E-02 0. -1.
</event>
<event>
 5   0  0.5849604E-05  0.2158867E+04  0.7818609E-02  0.8535746E-01
        1   -1    0    0  501    0  0.00000000000E+00  0.00000000000E+00  0.18098243365E+04  0.18098243365E+04  0.50400001928E-02 0.  1.
       -1   -1    0    0    0  501  0.00000000000E+00  0.00000000000E+00 -0.64380672476E+03  0.64380672478E+03  0.50400001928E-02 0. -1.
    10030    2    1    2    0    0  0.00000000000E+00  0.00000000000E+00  0.11660176118E+04  0.24536310613E+04  0.21588673684E+04 0.  0.
        2    1    3    3  502    0 -0.84108849454E+03 -0.20748994156E+03 -0.14888450082E+03  0.87900428104E+03  0.25500000920E-02 0. -1.
       -2    1    3    3    0  502  0.84108849454E+03  0.20748994156E+03  0.13149021126E+04  0.15746267803E+04  0.25500000920E-02 0.  1.
</event>
<event>
 5   0  0.1252124E-04  0.2165689E+04  0.7818609E-02  0.8532846E-01
       -2   -1    0    0    0  501  0.00000000000E+00  0.00000000000E+00  0.22880409069E+04  0.22880409069E+04  0.25500000920E-02 0. -1.
        2   -1    0    0  501    0  0.00000000000E+00  0.00000000000E+00 -0.51246989804E+03  0.51246989805E+03  0.25500000920E-02 0.  1.
    10030    2    1    2    0    0  0.00000000000E+00  0.00000000000E+00  0.17755710088E+04  0.28005108049E+04  0.21656888883E+04 0.  0.
        3    1    3    3  502    0 -0.15552141646E+03 -0.13285908357E+03 -0.48726135528E+03  0.52845253866E+03  0.10100000352E+00 0.  1.
       -3    1    3    3    0  502  0.15552141646E+03  0.13285908357E+03  0.22628323641E+04  0.22720582663E+04  0.10100000352E+00 0. -1.
</event>
<event>
 5   0  0.5861816E-05  0.2289370E+04  0.7818609E-02  0.8482124E-01
       -1   -1    0    0    0  501  0.00000000000E+00  0.00000000000E+00  0.87651737226E+03  0.87651737228E+03  0.50400001928E-02 0. -1.
        1   -1    0    0  501    0  0.00000000000E+00  0.00000000000E+00 -0.14948971619E+04  0.14948971619E+04  0.50400001928E-02 0.  1.
    10030    2    1    2    0    0  0.00000000000E+00  0.00000000000E+00 -0.61837978964E+03  0.23714145342E+04  0.22893696357E+04 0.  0.
        1    1    3    3  502    0 -0.35757098829E+03 -0.71272246944E+03 -0.11598848240E+04  0.14075379693E+04  0.50400001928E-02 0.  1.
       -1    1    3    3    0  502  0.35757098829E+03  0.71272246944E+03  0.54150503434E+03  0.96387656489E+03  0.50400001928E-02 0. -1.
</event>
<event>
 5   0  0.4586375E-05  0.2241436E+04  0.7818609E-02  0.8501377E-01
       -3   -1    0    0    0  501  0.00000000000E+00  0.00000000000E+00  0.20170723258E+04  0.20170723283E+04  0.10100000352E+00 0.  1.
        3   -1    0    0  501    0  0.00000000000E+00  0.00000000000E+00 -0.62268916223E+03  0.62268917042E+03  0.10100000352E+00 0. -1.
    10030    2    1    2    0    0  0.00000000000E+00  0.00000000000E+00  0.13943831636E+04  0.26397614987E+04  0.22414362278E+04 0.  0.
        4    1    3    3  502    0 -0.21628492812E+03  0.40765687399E+03 -0.50559799396E+03  0.68453943746E+03  0.12699999809E+01 0. -1.
       -4    1    3    3    0  502  0.21628492812E+03 -0.40765687399E+03  0.18999811575E+04  0.19552220613E+04  0.12699999809E+01 0.  1.
</event>
<event>
 5   0  0.1252124E-04  0.2066873E+04  0.7818609E-02  0.8575978E-01
        2   -1    0    0  501    0  0.00000000000E+00  0.00000000000E+00  0.16232085168E+04  0.16232085168E+04  0.25500000920E-02 0. -1.
       -2   -1    0    0    0  501  0.00000000000E+00  0.00000000000E+00 -0.65795042443E+03  0.65795042444E+03  0.25500000920E-02 0.  1.
    10030    2    1    2    0    0  0.00000000000E+00  0.00000000000E+00  0.96525809239E+03  0.22811589413E+04  0.20668727417E+04 0.  0.
        3    1    3    3  502    0 -0.72933497658E+03 -0.12307481602E+03 -0.31394241240E+03  0.80351525618E+03  0.10100000352E+00 0.  1.
       -3    1    3    3    0  502  0.72933497658E+03  0.12307481602E+03  0.12792005048E+04  0.14776436851E+04  0.10100000352E+00 0. -1.
</event>
<event>
 5   0  0.5981239E-05  0.2112112E+04  0.7818609E-02  0.8555926E-01
       -1   -1    0    0    0  501  0.00000000000E+00  0.00000000000E+00  0.71555705461E+03  0.71555705463E+03  0.50400001928E-02 0.  1.
        1   -1    0    0  501    0  0.00000000000E+00  0.00000000000E+00 -0.15585826326E+04  0.15585826326E+04  0.50400001928E-02 0. -1.
    10030    2    1    2    0    0  0.00000000000E+00  0.00000000000E+00 -0.84302557799E+03  0.22741396872E+04  0.21121124951E+04 0.  0.
        4    1    3    3  502    0 -0.56036801343E+03  0.16912292069E+03  0.52491658582E+03  0.78622764372E+03  0.12699999809E+01 0.  1.
       -4    1    3    3    0  502  0.56036801343E+03 -0.16912292069E+03 -0.13679421638E+04  0.14879120435E+04  0.12699999809E+01 0. -1.
</event>
<event>
 5   0  0.1311472E-04  0.2207755E+04  0.7818609E-02  0.8515207E-01
        2   -1    0    0  501    0  0.00000000000E+00  0.00000000000E+00  0.20626154427E+04  0.20626154427E+04  0.25500000920E-02 0.  1.
       -2   -1    0    0    0  501  0.00000000000E+00  0.00000000000E+00 -0.59077707813E+03  0.59077707813E+03  0.25500000920E-02 0. -1.
    10030    2    1    2    0    0  0.00000000000E+00  0.00000000000E+00  0.14718383645E+04  0.26533925208E+04  0.22077553529E+04 0.  0.
        4    1    3    3  502    0  0.44684657446E+03  0.27288164133E+03  0.19038857101E+04  0.19745679683E+04  0.12699999809E+01 0.  1.
       -4    1    3    3    0  502 -0.44684657446E+03 -0.27288164133E+03 -0.43204734562E+03  0.67882455248E+03  0.12699999809E+01 0. -1.
</event>
<event>
 5   0  0.1241430E-04  0.2239048E+04  0.7818609E-02  0.8502349E-01
        2   -1    0    0  501    0  0.00000000000E+00  0.00000000000E+00  0.13769410339E+04  0.13769410339E+04  0.25500000920E-02 0. -1.
       -2   -1    0    0    0  501  0.00000000000E+00  0.00000000000E+00 -0.91023047707E+03  0.91023047708E+03  0.25500000920E-02 0.  1.
    10030    2    1    2    0    0  0.00000000000E+00  0.00000000000E+00  0.46671055678E+03  0.22871715109E+04  0.22390477388E+04 0.  0.
        1    1    3    3  502    0 -0.16037603417E+03 -0.91180472219E+03  0.87634868491E+03  0.12747922738E+04  0.50400001928E-02 0. -1.
       -1    1    3    3    0  502  0.16037603417E+03  0.91180472219E+03 -0.40963812813E+03  0.10123792371E+04  0.50400001928E-02 0.  1.
</event>
<event>
 5   0  0.6263558E-05  0.2127984E+04  0.7818609E-02  0.8549015E-01
        1   -1    0    0  501    0  0.00000000000E+00  0.00000000000E+00  0.20565362588E+04  0.20565362588E+04  0.50400001928E-02 0. -1.
       -1   -1    0    0    0  501  0.00000000000E+00  0.00000000000E+00 -0.55047852641E+03  0.55047852643E+03  0.50400001928E-02 0.  1.
    10030    2    1    2    0    0  0.00000000000E+00  0.00000000000E+00  0.15060577324E+04  0.26070147853E+04  0.21279840688E+04 0.  0.
        3    1    3    3  502    0 -0.52950728175E+03 -0.81943052252E+03  0.12731378096E+04  0.16039713947E+04  0.10100000352E+00 0. -1.
       -3    1    3    3    0  502  0.52950728175E+03  0.81943052252E+03  0.23291992281E+03  0.10030433905E+04  0.10100000352E+00 0.  1.
</event>
<event>
 5   0  0.1252124E-04  0.1924997E+04  0.7818609E-02  0.8642513E-01
        2   -1    0    0  501    0  0.00000000000E+00  0.00000000000E+00  0.22960509928E+04  0.22960509928E+04  0.25500000920E-02 0. -1.
       -2   -1    0    0    0  501  0.00000000000E+00  0.00000000000E+00 -0.40347667175E+03  0.40347667176E+03  0.25500000920E-02 0.  1.
    10030    2    1    2    0    0  0.00000000000E+00  0.00000000000E+00  0.18925743210E+04  0.26995276645E+04  0.19249966366E+04 0.  0.
        3    1    3    3  502    0  0.69204345374E+03  0.62671612340E+03  0.61828678516E+03  0.11198106090E+04  0.10100000352E+00 0.  1.
       -3    1    3    3    0  502 -0.69204345374E+03 -0.62671612340E+03  0.12742875359E+04  0.15797170555E+04  0.10100000352E+00 0. -1.
</event>
<event>
 5   0  0.5981239E-05  0.2181814E+04  0.7818609E-02  0.8526036E-01
       -1   -1    0    0    0  501  0.00000000000E+00  0.00000000000E+00  0.12691137168E+04  0.12691137168E+04  0.50400001928E-02 0. -1.
        1   -1    0    0  501    0  0.00000000000E+00  0.00000000000E+00 -0.93772379176E+03  0.93772379177E+03  0.50400001928E-02 0.  1.
    10030    2    1    2    0    0  0.00000000000E+00  0.00000000000E+00  0.33138992508E+03  0.22068375086E+04  0.21818140404E+04 0.  0.
        4    1    3    3  502    0 -0.35926393448E+03 -0.19786571379E+03  0.11881572130E+04  0.12569568772E+04  0.12699999809E+01 0. -1.
       -4    1    3    3    0  502  0.35926393448E+03  0.19786571379E+03 -0.85676728797E+03  0.94988063142E+03  0.12699999809E+01 0.  1.
</event>
<event>
 5   0  0.1226021E-04  0.2019663E+04  0.7818609E-02  0.8597482E-01
       -2   -1    0    0    0  501  0.00000000000E+00  0.00000000000E+00  0.98129258843E+03  0.98129258843E+03  0.25500000920E-02 0. -1.
        2   -1    0    0  501    0  0.00000000000E+00  0.00000000000E+00 -0.10392003926E+04  0.10392003926E+04  0.25500000920E-02 0.  1.
    10030    2    1    2    0    0  0.00000000000E+00  0.00000000000E+00 -0.57907804180E+02  0.20204929810E+04  0.20196629849E+04 0.  0.
        2    1    3    3  502    0  0.25816613073E+03  0.54546629646E+03  0.78105557355E+03  0.98703142838E+03  0.25500000920E-02 0. -1.
       -2    1    3    3    0  502 -0.25816613073E+03 -0.54546629646E+03 -0.83896337773E+03  0.10334615527E+04  0.25500000920E-02 0.  1.
</event>
<event>
 5   0  0.5981239E-05  0.2192534E+04  0.7818609E-02  0.8521542E-01
        1   -1    0    0  501    0  0.00000000000E+00  0.00000000000E+00  0.13815014828E+04  0.13815014828E+04  0.50400001928E-02 0. -1.
       -1   -1    0    0    0  501  0.00000000000E+00  0.00000000000E+00 -0.86992379825E+03  0.86992379827E+03  0.50400001928E-02 0.  1.
    10030    2    1    2    0    0  0.00000000000E+00  0.00000000000E+00  0.51157768456E+03  0.22514252811E+04  0.21925337099E+04 0.  0.
        4    1    3    3  502    0 -0.15372279935E+03 -0.90875631887E+03 -0.35372907520E+03  0.98721558824E+03  0.12699999809E+01 0.  1.
       -4    1    3    3    0  502  0.15372279935E+03  0.90875631887E+03  0.86530675976E+03  0.12642096929E+04  0.12699999809E+01 0. -1.
</event>
<event>
 5   0  0.5981239E-05  0.2092990E+04  0.7818609E-02  0.8564338E-01
        1   -1    0    0  501    0  0.00000000000E+00  0.00000000000E+00  0.87822461070E+03  0.87822461072E+03  0.50400001928E-02 0. -1.
       -1   -1    0    0    0  501  0.00000000000E+00  0.00000000000E+00 -0.12470064777E+04  0.12470064777E+04  0.50400001928E-02 0.  1.
    10030    2    1    2    0    0  0.00000000000E+00  0.00000000000E+00 -0.36878186699E+03  0.21252310884E+04  0.20929899937E+04 0.  0.
        4    1    3    3  502    0  0.60315602124E+03 -0.23045262612E+03  0.65185143973E+03  0.91750613689E+03  0.12699999809E+01 0. -1.
       -4    1    3    3    0  502 -0.60315602124E+03  0.23045262612E+03 -0.10206333067E+04  0.12077249515E+04  0.12699999809E+01 0.  1.
</event>
<event>
 5   0  0.5849604E-05  0.2181605E+04  0.7818609E-02  0.8526124E-01
        1   -1    0    0  501    0  0.00000000000E+00  0.00000000000E+00  0.84323888820E+03  0.84323888821E+03  0.50400001928E-02 0. -1.
       -1   -1    0    0    0  501  0.00000000000E+00  0.00000000000E+00 -0.14110476780E+04  0.14110476780E+04  0.50400001928E-02 0.  1.
    10030    2    1    2    0    0  0.00000000000E+00  0.00000000000E+00 -0.56780878979E+03  0.22542865662E+04  0.21816051661E+04 0.  0.
        2    1    3    3  502    0  0.20198339960E+03 -0.22807399731E+03 -0.13661934276E+04  0.13997498075E+04  0.25500000920E-02 0.  1.
       -2    1    3    3    0  502 -0.20198339960E+03  0.22807399731E+03  0.79838463785E+03  0.85453675867E+03  0.25500000920E-02 0. -1.
</event>
<event>
 5   0  0.1226021E-04  0.2200350E+04  0.7818609E-02  0.8518283E-01
        2   -1    0    0  501    0  0.00000000000E+00  0.00000000000E+00  0.13695297250E+04  0.13695297250E+04  0.25500000920E-02 0. -1.
       -2   -1    0    0    0  501  0.00000000000E+00  0.00000000000E+00 -0.88379573244E+03  0.88379573245E+03  0.25500000920E-02 0.  1.
    10030    2    1    2    0    0  0.00000000000E+00  0.00000000000E+00  0.48573399252E+03  0.22533254574E+04  0.22003495417E+04 0.  0.
        2    1    3    3  502    0  0.10492149733E+04 -0.17138145070E+03  0.53281053965E+03  0.11891638798E+04  0.25500000920E-02 0. -1.
       -2    1    3    3    0  502 -0.10492149733E+04  0.17138145070E+03 -0.47076547138E+02  0.10641615776E+04  0.25500000920E-02 0.  1.
</event>
<event>
 5   0  0.1241430E-04  0.2199205E+04  0.7818609E-02  0.8518759E-01
        2   -1    0    0  501    0  0.00000000000E+00  0.00000000000E+00  0.18753174696E+04  0.18753174696E+04  0.25500000920E-02 0. -1.
       -2   -1    0    0    0  501  0.00000000000E+00  0.00000000000E+00 -0.64475785344E+03  0.64475785345E+03  0.25500000920E-02 0.  1.
    10030    2    1    2    0    0  0.00000000000E+00  0.00000000000E+00  0.12305596162E+04  0.25200753230E+04  0.21992050075E+04 0.  0.
        1    1    3    3  502    0 -0.20906086102E+03 -0.10777398547E+04  0.54375464603E+03  0.12251117309E+04  0.50400001928E-02 0.  1.
       -1    1    3    3    0  502  0.20906086102E+03  0.10777398547E+04  0.68680497012E+03  0.12949635922E+04  0.50400001928E-02 0. -1.
</event>
<event>
 5   0  0.1404159E-04  0.2374667E+04  0.7818609E-02  0.8449049E-01
       -2   -1    0    0    0  501  0.00000000000E+00  0.00000000000E+00  0.13477444534E+04  0.13477444534E+04  0.25500000920E-02 0. -1.
        2   -1    0    0  501    0  0.00000000000E+00  0.00000000000E+00 -0.10460148265E+04  0.10460148265E+04  0.25500000920E-02 0.  1.
    10030    2    1    2    0    0  0.00000000000E+00  0.00000000000E+00  0.30172962685E+03  0.23937592799E+04  0.23746668656E+04 0.  0.
        5    1    3    3  502    0 -0.28645343258E+03 -0.99284556358E+03  0.74032324758E+03  0.12711799570E+04  0.46999998093E+01 0. -1.
       -5    1    3    3    0  502  0.28645343258E+03  0.99284556358E+03 -0.43859362073E+03  0.11225793229E+04  0.46999998093E+01 0.  1.
</event>
<event>
 5   0  0.1241430E-04  0.2172171E+04  0.7818609E-02  0.8530101E-01
        2   -1    0    0  501    0  0.00000000000E+00  0.00000000000E+00  0.11859120172E+04  0.11859120172E+04  0.25500000920E-02 0. -1.
       -2   -1    0    0    0  501  0.00000000000E+00  0.00000000000E+00 -0.99466204645E+03  0.99466204645E+03  0.25500000920E-02 0.  1.
    10030    2    1    2    0    0  0.00000000000E+00  0.00000000000E+00  0.19124997074E+03  0.21805740636E+04  0.21721709637E+04 0.  0.
        1    1    3    3  502    0 -0.49448269549E+03  0.94549019788E+03  0.29918225451E+03  0.11081402763E+04  0.50400001928E-02 0. -1.
       -1    1    3    3    0  502  0.49448269549E+03 -0.94549019788E+03 -0.10793228377E+03  0.10724337874E+04  0.50400001928E-02 0.  1.
</event>
<event>
 5   0  0.5861816E-05  0.2307740E+04  0.7818609E-02  0.8474875E-01
       -1   -1    0    0    0  501  0.00000000000E+00  0.00000000000E+00  0.86654434617E+03  0.86654434618E+03  0.50400001928E-02 0.  1.
        1   -1    0    0  501    0  0.00000000000E+00  0.00000000000E+00 -0.15364666624E+04  0.15364666624E+04  0.50400001928E-02 0. -1.
    10030    2    1    2    0    0  0.00000000000E+00  0.00000000000E+00 -0.66992231621E+03  0.24030110086E+04  0.23077404528E+04 0.  0.
        1    1    3    3  502    0  0.59997494979E+03  0.63121472996E+03  0.45326639575E+03  0.98175984906E+03  0.50400001928E-02 0.  1.
       -1    1    3    3    0  502 -0.59997494979E+03 -0.63121472996E+03 -0.11231887120E+04  0.14212511595E+04  0.50400001928E-02 0. -1.
</event>
<event>
 5   0  0.1404159E-04  0.2069455E+04  0.7818609E-02  0.8574819E-01
       -2   -1    0    0    0  501  0.00000000000E+00  0.00000000000E+00  0.13348957726E+04  0.13348957726E+04  0.25500000920E-02 0. -1.
        2   -1    0    0  501    0  0.00000000000E+00  0.00000000000E+00 -0.80205607883E+03  0.80205607883E+03  0.25500000920E-02 0.  1.
    10030    2    1    2    0    0  0.00000000000E+00  0.00000000000E+00  0.53283969375E+03  0.21369518514E+04  0.20694552607E+04 0.  0.
        5    1    3    3  502    0 -0.19555180026E+03  0.58146288593E+03  0.11268431180E+04  0.12830187438E+04  0.46999998093E+01 0. -1.
       -5    1    3    3    0  502  0.19555180026E+03 -0.58146288593E+03 -0.59400342425E+03  0.85393310764E+03  0.46999998093E+01 0.  1.
</event>
<event>
 5   0  0.4586375E-05  0.1929734E+04  0.7818609E-02  0.8640196E-01
       -3   -1    0    0    0  501  0.00000000000E+00  0.00000000000E+00  0.14058104335E+04  0.14058104371E+04  0.10100000352E+00 0.  1.
        3   -1    0    0  501    0  0.00000000000E+00  0.00000000000E+00 -0.66222890034E+03  0.66222890805E+03  0.10100000352E+00 0. -1.
    10030    2    1    2    0    0  0.00000000000E+00  0.00000000000E+00  0.74358153312E+03  0.20680393451E+04  0.19297339808E+04 0.  0.
        3    1    3    3  502    0  0.13494161578E+03  0.95338518315E+03  0.43798976421E+03  0.10578220979E+04  0.10100000352E+00 0. -1.
       -3    1    3    3    0  502 -0.13494161578E+03 -0.95338518315E+03  0.30559176890E+03  0.10102172472E+04  0.10100000352E+00 0.  1.
</event>
<event>
 5   0  0.1311472E-04  0.2217873E+04  0.7818609E-02  0.8511026E-01
        2   -1    0    0  501    0  0.00000000000E+00  0.00000000000E+00  0.19296159067E+04  0.19296159067E+04  0.25500000920E-02 0. -1.
       -2   -1    0    0    0  501  0.00000000000E+00  0.00000000000E+00 -0.63729777520E+03  0.63729777520E+03  0.25500000920E-02 0.  1.
    10030    2    1    2    0    0  0.00000000000E+00  0.00000000000E+00  0.12923181315E+04  0.25669136819E+04  0.22178727866E+04 0.  0.
        4    1    3    3  502    0  0.60884549562E+02  0.83148777283E+03 -0.20011934754E+03  0.85739618083E+03  0.12699999809E+01 0.  1.
       -4    1    3    3    0  502 -0.60884549562E+02 -0.83148777283E+03  0.14924374791E+04  0.17095175011E+04  0.12699999809E+01 0. -1.
</event>
<event>
 5   0  0.1311472E-04  0.2161147E+04  0.7818609E-02  0.8534776E-01
       -2   -1    0    0    0  501  0.00000000000E+00  0.00000000000E+00  0.62301965856E+03  0.62301965856E+03  0.25500000920E-02 0. -1.
        2   -1    0    0  501    0  0.00000000000E+00  0.00000000000E+00 -0.18741612810E+04  0.18741612810E+04  0.25500000920E-02 0.  1.
    10030    2    1    2    0    0  0.00000000000E+00  0.00000000000E+00 -0.12511416225E+04  0.24971809396E+04  0.21611472152E+04 0.  0.
        4    1    3    3  502    0 -0.62721916940E+03  0.32329046983E+03 -0.15711792775E+04  0.17223607489E+04  0.12699999809E+01 0.  1.
       -4    1    3    3    0  502  0.62721916940E+03 -0.32329046983E+03  0.32003765506E+03  0.77482019069E+03  0.12699999809E+01 0. -1.
</event>
<event>
 5   0  0.5849604E-05  0.2193880E+04  0.7818609E-02  0.8520980E-01
        1   -1    0    0  501    0  0.00000000000E+00  0.00000000000E+00  0.11495344221E+04  0.11495344221E+04  0.50400001928E-02 0. -1.
       -1   -1    0    0    0  501  0.00000000000E+00  0.00000000000E+00 -0.10467521153E+04  0.10467521153E+04  0.50400001928E-02 0.  1.
    10030    2    1    2    0    0  0.00000000000E+00  0.00000000000E+00  0.10278230685E+03  0.21962865374E+04  0.21938802046E+04 0.  0.
        2    1    3    3  502    0  0.57830987148E+03 -0.18352027008E+03  0.96626199558E+03  0.11409575983E+04  0.25500000920E-02 0. -1.
       -2    1    3    3    0  502 -0.57830987148E+03  0.18352027008E+03 -0.86347968872E+03  0.10553289392E+04  0.25500000920E-02 0.  1.
</event>
<event>
 5   0  0.5861816E-05  0.1563095E+04  0.7818609E-02  0.8843547E-01
       -1   -1    0    0    0  501  0.00000000000E+00  0.00000000000E+00  0.36635869919E+03  0.36635869922E+03  0.50400001928E-02 0. -1.
        1   -1    0    0  501    0  0.00000000000E+00  0.00000000000E+00 -0.16672630437E+04  0.16672630438E+04  0.50400001928E-02 0.  1.
    10030    2    1    2    0    0  0.00000000000E+00  0.00000000000E+00 -0.13009043446E+04  0.20336217430E+04  0.15630947763E+04 0.  0.
        1    1    3    3  502    0 -0.19395134485E+03 -0.52332595460E+03 -0.13622544355E+04  0.14721495597E+04  0.50400001928E-02 0.  1.
       -1    1    3    3    0  502  0.19395134485E+03  0.52332595460E+03  0.61350090970E+02  0.56147218330E+03  0.50400001928E-02 0. -1.
</event>
<event>
 5   0  0.5895063E-05  0.2178088E+04  0.7818609E-02  0.8527604E-01
        1   -1    0    0  501    0  0.00000000000E+00  0.00000000000E+00  0.73503655319E+03  0.73503655321E+03  0.50400001928E-02 0.  1.
       -1   -1    0    0    0  501  0.00000000000E+00  0.00000000000E+00 -0.16135476531E+04  0.16135476531E+04  0.50400001928E-02 0. -1.
    10030    2    1    2    0    0  0.00000000000E+00  0.00000000000E+00 -0.87851109992E+03  0.23485842063E+04  0.21780876983E+04 0.  0.
        5    1    3    3  502    0  0.21696634197E+03 -0.54420783865E+03  0.55062360105E+03  0.80401803788E+03  0.46999998093E+01 0.  1.
       -5    1    3    3    0  502 -0.21696634197E+03  0.54420783865E+03 -0.14291347010E+04  0.15445661684E+04  0.46999998093E+01 0. -1.
</event>
<event>
 5   0  0.1311472E-04  0.2177435E+04  0.7818609E-02  0.8527879E-01
       -2   -1    0    0    0  501  0.00000000000E+00  0.00000000000E+00  0.50441595424E+03  0.50441595425E+03  0.25500000920E-02 0. -1.
        2   -1    0    0  501    0  0.00000000000E+00  0.00000000000E+00 -0.23498574662E+04  0.23498574662E+04  0.25500000920E-02 0.  1.
    10030    2    1    2    0    0  0.00000000000E+00  0.00000000000E+00 -0.18454415119E+04  0.28542734204E+04  0.21774348175E+04 0.  0.
        4    1    3    3  502    0  0.34453327543E+03  0.84247322296E+03 -0.17057662182E+04  0.19334177803E+04  0.12699999809E+01 0.  1.
       -4    1    3    3    0  502 -0.34453327543E+03 -0.84247322296E+03 -0.13967529373E+03  0.92085564008E+03  0.12699999809E+01 0. -1.
</event>
<event>
 5   0  0.1404159E-04  0.2192758E+04  0.7818609E-02  0.8521448E-01
        2   -1    0    0  501    0  0.00000000000E+00  0.00000000000E+00  0.46154068337E+03  0.46154068338E+03  0.25500000920E-02 0. -1.
       -2   -1    0    0    0  501  0.00000000000E+00  0.00000000000E+00 -0.26044222741E+04  0.26044222741E+04  0.25500000920E-02 0.  1.
    10030    2    1    2    0    0  0.00000000000E+00  0.00000000000E+00 -0.21428815907E+04  0.30659629574E+04  0.21927579312E+04 0.  0.
        5    1    3    3  502    0  0.81209277866E+03 -0.18788440277E+03 -0.20672553551E+04  0.22289822841E+04  0.46999998093E+01 0.  1.
       -5    1    3    3    0  502 -0.81209277866E+03  0.18788440277E+03 -0.75626235608E+02  0.83698067329E+03  0.46999998093E+01 0. -1.
</event>
<event>
 5   0  0.1241430E-04  0.2225279E+04  0.7818609E-02  0.8507979E-01
        2   -1    0    0  501    0  0.00000000000E+00  0.00000000000E+00  0.17026781341E+04  0.17026781341E+04  0.25500000920E-02 0.  1.
       -2   -1    0    0    0  501  0.00000000000E+00  0.00000000000E+00 -0.72707044334E+03  0.72707044335E+03  0.25500000920E-02 0. -1.
    10030    2    1    2    0    0  0.00000000000E+00  0.00000000000E+00  0.97560769075E+03  0.24297485774E+04  0.22252792596E+04 0.  0.
        1    1    3    3  502    0 -0.51359638857E+03 -0.11992338254E+03 -0.58191121869E+03  0.78535567388E+03  0.50400001928E-02 0. -1.
       -1    1    3    3    0  502  0.51359638857E+03  0.11992338254E+03  0.15575189094E+04  0.16443929036E+04  0.50400001928E-02 0.  1.
</event>
<event>
 5   0  0.1241430E-04  0.2194297E+04  0.7818609E-02  0.8520805E-01
        2   -1    0    0  501    0  0.00000000000E+00  0.00000000000E+00  0.13285935986E+04  0.13285935986E+04  0.25500000920E-02 0. -1.
       -2   -1    0    0    0  501  0.00000000000E+00  0.00000000000E+00 -0.90602218127E+03  0.90602218127E+03  0.25500000920E-02 0.  1.
    10030    2    1    2    0    0  0.00000000000E+00  0.00000000000E+00  0.42257141735E+03  0.22346157799E+04  0.21942974003E+04 0.  0.
        1    1    3    3  502    0 -0.75111113786E+03 -0.36923033075E+02 -0.60226970591E+03  0.96346253195E+03  0.50400001928E-02 0.  1.
       -1    1    3    3    0  502  0.75111113786E+03  0.36923033075E+02  0.10248411233E+04  0.12711532479E+04  0.50400001928E-02 0. -1.
</event>
<event>
 5   0  0.5895063E-05  0.2194512E+04  0.7818609E-02  0.8520716E-01
        1   -1    0    0  501    0  0.00000000000E+00  0.00000000000E+00  0.14511752413E+04  0.14511752413E+04  0.50400001928E-02 0.  1.
       -1   -1    0    0    0  501  0.00000000000E+00  0.00000000000E+00 -0.82965216996E+03  0.82965216997E+03  0.50400001928E-02 0. -1.
    10030    2    1    2    0    0  0.00000000000E+00  0.00000000000E+00  0.62152307131E+03  0.22808274112E+04  0.21945119621E+04 0.  0.
        5    1    3    3  502    0  0.89866597614E+03 -0.54217014528E+03 -0.21824178281E+02  0.10497844483E+04  0.46999998093E+01 0. -1.
       -5    1    3    3    0  502 -0.89866597614E+03  0.54217014528E+03  0.64334724959E+03  0.12310429630E+04  0.46999998093E+01 0.  1.
</event>
<event>
 5   0  0.5895063E-05  0.2187479E+04  0.7818609E-02  0.8523658E-01
       -1   -1    0    0    0  501  0.00000000000E+00  0.00000000000E+00  0.14632864975E+04  0.14632864975E+04  0.50400001928E-02 0. -1.
        1   -1    0    0  501    0  0.00000000000E+00  0.00000000000E+00 -0.81752034684E+03  0.81752034685E+03  0.50400001928E-02 0.  1.
    10030    2    1    2    0    0  0.00000000000E+00  0.00000000000E+00  0.64576615064E+03  0.22808068443E+04  0.21874793576E+04 0.  0.
        5    1    3    3  502    0  0.35186468629E+03  0.41860531834E+03 -0.66473820961E+03  0.86077764104E+03  0.46999998093E+01 0.  1.
       -5    1    3    3    0  502 -0.35186468629E+03 -0.41860531834E+03  0.13105043602E+04  0.14200292033E+04  0.46999998093E+01 0. -1.
</event>
<event>
 5   0  0.1311472E-04  0.2224045E+04  0.7818609E-02  0.8508486E-01
       -2   -1    0    0    0  501  0.00000000000E+00  0.00000000000E+00  0.96134767999E+03  0.96134768000E+03  0.25500000920E-02 0.  1.
        2   -1    0    0  501    0  0.00000000000E+00  0.00000000000E+00 -0.12863129001E+04  0.12863129001E+04  0.25500000920E-02 0. -1.
    10030    2    1    2    0    0  0.00000000000E+00  0.00000000000E+00 -0.32496522008E+03  0.22476605801E+04  0.22240448936E+04 0.  0.
        4    1    3    3  502    0  0.20950510996E+03 -0.63576905888E+03  0.73492009309E+03  0.99408442471E+03  0.12699999809E+01 0.  1.
       -4    1    3    3    0  502 -0.20950510996E+03  0.63576905888E+03 -0.10598853132E+04  0.12535761554E+04  0.12699999809E+01 0. -1.
</event>
<event>
 5   0  0.5981239E-05  0.2176579E+04  0.7818609E-02  0.8528240E-01
       -1   -1    0    0    0  501  0.00000000000E+00  0.00000000000E+00  0.63053806447E+03  0.63053806449E+03  0.50400001928E-02 0.  1.
        1   -1    0    0  501    0  0.00000000000E+00  0.00000000000E+00 -0.18783539024E+04  0.18783539025E+04  0.50400001928E-02 0. -1.
    10030    2    1    2    0    0  0.00000000000E+00  0.00000000000E+00 -0.12478158380E+04  0.25088919669E+04  0.21765786309E+04 0.  0.
        4    1    3    3  502    0  0.21534689408E+03 -0.10187344529E+04 -0.25907547270E+03  0.10729938880E+04  0.12699999809E+01 0.  1.
       -4    1    3    3    0  502 -0.21534689408E+03  0.10187344529E+04 -0.98874036527E+03  0.14358980789E+04  0.12699999809E+01 0. -1.
</event>
<event>
 5   0  0.1311472E-04  0.2050907E+04  0.7818609E-02  0.8583183E-01
       -2   -1    0    0    0  501  0.00000000000E+00  0.00000000000E+00  0.11376483332E+04  0.11376483332E+04  0.25500000920E-02 0.  1.
        2   -1    0    0  501    0  0.00000000000E+00  0.00000000000E+00 -0.92432311095E+03  0.92432311096E+03  0.25500000920E-02 0. -1.
    10030    2    1    2    0    0  0.00000000000E+00  0.00000000000E+00  0.21332522225E+03  0.20619714442E+04  0.20509067717E+04 0.  0.
        4    1    3    3  502    0 -0.98260005815E+03 -0.25521131955E+03 -0.38745948748E+02  0.10159421998E+04  0.12699999809E+01 0. -1.
       -4    1    3    3    0  502  0.98260005815E+03  0.25521131955E+03  0.25207117100E+03  0.10460292444E+04  0.12699999809E+01 0.  1.
</event>
<event>
 5   0  0.6263558E-05  0.2208508E+04  0.7818609E-02  0.8514895E-01
       -1   -1    0    0    0  501  0.00000000000E+00  0.00000000000E+00  0.91604209845E+03  0.91604209846E+03  0.50400001928E-02 0.  1.
        1   -1    0    0  501    0  0.00000000000E+00  0.00000000000E+00 -0.13311363877E+04  0.13311363877E+04  0.50400001928E-02 0. -1.
    10030    2    1    2    0    0  0.00000000000E+00  0.00000000000E+00 -0.41509428927E+03  0.22471784862E+04  0.22085080665E+04 0.  0.
        3    1    3    3  502    0  0.77067013722E+03  0.79030810037E+03 -0.17774946522E+03  0.11180850757E+04  0.10100000352E+00 0.  1.
       -3    1    3    3    0  502 -0.77067013722E+03 -0.79030810037E+03 -0.23734482405E+03  0.11290934105E+04  0.10100000352E+00 0. -1.
</event>
<event>
 5   0  0.5981239E-05  0.2195916E+04  0.7818609E-02  0.8520130E-01
       -1   -1    0    0    0  501  0.00000000000E+00  0.00000000000E+00  0.16564997249E+04  0.16564997249E+04  0.50400001928E-02 0. -1.
        1   -1    0    0  501    0  0.00000000000E+00  0.00000000000E+00 -0.72774621154E+03  0.72774621155E+03  0.50400001928E-02 0.  1.
    10030    2    1    2    0    0  0.00000000000E+00  0.00000000000E+00  0.92875351333E+03  0.23842459364E+04  0.21959156625E+04 0.  0.
        4    1    3    3  502    0  0.44170424415E+03 -0.75684573335E+03 -0.25386379936E+03  0.91234124367E+03  0.12699999809E+01 0. -1.
       -4    1    3    3    0  502 -0.44170424415E+03  0.75684573335E+03  0.11826173127E+04  0.14719046928E+04  0.12699999809E+01 0.  1.
</event>
<event>
 5   0  0.5849604E-05  0.2139032E+04  0.7818609E-02  0.8544242E-01
       -1   -1    0    0    0  501  0.00000000000E+00  0.00000000000E+00  0.65457346423E+03  0.65457346425E+03  0.50400001928E-02 0.  1.
        1   -1    0    0  501    0  0.00000000000E+00  0.00000000000E+00 -0.17474961197E+04  0.17474961197E+04  0.50400001928E-02 0. -1.
    10030    2    1    2    0    0  0.00000000000E+00  0.00000000000E+00 -0.10929226555E+04  0.24020695840E+04  0.21390321071E+04 0.  0.
        2    1    3    3  502    0  0.27117721199E+03 -0.32335799468E+03 -0.16500430206E+04  0.17031557307E+04  0.25500000920E-02 0. -1.
       -2    1    3    3    0  502 -0.27117721199E+03  0.32335799468E+03  0.55712036516E+03  0.69891385328E+03  0.25500000920E-02 0.  1.
</event>
<event>
 5   0  0.1241430E-04  0.2144754E+04  0.7818609E-02  0.8541781E-01
       -2   -1    0    0    0  501  0.00000000000E+00  0.00000000000E+00  0.91413120757E+03  0.91413120758E+03  0.25500000920E-02 0.  1.
        2   -1    0    0  501    0  0.00000000000E+00  0.00000000000E+00 -0.12580166477E+04  0.12580166477E+04  0.25500000920E-02 0. -1.
    10030    2    1    2    0    0  0.00000000000E+00  0.00000000000E+00 -0.34388544011E+03  0.21721478553E+04  0.21447538575E+04 0.  0.
        1    1    3    3  502    0  0.59070614410E+03 -0.74214109988E+00  0.73450737982E+03  0.94256850705E+03  0.50400001928E-02 0.  1.
       -1    1    3    3    0  502 -0.59070614410E+03  0.74214109988E+00 -0.10783928199E+04  0.12295793482E+04  0.50400001928E-02 0. -1.
</event>
<event>
 5   0  0.5861816E-05  0.2172890E+04  0.7818609E-02  0.8529797E-01
        1   -1    0    0  501    0  0.00000000000E+00  0.00000000000E+00  0.10869102907E+04  0.10869102907E+04  0.50400001928E-02 0.  1.
       -1   -1    0    0    0  501  0.00000000000E+00  0.00000000000E+00 -0.10859801659E+04  0.10859801659E+04  0.50400001928E-02 0. -1.
    10030    2    1    2    0    0  0.00000000000E+00  0.00000000000E+00  0.93012486781E+00  0.21728904566E+04  0.21728902576E+04 0.  0.
        1    1    3    3  502    0 -0.87073247571E+03  0.63547798886E+03 -0.13501815650E+03  0.10863872335E+04  0.50400001928E-02 0.  1.
       -1    1    3    3    0  502  0.87073247571E+03 -0.63547798886E+03  0.13594828137E+03  0.10865032231E+04  0.50400001928E-02 0. -1.
</event>
<event>
 5   0  0.1241430E-04  0.1885281E+04  0.7818609E-02  0.8662218E-01
        2   -1    0    0  501    0  0.00000000000E+00  0.00000000000E+00  0.98578245061E+03  0.98578245061E+03  0.25500000920E-02 0.  1.
       -2   -1    0    0    0  501  0.00000000000E+00  0.00000000000E+00 -0.90138658158E+03  0.90138658158E+03  0.25500000920E-02 0. -1.
    10030    2    1    2    0    0  0.00000000000E+00  0.00000000000E+00  0.84395869032E+02  0.18871690322E+04  0.18852809587E+04 0.  0.
        1    1    3    3  502    0 -0.96307043967E+02 -0.82362919214E+02 -0.89282124215E+03  0.90176963114E+03  0.50400001928E-02 0. -1.
       -1    1    3    3    0  502  0.96307043967E+02  0.82362919214E+02  0.97721711119E+03  0.98539940105E+03  0.50400001928E-02 0.  1.
</event>
<event>
 5   0  0.1226021E-04  0.2226718E+04  0.7818609E-02  0.8507389E-01
       -2   -1    0    0    0  501  0.00000000000E+00  0.00000000000E+00  0.11326666913E+04  0.11326666913E+04  0.25500000920E-02 0. -1.
        2   -1    0    0  501    0  0.00000000000E+00  0.00000000000E+00 -0.10943805352E+04  0.10943805352E+04  0.25500000920E-02 0.  1.
    10030    2    1    2    0    0  0.00000000000E+00  0.00000000000E+00  0.38286156173E+02  0.22270472265E+04  0.22267181051E+04 0.  0.
        2    1    3    3  502    0  0.52768092027E+03  0.91458673056E+03  0.37225664318E+03  0.11195941451E+04  0.25500000920E-02 0. -1.
       -2    1    3    3    0  502 -0.52768092027E+03 -0.91458673056E+03 -0.33397048701E+03  0.11074530814E+04  0.25500000920E-02 0.  1.
</event>
<event>
 5   0  0.1311472E-04  0.2201411E+04  0.7818609E-02  0.8517841E-01
        2   -1    0    0  501    0  0.00000000000E+00  0.00000000000E+00  0.23903756708E+04  0.23903756708E+04  0.25500000920E-02 0.  1.
       -2   -1    0    0    0  501  0.00000000000E+00  0.00000000000E+00 -0.50684632957E+03  0.50684632958E+03  0.25500000920E-02 0. -1.
    10030    2    1    2    0    0  0.00000000000E+00  0.00000000000E+00  0.18835293412E+04  0.28972220003E+04  0.22014114881E+04 0.  0.
        4    1    3    3  502    0  0.11940229807E+03 -0.59629294911E+03 -0.26567871462E+03  0.66363316843E+03  0.12699999809E+01 0.  1.
       -4    1    3    3    0  502 -0.11940229807E+03  0.59629294911E+03  0.21492080558E+04  0.22335888319E+04  0.12699999809E+01 0. -1.
</event>
<event>
 5   0  0.5849604E-05  0.2308334E+04  0.7818609E-02  0.8474642E-01
       -1   -1    0    0    0  501  0.00000000000E+00  0.00000000000E+00  0.14423975829E+04  0.14423975830E+04  0.50400001928E-02 0.  1.
        1   -1    0    0  501    0  0.00000000000E+00  0.00000000000E+00 -0.92353286901E+03  0.92353286903E+03  0.50400001928E-02 0. -1.
    10030    2    1    2    0    0  0.00000000000E+00  0.00000000000E+00  0.51886471393E+03  0.23659304520E+04  0.23083340989E+04 0.  0.
        2    1    3    3  502    0  0.34652468687E+03 -0.67039579508E+03  0.11544865746E+04  0.13792567316E+04  0.25500000920E-02 0.  1.
       -2    1    3    3    0  502 -0.34652468687E+03  0.67039579508E+03 -0.63562186071E+03  0.98667372037E+03  0.25500000920E-02 0. -1.
</event>
<event>
 5   0  0.5861816E-05  0.2123198E+04  0.7818609E-02  0.8551093E-01
        1   -1    0    0  501    0  0.00000000000E+00  0.00000000000E+00  0.15434400383E+04  0.15434400383E+04  0.50400001928E-02 0. -1.
       -1   -1    0    0    0  501  0.00000000000E+00  0.00000000000E+00 -0.73018224139E+03  0.73018224140E+03  0.50400001928E-02 0.  1.
    10030    2    1    2    0    0  0.00000000000E+00  0.00000000000E+00  0.81325779690E+03  0.22736222797E+04  0.21231980658E+04 0.  0.
        1    1    3    3  502    0  0.46117838485E+03 -0.17417391658E+03 -0.60017915387E+03  0.77668337991E+03  0.50400001928E-02 0.  1.
       -1    1    3    3    0  502 -0.46117838485E+03  0.17417391658E+03  0.14134369508E+04  0.14969388998E+04  0.50400001928E-02 0. -1.
</event>
<event>
 5   0  0.1311472E-04  0.2168906E+04  0.7818609E-02  0.8531483E-01
        2   -1    0    0  501    0  0.00000000000E+00  0.00000000000E+00  0.11526876985E+04  0.11526876985E+04  0.25500000920E-02 0.  1.
       -2   -1    0    0    0  501  0.00000000000E+00  0.00000000000E+00 -0.10202572901E+04  0.10202572901E+04  0.25500000920E-02 0. -1.
    10030    2    1    2    0    0  0.00000000000E+00  0.00000000000E+00  0.13243040833E+03  0.21729449886E+04  0.21689057404E+04 0.  0.
        4    1    3    3  502    0 -0.88609047377E+02  0.60257208423E+03 -0.83272486189E+03  0.10316864778E+04  0.12699999809E+01 0. -1.
       -4    1    3    3    0  502  0.88609047377E+02 -0.60257208423E+03  0.96515527023E+03  0.11412585108E+04  0.12699999809E+01 0.  1.
</event>
<event>
 5   0  0.1252124E-04  0.2236243E+04  0.7818609E-02  0.8503493E-01
       -2   -1    0    0    0  501  0.00000000000E+00  0.00000000000E+00  0.76138162012E+03  0.76138162013E+03  0.25500000920E-02 0. -1.
        2   -1    0    0  501    0  0.00000000000E+00  0.00000000000E+00 -0.16420093304E+04  0.16420093304E+04  0.25500000920E-02 0.  1.
    10030    2    1    2    0    0  0.00000000000E+00  0.00000000000E+00 -0.88062771024E+03  0.24033909505E+04  0.22362430317E+04 0.  0.
        3    1    3    3  502    0 -0.86588712510E+03 -0.38292267175E+03  0.19896106565E+03  0.96745842381E+03  0.10100000352E+00 0.  1.
       -3    1    3    3    0  502  0.86588712510E+03  0.38292267175E+03 -0.10795887759E+04  0.14359325267E+04  0.10100000352E+00 0. -1.
</event>
<event>
 5   0  0.5849604E-05  0.2180922E+04  0.7818609E-02  0.8526411E-01
        1   -1    0    0  501    0  0.00000000000E+00  0.00000000000E+00  0.19715295258E+04  0.19715295258E+04  0.50400001928E-02 0.  1.
       -1   -1    0    0    0  501  0.00000000000E+00  0.00000000000E+00 -0.60313863360E+03  0.60313863362E+03  0.50400001928E-02 0. -1.
    10030    2    1    2    0    0  0.00000000000E+00  0.00000000000E+00  0.13683908922E+04  0.25746681595E+04  0.21809223960E+04 0.  0.
        2    1    3    3  502    0  0.84729954135E+02 -0.81401180372E+03  0.15349316446E+04  0.17394854226E+04  0.25500000920E-02 0.  1.
       -2    1    3    3    0  502 -0.84729954135E+02  0.81401180372E+03 -0.16654075240E+03  0.83518273686E+03  0.25500000920E-02 0. -1.
</event>
<event>
 5   0  0.6263558E-05  0.2132599E+04  0.7818609E-02  0.8547018E-01
        1   -1    0    0  501    0  0.00000000000E+00  0.00000000000E+00  0.10779831341E+04  0.10779831341E+04  0.50400001928E-02 0. -1.
       -1   -1    0    0    0  501  0.00000000000E+00  0.00000000000E+00 -0.10547426509E+04  0.10547426510E+04  0.50400001928E-02 0.  1.
    10030    2    1    2    0    0  0.00000000000E+00  0.00000000000E+00  0.23240483184E+02  0.21327257851E+04  0.21325991546E+04 0.  0.
        3    1    3    3  502    0 -0.87023898640E+03  0.42141245523E+03 -0.43795114081E+03  0.10614638773E+04  0.10100000352E+00 0.  1.
       -3    1    3    3    0  502  0.87023898640E+03 -0.42141245523E+03  0.46119162399E+03  0.10712619078E+04  0.10100000352E+00 0. -1.
</event>
<event>
 5   0  0.1226021E-04  0.2471059E+04  0.7818609E-02  0.8413369E-01
       -2   -1    0    0    0  501  0.00000000000E+00  0.00000000000E+00  0.83256901513E+03  0.83256901513E+03  0.25500000920E-02 0. -1.
        2   -1    0    0  501    0  0.00000000000E+00  0.00000000000E+00 -0.18335212331E+04  0.18335212331E+04  0.25500000920E-02 0.  1.
    10030    2    1    2    0    0  0.00000000000E+00  0.00000000000E+00 -0.10009522180E+04  0.26660902483E+04  0.24710588559E+04 0.  0.
        2    1    3    3  502    0 -0.68386241054E+02  0.86321657026E+03 -0.14513483463E+04  0.16900389189E+04  0.25500000920E-02 0.  1.
       -2    1    3    3    0  502  0.68386241054E+02 -0.86321657026E+03  0.45039612830E+03  0.97605132935E+03  0.25500000920E-02 0. -1.
</event>
<event>
 5   0  0.1311472E-04  0.2217689E+04  0.7818609E-02  0.8511102E-01
       -2   -1    0    0    0  501  0.00000000000E+00  0.00000000000E+00  0.17153213190E+04  0.17153213190E+04  0.25500000920E-02 0.  1.
        2   -1    0    0  501    0  0.00000000000E+00  0.00000000000E+00 -0.71679626116E+03  0.71679626116E+03  0.25500000920E-02 0. -1.
    10030    2    1    2    0    0  0.00000000000E+00  0.00000000000E+00  0.99852505785E+03  0.24321175802E+04  0.22176888043E+04 0.  0.
        4    1    3    3  502    0 -0.13188203075E+03 -0.43698143757E+03  0.16075105188E+04  0.16710587445E+04  0.12699999809E+01 0.  1.
       -4    1    3    3    0  502  0.13188203075E+03  0.43698143757E+03 -0.60898546091E+03  0.76105883565E+03  0.12699999809E+01 0. -1.
</event>
<event>
 5   0  0.5861816E-05  0.1962304E+04  0.7818609E-02  0.8624451E-01
       -1   -1    0    0    0  501  0.00000000000E+00  0.00000000000E+00  0.68933565438E+03  0.68933565440E+03  0.50400001928E-02 0. -1.
        1   -1    0    0  501    0  0.00000000000E+00  0.00000000000E+00 -0.13965022073E+04  0.13965022074E+04  0.50400001928E-02 0.  1.
    10030    2    1    2    0    0  0.00000000000E+00  0.00000000000E+00 -0.70716655296E+03  0.20858378618E+04  0.19623035066E+04 0.  0.
        1    1    3    3  502    0  0.81033453656E+03  0.54234275877E+03 -0.46944539966E+03  0.10821999410E+04  0.50400001928E-02 0.  1.
       -1    1    3    3    0  502 -0.81033453656E+03 -0.54234275877E+03 -0.23772115331E+03  0.10036379207E+04  0.50400001928E-02 0. -1.
</event>
<event>
 5   0  0.5861816E-05  0.2237491E+04  0.7818609E-02  0.8502984E-01
       -1   -1    0    0    0  501  0.00000000000E+00  0.00000000000E+00  0.93298757671E+03  0.93298757672E+03  0.50400001928E-02 0.  1.
        1   -1    0    0  501    0  0.00000000000E+00  0.00000000000E+00 -0.13414880022E+04  0.13414880022E+04  0.50400001928E-02 0. -1.
    10030    2    1    2    0    0  0.00000000000E+00  0.00000000000E+00 -0.40850042548E+03  0.22744755789E+04  0.22374911310E+04 0.  0.
        1    1    3    3  502    0  0.21575804817E+03  0.10536617016E+04  0.10879649605E+03  0.10810139659E+04  0.50400001928E-02 0. -1.
       -1    1    3    3    0  502 -0.21575804817E+03 -0.10536617016E+04 -0.51729692153E+03  0.11934616131E+04  0.50400001928E-02 0.  1.
</event>
<event>
 5   0  0.1252124E-04  0.2231339E+04  0.7818609E-02  0.8505496E-01
       -2   -1    0    0    0  501  0.00000000000E+00  0.00000000000E+00  0.87266324305E+03  0.87266324305E+03  0.25500000920E-02 0. -1.
        2   -1    0    0  501    0  0.00000000000E+00  0.00000000000E+00 -0.14263440289E+04  0.14263440289E+04  0.25500000920E-02 0.  1.
    10030    2    1    2    0    0  0.00000000000E+00  0.00000000000E+00 -0.55368078583E+03  0.22990072719E+04  0.22313386170E+04 0.  0.
        3    1    3    3  502    0  0.97930854376E+03  0.48719375222E+03 -0.50331313765E+03  0.12040461373E+04  0.10100000352E+00 0.  1.
       -3    1    3    3    0  502 -0.97930854376E+03 -0.48719375222E+03 -0.50367648178E+02  0.10949611346E+04  0.10100000352E+00 0. -1.
</event>
<event>
 5   0  0.5981239E-05  0.1383166E+04  0.7818609E-02  0.8966095E-01
        1   -1    0    0  501    0  0.00000000000E+00  0.00000000000E+00  0.59585637105E+03  0.59585637108E+03  0.50400001928E-02 0. -1.
       -1   -1    0    0    0  501  0.00000000000E+00  0.00000000000E+00 -0.80268804208E+03  0.80268804209E+03  0.50400001928E-02 0.  1.
    10030    2    1    2    0    0  0.00000000000E+00  0.00000000000E+00 -0.20683167102E+03  0.13985444132E+04  0.13831656211E+04 0.  0.
        4    1    3    3  502    0 -0.34116083890E+03  0.22088624701E+03  0.46236233856E+03  0.61559889305E+03  0.12699999809E+01 0. -1.
       -4    1    3    3    0  502  0.34116083890E+03 -0.22088624701E+03 -0.66919400958E+03  0.78294552011E+03  0.12699999809E+01 0.  1.
</event>
<event>
 5   0  0.5861816E-05  0.2214202E+04  0.7818609E-02  0.8512540E-01
        1   -1    0    0  501    0  0.00000000000E+00  0.00000000000E+00  0.13163501362E+04  0.13163501362E+04  0.50400001928E-02 0. -1.
       -1   -1    0    0    0  501  0.00000000000E+00  0.00000000000E+00 -0.93111414197E+03  0.93111414198E+03  0.50400001928E-02 0.  1.
    10030    2    1    2    0    0  0.00000000000E+00  0.00000000000E+00  0.38523599419E+03  0.22474642782E+04  0.22142016418E+04 0.  0.
        1    1    3    3  502    0 -0.34436192540E+03 -0.10347691966E+03 -0.87019316291E+03  0.94155655665E+03  0.50400001928E-02 0.  1.
       -1    1    3    3    0  502  0.34436192540E+03  0.10347691966E+03  0.12554291571E+04  0.13059077215E+04  0.50400001928E-02 0. -1.
</event>
<event>
 5   0  0.5861816E-05  0.2151935E+04  0.7818609E-02  0.8538705E-01
       -1   -1    0    0    0  501  0.00000000000E+00  0.00000000000E+00  0.93723522550E+03  0.93723522551E+03  0.50400001928E-02 0. -1.
        1   -1    0    0  501    0  0.00000000000E+00  0.00000000000E+00 -0.12352349188E+04  0.12352349188E+04  0.50400001928E-02 0.  1.
    10030    2    1    2    0    0  0.00000000000E+00  0.00000000000E+00 -0.29799969326E+03  0.21724701443E+04  0.21519346437E+04 0.  0.
        1    1    3    3  502    0  0.21668843447E+02  0.47449955413E+02  0.93595794721E+03  0.93741043093E+03  0.50400001928E-02 0. -1.
       -1    1    3    3    0  502 -0.21668843447E+02 -0.47449955413E+02 -0.12339576405E+04  0.12350597133E+04  0.50400001928E-02 0.  1.
</event>
<event>
 5   0  0.6263558E-05  0.2214319E+04  0.7818609E-02  0.8512492E-01
        1   -1    0    0  501    0  0.00000000000E+00  0.00000000000E+00  0.18698857792E+04  0.18698857792E+04  0.50400001928E-02 0. -1.
       -1   -1    0    0    0  501  0.00000000000E+00  0.00000000000E+00 -0.65554904194E+03  0.65554904196E+03  0.50400001928E-02 0.  1.
    10030    2    1    2    0    0  0.00000000000E+00  0.00000000000E+00  0.12143367373E+04  0.25254348212E+04  0.22143187044E+04 0.  0.
        3    1    3    3  502    0  0.46749662537E+03 -0.97284482142E+03  0.32589718517E+03  0.11274702332E+04  0.10100000352E+00 0. -1.
       -3    1    3    3    0  502 -0.46749662537E+03  0.97284482142E+03  0.88843955211E+03  0.13979645880E+04  0.10100000352E+00 0.  1.
</event>
<event>
 5   0  0.1404159E-04  0.1747805E+04  0.7818609E-02  0.8734559E-01
       -2   -1    0    0    0  501  0.00000000000E+00  0.00000000000E+00  0.40099700724E+03  0.40099700725E+03  0.25500000920E-02 0. -1.
        2   -1    0    0  501    0  0.00000000000E+00  0.00000000000E+00 -0.19045170000E+04  0.19045170000E+04  0.25500000920E-02 0.  1.
    10030    2    1    2    0    0  0.00000000000E+00  0.00000000000E+00 -0.15035199927E+04  0.23055140072E+04  0.17478050432E+04 0.  0.
        5    1    3    3  502    0 -0.72362586255E+02  0.80454984694E+03 -0.31199251080E+03  0.86596663729E+03  0.46999998093E+01 0. -1.
       -5    1    3    3    0  502  0.72362586255E+02 -0.80454984694E+03 -0.11915274819E+04  0.14395473700E+04  0.46999998093E+01 0.  1.
</event>
<event>
 5   0  0.5981239E-05  0.2101290E+04  0.7818609E-02  0.8560675E-01
        1   -1    0    0  501    0  0.00000000000E+00  0.00000000000E+00  0.16215388695E+04  0.16215388695E+04  0.50400001928E-02 0.  1.
       -1   -1    0    0    0  501  0.00000000000E+00  0.00000000000E+00 -0.68074541825E+03  0.68074541827E+03  0.50400001928E-02 0. -1.
    10030    2    1    2    0    0  0.00000000000E+00  0.00000000000E+00  0.94079345129E+03  0.23022842878E+04  0.21012902284E+04 0.  0.
        4    1    3    3  502    0  0.18433770290E+03 -0.78552499938E+03 -0.26689175657E+03  0.84986042147E+03  0.12699999809E+01 0. -1.
       -4    1    3    3    0  502 -0.18433770290E+03  0.78552499938E+03  0.12076852079E+04  0.14524238663E+04  0.12699999809E+01 0.  1.
</event>
<event>
 5   0  0.5861816E-05  0.2219156E+04  0.7818609E-02  0.8510497E-01
       -1   -1    0    0    0  501  0.00000000000E+00  0.00000000000E+00  0.20795352207E+04  0.20795352207E+04  0.50400001928E-02 0. -1.
        1   -1    0    0  501    0  0.00000000000E+00  0.00000000000E+00 -0.59203752293E+03  0.59203752296E+03  0.50400001928E-02 0.  1.
    10030    2    1    2    0    0  0.00000000000E+00  0.00000000000E+00  0.14874976977E+04  0.26715727436E+04  0.22191555880E+04 0.  0.
        1    1    3    3  502    0 -0.79968378355E+03  0.22698851593E+03  0.16285270378E+04  0.18284196052E+04  0.50400001928E-02 0. -1.
       -1    1    3    3    0  502  0.79968378355E+03 -0.22698851593E+03 -0.14102934002E+03  0.84315313841E+03  0.50400001928E-02 0.  1.
</event>
<event>
 5   0  0.5861816E-05  0.2188669E+04  0.7818609E-02  0.8523159E-01
        1   -1    0    0  501    0  0.00000000000E+00  0.00000000000E+00  0.12050964488E+04  0.12050964489E+04  0.50400001928E-02 0.  1.
       -1   -1    0    0    0  501  0.00000000000E+00  0.00000000000E+00 -0.99375290605E+03  0.99375290606E+03  0.50400001928E-02 0. -1.
    10030    2    1    2    0    0  0.00000000000E+00  0.00000000000E+00  0.21134354279E+03  0.21988493549E+04  0.21886690916E+04 0.  0.
        1    1    3    3  502    0 -0.11232519305E+03 -0.58781692070E+03 -0.81478978167E+03  0.10109540393E+04  0.50400001928E-02 0. -1.
       -1    1    3    3    0  502  0.11232519305E+03  0.58781692070E+03  0.10261333245E+04  0.11878953156E+04  0.50400001928E-02 0.  1.
</event>
<event>
 5   0  0.1404159E-04  0.2189076E+04  0.7818609E-02  0.8522989E-01
       -2   -1    0    0    0  501  0.00000000000E+00  0.00000000000E+00  0.72109738320E+03  0.72109738321E+03  0.25500000920E-02 0.  1.
        2   -1    0    0  501    0  0.00000000000E+00  0.00000000000E+00 -0.16613750876E+04  0.16613750876E+04  0.25500000920E-02 0. -1.
    10030    2    1    2    0    0  0.00000000000E+00  0.00000000000E+00 -0.94027770442E+03  0.23824724708E+04  0.21890758125E+04 0.  0.
        5    1    3    3  502    0  0.49315454647E+03 -0.78219805121E+02  0.58990783030E+03  0.77287326443E+03  0.46999998093E+01 0.  1.
       -5    1    3    3    0  502 -0.49315454647E+03  0.78219805121E+02 -0.15301855347E+04  0.16095992064E+04  0.46999998093E+01 0. -1.
</event>
<event>
 5   0  0.1311472E-04  0.2237617E+04  0.7818609E-02  0.8502932E-01
        2   -1    0    0  501    0  0.00000000000E+00  0.00000000000E+00  0.26488206266E+04  0.26488206266E+04  0.25500000920E-02 0.  1.
       -2   -1    0    0    0  501  0.00000000000E+00  0.00000000000E+00 -0.47256228469E+03  0.47256228470E+03  0.25500000920E-02 0. -1.
    10030    2    1    2    0    0  0.00000000000E+00  0.00000000000E+00  0.21762583419E+04  0.31213829113E+04  0.22376172390E+04 0.  0.
        4    1    3    3  502    0  0.94141906310E+03 -0.57327669244E+03  0.13557834655E+04  0.17473026173E+04  0.12699999809E+01 0.  1.
       -4    1    3    3    0  502 -0.94141906310E+03  0.57327669244E+03  0.82047487645E+03  0.13740802940E+04  0.12699999809E+01 0. -1.
</event>
<event>
 5   0  0.5895063E-05  0.2220317E+04  0.7818609E-02  0.8510019E-01
        1   -1    0    0  501    0  0.00000000000E+00  0.00000000000E+00  0.19243807039E+04  0.19243807039E+04  0.50400001928E-02 0.  1.
       -1   -1    0    0    0  501  0.00000000000E+00  0.00000000000E+00 -0.64044059606E+03  0.64044059608E+03  0.50400001928E-02 0. -1.
    10030    2    1    2    0    0  0.00000000000E+00  0.00000000000E+00  0.12839401079E+04  0.25648213000E+04  0.22203166667E+04 0.  0.
        5    1    3    3  502    0  0.92670806409E+03 -0.60891927422E+03  0.58020498515E+03  0.12514912838E+04  0.46999998093E+01 0. -1.
       -5    1    3    3    0  502 -0.92670806409E+03  0.60891927422E+03  0.70373512270E+03  0.13133300162E+04  0.46999998093E+01 0.  1.
</event>
<event>
 5   0  0.1311472E-04  0.2214779E+04  0.7818609E-02  0.8512302E-01
        2   -1    0    0  501    0  0.00000000000E+00  0.00000000000E+00  0.11878801059E+04  0.11878801059E+04  0.25500000920E-02 0.  1.
       -2   -1    0    0    0  501  0.00000000000E+00  0.00000000000E+00 -0.10323526028E+04  0.10323526028E+04  0.25500000920E-02 0. -1.
    10030    2    1    2    0    0  0.00000000000E+00  0.00000000000E+00  0.15552750312E+03  0.22202327087E+04  0.22147786518E+04 0.  0.
        4    1    3    3  502    0 -0.87155546425E+03 -0.44945829560E+03  0.59350889348E+03  0.11462443484E+04  0.12699999809E+01 0.  1.
       -4    1    3    3    0  502  0.87155546425E+03  0.44945829560E+03 -0.43798139036E+03  0.10739883602E+04  0.12699999809E+01 0. -1.
</event>
<event>
 5   0  0.6263558E-05  0.2187101E+04  0.7818609E-02  0.8523816E-01
       -1   -1    0    0    0  501  0.00000000000E+00  0.00000000000E+00  0.16434918418E+04  0.16434918418E+04  0.50400001928E-02 0. -1.
        1   -1    0    0  501    0  0.00000000000E+00  0.00000000000E+00 -0.72762909761E+03  0.72762909763E+03  0.50400001928E-02 0.  1.
    10030    2    1    2    0    0  0.00000000000E+00  0.00000000000E+00  0.91586274420E+03  0.23711209394E+04  0.21871008077E+04 0.  0.
        3    1    3    3  502    0  0.38618464798E+02  0.12304856117E+02  0.16426772285E+04  0.16431771915E+04  0.10100000352E+00 0. -1.
       -3    1    3    3    0  502 -0.38618464798E+02 -0.12304856117E+02 -0.72681448435E+03  0.72794374794E+03  0.10100000352E+00 0.  1.
</event>
<event>
 5   0  0.1226021E-04  0.2201685E+04  0.7818609E-02  0.8517727E-01
       -2   -1    0    0    0  501  0.00000000000E+00  0.00000000000E+00  0.97330187320E+03  0.97330187320E+03  0.25500000920E-02 0.  1.
        2   -1    0    0  501    0  0.00000000000E+00  0.00000000000E+00 -0.12450959510E+04  0.12450959510E+04  0.25500000920E-02 0. -1.
    10030    2    1    2    0    0  0.00000000000E+00  0.00000000000E+00 -0.27179407779E+03  0.22183978242E+04  0.22016850105E+04 0.  0.
        2    1    3    3  502    0  0.89966091456E+03  0.40138250402E+03  0.35911274825E+03  0.10485512108E+04  0.25500000920E-02 0.  1.
       -2    1    3    3    0  502 -0.89966091456E+03 -0.40138250402E+03 -0.63090682604E+03  0.11698466134E+04  0.25500000920E-02 0. -1.
</event>
<event>
 5   0  0.1241430E-04  0.1769584E+04  0.7818609E-02  0.8722644E-01
       -2   -1    0    0    0  501  0.00000000000E+00  0.00000000000E+00  0.13165106941E+04  0.13165106941E+04  0.25500000920E-02 0.  1.
        2   -1    0    0  501    0  0.00000000000E+00  0.00000000000E+00 -0.59464513151E+03  0.59464513152E+03  0.25500000920E-02 0. -1.
    10030    2    1    2    0    0  0.00000000000E+00  0.00000000000E+00  0.72186556261E+03  0.19111558256E+04  0.17695837644E+04 0.  0.
        1    1    3    3  502    0  0.56402930456E+03  0.66854652676E+03  0.21695108080E+03  0.90119436657E+03  0.50400001928E-02 0.  1.
       -1    1    3    3    0  502 -0.56402930456E+03 -0.66854652676E+03  0.50491448181E+03  0.10099614591E+04  0.50400001928E-02 0. -1.
</event>
<event>
 5   0  0.5981239E-05  0.2096122E+04  0.7818609E-02  0.8562954E-01
        1   -1    0    0  501    0  0.00000000000E+00  0.00000000000E+00  0.96160376365E+03  0.96160376366E+03  0.50400001928E-02 0.  1.
       -1   -1    0    0    0  501  0.00000000000E+00  0.00000000000E+00 -0.11422915322E+04  0.11422915323E+04  0.50400001928E-02 0. -1.
    10030    2    1    2    0    0  0.00000000000E+00  0.00000000000E+00 -0.18068776860E+03  0.21038952959E+04  0.20961219780E+04 0.  0.
        4    1    3    3  502    0 -0.99503947110E+03  0.22530731806E+03  0.15046935740E+03  0.10312660069E+04  0.12699999809E+01 0.  1.
       -4    1    3    3    0  502  0.99503947110E+03 -0.22530731806E+03 -0.33115712599E+03  0.10726292890E+04  0.12699999809E+01 0. -1.
</event>
<event>
 5   0  0.1241430E-04  0.2195025E+04  0.7818609E-02  0.8520501E-01
        2   -1    0    0  501    0  0.00000000000E+00  0.00000000000E+00  0.23624577732E+04  0.23624577732E+04  0.25500000920E-02 0. -1.
       -2   -1    0    0    0  501  0.00000000000E+00  0.00000000000E+00 -0.50986485577E+03  0.50986485578E+03  0.25500000920E-02 0.  1.
    10030    2    1    2    0    0  0.00000000000E+00  0.00000000000E+00  0.18525929174E+04  0.28723226290E+04  0.21950254594E+04 0.  0.
        1    1    3    3  502    0 -0.45874214718E+02 -0.52150233550E+03  0.21885415579E+04  0.22502851553E+04  0.50400001928E-02 0. -1.
       -1    1    3    3    0  502  0.45874214718E+02  0.52150233550E+03 -0.33594864052E+03  0.62203747363E+03  0.50400001928E-02 0.  1.
</event>
<event>
 5   0  0.4586375E-05  0.2216045E+04  0.7818609E-02  0.8511779E-01
        4   -1    0    0  501    0  0.00000000000E+00  0.00000000000E+00  0.58355504747E+03  0.58355642943E+03  0.12699999809E+01 0.  1.
       -4   -1    0    0    0  501  0.00000000000E+00  0.00000000000E+00 -0.21038488329E+04  0.21038492162E+04  0.12699999809E+01 0. -1.
    10030    2    1    2    0    0  0.00000000000E+00  0.00000000000E+00 -0.15202937854E+04  0.26874056456E+04  0.22160451056E+04 0.  0.
        5    1    3    3  502    0 -0.27789689083E+03 -0.36080790035E+03  0.46479341524E+03  0.65074114035E+03  0.46999998093E+01 0.  1.
       -5    1    3    3    0  502  0.27789689083E+03  0.36080790035E+03 -0.19850872006E+04  0.20366645053E+04  0.46999998093E+01 0. -1.
</event>
<event>
 5   0  0.1311472E-04  0.2157237E+04  0.7818609E-02  0.8536441E-01
        2   -1    0    0  501    0  0.00000000000E+00  0.00000000000E+00  0.15008937649E+04  0.15008937649E+04  0.25500000920E-02 0.  1.
       -2   -1    0    0    0  501  0.00000000000E+00  0.00000000000E+00 -0.77515019358E+03  0.77515019359E+03  0.25500000920E-02 0. -1.
    10030    2    1    2    0    0  0.00000000000E+00  0.00000000000E+00  0.72574357134E+03  0.22760439585E+04  0.21572372076E+04 0.  0.
        4    1    3    3  502    0  0.33352880922E+02 -0.10674919404E+04  0.20368141945E+03  0.10872622457E+04  0.12699999809E+01 0. -1.
       -4    1    3    3    0  502 -0.33352880922E+02  0.10674919404E+04  0.52206215190E+03  0.11887817128E+04  0.12699999809E+01 0.  1.
</event>
<event>
 5   0  0.1252124E-04  0.2264632E+04  0.7818609E-02  0.8491998E-01
       -2   -1    0    0    0  501  0.00000000000E+00  0.00000000000E+00  0.72135394580E+03  0.72135394580E+03  0.25500000920E-02 0.  1.
        2   -1    0    0  501    0  0.00000000000E+00  0.00000000000E+00 -0.17774063796E+04  0.17774063796E+04  0.25500000920E-02 0. -1.
    10030    2    1    2    0    0  0.00000000000E+00  0.00000000000E+00 -0.10560524338E+04  0.24987603254E+04  0.22646316303E+04 0.  0.
        3    1    3    3  502    0 -0.62325474805E+03 -0.39960741839E+03  0.41728974963E+03  0.84986076221E+03  0.10100000352E+00 0.  1.
       -3    1    3    3    0  502  0.62325474805E+03  0.39960741839E+03 -0.14733421834E+04  0.16488995632E+04  0.10100000352E+00 0. -1.
</event>
<event>
 5   0  0.5849604E-05  0.1852226E+04  0.7818609E-02  0.8679009E-01
        1   -1    0    0  501    0  0.00000000000E+00  0.00000000000E+00  0.11254585533E+04  0.11254585533E+04  0.50400001928E-02 0.  1.
       -1   -1    0    0    0  501  0.00000000000E+00  0.00000000000E+00 -0.76207658862E+03  0.76207658863E+03  0.50400001928E-02 0. -1.
    10030    2    1    2    0    0  0.00000000000E+00  0.00000000000E+00  0.36338196464E+03  0.18875351419E+04  0.18522263522E+04 0.  0.
        2    1    3    3  502    0  0.10485381520E+02 -0.92338690911E+03  0.11012194239E+03  0.92998933829E+03  0.25500000920E-02 0. -1.
       -2    1    3    3    0  502 -0.10485381520E+02  0.92338690911E+03  0.25326002225E+03  0.95754580361E+03  0.25500000920E-02 0.  1.
</event>
<event>
 5   0  0.5981239E-05  0.1654734E+04  0.7818609E-02  0.8787611E-01
        1   -1    0    0  501    0  0.00000000000E+00  0.00000000000E+00  0.97091442398E+03  0.97091442399E+03  0.50400001928E-02 0. -1.
       -1   -1    0    0    0  501  0.00000000000E+00  0.00000000000E+00 -0.70504254526E+03  0.70504254528E+03  0.50400001928E-02 0.  1.
    10030    2    1    2    0    0  0.00000000000E+00  0.00000000000E+00  0.26587187872E+03  0.16759569693E+04  0.16547337873E+04 0.  0.
        4    1    3    3  502    0 -0.74295541227E+03  0.11891162465E+03  0.48145933434E+03  0.89326783364E+03  0.12699999809E+01 0. -1.
       -4    1    3    3    0  502  0.74295541227E+03 -0.11891162465E+03 -0.21558745563E+03  0.78268913562E+03  0.12699999809E+01 0.  1.
</event>
<event>
 5   0  0.6263558E-05  0.2309401E+04  0.7818609E-02  0.8474224E-01
       -1   -1    0    0    0  501  0.00000000000E+00  0.00000000000E+00  0.11160813323E+04  0.11160813323E+04  0.50400001928E-02 0.  1.
        1   -1    0    0  501    0  0.00000000000E+00  0.00000000000E+00 -0.11946563354E+04  0.11946563354E+04  0.50400001928E-02 0. -1.
    10030    2    1    2    0    0  0.00000000000E+00  0.00000000000E+00 -0.78575003093E+02  0.23107376677E+04  0.23094013375E+04 0.  0.
        3    1    3    3  502    0 -0.37906023923E+03  0.10907093417E+04 -0.39589742033E+02  0.11553791113E+04  0.10100000352E+00 0. -1.
       -3    1    3    3    0  502  0.37906023923E+03 -0.10907093417E+04 -0.38985261060E+02  0.11553585564E+04  0.10100000352E+00 0.  1.
</event>
<event>
 5   0  0.6263558E-05  0.2204982E+04  0.7818609E-02  0.8516357E-01
        1   -1    0    0  501    0  0.00000000000E+00  0.00000000000E+00  0.13551849861E+04  0.13551849861E+04  0.50400001928E-02 0.  1.
       -1   -1    0    0    0  501  0.00000000000E+00  0.00000000000E+00 -0.89691539500E+03  0.89691539501E+03  0.50400001928E-02 0. -1.
    10030    2    1    2    0    0  0.00000000000E+00  0.00000000000E+00  0.45826959106E+03  0.22521003811E+04  0.22049818839E+04 0.  0.
        3    1    3    3  502    0  0.64231229392E+03  0.72572110565E+03 -0.30769165904E+03  0.10168138342E+04  0.10100000352E+00 0. -1.
       -3    1    3    3    0  502 -0.64231229392E+03 -0.72572110565E+03  0.76596125011E+03  0.12352865469E+04  0.10100000352E+00 0.  1.
</event>
<event>
 5   0  0.1241430E-04  0.2266761E+04  0.7818609E-02  0.8491143E-01
       -2   -1    0    0    0  501  0.00000000000E+00  0.00000000000E+00  0.83102797499E+03  0.83102797499E+03  0.25500000920E-02 0.  1.
        2   -1    0    0  501    0  0.00000000000E+00  0.00000000000E+00 -0.15457380790E+04  0.15457380790E+04  0.25500000920E-02 0. -1.
    10030    2    1    2    0    0  0.00000000000E+00  0.00000000000E+00 -0.71471010404E+03  0.23767660540E+04  0.22667612011E+04 0.  0.
        1    1    3    3  502    0 -0.84659375346E+03 -0.35607430679E+03 -0.10536936802E+04  0.13977769017E+04  0.50400001928E-02 0. -1.
       -1    1    3    3    0  502  0.84659375346E+03  0.35607430679E+03  0.33898357615E+03  0.97898915228E+03  0.50400001928E-02 0.  1.
</event>
<event>
 5   0  0.1252124E-04  0.2093444E+04  0.7818609E-02  0.8564137E-01
       -2   -1    0    0    0  501  0.00000000000E+00  0.00000000000E+00  0.10888204218E+04  0.10888204218E+04  0.25500000920E-02 0. -1.
        2   -1    0    0  501    0  0.00000000000E+00  0.00000000000E+00 -0.10062516587E+04  0.10062516587E+04  0.25500000920E-02 0.  1.
    10030    2    1    2    0    0  0.00000000000E+00  0.00000000000E+00  0.82568763097E+02  0.20950720804E+04  0.20934443918E+04 0.  0.
        3    1    3    3  502    0 -0.22398015775E+03 -0.10046668581E+04 -0.14887582543E+03  0.10400416474E+04  0.10100000352E+00 0.  1.
       -3    1    3    3    0  502  0.22398015775E+03  0.10046668581E+04  0.23144458853E+03  0.10550304330E+04  0.10100000352E+00 0. -1.
</event>
<event>
 5   0  0.1226021E-04  0.1553546E+04  0.7818609E-02  0.8849606E-01
        2   -1    0    0  501    0  0.00000000000E+00  0.00000000000E+00  0.19761992113E+04  0.19761992113E+04  0.25500000920E-02 0. -1.
       -2   -1    0    0    0  501  0.00000000000E+00  0.00000000000E+00 -0.30532160422E+03  0.30532160423E+03  0.25500000920E-02 0.  1.
    10030    2    1    2    0    0  0.00000000000E+00  0.00000000000E+00  0.16708776071E+04  0.22815208155E+04  0.15535460257E+04 0.  0.
        2    1    3    3  502    0 -0.47383251637E+03  0.33394837568E+03  0.76109278837E+02  0.58466348742E+03  0.25500000920E-02 0. -1.
       -2    1    3    3    0  502  0.47383251637E+03 -0.33394837568E+03  0.15947683282E+04  0.16968573281E+04  0.25500000920E-02 0.  1.
</event>
<event>
 5   0  0.5861816E-05  0.2090700E+04  0.7818609E-02  0.8565351E-01
       -1   -1    0    0    0  501  0.00000000000E+00  0.00000000000E+00  0.82391387680E+03  0.82391387681E+03  0.50400001928E-02 0.  1.
        1   -1    0    0  501    0  0.00000000000E+00  0.00000000000E+00 -0.13262992959E+04  0.13262992959E+04  0.50400001928E-02 0. -1.
    10030    2    1    2    0    0  0.00000000000E+00  0.00000000000E+00 -0.50238541908E+03  0.21502131727E+04  0.20906997821E+04 0.  0.
        1    1    3    3  502    0 -0.95244472776E+03 -0.14542506145E+03  0.16588406711E+03  0.97765890354E+03  0.50400001928E-02 0.  1.
       -1    1    3    3    0  502  0.95244472776E+03  0.14542506145E+03 -0.66826948619E+03  0.11725542692E+04  0.50400001928E-02 0. -1.
</event>
<event>
 5   0  0.1226021E-04  0.2172952E+04  0.7818609E-02  0.8529771E-01
       -2   -1    0    0    0  501  0.00000000000E+00  0.00000000000E+00  0.67741974375E+03  0.67741974375E+03  0.25500000920E-02 0.  1.
        2   -1    0    0  501    0  0.00000000000E+00  0.00000000000E+00 -0.17425385493E+04  0.17425385493E+04  0.25500000920E-02 0. -1.
    10030    2    1    2    0    0  0.00000000000E+00  0.00000000000E+00 -0.10651188056E+04  0.24199582931E+04  0.21729519254E+04 0.  0.
        2    1    3    3  502    0  0.70316774767E+03 -0.28047717276E+03  0.33533268574E+03  0.82798570998E+03  0.25500000920E-02 0.  1.
       -2    1    3    3    0  502 -0.70316774767E+03  0.28047717276E+03 -0.14004514913E+04  0.15919725831E+04  0.25500000920E-02 0. -1.
</event>
<event>
 5   0  0.5861816E-05  0.2163535E+04  0.7818609E-02  0.8533761E-01
        1   -1    0    0  501    0  0.00000000000E+00  0.00000000000E+00  0.21195667664E+04  0.21195667664E+04  0.50400001928E-02 0. -1.
       -1   -1    0    0    0  501  0.00000000000E+00  0.00000000000E+00 -0.55210399695E+03  0.55210399697E+03  0.50400001928E-02 0.  1.
    10030    2    1    2    0    0  0.00000000000E+00  0.00000000000E+00  0.15674627695E+04  0.26716707634E+04  0.21635353323E+04 0.  0.
        1    1    3    3  502    0  0.25838105612E+03 -0.21165265161E+03  0.20542994939E+04  0.20812746156E+04  0.50400001928E-02 0. -1.
       -1    1    3    3    0  502 -0.25838105612E+03  0.21165265161E+03 -0.48683672438E+03  0.59039614779E+03  0.50400001928E-02 0.  1.
</event>
<event>
 5   0  0.5895063E-05  0.2122547E+04  0.7818609E-02  0.8551376E-01
        1   -1    0    0  501    0  0.00000000000E+00  0.00000000000E+00  0.12204445353E+04  0.12204445353E+04  0.50400001928E-02 0.  1.
       -1   -1    0    0    0  501  0.00000000000E+00  0.00000000000E+00 -0.92286207155E+03  0.92286207156E+03  0.50400001928E-02 0. -1.
    10030    2    1    2    0    0  0.00000000000E+00  0.00000000000E+00  0.29758246371E+03  0.21433066068E+04  0.21225474996E+04 0.  0.
        5    1    3    3  502    0 -0.11949945014E+03  0.20185566535E+03 -0.89634552998E+03  0.92654369963E+03  0.46999998093E+01 0. -1.
       -5    1    3    3    0  502  0.11949945014E+03 -0.20185566535E+03  0.11939279937E+04  0.12167629072E+04  0.46999998093E+01 0.  1.
</event>
<event>
 5   0  0.1311472E-04  0.2221802E+04  0.7818609E-02  0.8509408E-01
       -2   -1    0    0    0  501  0.00000000000E+00  0.00000000000E+00  0.11495433233E+04  0.11495433233E+04  0.25500000920E-02 0.  1.
        2   -1    0    0  501    0  0.00000000000E+00  0.00000000000E+00 -0.10735572342E+04  0.10735572342E+04  0.25500000920E-02 0. -1.
    10030    2    1    2    0    0  0.00000000000E+00  0.00000000000E+00  0.75986089018E+02  0.22231005575E+04  0.22218015670E+04 0.  0.
        4    1    3    3  502    0 -0.18704650372E+02  0.59500122715E+03 -0.90049061823E+03  0.10794726910E+04  0.12699999809E+01 0. -1.
       -4    1    3    3    0  502  0.18704650372E+02 -0.59500122715E+03  0.97647670724E+03  0.11436278665E+04  0.12699999809E+01 0.  1.
</event>
<event>
 5   0  0.5861816E-05  0.2172831E+04  0.7818609E-02  0.8529822E-01
        1   -1    0    0  501    0  0.00000000000E+00  0.00000000000E+00  0.10868255850E+04  0.10868255850E+04  0.50400001928E-02 0. -1.
       -1   -1    0    0    0  501  0.00000000000E+00  0.00000000000E+00 -0.10860057288E+04  0.10860057288E+04  0.50400001928E-02 0.  1.
    10030    2    1    2    0    0  0.00000000000E+00  0.00000000000E+00  0.81985619060E+00  0.21728313137E+04  0.21728311591E+04 0.  0.
        1    1    3    3  502    0 -0.25583103809E+03  0.36550447773E+02 -0.10548215701E+04  0.10860174952E+04  0.50400001928E-02 0.  1.
       -1    1    3    3    0  502  0.25583103809E+03 -0.36550447773E+02  0.10556414262E+04  0.10868138185E+04  0.50400001928E-02 0. -1.
</event>
<event>
 5   0  0.4586375E-05  0.1839868E+04  0.7818609E-02  0.8685381E-01
       -3   -1    0    0    0  501  0.00000000000E+00  0.00000000000E+00  0.56269066033E+03  0.56269066939E+03  0.10100000352E+00 0.  1.
        3   -1    0    0  501    0  0.00000000000E+00  0.00000000000E+00 -0.15039859829E+04  0.15039859863E+04  0.10100000352E+00 0. -1.
    10030    2    1    2    0    0  0.00000000000E+00  0.00000000000E+00 -0.94129532257E+03  0.20666766557E+04  0.18398683417E+04 0.  0.
        4    1    3    3  502    0 -0.38563772396E+03 -0.43934897727E+03  0.32721970050E+03  0.66993904445E+03  0.12699999809E+01 0.  1.
       -4    1    3    3    0  502  0.38563772396E+03  0.43934897727E+03 -0.12685150231E+04  0.13967376112E+04  0.12699999809E+01 0. -1.
</event>
<event>
 5   0  0.5861816E-05  0.2069418E+04  0.7818609E-02  0.8574836E-01
        1   -1    0    0  501    0  0.00000000000E+00  0.00000000000E+00  0.50109578444E+03  0.50109578446E+03  0.50400001928E-02 0.  1.
       -1   -1    0    0    0  501  0.00000000000E+00  0.00000000000E+00 -0.21365630556E+04  0.21365630556E+04  0.50400001928E-02 0. -1.
    10030    2    1    2    0    0  0.00000000000E+00  0.00000000000E+00 -0.16354672711E+04  0.26376588400E+04  0.20694180248E+04 0.  0.
        1    1    3    3  502    0  0.78012229008E+03  0.61917978275E+03 -0.11751835532E+04  0.15404644672E+04  0.50400001928E-02 0. -1.
       -1    1    3    3    0  502 -0.78012229008E+03 -0.61917978275E+03 -0.46028371792E+03  0.10971943729E+04  0.50400001928E-02 0.  1.
</event>
<event>
 5   0  0.5849604E-05  0.1774422E+04  0.7818609E-02  0.8720021E-01
        1   -1    0    0  501    0  0.00000000000E+00  0.00000000000E+00  0.45842048224E+03  0.45842048227E+03  0.50400001928E-02 0.  1.
       -1   -1    0    0    0  501  0.00000000000E+00  0.00000000000E+00 -0.17170778104E+04  0.17170778104E+04  0.50400001928E-02 0. -1.
    10030    2    1    2    0    0  0.00000000000E+00  0.00000000000E+00 -0.12586573281E+04  0.21754982927E+04  0.17744223149E+04 0.  0.
        2    1    3    3  502    0  0.73476461295E+03 -0.32247327204E+03 -0.10934033287E+04  0.13562444053E+04  0.25500000920E-02 0. -1.
       -2    1    3    3    0  502 -0.73476461295E+03  0.32247327204E+03 -0.16525399941E+03  0.81925388736E+03  0.25500000920E-02 0.  1.
</event>
<event>
 5   0  0.5981239E-05  0.2188884E+04  0.7818609E-02  0.8523069E-01
        1   -1    0    0  501    0  0.00000000000E+00  0.00000000000E+00  0.10119162760E+04  0.10119162760E+04  0.50400001928E-02 0. -1.
       -1   -1    0    0    0  501  0.00000000000E+00  0.00000000000E+00 -0.11836976889E+04  0.11836976890E+04  0.50400001928E-02 0.  1.
    10030    2    1    2    0    0  0.00000000000E+00  0.00000000000E+00 -0.17178141297E+03  0.21956139649E+04  0.21888836948E+04 0.  0.
        4    1    3    3  502    0 -0.12876528163E+03  0.45852292057E+03 -0.10743024549E+04  0.11751387764E+04  0.12699999809E+01 0.  1.
       -4    1    3    3    0  502  0.12876528163E+03 -0.45852292057E+03  0.90252104188E+03  0.10204751885E+04  0.12699999809E+01 0. -1.
</event>
<event>
 5   0  0.5895063E-05  0.2089120E+04  0.7818609E-02  0.8566051E-01
       -1   -1    0    0    0  501  0.00000000000E+00  0.00000000000E+00  0.11976096335E+04  0.11976096335E+04  0.50400001928E-02 0. -1.
        1   -1    0    0  501    0  0.00000000000E+00  0.00000000000E+00 -0.91106991360E+03  0.91106991361E+03  0.50400001928E-02 0.  1.
    10030    2    1    2    0    0  0.00000000000E+00  0.00000000000E+00  0.28653971992E+03  0.21086795471E+04  0.20891204899E+04 0.  0.
        5    1    3    3  502    0  0.10399471758E+04  0.97939756262E+02  0.14458239998E+03  0.10545181292E+04  0.46999998093E+01 0. -1.
       -5    1    3    3    0  502 -0.10399471758E+04 -0.97939756262E+02  0.14195731994E+03  0.10541614179E+04  0.46999998093E+01 0.  1.
</event>
<event>
 5   0  0.1241430E-04  0.2261540E+04  0.7818609E-02  0.8493242E-01
       -2   -1    0    0    0  501  0.00000000000E+00  0.00000000000E+00  0.56569170756E+03  0.56569170757E+03  0.25500000920E-02 0.  1.
        2   -1    0    0  501    0  0.00000000000E+00  0.00000000000E+00 -0.22603134725E+04  0.22603134725E+04  0.25500000920E-02 0. -1.
    10030    2    1    2    0    0  0.00000000000E+00  0.00000000000E+00 -0.16946217649E+04  0.28260051800E+04  0.22615398187E+04 0.  0.
        1    1    3    3  502    0  0.13513863420E+03 -0.70212997494E+03 -0.19419658329E+04  0.20694154364E+04  0.50400001928E-02 0. -1.
       -1    1    3    3    0  502 -0.13513863420E+03  0.70212997494E+03  0.24734406801E+03  0.75658974364E+03  0.50400001928E-02 0.  1.
</event>
<event>
 5   0  0.5849604E-05  0.2308743E+04  0.7818609E-02  0.8474482E-01
        1   -1    0    0  501    0  0.00000000000E+00  0.00000000000E+00  0.16826133552E+04  0.16826133552E+04  0.50400001928E-02 0.  1.
       -1   -1    0    0    0  501  0.00000000000E+00  0.00000000000E+00 -0.79196679921E+03  0.79196679923E+03  0.50400001928E-02 0. -1.
    10030    2    1    2    0    0  0.00000000000E+00  0.00000000000E+00  0.89064655594E+03  0.24745801544E+04  0.23087433060E+04 0.  0.
        2    1    3    3  502    0 -0.62167318970E+03 -0.26533681139E+03 -0.55767860824E+03  0.87629139466E+03  0.25500000920E-02 0. -1.
       -2    1    3    3    0  502  0.62167318970E+03  0.26533681139E+03  0.14483251642E+04  0.15982887597E+04  0.25500000920E-02 0.  1.
</event>
<event>
 5   0  0.1252124E-04  0.2206910E+04  0.7818609E-02  0.8515558E-01
        2   -1    0    0  501    0  0.00000000000E+00  0.00000000000E+00  0.74331388707E+03  0.74331388707E+03  0.25500000920E-02 0.  1.
       -2   -1    0    0    0  501  0.00000000000E+00  0.00000000000E+00 -0.16380868447E+04  0.16380868447E+04  0.25500000920E-02 0. -1.
    10030    2    1    2    0    0  0.00000000000E+00  0.00000000000E+00 -0.89477295762E+03  0.23814007318E+04  0.22069097851E+04 0.  0.
        3    1    3    3  502    0  0.20664652190E+03  0.64261099443E+03 -0.13893070420E+04  0.15446118420E+04  0.10100000352E+00 0. -1.
       -3    1    3    3    0  502 -0.20664652190E+03 -0.64261099443E+03  0.49453408442E+03  0.83678888976E+03  0.10100000352E+00 0.  1.
</event>
<event>
 5   0  0.5981239E-05  0.1533644E+04  0.7818609E-02  0.8862383E-01
       -1   -1    0    0    0  501  0.00000000000E+00  0.00000000000E+00  0.54469471171E+03  0.54469471174E+03  0.50400001928E-02 0. -1.
        1   -1    0    0  501    0  0.00000000000E+00  0.00000000000E+00 -0.10795336151E+04  0.10795336151E+04  0.50400001928E-02 0.  1.
    10030    2    1    2    0    0  0.00000000000E+00  0.00000000000E+00 -0.53483890335E+03  0.16242283268E+04  0.15336443542E+04 0.  0.
        4    1    3    3  502    0 -0.43963599931E+03 -0.48915459504E+03  0.15015641928E+03  0.67461143845E+03  0.12699999809E+01 0. -1.
       -4    1    3    3    0  502  0.43963599931E+03  0.48915459504E+03 -0.68499532263E+03  0.94961688836E+03  0.12699999809E+01 0.  1.
</event>
<event>
 5   0  0.1241430E-04  0.1911488E+04  0.7818609E-02  0.8649159E-01
       -2   -1    0    0    0  501  0.00000000000E+00  0.00000000000E+00  0.73924482432E+03  0.73924482433E+03  0.25500000920E-02 0.  1.
        2   -1    0    0  501    0  0.00000000000E+00  0.00000000000E+00 -0.12356487049E+04  0.12356487049E+04  0.25500000920E-02 0. -1.
    10030    2    1    2    0    0  0.00000000000E+00  0.00000000000E+00 -0.49640388061E+03  0.19748935293E+04  0.19114883309E+04 0.  0.
        1    1    3    3  502    0  0.29868964786E+03  0.90498896919E+03 -0.17351028245E+03  0.96867247212E+03  0.50400001928E-02 0. -1.
       -1    1    3    3    0  502 -0.29868964786E+03 -0.90498896919E+03 -0.32289359816E+03  0.10062210571E+04  0.50400001928E-02 0.  1.
</event>
<event>
 5   0  0.6263558E-05  0.2175401E+04  0.7818609E-02  0.8528737E-01
        1   -1    0    0  501    0  0.00000000000E+00  0.00000000000E+00  0.23928035377E+04  0.23928035377E+04  0.50400001928E-02 0. -1.
       -1   -1    0    0    0  501  0.00000000000E+00  0.00000000000E+00 -0.49443760063E+03  0.49443760066E+03  0.50400001928E-02 0.  1.
    10030    2    1    2    0    0  0.00000000000E+00  0.00000000000E+00  0.18983659370E+04  0.28872411383E+04  0.21754006895E+04 0.  0.
        3    1    3    3  502    0 -0.47642521074E+03 -0.34883130702E+03  0.21615613095E+04  0.22407613811E+04  0.10100000352E+00 0. -1.
       -3    1    3    3    0  502  0.47642521074E+03  0.34883130702E+03 -0.26319537247E+03  0.64647975720E+03  0.10100000352E+00 0.  1.
</event>
<event>
 5   0  0.1311472E-04  0.2195860E+04  0.7818609E-02  0.8520153E-01
       -2   -1    0    0    0  501  0.00000000000E+00  0.00000000000E+00  0.91395707438E+03  0.91395707439E+03  0.25500000920E-02 0.  1.
        2   -1    0    0  501    0  0.00000000000E+00  0.00000000000E+00 -0.13189357892E+04  0.13189357892E+04  0.25500000920E-02 0. -1.
    10030    2    1    2    0    0  0.00000000000E+00  0.00000000000E+00 -0.40497871483E+03  0.22328928636E+04  0.21958603737E+04 0.  0.
        4    1    3    3  502    0 -0.51032674414E+02  0.21578654758E+03 -0.12959290695E+04  0.13147630714E+04  0.12699999809E+01 0. -1.
       -4    1    3    3    0  502  0.51032674414E+02 -0.21578654758E+03  0.89095035463E+03  0.91812979218E+03  0.12699999809E+01 0.  1.
</event>
<event>
 5   0  0.1226021E-04  0.2259620E+04  0.7818609E-02  0.8494015E-01
       -2   -1    0    0    0  501  0.00000000000E+00  0.00000000000E+00  0.13080978244E+04  0.13080978244E+04  0.25500000920E-02 0. -1.
        2   -1    0    0  501    0  0.00000000000E+00  0.00000000000E+00 -0.97582212230E+03  0.97582212231E+03  0.25500000920E-02 0.  1.
    10030    2    1    2    0    0  0.00000000000E+00  0.00000000000E+00  0.33227570208E+03  0.22839199467E+04  0.22596201408E+04 0.  0.
        2    1    3    3  502    0 -0.40605385830E+03  0.33336915605E+03 -0.84484654151E+03  0.99487708224E+03  0.25500000920E-02 0.  1.
       -2    1    3    3    0  502  0.40605385830E+03 -0.33336915605E+03  0.11771222436E+04  0.12890428645E+04  0.25500000920E-02 0. -1.
</event>
<event>
 5   0  0.1404159E-04  0.2207886E+04  0.7818609E-02  0.8515153E-01
        2   -1    0    0  501    0  0.00000000000E+00  0.00000000000E+00  0.17176887089E+04  0.17176887089E+04  0.25500000920E-02 0. -1.
       -2   -1    0    0    0  501  0.00000000000E+00  0.00000000000E+00 -0.70949437693E+03  0.70949437693E+03  0.25500000920E-02 0.  1.
    10030    2    1    2    0    0  0.00000000000E+00  0.00000000000E+00  0.10081943320E+04  0.24271830858E+04  0.22078863017E+04 0.  0.
        5    1    3    3  502    0  0.47258082649E+03 -0.96916841721E+03  0.24383731458E+03  0.11054857685E+04  0.46999998093E+01 0. -1.
       -5    1    3    3    0  502 -0.47258082649E+03  0.96916841721E+03  0.76435701737E+03  0.13216973173E+04  0.46999998093E+01 0.  1.
</event>
<event>
 5   0  0.1226021E-04  0.2211341E+04  0.7818609E-02  0.8513723E-01
        2   -1    0    0  501    0  0.00000000000E+00  0.00000000000E+00  0.23289192051E+04  0.23289192051E+04  0.25500000920E-02 0.  1.
       -2   -1    0    0    0  501  0.00000000000E+00  0.00000000000E+00 -0.52492460616E+03  0.52492460617E+03  0.25500000920E-02 0. -1.
    10030    2    1    2    0    0  0.00000000000E+00  0.00000000000E+00  0.18039945989E+04  0.28538438112E+04  0.22113407666E+04 0.  0.
        2    1    3    3  502    0 -0.43860062612E+02 -0.10992130661E+04  0.10452071239E+04  0.15174488464E+04  0.25500000920E-02 0. -1.
       -2    1    3    3    0  502  0.43860062612E+02  0.10992130661E+04  0.75878747506E+03  0.13363949648E+04  0.25500000920E-02 0.  1.
</event>
<event>
 5   0  0.1252124E-04  0.2160729E+04  0.7818609E-02  0.8534954E-01
        2   -1    0    0  501    0  0.00000000000E+00  0.00000000000E+00  0.19998768366E+04  0.19998768366E+04  0.25500000920E-02 0.  1.
       -2   -1    0    0    0  501  0.00000000000E+00  0.00000000000E+00 -0.58362970283E+03  0.58362970283E+03  0.25500000920E-02 0. -1.
    10030    2    1    2    0    0  0.00000000000E+00  0.00000000000E+00  0.14162471338E+04  0.25835065395E+04  0.21607290657E+04 0.  0.
        3    1    3    3  502    0  0.72936085710E+03 -0.76654125598E+03  0.44716519948E+03  0.11486990393E+04  0.10100000352E+00 0. -1.
       -3    1    3    3    0  502 -0.72936085710E+03  0.76654125598E+03  0.96908193431E+03  0.14348075002E+04  0.10100000352E+00 0.  1.
</event>
<event>
 5   0  0.1252124E-04  0.2186136E+04  0.7818609E-02  0.8524221E-01
       -2   -1    0    0    0  501  0.00000000000E+00  0.00000000000E+00  0.12374716291E+04  0.12374716291E+04  0.25500000920E-02 0.  1.
        2   -1    0    0  501    0  0.00000000000E+00  0.00000000000E+00 -0.96551529452E+03  0.96551529453E+03  0.25500000920E-02 0. -1.
    10030    2    1    2    0    0  0.00000000000E+00  0.00000000000E+00  0.27195633461E+03  0.22029869237E+04  0.21861361206E+04 0.  0.
        3    1    3    3  502    0  0.84411365415E+01  0.10345895554E+04  0.49133061722E+03  0.11453613345E+04  0.10100000352E+00 0.  1.
       -3    1    3    3    0  502 -0.84411365415E+01 -0.10345895554E+04 -0.21937428261E+03  0.10576255892E+04  0.10100000352E+00 0. -1.
</event>
<event>
 5   0  0.1226021E-04  0.2222473E+04  0.7818609E-02  0.8509132E-01
       -2   -1    0    0    0  501  0.00000000000E+00  0.00000000000E+00  0.49764015412E+03  0.49764015412E+03  0.25500000920E-02 0.  1.
        2   -1    0    0  501    0  0.00000000000E+00  0.00000000000E+00 -0.24814038389E+04  0.24814038389E+04  0.25500000920E-02 0. -1.
    10030    2    1    2    0    0  0.00000000000E+00  0.00000000000E+00 -0.19837636848E+04  0.29790439931E+04  0.22224726670E+04 0.  0.
        2    1    3    3  502    0  0.10849828080E+04  0.10779277810E+03 -0.12794921390E+04  0.16810434588E+04  0.25500000920E-02 0. -1.
       -2    1    3    3    0  502 -0.10849828080E+04 -0.10779277810E+03 -0.70427154579E+03  0.12980005342E+04  0.25500000920E-02 0.  1.
</event>
<event>
 5   0  0.4586375E-05  0.2202976E+04  0.7818609E-02  0.8517191E-01
       -3   -1    0    0    0  501  0.00000000000E+00  0.00000000000E+00  0.17023224955E+04  0.17023224985E+04  0.10100000352E+00 0.  1.
        3   -1    0    0  501    0  0.00000000000E+00  0.00000000000E+00 -0.71271768819E+03  0.71271769535E+03  0.10100000352E+00 0. -1.
    10030    2    1    2    0    0  0.00000000000E+00  0.00000000000E+00  0.98960480732E+03  0.24150401939E+04  0.22029755930E+04 0.  0.
        3    1    3    3  502    0  0.28157388064E+03  0.10585409218E+04  0.36751018348E+03  0.11553598913E+04  0.10100000352E+00 0. -1.
       -3    1    3    3    0  502 -0.28157388064E+03 -0.10585409218E+04  0.62209462384E+03  0.12596803025E+04  0.10100000352E+00 0.  1.
</event>
<event>
 5   0  0.1404159E-04  0.2292370E+04  0.7818609E-02  0.8480936E-01
       -2   -1    0    0    0  501  0.00000000000E+00  0.00000000000E+00  0.13476818485E+04  0.13476818485E+04  0.25500000920E-02 0. -1.
        2   -1    0    0  501    0  0.00000000000E+00  0.00000000000E+00 -0.97481458341E+03  0.97481458341E+03  0.25500000920E-02 0.  1.
    10030    2    1    2    0    0  0.00000000000E+00  0.00000000000E+00  0.37286726507E+03  0.23224964319E+04  0.22923698826E+04 0.  0.
        5    1    3    3  502    0 -0.89931014653E+03  0.70356987927E+03  0.28748669782E+03  0.11774718706E+04  0.46999998093E+01 0.  1.
       -5    1    3    3    0  502  0.89931014653E+03 -0.70356987927E+03  0.85380567249E+02  0.11450245613E+04  0.46999998093E+01 0. -1.
</event>
<event>
 5   0  0.1252124E-04  0.2203087E+04  0.7818609E-02  0.8517144E-01
       -2   -1    0    0    0  501  0.00000000000E+00  0.00000000000E+00  0.11297399731E+04  0.11297399731E+04  0.25500000920E-02 0. -1.
        2   -1    0    0  501    0  0.00000000000E+00  0.00000000000E+00 -0.10740504795E+04  0.10740504795E+04  0.25500000920E-02 0.  1.
    10030    2    1    2    0    0  0.00000000000E+00  0.00000000000E+00  0.55689493575E+02  0.22037904526E+04  0.22030867072E+04 0.  0.
        3    1    3    3  502    0 -0.85596304786E+02 -0.63541408119E+03  0.92385402659E+03  0.11245372624E+04  0.10100000352E+00 0. -1.
       -3    1    3    3    0  502  0.85596304786E+02  0.63541408119E+03 -0.86816453302E+03  0.10792531902E+04  0.10100000352E+00 0.  1.
</event>
<event>
 5   0  0.5981239E-05  0.2148685E+04  0.7818609E-02  0.8540095E-01
        1   -1    0    0  501    0  0.00000000000E+00  0.00000000000E+00  0.21214804277E+04  0.21214804277E+04  0.50400001928E-02 0. -1.
       -1   -1    0    0    0  501  0.00000000000E+00  0.00000000000E+00 -0.54405966004E+03  0.54405966006E+03  0.50400001928E-02 0.  1.
    10030    2    1    2    0    0  0.00000000000E+00  0.00000000000E+00  0.15774207677E+04  0.26655400878E+04  0.21486851052E+04 0.  0.
        4    1    3    3  502    0  0.10655379798E+04  0.71317561529E+01  0.61866857579E+03  0.12321422272E+04  0.12699999809E+01 0. -1.
       -4    1    3    3    0  502 -0.10655379798E+04 -0.71317561529E+01  0.95875219191E+03  0.14333978606E+04  0.12699999809E+01 0.  1.
</event>
<event>
 5   0  0.1241430E-04  0.2016672E+04  0.7818609E-02  0.8598866E-01
        2   -1    0    0  501    0  0.00000000000E+00  0.00000000000E+00  0.31754492151E+04  0.31754492151E+04  0.25500000920E-02 0.  1.
       -2   -1    0    0    0  501  0.00000000000E+00  0.00000000000E+00 -0.32018817093E+03  0.32018817094E+03  0.25500000920E-02 0. -1.
    10030    2    1    2    0    0  0.00000000000E+00  0.00000000000E+00  0.28552610441E+04  0.34956373860E+04  0.20166717889E+04 0.  0.
        1    1    3    3  502    0  0.61963196636E+03  0.35257876088E+03  0.19159619298E+03  0.73821721570E+03  0.50400001928E-02 0. -1.
       -1    1    3    3    0  502 -0.61963196636E+03 -0.35257876088E+03  0.26636648511E+04  0.27574201703E+04  0.50400001928E-02 0.  1.
</event>
<event>
 5   0  0.1226021E-04  0.1596829E+04  0.7818609E-02  0.8822499E-01
        2   -1    0    0  501    0  0.00000000000E+00  0.00000000000E+00  0.16578744404E+04  0.16578744404E+04  0.25500000920E-02 0. -1.
       -2   -1    0    0    0  501  0.00000000000E+00  0.00000000000E+00 -0.38450767671E+03  0.38450767672E+03  0.25500000920E-02 0.  1.
    10030    2    1    2    0    0  0.00000000000E+00  0.00000000000E+00  0.12733667637E+04  0.20423821172E+04  0.15968286688E+04 0.  0.
        2    1    3    3  502    0  0.29622064169E+03  0.66901367743E+03  0.22791669051E+03  0.76633673210E+03  0.25500000920E-02 0.  1.
       -2    1    3    3    0  502 -0.29622064169E+03 -0.66901367743E+03  0.10454500732E+04  0.12760453851E+04  0.25500000920E-02 0. -1.
</event>
<event>
 5   0  0.5849604E-05  0.2187830E+04  0.7818609E-02  0.8523511E-01
       -1   -1    0    0    0  501  0.00000000000E+00  0.00000000000E+00  0.94475539869E+03  0.94475539870E+03  0.50400001928E-02 0.  1.
        1   -1    0    0  501    0  0.00000000000E+00  0.00000000000E+00 -0.12666244597E+04  0.12666244598E+04  0.50400001928E-02 0. -1.
    10030    2    1    2    0    0  0.00000000000E+00  0.00000000000E+00 -0.32186906106E+03  0.22113798585E+04  0.21878302461E+04 0.  0.
        2    1    3    3  502    0 -0.82526851115E+03 -0.31706910885E+03 -0.81211235507E+03  0.12004696633E+04  0.25500000920E-02 0.  1.
       -2    1    3    3    0  502  0.82526851115E+03  0.31706910885E+03  0.49024329402E+03  0.10109101951E+04  0.25500000920E-02 0. -1.
</event>
<event>
 5   0  0.1404159E-04  0.2250420E+04  0.7818609E-02  0.8497730E-01
       -2   -1    0    0    0  501  0.00000000000E+00  0.00000000000E+00  0.72574852358E+03  0.72574852359E+03  0.25500000920E-02 0.  1.
        2   -1    0    0  501    0  0.00000000000E+00  0.00000000000E+00 -0.17445400840E+04  0.17445400840E+04  0.25500000920E-02 0. -1.
    10030    2    1    2    0    0  0.00000000000E+00  0.00000000000E+00 -0.10187915605E+04  0.24702886076E+04  0.22504198633E+04 0.  0.
        5    1    3    3  502    0 -0.86701680848E+03 -0.63310027884E+02 -0.12935794151E+04  0.15585557735E+04  0.46999998093E+01 0. -1.
       -5    1    3    3    0  502  0.86701680848E+03  0.63310027884E+02  0.27478785465E+03  0.91173283416E+03  0.46999998093E+01 0.  1.
</event>
<event>
 5   0  0.6263558E-05  0.2182256E+04  0.7818609E-02  0.8525850E-01
        1   -1    0    0  501    0  0.00000000000E+00  0.00000000000E+00  0.14210901195E+04  0.14210901195E+04  0.50400001928E-02 0.  1.
       -1   -1    0    0    0  501  0.00000000000E+00  0.00000000000E+00 -0.83777971663E+03  0.83777971664E+03  0.50400001928E-02 0. -1.
    10030    2    1    2    0    0  0.00000000000E+00  0.00000000000E+00  0.58331040283E+03  0.22588698361E+04  0.21822561514E+04 0.  0.
        3    1    3    3  502    0  0.53003155935E+03 -0.46516361354E+03  0.11535025788E+04  0.13519906992E+04  0.10100000352E+00 0.  1.
       -3    1    3    3    0  502 -0.53003155935E+03  0.46516361354E+03 -0.57019217594E+03  0.90687913692E+03  0.10100000352E+00 0. -1.
</event>
<event>
 5   0  0.6263558E-05  0.1679253E+04  0.7818609E-02  0.8773286E-01
        1   -1    0    0  501    0  0.00000000000E+00  0.00000000000E+00  0.10327371999E+04  0.10327371999E+04  0.50400001928E-02 0.  1.
       -1   -1    0    0    0  501  0.00000000000E+00  0.00000000000E+00 -0.68262534638E+03  0.68262534640E+03  0.50400001928E-02 0. -1.
    10030    2    1    2    0    0  0.00000000000E+00  0.00000000000E+00  0.35011185351E+03  0.17153625463E+04  0.16792529158E+04 0.  0.
        3    1    3    3  502    0 -0.37949756361E+03  0.74108866560E+03  0.28574545888E+03  0.88027341692E+03  0.10100000352E+00 0.  1.
       -3    1    3    3    0  502  0.37949756361E+03 -0.74108866560E+03  0.64366394638E+02  0.83508912939E+03  0.10100000352E+00 0. -1.
</event>
<event>
 5   0  0.5981239E-05  0.2230203E+04  0.7818609E-02  0.8505961E-01
        1   -1    0    0  501    0  0.00000000000E+00  0.00000000000E+00  0.16697648332E+04  0.16697648332E+04  0.50400001928E-02 0. -1.
       -1   -1    0    0    0  501  0.00000000000E+00  0.00000000000E+00 -0.74468680006E+03  0.74468680008E+03  0.50400001928E-02 0.  1.
    10030    2    1    2    0    0  0.00000000000E+00  0.00000000000E+00  0.92507803311E+03  0.24144516332E+04  0.22302034261E+04 0.  0.
        4    1    3    3  502    0 -0.10428447573E+04 -0.18767442513E+03  0.83866529336E+03  0.13513356226E+04  0.12699999809E+01 0. -1.
       -4    1    3    3    0  502  0.10428447573E+04  0.18767442513E+03  0.86412739748E+02  0.10631160107E+04  0.12699999809E+01 0.  1.
</event>
<event>
 5   0  0.1311472E-04  0.2199539E+04  0.7818609E-02  0.8518620E-01
       -2   -1    0    0    0  501  0.00000000000E+00  0.00000000000E+00  0.98466725200E+03  0.98466725200E+03  0.25500000920E-02 0.  1.
        2   -1    0    0  501    0  0.00000000000E+00  0.00000000000E+00 -0.12283268172E+04  0.12283268172E+04  0.25500000920E-02 0. -1.
    10030    2    1    2    0    0  0.00000000000E+00  0.00000000000E+00 -0.24365956519E+03  0.22129940692E+04  0.21995392169E+04 0.  0.
        4    1    3    3  502    0 -0.66031515671E+02 -0.15217312491E+03 -0.12156668622E+04  0.12269329051E+04  0.12699999809E+01 0. -1.
       -4    1    3    3    0  502  0.66031515671E+02  0.15217312491E+03  0.97200729698E+03  0.98606116407E+03  0.12699999809E+01 0.  1.
</event>
<event>
 5   0  0.1226021E-04  0.2204583E+04  0.7818609E-02  0.8516523E-01
       -2   -1    0    0    0  501  0.00000000000E+00  0.00000000000E+00  0.10247935362E+04  0.10247935362E+04  0.25500000920E-02 0.  1.
        2   -1    0    0  501    0  0.00000000000E+00  0.00000000000E+00 -0.11856501141E+04  0.11856501141E+04  0.25500000920E-02 0. -1.
    10030    2    1    2    0    0  0.00000000000E+00  0.00000000000E+00 -0.16085657791E+03  0.22104436503E+04  0.22045830201E+04 0.  0.
        2    1    3    3  502    0  0.44787553116E+03  0.65734679072E+03 -0.84557507943E+03  0.11609024548E+04  0.25500000920E-02 0. -1.
       -2    1    3    3    0  502 -0.44787553116E+03 -0.65734679072E+03  0.68471850152E+03  0.10495411955E+04  0.25500000920E-02 0.  1.
</event>
<event>
 5   0  0.1311472E-04  0.2181000E+04  0.7818609E-02  0.8526378E-01
       -2   -1    0    0    0  501  0.00000000000E+00  0.00000000000E+00  0.11940117884E+04  0.11940117884E+04  0.25500000920E-02 0.  1.
        2   -1    0    0  501    0  0.00000000000E+00  0.00000000000E+00 -0.99596226127E+03  0.99596226128E+03  0.25500000920E-02 0. -1.
    10030    2    1    2    0    0  0.00000000000E+00  0.00000000000E+00  0.19804952709E+03  0.21899740496E+04  0.21810003950E+04 0.  0.
        4    1    3    3  502    0 -0.10053952931E+04  0.29380256734E+03 -0.20562003100E+03  0.10674365808E+04  0.12699999809E+01 0. -1.
       -4    1    3    3    0  502  0.10053952931E+04 -0.29380256734E+03  0.40366955808E+03  0.11225374689E+04  0.12699999809E+01 0.  1.
</event>
<event>
 5   0  0.1241430E-04  0.2195890E+04  0.7818609E-02  0.8520141E-01
        2   -1    0    0  501    0  0.00000000000E+00  0.00000000000E+00  0.11029547724E+04  0.11029547724E+04  0.25500000920E-02 0. -1.
       -2   -1    0    0    0  501  0.00000000000E+00  0.00000000000E+00 -0.10929579844E+04  0.10929579844E+04  0.25500000920E-02 0.  1.
    10030    2    1    2    0    0  0.00000000000E+00  0.00000000000E+00  0.99967880154E+01  0.21959127568E+04  0.21958900017E+04 0.  0.
        1    1    3    3  502    0 -0.10573457832E+04  0.20887387888E+03  0.21446374130E+03  0.10989099594E+04  0.50400001928E-02 0. -1.
       -1    1    3    3    0  502  0.10573457832E+04 -0.20887387888E+03 -0.20446695329E+03  0.10970027974E+04  0.50400001928E-02 0.  1.
</event>
<event>
 5   0  0.1252124E-04  0.2195175E+04  0.7818609E-02  0.8520439E-01
       -2   -1    0    0    0  501  0.00000000000E+00  0.00000000000E+00  0.13157875959E+04  0.13157875959E+04  0.25500000920E-02 0.  1.
        2   -1    0    0  501    0  0.00000000000E+00  0.00000000000E+00 -0.91557170020E+03  0.91557170020E+03  0.25500000920E-02 0. -1.
    10030    2    1    2    0    0  0.00000000000E+00  0.00000000000E+00  0.40021589574E+03  0.22313592961E+04  0.21951746047E+04 0.  0.
        3    1    3    3  502    0  0.10841907316E+04 -0.78212804945E+02  0.45578711292E+02  0.10879633332E+04  0.10100000352E+00 0. -1.
       -3    1    3    3    0  502 -0.10841907316E+04  0.78212804945E+02  0.35463718445E+03  0.11433959629E+04  0.10100000352E+00 0.  1.
</event>
<event>
 5   0  0.5861816E-05  0.2184191E+04  0.7818609E-02  0.8525037E-01
       -1   -1    0    0    0  501  0.00000000000E+00  0.00000000000E+00  0.58325303738E+03  0.58325303741E+03  0.50400001928E-02 0. -1.
        1   -1    0    0  501    0  0.00000000000E+00  0.00000000000E+00 -0.20448623184E+04  0.20448623184E+04  0.50400001928E-02 0.  1.
    10030    2    1    2    0    0  0.00000000000E+00  0.00000000000E+00 -0.14616092810E+04  0.26281153558E+04  0.21841906128E+04 0.  0.
        1    1    3    3  502    0  0.87739123967E+03  0.36279227548E+03 -0.13801538361E+04  0.16751890144E+04  0.50400001928E-02 0.  1.
       -1    1    3    3    0  502 -0.87739123967E+03 -0.36279227548E+03 -0.81455444875E+02  0.95292634139E+03  0.50400001928E-02 0. -1.
</event>
<event>
 5   0  0.1226021E-04  0.2195473E+04  0.7818609E-02  0.8520315E-01
        2   -1    0    0  501    0  0.00000000000E+00  0.00000000000E+00  0.18075309554E+04  0.18075309554E+04  0.25500000920E-02 0. -1.
       -2   -1    0    0    0  501  0.00000000000E+00  0.00000000000E+00 -0.66666919368E+03  0.66666919369E+03  0.25500000920E-02 0.  1.
    10030    2    1    2    0    0  0.00000000000E+00  0.00000000000E+00  0.11408617617E+04  0.24742001491E+04  0.21954728006E+04 0.  0.
        2    1    3    3  502    0  0.61320135832E+03  0.58941239389E+03 -0.21164889739E+03  0.87648053698E+03  0.25500000920E-02 0.  1.
       -2    1    3    3    0  502 -0.61320135832E+03 -0.58941239389E+03  0.13525106591E+04  0.15977196121E+04  0.25500000920E-02 0. -1.
</event>
<event>
 5   0  0.5849604E-05  0.2188191E+04  0.7818609E-02  0.8523360E-01
       -1   -1    0    0    0  501  0.00000000000E+00  0.00000000000E+00  0.11570264611E+04  0.11570264611E+04  0.50400001928E-02 0.  1.
        1   -1    0    0  501    0  0.00000000000E+00  0.00000000000E+00 -0.10345870756E+04  0.10345870756E+04  0.50400001928E-02 0. -1.
    10030    2    1    2    0    0  0.00000000000E+00  0.00000000000E+00  0.12243938550E+03  0.21916135368E+04  0.21881906890E+04 0.  0.
        2    1    3    3  502    0 -0.42695668270E+03  0.70739185186E+03  0.77952308867E+03  0.11359363920E+04  0.25500000920E-02 0.  1.
       -2    1    3    3    0  502  0.42695668270E+03 -0.70739185186E+03 -0.65708370317E+03  0.10556771448E+04  0.25500000920E-02 0. -1.
</event>
<event>
 5   0  0.1226021E-04  0.2154376E+04  0.7818609E-02  0.8537661E-01
       -2   -1    0    0    0  501  0.00000000000E+00  0.00000000000E+00  0.97524120147E+03  0.97524120148E+03  0.25500000920E-02 0. -1.
        2   -1    0    0  501    0  0.00000000000E+00  0.00000000000E+00 -0.11897920929E+04  0.11897920929E+04  0.25500000920E-02 0.  1.
    10030    2    1    2    0    0  0.00000000000E+00  0.00000000000E+00 -0.21455089141E+03  0.21650332944E+04  0.21543762626E+04 0.  0.
        2    1    3    3  502    0 -0.96517304475E+03  0.46251016975E+03 -0.22977843380E+03  0.10946564722E+04  0.25500000920E-02 0. -1.
       -2    1    3    3    0  502  0.96517304475E+03 -0.46251016975E+03  0.15227542393E+02  0.10703768222E+04  0.25500000920E-02 0.  1.
</event>
<event>
 5   0  0.1311472E-04  0.2218895E+04  0.7818609E-02  0.8510605E-01
        2   -1    0    0  501    0  0.00000000000E+00  0.00000000000E+00  0.12214265474E+04  0.12214265474E+04  0.25500000920E-02 0. -1.
       -2   -1    0    0    0  501  0.00000000000E+00  0.00000000000E+00 -0.10077345284E+04  0.10077345284E+04  0.25500000920E-02 0.  1.
    10030    2    1    2    0    0  0.00000000000E+00  0.00000000000E+00  0.21369201897E+03  0.22291610758E+04  0.22188949553E+04 0.  0.
        4    1    3    3  502    0  0.59624721337E+03  0.39412394924E+03 -0.74562437505E+03  0.10328609531E+04  0.12699999809E+01 0.  1.
       -4    1    3    3    0  502 -0.59624721337E+03 -0.39412394924E+03  0.95931639403E+03  0.11963001227E+04  0.12699999809E+01 0. -1.
</event>
<event>
 5   0  0.5861816E-05  0.2186652E+04  0.7818609E-02  0.8524005E-01
        1   -1    0    0  501    0  0.00000000000E+00  0.00000000000E+00  0.14221153787E+04  0.14221153787E+04  0.50400001928E-02 0. -1.
       -1   -1    0    0    0  501  0.00000000000E+00  0.00000000000E+00 -0.84055166209E+03  0.84055166211E+03  0.50400001928E-02 0.  1.
    10030    2    1    2    0    0  0.00000000000E+00  0.00000000000E+00  0.58156371662E+03  0.22626670408E+04  0.21866517284E+04 0.  0.
        1    1    3    3  502    0  0.19119241585E+03 -0.10744772689E+04  0.22288447595E+03  0.11138821441E+04  0.50400001928E-02 0.  1.
       -1    1    3    3    0  502 -0.19119241585E+03  0.10744772689E+04  0.35867924067E+03  0.11487848967E+04  0.50400001928E-02 0. -1.
</event>
<event>
 5   0  0.6263558E-05  0.2158426E+04  0.7818609E-02  0.8535934E-01
       -1   -1    0    0    0  501  0.00000000000E+00  0.00000000000E+00  0.59722455577E+03  0.59722455579E+03  0.50400001928E-02 0.  1.
        1   -1    0    0  501    0  0.00000000000E+00  0.00000000000E+00 -0.19501880681E+04  0.19501880681E+04  0.50400001928E-02 0. -1.
    10030    2    1    2    0    0  0.00000000000E+00  0.00000000000E+00 -0.13529635124E+04  0.25474126239E+04  0.21584255398E+04 0.  0.
        3    1    3    3  502    0 -0.90603165147E+03 -0.92907466522E+02  0.67972253349E+01  0.91080808257E+03  0.10100000352E+00 0. -1.
       -3    1    3    3    0  502  0.90603165147E+03  0.92907466522E+02 -0.13597607377E+04  0.16366045414E+04  0.10100000352E+00 0.  1.
</event>
<event>
 5   0  0.1252124E-04  0.2229316E+04  0.7818609E-02  0.8506324E-01
       -2   -1    0    0    0  501  0.00000000000E+00  0.00000000000E+00  0.80062983233E+03  0.80062983234E+03  0.25500000920E-02 0. -1.
        2   -1    0    0  501    0  0.00000000000E+00  0.00000000000E+00 -0.15518561719E+04  0.15518561719E+04  0.25500000920E-02 0.  1.
    10030    2    1    2    0    0  0.00000000000E+00  0.00000000000E+00 -0.75122633953E+03  0.23524860042E+04  0.22293159011E+04 0.  0.
        3    1    3    3  502    0 -0.76882514122E+03  0.68788325549E+03 -0.82105733926E+03  0.13184880111E+04  0.10100000352E+00 0.  1.
       -3    1    3    3    0  502  0.76882514122E+03 -0.68788325549E+03  0.69830999727E+02  0.10339979931E+04  0.10100000352E+00 0. -1.
</event>
<event>
 5   0  0.5895063E-05  0.1954177E+04  0.7818609E-02  0.8628349E-01
        1   -1    0    0  501    0  0.00000000000E+00  0.00000000000E+00  0.67881892670E+03  0.67881892672E+03  0.50400001928E-02 0. -1.
       -1   -1    0    0    0  501  0.00000000000E+00  0.00000000000E+00 -0.14064163751E+04  0.14064163751E+04  0.50400001928E-02 0.  1.
    10030    2    1    2    0    0  0.00000000000E+00  0.00000000000E+00 -0.72759744836E+03  0.20852353018E+04  0.19541771202E+04 0.  0.
        5    1    3    3  502    0  0.71981668296E+03 -0.65249941332E+03 -0.25296546010E+03  0.10039447970E+04  0.46999998093E+01 0. -1.
       -5    1    3    3    0  502 -0.71981668296E+03  0.65249941332E+03 -0.47463198826E+03  0.10812905048E+04  0.46999998093E+01 0.  1.
</event>
<event>
 5   0  0.5981239E-05  0.2207146E+04  0.7818609E-02  0.8515460E-01
        1   -1    0    0  501    0  0.00000000000E+00  0.00000000000E+00  0.18119578837E+04  0.18119578837E+04  0.50400001928E-02 0. -1.
       -1   -1    0    0    0  501  0.00000000000E+00  0.00000000000E+00 -0.67213120362E+03  0.67213120364E+03  0.50400001928E-02 0.  1.
    10030    2    1    2    0    0  0.00000000000E+00  0.00000000000E+00  0.11398266801E+04  0.24840890873E+04  0.22071460607E+04 0.  0.
        4    1    3    3  502    0 -0.20275085168E+03  0.60961525752E+03  0.15797937487E+04  0.17054291458E+04  0.12699999809E+01 0. -1.
       -4    1    3    3    0  502  0.20275085168E+03 -0.60961525752E+03 -0.43996706867E+03  0.77865994148E+03  0.12699999809E+01 0.  1.
</event>
<event>
 5   0  0.1311472E-04  0.2084777E+04  0.7818609E-02  0.8567979E-01
        2   -1    0    0  501    0  0.00000000000E+00  0.00000000000E+00  0.22144981346E+04  0.22144981346E+04  0.25500000920E-02 0. -1.
       -2   -1    0    0    0  501  0.00000000000E+00  0.00000000000E+00 -0.49066387792E+03  0.49066387793E+03  0.25500000920E-02 0.  1.
    10030    2    1    2    0    0  0.00000000000E+00  0.00000000000E+00  0.17238342567E+04  0.27051620125E+04  0.20847774389E+04 0.  0.
        4    1    3    3  502    0 -0.56300647209E+03 -0.28146912464E+03 -0.21622247835E+03  0.66554859236E+03  0.12699999809E+01 0.  1.
       -4    1    3    3    0  502  0.56300647209E+03  0.28146912464E+03  0.19400567350E+04  0.20396134202E+04  0.12699999809E+01 0. -1.
</event>
<event>
 5   0  0.1241430E-04  0.2197438E+04  0.7818609E-02  0.8519495E-01
        2   -1    0    0  501    0  0.00000000000E+00  0.00000000000E+00  0.10818216466E+04  0.10818216466E+04  0.25500000920E-02 0.  1.
       -2   -1    0    0    0  501  0.00000000000E+00  0.00000000000E+00 -0.11158805504E+04  0.11158805504E+04  0.25500000920E-02 0. -1.
    10030    2    1    2    0    0  0.00000000000E+00  0.00000000000E+00 -0.34058903745E+02  0.21977021970E+04  0.21974382671E+04 0.  0.
        1    1    3    3  502    0  0.14286300967E+03  0.86902906347E+03 -0.67404243207E+03  0.11090331613E+04  0.50400001928E-02 0. -1.
       -1    1    3    3    0  502 -0.14286300967E+03 -0.86902906347E+03  0.63998352833E+03  0.10886690357E+04  0.50400001928E-02 0.  1.
</event>
<event>
 5   0  0.5849604E-05  0.2089037E+04  0.7818609E-02  0.8566088E-01
        1   -1    0    0  501    0  0.00000000000E+00  0.00000000000E+00  0.58608178046E+03  0.58608178049E+03  0.50400001928E-02 0. -1.
       -1   -1    0    0    0  501  0.00000000000E+00  0.00000000000E+00 -0.18615472021E+04  0.18615472021E+04  0.50400001928E-02 0.  1.
    10030    2    1    2    0    0  0.00000000000E+00  0.00000000000E+00 -0.12754654216E+04  0.24476289826E+04  0.20890370017E+04 0.  0.
        2    1    3    3  502    0 -0.97168795721E+03  0.38240701489E+03 -0.60888318189E+03  0.12087809315E+04  0.25500000920E-02 0. -1.
       -2    1    3    3    0  502  0.97168795721E+03 -0.38240701489E+03 -0.66658223970E+03  0.12388480510E+04  0.25500000920E-02 0.  1.
</event>
<event>
 5   0  0.1226021E-04  0.2169463E+04  0.7818609E-02  0.8531247E-01
        2   -1    0    0  501    0  0.00000000000E+00  0.00000000000E+00  0.94933112660E+03  0.94933112660E+03  0.25500000920E-02 0. -1.
       -2   -1    0    0    0  501  0.00000000000E+00  0.00000000000E+00 -0.12394433424E+04  0.12394433424E+04  0.25500000920E-02 0.  1.
    10030    2    1    2    0    0  0.00000000000E+00  0.00000000000E+00 -0.29011221576E+03  0.21887744690E+04  0.21694627395E+04 0.  0.
        2    1    3    3  502    0  0.35365981459E+03  0.87029860166E+02 -0.11759110236E+04  0.12310224191E+04  0.25500000920E-02 0.  1.
       -2    1    3    3    0  502 -0.35365981459E+03 -0.87029860166E+02  0.88579880782E+03  0.95775204983E+03  0.25500000920E-02 0. -1.
</event>
<event>
 5   0  0.1241430E-04  0.2203634E+04  0.7818609E-02  0.8516917E-01
        2   -1    0    0  501    0  0.00000000000E+00  0.00000000000E+00  0.25729882967E+04  0.25729882967E+04  0.25500000920E-02 0. -1.
       -2   -1    0    0    0  501  0.00000000000E+00  0.00000000000E+00 -0.47182539188E+03  0.47182539189E+03  0.25500000920E-02 0.  1.
    10030    2    1    2    0    0  0.00000000000E+00  0.00000000000E+00  0.21011629049E+04  0.30448136886E+04  0.22036344628E+04 0.  0.
        1    1    3    3  502    0 -0.14145888840E+03 -0.10819420629E+04  0.12619082334E+04  0.16682390818E+04  0.50400001928E-02 0. -1.
       -1    1    3    3    0  502  0.14145888840E+03  0.10819420629E+04  0.83925467148E+03  0.13765746068E+04  0.50400001928E-02 0.  1.
</event>
<event>
 5   0  0.1252124E-04  0.2140978E+04  0.7818609E-02  0.8543404E-01
       -2   -1    0    0    0  501  0.00000000000E+00  0.00000000000E+00  0.86890857567E+03  0.86890857567E+03  0.25500000920E-02 0.  1.
        2   -1    0    0  501    0  0.00000000000E+00  0.00000000000E+00 -0.13188344780E+04  0.13188344780E+04  0.25500000920E-02 0. -1.
    10030    2    1    2    0    0  0.00000000000E+00  0.00000000000E+00 -0.44992590232E+03  0.21877430537E+04  0.21409778960E+04 0.  0.
        3    1    3    3  502    0  0.15856328536E+03 -0.70759845047E+03  0.57970747575E+03  0.92838496876E+03  0.10100000352E+00 0.  1.
       -3    1    3    3    0  502 -0.15856328536E+03  0.70759845047E+03 -0.10296333781E+04  0.12593580849E+04  0.10100000352E+00 0. -1.
</event>
<event>
 5   0  0.1226021E-04  0.2186095E+04  0.7818609E-02  0.8524238E-01
        2   -1    0    0  501    0  0.00000000000E+00  0.00000000000E+00  0.11949401862E+04  0.11949401862E+04  0.25500000920E-02 0. -1.
       -2   -1    0    0    0  501  0.00000000000E+00  0.00000000000E+00 -0.99984313420E+03  0.99984313420E+03  0.25500000920E-02 0.  1.
    10030    2    1    2    0    0  0.00000000000E+00  0.00000000000E+00  0.19509705202E+03  0.21947833204E+04  0.21860949119E+04 0.  0.
        2    1    3    3  502    0 -0.38040169310E+03  0.49539319241E+02  0.11251363801E+04  0.11887352380E+04  0.25500000920E-02 0. -1.
       -2    1    3    3    0  502  0.38040169310E+03 -0.49539319241E+02 -0.93003932810E+03  0.10060480824E+04  0.25500000920E-02 0.  1.
</event>
<event>
 5   0  0.5895063E-05  0.2194397E+04  0.7818609E-02  0.8520764E-01
        1   -1    0    0  501    0  0.00000000000E+00  0.00000000000E+00  0.16213790208E+04  0.16213790208E+04  0.50400001928E-02 0.  1.
       -1   -1    0    0    0  501  0.00000000000E+00  0.00000000000E+00 -0.74248195666E+03  0.74248195667E+03  0.50400001928E-02 0. -1.
    10030    2    1    2    0    0  0.00000000000E+00  0.00000000000E+00  0.87889706418E+03  0.23638609775E+04  0.21943971089E+04 0.  0.
        5    1    3    3  502    0 -0.22966626479E+02  0.25455375602E+03 -0.70995558683E+03  0.75457544746E+03  0.46999998093E+01 0. -1.
       -5    1    3    3    0  502  0.22966626479E+02 -0.25455375602E+03  0.15888526510E+04  0.16092855301E+04  0.46999998093E+01 0.  1.
</event>
<event>
 5   0  0.1311472E-04  0.2185844E+04  0.7818609E-02  0.8524343E-01
       -2   -1    0    0    0  501  0.00000000000E+00  0.00000000000E+00  0.85399192425E+03  0.85399192425E+03  0.25500000920E-02 0.  1.
        2   -1    0    0  501    0  0.00000000000E+00  0.00000000000E+00 -0.13986996613E+04  0.13986996613E+04  0.25500000920E-02 0. -1.
    10030    2    1    2    0    0  0.00000000000E+00  0.00000000000E+00 -0.54470773709E+03  0.22526915856E+04  0.21858437412E+04 0.  0.
        4    1    3    3  502    0  0.41399990329E+03 -0.94455194325E+03  0.10051513132E+03  0.10361849246E+04  0.12699999809E+01 0. -1.
       -4    1    3    3    0  502 -0.41399990329E+03  0.94455194325E+03 -0.64522286841E+03  0.12165066610E+04  0.12699999809E+01 0.  1.
</event>
<event>
 5   0  0.6263558E-05  0.1540182E+04  0.7818609E-02  0.8858163E-01
       -1   -1    0    0    0  501  0.00000000000E+00  0.00000000000E+00  0.65186647806E+03  0.65186647808E+03  0.50400001928E-02 0.  1.
        1   -1    0    0  501    0  0.00000000000E+00  0.00000000000E+00 -0.90975729114E+03  0.90975729116E+03  0.50400001928E-02 0. -1.
    10030    2    1    2    0    0  0.00000000000E+00  0.00000000000E+00 -0.25789081308E+03  0.15616237692E+04  0.15401821727E+04 0.  0.
        3    1    3    3  502    0 -0.21073428307E+03 -0.48252092765E+03  0.44084317515E+03  0.68671544250E+03  0.10100000352E+00 0. -1.
       -3    1    3    3    0  502  0.21073428307E+03  0.48252092765E+03 -0.69873398823E+03  0.87490832674E+03  0.10100000352E+00 0.  1.
</event>
<event>
 5   0  0.5861816E-05  0.2186241E+04  0.7818609E-02  0.8524177E-01
        1   -1    0    0  501    0  0.00000000000E+00  0.00000000000E+00  0.13967208399E+04  0.13967208399E+04  0.50400001928E-02 0.  1.
       -1   -1    0    0    0  501  0.00000000000E+00  0.00000000000E+00 -0.85551277188E+03  0.85551277189E+03  0.50400001928E-02 0. -1.
    10030    2    1    2    0    0  0.00000000000E+00  0.00000000000E+00  0.54120806806E+03  0.22522336118E+04  0.21862410822E+04 0.  0.
        1    1    3    3  502    0  0.87165689949E+01  0.93540736740E+03 -0.31201985474E+03  0.98611323454E+03  0.50400001928E-02 0.  1.
       -1    1    3    3    0  502 -0.87165689949E+01 -0.93540736740E+03  0.85322792280E+03  0.12661203773E+04  0.50400001928E-02 0. -1.
</event>
<event>
 5   0  0.1252124E-04  0.2117557E+04  0.7818609E-02  0.8553549E-01
       -2   -1    0    0    0  501  0.00000000000E+00  0.00000000000E+00  0.11855595202E+04  0.11855595202E+04  0.25500000920E-02 0. -1.
        2   -1    0    0  501    0  0.00000000000E+00  0.00000000000E+00 -0.94555528894E+03  0.94555528894E+03  0.25500000920E-02 0.  1.
    10030    2    1    2    0    0  0.00000000000E+00  0.00000000000E+00  0.24000423127E+03  0.21311148091E+04  0.21175571536E+04 0.  0.
        3    1    3    3  502    0  0.23656761231E+03 -0.10160819114E+04  0.30178353353E+03  0.10860294642E+04  0.10100000352E+00 0.  1.
       -3    1    3    3    0  502 -0.23656761231E+03  0.10160819114E+04 -0.61779302266E+02  0.10450853449E+04  0.10100000352E+00 0. -1.
</event>
<event>
 5   0  0.4586375E-05  0.2184472E+04  0.7818609E-02  0.8524919E-01
        3   -1    0    0  501    0  0.00000000000E+00  0.00000000000E+00  0.14907009544E+04  0.14907009579E+04  0.10100000352E+00 0.  1.
       -3   -1    0    0    0  501  0.00000000000E+00  0.00000000000E+00 -0.80028067631E+03  0.80028068268E+03  0.10100000352E+00 0. -1.
    10030    2    1    2    0    0  0.00000000000E+00  0.00000000000E+00  0.69042027812E+03  0.22909816405E+04  0.21844717249E+04 0.  0.
        4    1    3    3  502    0 -0.47207698099E+03  0.70689867186E+03  0.10645197032E+04  0.13622651063E+04  0.12699999809E+01 0.  1.
       -4    1    3    3    0  502  0.47207698099E+03 -0.70689867186E+03 -0.37409942511E+03  0.92871653427E+03  0.12699999809E+01 0. -1.
</event>
<event>
 5   0  0.6263558E-05  0.2209849E+04  0.7818609E-02  0.8514340E-01
        1   -1    0    0  501    0  0.00000000000E+00  0.00000000000E+00  0.14638859432E+04  0.14638859432E+04  0.50400001928E-02 0.  1.
       -1   -1    0    0    0  501  0.00000000000E+00  0.00000000000E+00 -0.83398421639E+03  0.83398421640E+03  0.50400001928E-02 0. -1.
    10030    2    1    2    0    0  0.00000000000E+00  0.00000000000E+00  0.62990172677E+03  0.22978701596E+04  0.22098486565E+04 0.  0.
        3    1    3    3  502    0 -0.90454891882E+03  0.23131248635E+03 -0.29946859938E+03  0.98050786080E+03  0.10100000352E+00 0. -1.
       -3    1    3    3    0  502  0.90454891882E+03 -0.23131248635E+03  0.92937032614E+03  0.13173622988E+04  0.10100000352E+00 0.  1.
</event>
<event>
 5   0  0.5981239E-05  0.2181062E+04  0.7818609E-02  0.8526352E-01
       -1   -1    0    0    0  501  0.00000000000E+00  0.00000000000E+00  0.89718551321E+03  0.89718551322E+03  0.50400001928E-02 0. -1.
        1   -1    0    0  501    0  0.00000000000E+00  0.00000000000E+00 -0.13255430391E+04  0.13255430392E+04  0.50400001928E-02 0.  1.
    10030    2    1    2    0    0  0.00000000000E+00  0.00000000000E+00 -0.42835752594E+03  0.22227285524E+04  0.21810621375E+04 0.  0.
        4    1    3    3  502    0 -0.68114020344E+02 -0.34312790055E+03 -0.12668098740E+04  0.13142241612E+04  0.12699999809E+01 0.  1.
       -4    1    3    3    0  502  0.68114020344E+02  0.34312790055E+03  0.83845234811E+03  0.90850439121E+03  0.12699999809E+01 0. -1.
</event>
<event>
 5   0  0.5895063E-05  0.1703643E+04  0.7818609E-02  0.8759289E-01
        1   -1    0    0  501    0  0.00000000000E+00  0.00000000000E+00  0.13268712140E+04  0.13268712140E+04  0.50400001928E-02 0.  1.
       -1   -1    0    0    0  501  0.00000000000E+00  0.00000000000E+00 -0.54685013233E+03  0.54685013235E+03  0.50400001928E-02 0. -1.
    10030    2    1    2    0    0  0.00000000000E+00  0.00000000000E+00  0.78002108169E+03  0.18737213464E+04  0.17036428018E+04 0.  0.
        5    1    3    3  502    0 -0.45529605562E+03 -0.70131381279E+03  0.21116669677E+03  0.86240885090E+03  0.46999998093E+01 0. -1.
       -5    1    3    3    0  502  0.45529605562E+03  0.70131381279E+03  0.56885438492E+03  0.10113124955E+04  0.46999998093E+01 0.  1.
</event>
<event>
 5   0  0.5981239E-05  0.1927024E+04  0.7818609E-02  0.8641521E-01
       -1   -1    0    0    0  501  0.00000000000E+00  0.00000000000E+00  0.72664530687E+03  0.72664530689E+03  0.50400001928E-02 0. -1.
        1   -1    0    0  501    0  0.00000000000E+00  0.00000000000E+00 -0.12775906880E+04  0.12775906880E+04  0.50400001928E-02 0.  1.
    10030    2    1    2    0    0  0.00000000000E+00  0.00000000000E+00 -0.55094538112E+03  0.20042359949E+04  0.19270238998E+04 0.  0.
        4    1    3    3  502    0 -0.31877610518E+03 -0.55768292350E+03 -0.10223872754E+04  0.12074377011E+04  0.12699999809E+01 0.  1.
       -4    1    3    3    0  502  0.31877610518E+03  0.55768292350E+03  0.47144189424E+03  0.79679829376E+03  0.12699999809E+01 0. -1.
</event>
<event>
 5   0  0.1241430E-04  0.2171983E+04  0.7818609E-02  0.8530181E-01
        2   -1    0    0  501    0  0.00000000000E+00  0.00000000000E+00  0.13512822873E+04  0.13512822873E+04  0.25500000920E-02 0.  1.
       -2   -1    0    0    0  501  0.00000000000E+00  0.00000000000E+00 -0.87278372073E+03  0.87278372074E+03  0.25500000920E-02 0. -1.
    10030    2    1    2    0    0  0.00000000000E+00  0.00000000000E+00  0.47849856658E+03  0.22240660081E+04  0.21719826726E+04 0.  0.
        1    1    3    3  502    0  0.76816197789E+02 -0.75645832808E+03  0.10332444679E+04  0.12828577711E+04  0.50400001928E-02 0.  1.
       -1    1    3    3    0  502 -0.76816197789E+02  0.75645832808E+03 -0.55474590128E+03  0.94120823699E+03  0.50400001928E-02 0. -1.
</event>
<event>
 5   0  0.5981239E-05  0.2211926E+04  0.7818609E-02  0.8513481E-01
       -1   -1    0    0    0  501  0.00000000000E+00  0.00000000000E+00  0.11188745933E+04  0.11188745933E+04  0.50400001928E-02 0.  1.
        1   -1    0    0  501    0  0.00000000000E+00  0.00000000000E+00 -0.10932000353E+04  0.10932000353E+04  0.50400001928E-02 0. -1.
    10030    2    1    2    0    0  0.00000000000E+00  0.00000000000E+00  0.25674557934E+02  0.22120746286E+04  0.22119256270E+04 0.  0.
        4    1    3    3  502    0 -0.84945915249E+03  0.62406908621E+03  0.34768673822E+03  0.11099237618E+04  0.12699999809E+01 0.  1.
       -4    1    3    3    0  502  0.84945915249E+03 -0.62406908621E+03 -0.32201218029E+03  0.11021508668E+04  0.12699999809E+01 0. -1.
</event>
<event>
 5   0  0.1252124E-04  0.2181140E+04  0.7818609E-02  0.8526319E-01
        2   -1    0    0  501    0  0.00000000000E+00  0.00000000000E+00  0.19344287185E+04  0.19344287185E+04  0.25500000920E-02 0. -1.
       -2   -1    0    0    0  501  0.00000000000E+00  0.00000000000E+00 -0.61482910984E+03  0.61482910984E+03  0.25500000920E-02 0.  1.
    10030    2    1    2    0    0  0.00000000000E+00  0.00000000000E+00  0.13195996087E+04  0.25492578284E+04  0.21811401487E+04 0.  0.
        3    1    3    3  502    0 -0.53253697152E+03  0.30345103699E+03 -0.39447295590E+03  0.72889442378E+03  0.10100000352E+00 0.  1.
       -3    1    3    3    0  502  0.53253697152E+03 -0.30345103699E+03  0.17140725646E+04  0.18203634046E+04  0.10100000352E+00 0. -1.
</event>
<event>
 5   0  0.1311472E-04  0.2113404E+04  0.7818609E-02  0.8555362E-01
       -2   -1    0    0    0  501  0.00000000000E+00  0.00000000000E+00  0.90026174279E+03  0.90026174279E+03  0.25500000920E-02 0.  1.
        2   -1    0    0  501    0  0.00000000000E+00  0.00000000000E+00 -0.12403270319E+04  0.12403270319E+04  0.25500000920E-02 0. -1.
    10030    2    1    2    0    0  0.00000000000E+00  0.00000000000E+00 -0.34006528908E+03  0.21405887747E+04  0.21134038661E+04 0.  0.
        4    1    3    3  502    0  0.70856824563E+03 -0.15310630258E+03 -0.94875698082E+03  0.11940066667E+04  0.12699999809E+01 0. -1.
       -4    1    3    3    0  502 -0.70856824563E+03  0.15310630258E+03  0.60869169174E+03  0.94658210795E+03  0.12699999809E+01 0.  1.
</event>
<event>
 5   0  0.5981239E-05  0.2206569E+04  0.7818609E-02  0.8515699E-01
       -1   -1    0    0    0  501  0.00000000000E+00  0.00000000000E+00  0.90271217009E+03  0.90271217011E+03  0.50400001928E-02 0.  1.
        1   -1    0    0  501    0  0.00000000000E+00  0.00000000000E+00 -0.13484212053E+04  0.13484212053E+04  0.50400001928E-02 0. -1.
    10030    2    1    2    0    0  0.00000000000E+00  0.00000000000E+00 -0.44570903518E+03  0.22511333754E+04  0.22065685871E+04 0.  0.
        4    1    3    3  502    0  0.13931995054E+03 -0.67293927734E+03  0.65769810617E+03  0.95122328155E+03  0.12699999809E+01 0.  1.
       -4    1    3    3    0  502 -0.13931995054E+03  0.67293927734E+03 -0.11034071413E+04  0.12999100938E+04  0.12699999809E+01 0. -1.
</event>
<event>
 5   0  0.5861816E-05  0.2096394E+04  0.7818609E-02  0.8562834E-01
       -1   -1    0    0    0  501  0.00000000000E+00  0.00000000000E+00  0.80728665071E+03  0.80728665073E+03  0.50400001928E-02 0. -1.
        1   -1    0    0  501    0  0.00000000000E+00  0.00000000000E+00 -0.13609995204E+04  0.13609995204E+04  0.50400001928E-02 0.  1.
    10030    2    1    2    0    0  0.00000000000E+00  0.00000000000E+00 -0.55371286967E+03  0.21682861711E+04  0.20963938031E+04 0.  0.
        1    1    3    3  502    0 -0.28397829811E+03 -0.40964465332E+03  0.67686317491E+03  0.84059275119E+03  0.50400001928E-02 0. -1.
       -1    1    3    3    0  502  0.28397829811E+03  0.40964465332E+03 -0.12305760446E+04  0.13276934199E+04  0.50400001928E-02 0.  1.
</event>
<event>
 5   0  0.1226021E-04  0.2146260E+04  0.7818609E-02  0.8541135E-01
        2   -1    0    0  501    0  0.00000000000E+00  0.00000000000E+00  0.13942100358E+04  0.13942100358E+04  0.25500000920E-02 0.  1.
       -2   -1    0    0    0  501  0.00000000000E+00  0.00000000000E+00 -0.82599330650E+03  0.82599330651E+03  0.25500000920E-02 0. -1.
    10030    2    1    2    0    0  0.00000000000E+00  0.00000000000E+00  0.56821672933E+03  0.22202033423E+04  0.21462601496E+04 0.  0.
        2    1    3    3  502    0 -0.68376014876E+01  0.34762841683E+03  0.13343273755E+04  0.13788842642E+04  0.25500000920E-02 0.  1.
       -2    1    3    3    0  502  0.68376014876E+01 -0.34762841683E+03 -0.76611064621E+03  0.84131907813E+03  0.25500000920E-02 0. -1.
</event>
<event>
 5   0  0.1252124E-04  0.1462817E+04  0.7818609E-02  0.8909563E-01
       -2   -1    0    0    0  501  0.00000000000E+00  0.00000000000E+00  0.32289984071E+03  0.32289984072E+03  0.25500000920E-02 0.  1.
        2   -1    0    0  501    0  0.00000000000E+00  0.00000000000E+00 -0.16567315110E+04  0.16567315110E+04  0.25500000920E-02 0. -1.
    10030    2    1    2    0    0  0.00000000000E+00  0.00000000000E+00 -0.13338316703E+04  0.19796313518E+04  0.14628169278E+04 0.  0.
        3    1    3    3  502    0 -0.56352601575E+03 -0.18430357099E+03 -0.87315950025E+02  0.59929413649E+03  0.10100000352E+00 0.  1.
       -3    1    3    3    0  502  0.56352601575E+03  0.18430357099E+03 -0.12465157203E+04  0.13803372153E+04  0.10100000352E+00 0. -1.
</event>
<event>
 5   0  0.5981239E-05  0.2222319E+04  0.7818609E-02  0.8509195E-01
        1   -1    0    0  501    0  0.00000000000E+00  0.00000000000E+00  0.96218017048E+03  0.96218017049E+03  0.50400001928E-02 0. -1.
       -1   -1    0    0    0  501  0.00000000000E+00  0.00000000000E+00 -0.12832066465E+04  0.12832066465E+04  0.50400001928E-02 0.  1.
    10030    2    1    2    0    0  0.00000000000E+00  0.00000000000E+00 -0.32102647604E+03  0.22453868170E+04  0.22223194999E+04 0.  0.
        4    1    3    3  502    0  0.10799985048E+04  0.18391089749E+03 -0.34805886592E+03  0.11495071012E+04  0.12699999809E+01 0. -1.
       -4    1    3    3    0  502 -0.10799985048E+04 -0.18391089749E+03  0.27032389881E+02  0.10958797158E+04  0.12699999809E+01 0.  1.
</event>
<event>
 5   0  0.5849604E-05  0.2193466E+04  0.7818609E-02  0.8521153E-01
        1   -1    0    0  501    0  0.00000000000E+00  0.00000000000E+00  0.71507811290E+03  0.71507811292E+03  0.50400001928E-02 0. -1.
       -1   -1    0    0    0  501  0.00000000000E+00  0.00000000000E+00 -0.16820866721E+04  0.16820866721E+04  0.50400001928E-02 0.  1.
    10030    2    1    2    0    0  0.00000000000E+00  0.00000000000E+00 -0.96700855915E+03  0.23971647850E+04  0.21934660820E+04 0.  0.
        2    1    3    3  502    0 -0.38361709334E+03 -0.98472678507E+03 -0.16306063451E+03  0.10693164574E+04  0.25500000920E-02 0. -1.
       -2    1    3    3    0  502  0.38361709334E+03  0.98472678507E+03 -0.80394792463E+03  0.13278483276E+04  0.25500000920E-02 0.  1.
</event>
<event>
 5   0  0.5861816E-05  0.2196360E+04  0.7818609E-02  0.8519945E-01
        1   -1    0    0  501    0  0.00000000000E+00  0.00000000000E+00  0.61687641641E+03  0.61687641643E+03  0.50400001928E-02 0.  1.
       -1   -1    0    0    0  501  0.00000000000E+00  0.00000000000E+00 -0.19550089086E+04  0.19550089086E+04  0.50400001928E-02 0. -1.
    10030    2    1    2    0    0  0.00000000000E+00  0.00000000000E+00 -0.13381324922E+04  0.25718853250E+04  0.21963596150E+04 0.  0.
        1    1    3    3  502    0  0.94602705469E+02 -0.97758732365E+03 -0.93769638227E+02  0.98662018646E+03  0.50400001928E-02 0. -1.
       -1    1    3    3    0  502 -0.94602705469E+02  0.97758732365E+03 -0.12443628539E+04  0.15852651386E+04  0.50400001928E-02 0.  1.
</event>
<event>
 5   0  0.1226021E-04  0.2169697E+04  0.7818609E-02  0.8531148E-01
        2   -1    0    0  501    0  0.00000000000E+00  0.00000000000E+00  0.21041497019E+04  0.21041497019E+04  0.25500000920E-02 0.  1.
       -2   -1    0    0    0  501  0.00000000000E+00  0.00000000000E+00 -0.55932174925E+03  0.55932174925E+03  0.25500000920E-02 0. -1.
    10030    2    1    2    0    0  0.00000000000E+00  0.00000000000E+00  0.15448279527E+04  0.26634714512E+04  0.21696973908E+04 0.  0.
        2    1    3    3  502    0 -0.70632186875E+03  0.59890593039E+03  0.78731951308E+02  0.92939637178E+03  0.25500000920E-02 0.  1.
       -2    1    3    3    0  502  0.70632186875E+03 -0.59890593039E+03  0.14660960014E+04  0.17340750794E+04  0.25500000920E-02 0. -1.
</event>
<event>
 5   0  0.5895063E-05  0.2197470E+04  0.7818609E-02  0.8519482E-01
       -1   -1    0    0    0  501  0.00000000000E+00  0.00000000000E+00  0.11145266679E+04  0.11145266679E+04  0.50400001928E-02 0. -1.
        1   -1    0    0  501    0  0.00000000000E+00  0.00000000000E+00 -0.10831673156E+04  0.10831673156E+04  0.50400001928E-02 0.  1.
    10030    2    1    2    0    0  0.00000000000E+00  0.00000000000E+00  0.31359352272E+02  0.21976939836E+04  0.21974702356E+04 0.  0.
        5    1    3    3  502    0  0.47404168539E+02  0.10970252632E+04  0.54221708373E+02  0.10993969560E+04  0.46999998093E+01 0.  1.
       -5    1    3    3    0  502 -0.47404168539E+02 -0.10970252632E+04 -0.22862356101E+02  0.10982970275E+04  0.46999998093E+01 0. -1.
</event>
<event>
 5   0  0.6263558E-05  0.2180268E+04  0.7818609E-02  0.8526686E-01
        1   -1    0    0  501    0  0.00000000000E+00  0.00000000000E+00  0.13469388365E+04  0.13469388366E+04  0.50400001928E-02 0.  1.
       -1   -1    0    0    0  501  0.00000000000E+00  0.00000000000E+00 -0.88229105783E+03  0.88229105785E+03  0.50400001928E-02 0. -1.
    10030    2    1    2    0    0  0.00000000000E+00  0.00000000000E+00  0.46464777871E+03  0.22292298944E+04  0.21802679569E+04 0.  0.
        3    1    3    3  502    0 -0.43969109235E+03 -0.28879458738E+03 -0.74392779489E+03  0.91113069567E+03  0.10100000352E+00 0. -1.
       -3    1    3    3    0  502  0.43969109235E+03  0.28879458738E+03  0.12085755736E+04  0.13180991987E+04  0.10100000352E+00 0.  1.
</event>
<event>
 5   0  0.1252124E-04  0.2153710E+04  0.7818609E-02  0.8537946E-01
        2   -1    0    0  501    0  0.00000000000E+00  0.00000000000E+00  0.16496137839E+04  0.16496137839E+04  0.25500000920E-02 0.  1.
       -2   -1    0    0    0  501  0.00000000000E+00  0.00000000000E+00 -0.70296277884E+03  0.70296277884E+03  0.25500000920E-02 0. -1.
    10030    2    1    2    0    0  0.00000000000E+00  0.00000000000E+00  0.94665100510E+03  0.23525765628E+04  0.21537103701E+04 0.  0.
        3    1    3    3  502    0  0.61568836281E+03  0.59132331361E+03  0.11903524382E+04  0.14648120557E+04  0.10100000352E+00 0.  1.
       -3    1    3    3    0  502 -0.61568836281E+03 -0.59132331361E+03 -0.24370143307E+03  0.88776450707E+03  0.10100000352E+00 0. -1.
</event>
<event>
 5   0  0.1252124E-04  0.2144421E+04  0.7818609E-02  0.8541924E-01
       -2   -1    0    0    0  501  0.00000000000E+00  0.00000000000E+00  0.62035409549E+03  0.62035409550E+03  0.25500000920E-02 0. -1.
        2   -1    0    0  501    0  0.00000000000E+00  0.00000000000E+00 -0.18531928884E+04  0.18531928884E+04  0.25500000920E-02 0.  1.
    10030    2    1    2    0    0  0.00000000000E+00  0.00000000000E+00 -0.12328387929E+04  0.24735469839E+04  0.21444214120E+04 0.  0.
        3    1    3    3  502    0 -0.95457632827E+03  0.22116220326E+03 -0.11428176091E+03  0.98650343017E+03  0.10100000352E+00 0. -1.
       -3    1    3    3    0  502  0.95457632827E+03 -0.22116220326E+03 -0.11185570319E+04  0.14870435537E+04  0.10100000352E+00 0.  1.
</event>
<event>
 5   0  0.5861816E-05  0.2246943E+04  0.7818609E-02  0.8499140E-01
        1   -1    0    0  501    0  0.00000000000E+00  0.00000000000E+00  0.38975832829E+03  0.38975832832E+03  0.50400001928E-02 0. -1.
       -1   -1    0    0    0  501  0.00000000000E+00  0.00000000000E+00 -0.32383859446E+04  0.32383859446E+04  0.50400001928E-02 0.  1.
    10030    2    1    2    0    0  0.00000000000E+00  0.00000000000E+00 -0.28486276163E+04  0.36281442729E+04  0.22469427159E+04 0.  0.
        1    1    3    3  502    0  0.55059115444E+03  0.97687546715E+03 -0.15356181826E+04  0.19014624635E+04  0.50400001928E-02 0.  1.
       -1    1    3    3    0  502 -0.55059115444E+03 -0.97687546715E+03 -0.13130094338E+04  0.17266818094E+04  0.50400001928E-02 0. -1.
</event>
<event>
 5   0  0.1241430E-04  0.2177993E+04  0.7818609E-02  0.8527644E-01
       -2   -1    0    0    0  501  0.00000000000E+00  0.00000000000E+00  0.13708533729E+04  0.13708533729E+04  0.25500000920E-02 0.  1.
        2   -1    0    0  501    0  0.00000000000E+00  0.00000000000E+00 -0.86509132699E+03  0.86509132700E+03  0.25500000920E-02 0. -1.
    10030    2    1    2    0    0  0.00000000000E+00  0.00000000000E+00  0.50576204590E+03  0.22359446999E+04  0.21779929876E+04 0.  0.
        1    1    3    3  502    0  0.65729242017E+03 -0.86003950291E+03  0.13049450605E+03  0.10902889930E+04  0.50400001928E-02 0. -1.
       -1    1    3    3    0  502 -0.65729242017E+03  0.86003950291E+03  0.37526753986E+03  0.11456557069E+04  0.50400001928E-02 0.  1.
</event>
<event>
 5   0  0.5849604E-05  0.2166228E+04  0.7818609E-02  0.8532617E-01
        1   -1    0    0  501    0  0.00000000000E+00  0.00000000000E+00  0.14817773849E+04  0.14817773849E+04  0.50400001928E-02 0. -1.
       -1   -1    0    0    0  501  0.00000000000E+00  0.00000000000E+00 -0.79170895586E+03  0.79170895588E+03  0.50400001928E-02 0.  1.
    10030    2    1    2    0    0  0.00000000000E+00  0.00000000000E+00  0.69006842903E+03  0.22734863408E+04  0.21662284517E+04 0.  0.
        2    1    3    3  502    0  0.29730585578E+02 -0.45463588951E+03  0.13763162207E+04  0.14497668913E+04  0.25500000920E-02 0. -1.
       -2    1    3    3    0  502 -0.29730585578E+02  0.45463588951E+03 -0.68624779171E+03  0.82371944944E+03  0.25500000920E-02 0.  1.
</event>
<event>
 5   0  0.5861816E-05  0.2219543E+04  0.7818609E-02  0.8510338E-01
        1   -1    0    0  501    0  0.00000000000E+00  0.00000000000E+00  0.23185134072E+04  0.23185134072E+04  0.50400001928E-02 0.  1.
       -1   -1    0    0    0  501  0.00000000000E+00  0.00000000000E+00 -0.53119952420E+03  0.53119952422E+03  0.50400001928E-02 0. -1.
    10030    2    1    2    0    0  0.00000000000E+00  0.00000000000E+00  0.17873138830E+04  0.28497129314E+04  0.22195433934E+04 0.  0.
        1    1    3    3  502    0 -0.10219546605E+04 -0.25757039726E+03  0.13400091170E+04  0.17048044672E+04  0.50400001928E-02 0.  1.
       -1    1    3    3    0  502  0.10219546605E+04  0.25757039726E+03  0.44730476598E+03  0.11449084642E+04  0.50400001928E-02 0. -1.
</event>
<event>
 5   0  0.1404159E-04  0.1814552E+04  0.7818609E-02  0.8698599E-01
        2   -1    0    0  501    0  0.00000000000E+00  0.00000000000E+00  0.14342163848E+04  0.14342163848E+04  0.25500000920E-02 0.  1.
       -2   -1    0    0    0  501  0.00000000000E+00  0.00000000000E+00 -0.57393720339E+03  0.57393720339E+03  0.25500000920E-02 0. -1.
    10030    2    1    2    0    0  0.00000000000E+00  0.00000000000E+00  0.86027918145E+03  0.20081535882E+04  0.18145524418E+04 0.  0.
        5    1    3    3  502    0 -0.11572760156E+03 -0.72828761682E+03 -0.15476899459E+03  0.75350598024E+03  0.46999998093E+01 0. -1.
       -5    1    3    3    0  502  0.11572760156E+03  0.72828761682E+03  0.10150481760E+04  0.12546476080E+04  0.46999998093E+01 0.  1.
</event>
<event>
 5   0  0.1241430E-04  0.1541774E+04  0.7818609E-02  0.8857139E-01
       -2   -1    0    0    0  501  0.00000000000E+00  0.00000000000E+00  0.23963894755E+03  0.23963894756E+03  0.25500000920E-02 0.  1.
        2   -1    0    0  501    0  0.00000000000E+00  0.00000000000E+00 -0.24798419748E+04  0.24798419748E+04  0.25500000920E-02 0. -1.
    10030    2    1    2    0    0  0.00000000000E+00  0.00000000000E+00 -0.22402030272E+04  0.27194809223E+04  0.15417739405E+04 0.  0.
        1    1    3    3  502    0  0.45449914320E+02  0.11960105263E+03  0.22077996122E+03  0.25517424988E+03  0.50400001928E-02 0.  1.
       -1    1    3    3    0  502 -0.45449914320E+02 -0.11960105263E+03 -0.24609829884E+04  0.24643066724E+04  0.50400001928E-02 0. -1.
</event>
<event>
 5   0  0.5849604E-05  0.2244750E+04  0.7818609E-02  0.8500030E-01
        1   -1    0    0  501    0  0.00000000000E+00  0.00000000000E+00  0.67201669551E+03  0.67201669553E+03  0.50400001928E-02 0. -1.
       -1   -1    0    0    0  501  0.00000000000E+00  0.00000000000E+00 -0.18745452616E+04  0.18745452616E+04  0.50400001928E-02 0.  1.
    10030    2    1    2    0    0  0.00000000000E+00  0.00000000000E+00 -0.12025285661E+04  0.25465619571E+04  0.22447500639E+04 0.  0.
        2    1    3    3  502    0  0.46057928666E+03 -0.92083191927E+02  0.55516123990E+03  0.72719776941E+03  0.25500000920E-02 0. -1.
       -2    1    3    3    0  502 -0.46057928666E+03  0.92083191927E+02 -0.17576898060E+04  0.18193641877E+04  0.25500000920E-02 0.  1.
</event>
<event>
 5   0  0.5849604E-05  0.2214118E+04  0.7818609E-02  0.8512575E-01
        1   -1    0    0  501    0  0.00000000000E+00  0.00000000000E+00  0.25333451002E+04  0.25333451002E+04  0.50400001928E-02 0. -1.
       -1   -1    0    0    0  501  0.00000000000E+00  0.00000000000E+00 -0.48377909672E+03  0.48377909674E+03  0.50400001928E-02 0.  1.
    10030    2    1    2    0    0  0.00000000000E+00  0.00000000000E+00  0.20495660034E+04  0.30171241969E+04  0.22141177966E+04 0.  0.
        2    1    3    3  502    0  0.68845857474E+03  0.53923202191E+03  0.99735017917E+02  0.88016672079E+03  0.25500000920E-02 0.  1.
       -2    1    3    3    0  502 -0.68845857474E+03 -0.53923202191E+03  0.19498309855E+04  0.21369574761E+04  0.25500000920E-02 0. -1.
</event>
<event>
 5   0  0.1226021E-04  0.2269126E+04  0.7818609E-02  0.8490195E-01
       -2   -1    0    0    0  501  0.00000000000E+00  0.00000000000E+00  0.92388462984E+03  0.92388462984E+03  0.25500000920E-02 0.  1.
        2   -1    0    0  501    0  0.00000000000E+00  0.00000000000E+00 -0.13932837395E+04  0.13932837395E+04  0.25500000920E-02 0. -1.
    10030    2    1    2    0    0  0.00000000000E+00  0.00000000000E+00 -0.46939910970E+03  0.23171683694E+04  0.22691262036E+04 0.  0.
        2    1    3    3  502    0  0.78821238271E+03 -0.53225386032E+03  0.39699299917E+03  0.10306194125E+04  0.25500000920E-02 0.  1.
       -2    1    3    3    0  502 -0.78821238271E+03  0.53225386032E+03 -0.86639210887E+03  0.12865489569E+04  0.25500000920E-02 0. -1.
</event>
<event>
 5   0  0.6263558E-05  0.2233975E+04  0.7818609E-02  0.8504418E-01
        1   -1    0    0  501    0  0.00000000000E+00  0.00000000000E+00  0.11090476547E+04  0.11090476547E+04  0.50400001928E-02 0.  1.
       -1   -1    0    0    0  501  0.00000000000E+00  0.00000000000E+00 -0.11249845613E+04  0.11249845613E+04  0.50400001928E-02 0. -1.
    10030    2    1    2    0    0  0.00000000000E+00  0.00000000000E+00 -0.15936906562E+02  0.22340322161E+04  0.22339753708E+04 0.  0.
        3    1    3    3  502    0 -0.98182938224E+03  0.33865790865E+03  0.40311786875E+03  0.11140835432E+04  0.10100000352E+00 0.  1.
       -3    1    3    3    0  502  0.98182938224E+03 -0.33865790865E+03 -0.41905477531E+03  0.11199486729E+04  0.10100000352E+00 0. -1.
</event>
<event>
 5   0  0.1404159E-04  0.2271380E+04  0.7818609E-02  0.8489292E-01
       -2   -1    0    0    0  501  0.00000000000E+00  0.00000000000E+00  0.68334304161E+03  0.68334304161E+03  0.25500000920E-02 0.  1.
        2   -1    0    0  501    0  0.00000000000E+00  0.00000000000E+00 -0.18874741074E+04  0.18874741074E+04  0.25500000920E-02 0. -1.
    10030    2    1    2    0    0  0.00000000000E+00  0.00000000000E+00 -0.12041310657E+04  0.25708171490E+04  0.22713804591E+04 0.  0.
        5    1    3    3  502    0 -0.27300619371E+03  0.16048821408E+02  0.64550731502E+03  0.70106471186E+03  0.46999998093E+01 0.  1.
       -5    1    3    3    0  502  0.27300619371E+03 -0.16048821408E+02 -0.18496383808E+04  0.18697524371E+04  0.46999998093E+01 0. -1.
</event>
<event>
 5   0  0.6263558E-05  0.2185466E+04  0.7818609E-02  0.8524502E-01
        1   -1    0    0  501    0  0.00000000000E+00  0.00000000000E+00  0.19663841467E+04  0.19663841467E+04  0.50400001928E-02 0.  1.
       -1   -1    0    0    0  501  0.00000000000E+00  0.00000000000E+00 -0.60723929896E+03  0.60723929898E+03  0.50400001928E-02 0. -1.
    10030    2    1    2    0    0  0.00000000000E+00  0.00000000000E+00  0.13591448477E+04  0.25736234457E+04  0.21854662942E+04 0.  0.
        3    1    3    3  502    0  0.10322173993E+04  0.12261051974E+03  0.10764100652E+04  0.14963838871E+04  0.10100000352E+00 0. -1.
       -3    1    3    3    0  502 -0.10322173993E+04 -0.12261051974E+03  0.28273478257E+03  0.10772395586E+04  0.10100000352E+00 0.  1.
</event>
<event>
 5   0  0.1226021E-04  0.2224823E+04  0.7818609E-02  0.8508167E-01
        2   -1    0    0  501    0  0.00000000000E+00  0.00000000000E+00  0.27470658601E+04  0.27470658601E+04  0.25500000920E-02 0.  1.
       -2   -1    0    0    0  501  0.00000000000E+00  0.00000000000E+00 -0.45046597260E+03  0.45046597260E+03  0.25500000920E-02 0. -1.
    10030    2    1    2    0    0  0.00000000000E+00  0.00000000000E+00  0.22965998875E+04  0.31975318327E+04  0.22248233138E+04 0.  0.
        2    1    3    3  502    0  0.72399838428E+03  0.69043594080E+03  0.44924347228E+03  0.10966745854E+04  0.25500000920E-02 0. -1.
       -2    1    3    3    0  502 -0.72399838428E+03 -0.69043594080E+03  0.18473564152E+04  0.21008572473E+04  0.25500000920E-02 0.  1.
</event>
<event>
 5   0  0.1226021E-04  0.2188215E+04  0.7818609E-02  0.8523350E-01
        2   -1    0    0  501    0  0.00000000000E+00  0.00000000000E+00  0.20040733260E+04  0.20040733260E+04  0.25500000920E-02 0.  1.
       -2   -1    0    0    0  501  0.00000000000E+00  0.00000000000E+00 -0.59731885055E+03  0.59731885055E+03  0.25500000920E-02 0. -1.
    10030    2    1    2    0    0  0.00000000000E+00  0.00000000000E+00  0.14067544755E+04  0.26013921766E+04  0.21882145923E+04 0.  0.
        2    1    3    3  502    0  0.85257469384E+03  0.67431707969E+03  0.55544851947E+03  0.12207006965E+04  0.25500000920E-02 0.  1.
       -2    1    3    3    0  502 -0.85257469384E+03 -0.67431707969E+03  0.85130595601E+03  0.13806914801E+04  0.25500000920E-02 0. -1.
</event>
<event>
 5   0  0.5861816E-05  0.2187340E+04  0.7818609E-02  0.8523716E-01
        1   -1    0    0  501    0  0.00000000000E+00  0.00000000000E+00  0.19655008465E+04  0.19655008465E+04  0.50400001928E-02 0.  1.
       -1   -1    0    0    0  501  0.00000000000E+00  0.00000000000E+00 -0.60855459856E+03  0.60855459858E+03  0.50400001928E-02 0. -1.
    10030    2    1    2    0    0  0.00000000000E+00  0.00000000000E+00  0.13569462479E+04  0.25740554450E+04  0.21873404661E+04 0.  0.
        1    1    3    3  502    0  0.32691067701E+02 -0.10040348260E+04  0.11873067347E+04  0.15552658680E+04  0.50400001928E-02 0. -1.
       -1    1    3    3    0  502 -0.32691067701E+02  0.10040348260E+04  0.16963951315E+03  0.10187895770E+04  0.50400001928E-02 0.  1.
</event>
<event>
 5   0  0.1252124E-04  0.2162842E+04  0.7818609E-02  0.8534055E-01
        2   -1    0    0  501    0  0.00000000000E+00  0.00000000000E+00  0.76327475021E+03  0.76327475021E+03  0.25500000920E-02 0.  1.
       -2   -1    0    0    0  501  0.00000000000E+00  0.00000000000E+00 -0.15321755423E+04  0.15321755423E+04  0.25500000920E-02 0. -1.
    10030    2    1    2    0    0  0.00000000000E+00  0.00000000000E+00 -0.76890079210E+03  0.22954502925E+04  0.21628415609E+04 0.  0.
        3    1    3    3  502    0  0.42283406827E+03 -0.60020977681E+03 -0.12271286438E+04  0.14299948056E+04  0.10100000352E+00 0. -1.
       -3    1    3    3    0  502 -0.42283406827E+03  0.60020977681E+03  0.45822785173E+03  0.86545548688E+03  0.10100000352E+00 0.  1.
</event>
<event>
 5   0  0.1226021E-04  0.2212972E+04  0.7818609E-02  0.8513048E-01
       -2   -1    0    0    0  501  0.00000000000E+00  0.00000000000E+00  0.19132347694E+04  0.19132347694E+04  0.25500000920E-02 0. -1.
        2   -1    0    0  501    0  0.00000000000E+00  0.00000000000E+00 -0.63991663775E+03  0.63991663776E+03  0.25500000920E-02 0.  1.
    10030    2    1    2    0    0  0.00000000000E+00  0.00000000000E+00  0.12733181317E+04  0.25531514072E+04  0.22129715415E+04 0.  0.
        2    1    3    3  502    0  0.18735008715E+03 -0.89852012863E+03  0.13496102761E+04  0.16321416526E+04  0.25500000920E-02 0. -1.
       -2    1    3    3    0  502 -0.18735008715E+03  0.89852012863E+03 -0.76292144462E+02  0.92100975458E+03  0.25500000920E-02 0.  1.
</event>
<event>
 5   0  0.6263558E-05  0.2296976E+04  0.7818609E-02  0.8479115E-01
       -1   -1    0    0    0  501  0.00000000000E+00  0.00000000000E+00  0.92074674672E+03  0.92074674674E+03  0.50400001928E-02 0. -1.
        1   -1    0    0  501    0  0.00000000000E+00  0.00000000000E+00 -0.14325591513E+04  0.14325591513E+04  0.50400001928E-02 0.  1.
    10030    2    1    2    0    0  0.00000000000E+00  0.00000000000E+00 -0.51181240454E+03  0.23533058980E+04  0.22969755576E+04 0.  0.
        3    1    3    3  502    0 -0.75723885983E+03 -0.63515423817E+03  0.34341176474E+03  0.10463093460E+04  0.10100000352E+00 0. -1.
       -3    1    3    3    0  502  0.75723885983E+03  0.63515423817E+03 -0.85522416928E+03  0.13069965520E+04  0.10100000352E+00 0.  1.
</event>
<event>
 5   0  0.6263558E-05  0.2182896E+04  0.7818609E-02  0.8525581E-01
       -1   -1    0    0    0  501  0.00000000000E+00  0.00000000000E+00  0.90251638104E+03  0.90251638105E+03  0.50400001928E-02 0.  1.
        1   -1    0    0  501    0  0.00000000000E+00  0.00000000000E+00 -0.13199308091E+04  0.13199308091E+04  0.50400001928E-02 0. -1.
    10030    2    1    2    0    0  0.00000000000E+00  0.00000000000E+00 -0.41741442809E+03  0.22224471902E+04  0.21828964035E+04 0.  0.
        3    1    3    3  502    0 -0.93342951809E+03  0.18121601522E+03 -0.75426034009E+03  0.12136880078E+04  0.10100000352E+00 0. -1.
       -3    1    3    3    0  502  0.93342951809E+03 -0.18121601522E+03  0.33684591201E+03  0.10087591824E+04  0.10100000352E+00 0.  1.
</event>
<event>
 5   0  0.5981239E-05  0.2218077E+04  0.7818609E-02  0.8510942E-01
       -1   -1    0    0    0  501  0.00000000000E+00  0.00000000000E+00  0.14340834481E+04  0.14340834481E+04  0.50400001928E-02 0. -1.
        1   -1    0    0  501    0  0.00000000000E+00  0.00000000000E+00 -0.85766692619E+03  0.85766692621E+03  0.50400001928E-02 0.  1.
    10030    2    1    2    0    0  0.00000000000E+00  0.00000000000E+00  0.57641652186E+03  0.22917503743E+04  0.22180765928E+04 0.  0.
        4    1    3    3  502    0  0.56873882733E+03  0.91970982968E+03  0.33789006481E+02  0.10818841594E+04  0.12699999809E+01 0.  1.
       -4    1    3    3    0  502 -0.56873882733E+03 -0.91970982968E+03  0.54262751538E+03  0.12098662149E+04  0.12699999809E+01 0. -1.
</event>
<event>
 5   0  0.1252124E-04  0.2030381E+04  0.7818609E-02  0.8592547E-01
        2   -1    0    0  501    0  0.00000000000E+00  0.00000000000E+00  0.15232693690E+04  0.15232693690E+04  0.25500000920E-02 0. -1.
       -2   -1    0    0    0  501  0.00000000000E+00  0.00000000000E+00 -0.67657859337E+03  0.67657859338E+03  0.25500000920E-02 0.  1.
    10030    2    1    2    0    0  0.00000000000E+00  0.00000000000E+00  0.84669077561E+03  0.21998479624E+04  0.20303807003E+04 0.  0.
        3    1    3    3  502    0  0.75682068226E+03  0.48563733445E+03  0.93382941848E+03  0.12964021593E+04  0.10100000352E+00 0. -1.
       -3    1    3    3    0  502 -0.75682068226E+03 -0.48563733445E+03 -0.87138642872E+02  0.90344580302E+03  0.10100000352E+00 0.  1.
</event>
<event>
 5   0  0.1226021E-04  0.2209934E+04  0.7818609E-02  0.8514305E-01
       -2   -1    0    0    0  501  0.00000000000E+00  0.00000000000E+00  0.79742623111E+03  0.79742623111E+03  0.25500000920E-02 0. -1.
        2   -1    0    0  501    0  0.00000000000E+00  0.00000000000E+00 -0.15311154774E+04  0.15311154774E+04  0.25500000920E-02 0.  1.
    10030    2    1    2    0    0  0.00000000000E+00  0.00000000000E+00 -0.73368924628E+03  0.23285417085E+04  0.22099336140E+04 0.  0.
        2    1    3    3  502    0 -0.80719543990E+02 -0.52235986941E+03 -0.13892721232E+04  0.14864227226E+04  0.25500000920E-02 0.  1.
       -2    1    3    3    0  502  0.80719543990E+02  0.52235986941E+03  0.65558287690E+03  0.84211898592E+03  0.25500000920E-02 0. -1.
</event>
<event>
 5   0  0.1311472E-04  0.2244601E+04  0.7818609E-02  0.8500090E-01
       -2   -1    0    0    0  501  0.00000000000E+00  0.00000000000E+00  0.16181104514E+04  0.16181104514E+04  0.25500000920E-02 0.  1.
        2   -1    0    0  501    0  0.00000000000E+00  0.00000000000E+00 -0.77841305486E+03  0.77841305486E+03  0.25500000920E-02 0. -1.
    10030    2    1    2    0    0  0.00000000000E+00  0.00000000000E+00  0.83969739651E+03  0.23965235062E+04  0.22446008995E+04 0.  0.
        4    1    3    3  502    0 -0.52446368883E+02 -0.11189026658E+04  0.49430299410E+03  0.12243491577E+04  0.12699999809E+01 0. -1.
       -4    1    3    3    0  502  0.52446368883E+02  0.11189026658E+04  0.34539440241E+03  0.11721743485E+04  0.12699999809E+01 0.  1.
</event>
<event>
 5   0  0.5849604E-05  0.2203489E+04  0.7818609E-02  0.8516977E-01
       -1   -1    0    0    0  501  0.00000000000E+00  0.00000000000E+00  0.86561918886E+03  0.86561918888E+03  0.50400001928E-02 0.  1.
        1   -1    0    0  501    0  0.00000000000E+00  0.00000000000E+00 -0.14022805726E+04  0.14022805726E+04  0.50400001928E-02 0. -1.
    10030    2    1    2    0    0  0.00000000000E+00  0.00000000000E+00 -0.53666138378E+03  0.22678997615E+04  0.22034890260E+04 0.  0.
        2    1    3    3  502    0 -0.10692992543E+04  0.14353783262E+03 -0.49809828067E+03  0.11883206225E+04  0.25500000920E-02 0. -1.
       -2    1    3    3    0  502  0.10692992543E+04 -0.14353783262E+03 -0.38563103106E+02  0.10795791391E+04  0.25500000920E-02 0.  1.
</event>
<event>
 5   0  0.4586375E-05  0.2204918E+04  0.7818609E-02  0.8516384E-01
       -3   -1    0    0    0  501  0.00000000000E+00  0.00000000000E+00  0.96051225149E+03  0.96051225680E+03  0.10100000352E+00 0. -1.
        3   -1    0    0  501    0  0.00000000000E+00  0.00000000000E+00 -0.12653832247E+04  0.12653832287E+04  0.10100000352E+00 0.  1.
    10030    2    1    2    0    0  0.00000000000E+00  0.00000000000E+00 -0.30487097320E+03  0.22258954855E+04  0.22049182303E+04 0.  0.
        1    1    3    3  502    0 -0.79963232807E+02  0.57016759112E+03 -0.11015561715E+04  0.12429445682E+04  0.50400001928E-02 0.  1.
       -1    1    3    3    0  502  0.79963232807E+02 -0.57016759112E+03  0.79668519834E+03  0.98295091731E+03  0.50400001928E-02 0. -1.
</event>
<event>
 5   0  0.1241430E-04  0.2163605E+04  0.7818609E-02  0.8533731E-01
        2   -1    0    0  501    0  0.00000000000E+00  0.00000000000E+00  0.87881387072E+03  0.87881387072E+03  0.25500000920E-02 0.  1.
       -2   -1    0    0    0  501  0.00000000000E+00  0.00000000000E+00 -0.13316778594E+04  0.13316778594E+04  0.25500000920E-02 0. -1.
    10030    2    1    2    0    0  0.00000000000E+00  0.00000000000E+00 -0.45286398871E+03  0.22104917302E+04  0.21636053006E+04 0.  0.
        1    1    3    3  502    0  0.82759184777E+03 -0.15665276262E+03  0.46713753218E+03  0.96315410425E+03  0.50400001928E-02 0.  1.
       -1    1    3    3    0  502 -0.82759184777E+03  0.15665276262E+03 -0.92000152090E+03  0.12473376259E+04  0.50400001928E-02 0. -1.
</event>
<event>
 5   0  0.1226021E-04  0.2234549E+04  0.7818609E-02  0.8504184E-01
       -2   -1    0    0    0  501  0.00000000000E+00  0.00000000000E+00  0.12685669033E+04  0.12685669033E+04  0.25500000920E-02 0.  1.
        2   -1    0    0  501    0  0.00000000000E+00  0.00000000000E+00 -0.98402557967E+03  0.98402557968E+03  0.25500000920E-02 0. -1.
    10030    2    1    2    0    0  0.00000000000E+00  0.00000000000E+00  0.28454132363E+03  0.22525924830E+04  0.22345489768E+04 0.  0.
        2    1    3    3  502    0 -0.57578992909E+03 -0.84973129460E+03  0.58711039536E+03  0.11824871804E+04  0.25500000920E-02 0.  1.
       -2    1    3    3    0  502  0.57578992909E+03  0.84973129460E+03 -0.30256907172E+03  0.10701053026E+04  0.25500000920E-02 0. -1.
</event>
<event>
 5   0  0.5861816E-05  0.2226312E+04  0.7818609E-02  0.8507556E-01
        1   -1    0    0  501    0  0.00000000000E+00  0.00000000000E+00  0.23696821688E+04  0.23696821688E+04  0.50400001928E-02 0. -1.
       -1   -1    0    0    0  501  0.00000000000E+00  0.00000000000E+00 -0.52290400105E+03  0.52290400107E+03  0.50400001928E-02 0.  1.
    10030    2    1    2    0    0  0.00000000000E+00  0.00000000000E+00  0.18467781677E+04  0.28925861698E+04  0.22263120063E+04 0.  0.
        1    1    3    3  502    0 -0.39374420066E+03  0.10873980002E+03 -0.42200592651E+03  0.58732260445E+03  0.50400001928E-02 0.  1.
       -1    1    3    3    0  502  0.39374420066E+03 -0.10873980002E+03  0.22687840942E+04  0.23052635654E+04  0.50400001928E-02 0. -1.
</event>
<event>
 5   0  0.6263558E-05  0.2373546E+04  0.7818609E-02  0.8449474E-01
        1   -1    0    0  501    0  0.00000000000E+00  0.00000000000E+00  0.18040888786E+04  0.18040888786E+04  0.50400001928E-02 0.  1.
       -1   -1    0    0    0  501  0.00000000000E+00  0.00000000000E+00 -0.78068793908E+03  0.78068793910E+03  0.50400001928E-02 0. -1.
    10030    2    1    2    0    0  0.00000000000E+00  0.00000000000E+00  0.10234009395E+04  0.25847768177E+04  0.23735462318E+04 0.  0.
        3    1    3    3  502    0 -0.26736698679E+03  0.77136731396E+03 -0.42631304932E+03  0.92099699505E+03  0.10100000352E+00 0. -1.
       -3    1    3    3    0  502  0.26736698679E+03 -0.77136731396E+03  0.14497139888E+04  0.16637798227E+04  0.10100000352E+00 0.  1.
</event>
<event>
 5   0  0.5981239E-05  0.2147017E+04  0.7818609E-02  0.8540810E-01
       -1   -1    0    0    0  501  0.00000000000E+00  0.00000000000E+00  0.80835818618E+03  0.80835818620E+03  0.50400001928E-02 0.  1.
        1   -1    0    0  501    0  0.00000000000E+00  0.00000000000E+00 -0.14256311000E+04  0.14256311000E+04  0.50400001928E-02 0. -1.
    10030    2    1    2    0    0  0.00000000000E+00  0.00000000000E+00 -0.61727291377E+03  0.22339892862E+04  0.21470170657E+04 0.  0.
        4    1    3    3  502    0 -0.35472439402E+03 -0.41475199731E+03 -0.12705133630E+04  0.13827705643E+04  0.12699999809E+01 0. -1.
       -4    1    3    3    0  502  0.35472439402E+03  0.41475199731E+03  0.65324044926E+03  0.85121872185E+03  0.12699999809E+01 0.  1.
</event>
<event>
 5   0  0.5861816E-05  0.2159712E+04  0.7818609E-02  0.8535386E-01
       -1   -1    0    0    0  501  0.00000000000E+00  0.00000000000E+00  0.54324782034E+03  0.54324782036E+03  0.50400001928E-02 0. -1.
        1   -1    0    0  501    0  0.00000000000E+00  0.00000000000E+00 -0.21465138593E+04  0.21465138593E+04  0.50400001928E-02 0.  1.
    10030    2    1    2    0    0  0.00000000000E+00  0.00000000000E+00 -0.16032660389E+04  0.26897616796E+04  0.21597119951E+04 0.  0.
        1    1    3    3  502    0  0.78659168191E+03  0.29105745005E+03 -0.16487498986E+04  0.18498154344E+04  0.50400001928E-02 0.  1.
       -1    1    3    3    0  502 -0.78659168191E+03 -0.29105745005E+03  0.45483859700E+02  0.83994624518E+03  0.50400001928E-02 0. -1.
</event>
<event>
 5   0  0.1252124E-04  0.2198256E+04  0.7818609E-02  0.8519155E-01
        2   -1    0    0  501    0  0.00000000000E+00  0.00000000000E+00  0.70250014833E+03  0.70250014833E+03  0.25500000920E-02 0. -1.
       -2   -1    0    0    0  501  0.00000000000E+00  0.00000000000E+00 -0.17196890608E+04  0.17196890608E+04  0.25500000920E-02 0.  1.
    10030    2    1    2    0    0  0.00000000000E+00  0.00000000000E+00 -0.10171889125E+04  0.24221892092E+04  0.21982555086E+04 0.  0.
        3    1    3    3  502    0  0.61697660594E+03  0.40879404375E+03  0.38677760480E+03  0.83508659925E+03  0.10100000352E+00 0. -1.
       -3    1    3    3    0  502 -0.61697660594E+03 -0.40879404375E+03 -0.14039665173E+04  0.15871026099E+04  0.10100000352E+00 0.  1.
</event>
<event>
 5   0  0.5849604E-05  0.2153221E+04  0.7818609E-02  0.8538155E-01
       -1   -1    0    0    0  501  0.00000000000E+00  0.00000000000E+00  0.17284985682E+04  0.17284985682E+04  0.50400001928E-02 0.  1.
        1   -1    0    0  501    0  0.00000000000E+00  0.00000000000E+00 -0.67057608210E+03  0.67057608212E+03  0.50400001928E-02 0. -1.
    10030    2    1    2    0    0  0.00000000000E+00  0.00000000000E+00  0.10579224861E+04  0.23990746503E+04  0.21532206555E+04 0.  0.
        2    1    3    3  502    0  0.60336408110E+03  0.57110986800E+03  0.12918896933E+04  0.15359666908E+04  0.25500000920E-02 0.  1.
       -2    1    3    3    0  502 -0.60336408110E+03 -0.57110986800E+03 -0.23396720721E+03  0.86310795949E+03  0.25500000920E-02 0. -1.
</event>
<event>
 5   0  0.1241430E-04  0.2181441E+04  0.7818609E-02  0.8526193E-01
        2   -1    0    0  501    0  0.00000000000E+00  0.00000000000E+00  0.19628974007E+04  0.19628974007E+04  0.25500000920E-02 0. -1.
       -2   -1    0    0    0  501  0.00000000000E+00  0.00000000000E+00 -0.60607905562E+03  0.60607905562E+03  0.25500000920E-02 0.  1.
    10030    2    1    2    0    0  0.00000000000E+00  0.00000000000E+00  0.13568183451E+04  0.25689764564E+04  0.21814408110E+04 0.  0.
        1    1    3    3  502    0 -0.80746100492E+03 -0.65718935637E+03  0.10614263239E+04  0.14867807389E+04  0.50400001928E-02 0. -1.
       -1    1    3    3    0  502  0.80746100492E+03  0.65718935637E+03  0.29539202125E+03  0.10821957174E+04  0.50400001928E-02 0.  1.
</event>
<event>
 5   0  0.5849604E-05  0.2198631E+04  0.7818609E-02  0.8518998E-01
       -1   -1    0    0    0  501  0.00000000000E+00  0.00000000000E+00  0.60711157143E+03  0.60711157146E+03  0.50400001928E-02 0. -1.
        1   -1    0    0  501    0  0.00000000000E+00  0.00000000000E+00 -0.19905648160E+04  0.19905648160E+04  0.50400001928E-02 0.  1.
    10030    2    1    2    0    0  0.00000000000E+00  0.00000000000E+00 -0.13834532445E+04  0.25976763874E+04  0.21986313320E+04 0.  0.
        2    1    3    3  502    0  0.17695759648E+03  0.40138557036E+03 -0.18826794762E+04  0.19331079580E+04  0.25500000920E-02 0.  1.
       -2    1    3    3    0  502 -0.17695759648E+03 -0.40138557036E+03  0.49922623167E+03  0.66456842946E+03  0.25500000920E-02 0. -1.
</event>
<event>
 5   0  0.6263558E-05  0.2228842E+04  0.7818609E-02  0.8506518E-01
       -1   -1    0    0    0  501  0.00000000000E+00  0.00000000000E+00  0.11408171416E+04  0.11408171416E+04  0.50400001928E-02 0. -1.
        1   -1    0    0  501    0  0.00000000000E+00  0.00000000000E+00 -0.10886356205E+04  0.10886356205E+04  0.50400001928E-02 0.  1.
    10030    2    1    2    0    0  0.00000000000E+00  0.00000000000E+00  0.52181521160E+02  0.22294527621E+04  0.22288420104E+04 0.  0.
        3    1    3    3  502    0  0.75213111400E+03 -0.37485824726E+03 -0.70603483223E+03  0.10975905943E+04  0.10100000352E+00 0.  1.
       -3    1    3    3    0  502 -0.75213111400E+03  0.37485824726E+03  0.75821635339E+03  0.11318621678E+04  0.10100000352E+00 0. -1.
</event>
<event>
 5   0  0.1311472E-04  0.2139130E+04  0.7818609E-02  0.8544199E-01
       -2   -1    0    0    0  501  0.00000000000E+00  0.00000000000E+00  0.68565877335E+03  0.68565877335E+03  0.25500000920E-02 0. -1.
        2   -1    0    0  501    0  0.00000000000E+00  0.00000000000E+00 -0.16684242524E+04  0.16684242524E+04  0.25500000920E-02 0.  1.
    10030    2    1    2    0    0  0.00000000000E+00  0.00000000000E+00 -0.98276547904E+03  0.23540830257E+04  0.21391304087E+04 0.  0.
        4    1    3    3  502    0 -0.31315655866E+03  0.10050013747E+04 -0.28294790544E+03  0.10900256526E+04  0.12699999809E+01 0. -1.
       -4    1    3    3    0  502  0.31315655866E+03 -0.10050013747E+04 -0.69981757360E+03  0.12640573731E+04  0.12699999809E+01 0.  1.
</event>
<event>
 5   0  0.5981239E-05  0.2232437E+04  0.7818609E-02  0.8505047E-01
       -1   -1    0    0    0  501  0.00000000000E+00  0.00000000000E+00  0.15567821560E+04  0.15567821560E+04  0.50400001928E-02 0.  1.
        1   -1    0    0  501    0  0.00000000000E+00  0.00000000000E+00 -0.80033250787E+03  0.80033250788E+03  0.50400001928E-02 0. -1.
    10030    2    1    2    0    0  0.00000000000E+00  0.00000000000E+00  0.75644964810E+03  0.23571146639E+04  0.22324366662E+04 0.  0.
        4    1    3    3  502    0 -0.53498989715E+02  0.58360187097E+03 -0.62482474002E+03  0.85665678912E+03  0.12699999809E+01 0. -1.
       -4    1    3    3    0  502  0.53498989715E+02 -0.58360187097E+03  0.13812743881E+04  0.15004578747E+04  0.12699999809E+01 0.  1.
</event>
<event>
 5   0  0.1226021E-04  0.2195758E+04  0.7818609E-02  0.8520196E-01
        2   -1    0    0  501    0  0.00000000000E+00  0.00000000000E+00  0.11863053772E+04  0.11863053772E+04  0.25500000920E-02 0. -1.
       -2   -1    0    0    0  501  0.00000000000E+00  0.00000000000E+00 -0.10160434449E+04  0.10160434449E+04  0.25500000920E-02 0.  1.
    10030    2    1    2    0    0  0.00000000000E+00  0.00000000000E+00  0.17026193232E+03  0.22023488220E+04  0.21957575477E+04 0.  0.
        2    1    3    3  502    0  0.35727328187E+03 -0.83763819389E+03  0.70020572156E+03  0.11487253781E+04  0.25500000920E-02 0. -1.
       -2    1    3    3    0  502 -0.35727328187E+03  0.83763819389E+03 -0.52994378924E+03  0.10536234439E+04  0.25500000920E-02 0.  1.
</event>
<event>
 5   0  0.5895063E-05  0.2278408E+04  0.7818609E-02  0.8486484E-01
        1   -1    0    0  501    0  0.00000000000E+00  0.00000000000E+00  0.13076884103E+04  0.13076884103E+04  0.50400001928E-02 0. -1.
       -1   -1    0    0    0  501  0.00000000000E+00  0.00000000000E+00 -0.99242695936E+03  0.99242695938E+03  0.50400001928E-02 0.  1.
    10030    2    1    2    0    0  0.00000000000E+00  0.00000000000E+00  0.31526145095E+03  0.23001153697E+04  0.22784075429E+04 0.  0.
        5    1    3    3  502    0  0.79719564433E+03  0.44773204478E+03  0.84364784469E+03  0.12440854694E+04  0.46999998093E+01 0. -1.
       -5    1    3    3    0  502 -0.79719564433E+03 -0.44773204478E+03 -0.52838639374E+03  0.10560299003E+04  0.46999998093E+01 0.  1.
</event>
<event>
 5   0  0.1252124E-04  0.2246171E+04  0.7818609E-02  0.8499453E-01
        2   -1    0    0  501    0  0.00000000000E+00  0.00000000000E+00  0.18743566830E+04  0.18743566830E+04  0.25500000920E-02 0. -1.
       -2   -1    0    0    0  501  0.00000000000E+00  0.00000000000E+00 -0.67293552001E+03  0.67293552002E+03  0.25500000920E-02 0.  1.
    10030    2    1    2    0    0  0.00000000000E+00  0.00000000000E+00  0.12014211630E+04  0.25472922030E+04  0.22461711325E+04 0.  0.
        3    1    3    3  502    0  0.70031279098E+03  0.20187512073E+03 -0.36831647954E+03  0.81660798972E+03  0.10100000352E+00 0.  1.
       -3    1    3    3    0  502 -0.70031279098E+03 -0.20187512073E+03  0.15697376425E+04  0.17306842133E+04  0.10100000352E+00 0. -1.
</event>
<event>
 5   0  0.5849604E-05  0.2280194E+04  0.7818609E-02  0.8485771E-01
       -1   -1    0    0    0  501  0.00000000000E+00  0.00000000000E+00  0.72874139737E+03  0.72874139739E+03  0.50400001928E-02 0. -1.
        1   -1    0    0  501    0  0.00000000000E+00  0.00000000000E+00 -0.17836521613E+04  0.17836521613E+04  0.50400001928E-02 0.  1.
    10030    2    1    2    0    0  0.00000000000E+00  0.00000000000E+00 -0.10549107640E+04  0.25123935587E+04  0.22801939992E+04 0.  0.
        2    1    3    3  502    0 -0.16707312457E+03 -0.11168979328E+04 -0.69973203048E+03  0.13285327756E+04  0.25500000920E-02 0. -1.
       -2    1    3    3    0  502  0.16707312457E+03  0.11168979328E+04 -0.35517873349E+03  0.11838607832E+04  0.25500000920E-02 0.  1.
</event>
<event>
 5   0  0.1226021E-04  0.1920061E+04  0.7818609E-02  0.8644935E-01
       -2   -1    0    0    0  501  0.00000000000E+00  0.00000000000E+00  0.50207889893E+03  0.50207889894E+03  0.25500000920E-02 0.  1.
        2   -1    0    0  501    0  0.00000000000E+00  0.00000000000E+00 -0.18356839899E+04  0.18356839899E+04  0.25500000920E-02 0. -1.
    10030    2    1    2    0    0  0.00000000000E+00  0.00000000000E+00 -0.13336050910E+04  0.23377628888E+04  0.19200606203E+04 0.  0.
        2    1    3    3  502    0 -0.35516395274E+03 -0.15350976916E+03  0.40294310956E+03  0.55863210801E+03  0.25500000920E-02 0.  1.
       -2    1    3    3    0  502  0.35516395274E+03  0.15350976916E+03 -0.17365482005E+04  0.17791307808E+04  0.25500000920E-02 0. -1.
</event>
<event>
 5   0  0.1241430E-04  0.2180858E+04  0.7818609E-02  0.8526438E-01
       -2   -1    0    0    0  501  0.00000000000E+00  0.00000000000E+00  0.84408549957E+03  0.84408549958E+03  0.25500000920E-02 0.  1.
        2   -1    0    0  501    0  0.00000000000E+00  0.00000000000E+00 -0.14086668418E+04  0.14086668418E+04  0.25500000920E-02 0. -1.
    10030    2    1    2    0    0  0.00000000000E+00  0.00000000000E+00 -0.56458134227E+03  0.22527523414E+04  0.21808578633E+04 0.  0.
        1    1    3    3  502    0  0.10423358520E+04  0.30670349501E+03 -0.37754892858E+03  0.11502496493E+04  0.50400001928E-02 0. -1.
       -1    1    3    3    0  502 -0.10423358520E+04 -0.30670349501E+03 -0.18703241369E+03  0.11025026921E+04  0.50400001928E-02 0.  1.
</event>
<event>
 5   0  0.6263558E-05  0.2188337E+04  0.7818609E-02  0.8523298E-01
        1   -1    0    0  501    0  0.00000000000E+00  0.00000000000E+00  0.62899379083E+03  0.62899379085E+03  0.50400001928E-02 0. -1.
       -1   -1    0    0    0  501  0.00000000000E+00  0.00000000000E+00 -0.19033641752E+04  0.19033641752E+04  0.50400001928E-02 0.  1.
    10030    2    1    2    0    0  0.00000000000E+00  0.00000000000E+00 -0.12743703843E+04  0.25323579660E+04  0.21883365810E+04 0.  0.
        3    1    3    3  502    0  0.82818262978E+03 -0.14443417902E+03  0.17323684097E+03  0.85834649973E+03  0.10100000352E+00 0. -1.
       -3    1    3    3    0  502 -0.82818262978E+03  0.14443417902E+03 -0.14476072253E+04  0.16740114663E+04  0.10100000352E+00 0.  1.
</event>
<event>
 5   0  0.5849604E-05  0.2291368E+04  0.7818609E-02  0.8481333E-01
       -1   -1    0    0    0  501  0.00000000000E+00  0.00000000000E+00  0.98593858119E+03  0.98593858120E+03  0.50400001928E-02 0. -1.
        1   -1    0    0  501    0  0.00000000000E+00  0.00000000000E+00 -0.13313115317E+04  0.13313115317E+04  0.50400001928E-02 0.  1.
    10030    2    1    2    0    0  0.00000000000E+00  0.00000000000E+00 -0.34537295052E+03  0.23172501129E+04  0.22913676289E+04 0.  0.
        2    1    3    3  502    0 -0.43657186628E+03  0.84809098687E+03 -0.81447136779E+03  0.12542794447E+04  0.25500000920E-02 0.  1.
       -2    1    3    3    0  502  0.43657186628E+03 -0.84809098687E+03  0.46909841726E+03  0.10629706682E+04  0.25500000920E-02 0. -1.
</event>
<event>
 5   0  0.1226021E-04  0.2201623E+04  0.7818609E-02  0.8517753E-01
        2   -1    0    0  501    0  0.00000000000E+00  0.00000000000E+00  0.12262668482E+04  0.12262668482E+04  0.25500000920E-02 0. -1.
       -2   -1    0    0    0  501  0.00000000000E+00  0.00000000000E+00 -0.98819116165E+03  0.98819116166E+03  0.25500000920E-02 0.  1.
    10030    2    1    2    0    0  0.00000000000E+00  0.00000000000E+00  0.23807568653E+03  0.22144580098E+04  0.22016230933E+04 0.  0.
        2    1    3    3  502    0 -0.43125326252E+03 -0.21801406896E+03 -0.87580687704E+03  0.10002735609E+04  0.25500000920E-02 0.  1.
       -2    1    3    3    0  502  0.43125326252E+03  0.21801406896E+03  0.11138825636E+04  0.12141844490E+04  0.25500000920E-02 0. -1.
</event>
<event>
 5   0  0.1311472E-04  0.2119153E+04  0.7818609E-02  0.8552853E-01
        2   -1    0    0  501    0  0.00000000000E+00  0.00000000000E+00  0.19162014581E+04  0.19162014581E+04  0.25500000920E-02 0.  1.
       -2   -1    0    0    0  501  0.00000000000E+00  0.00000000000E+00 -0.58590003973E+03  0.58590003974E+03  0.25500000920E-02 0. -1.
    10030    2    1    2    0    0  0.00000000000E+00  0.00000000000E+00  0.13303014184E+04  0.25021014979E+04  0.21191531426E+04 0.  0.
        4    1    3    3  502    0  0.16595406574E+03  0.57413937174E+03 -0.36790090802E+03  0.70180443226E+03  0.12699999809E+01 0. -1.
       -4    1    3    3    0  502 -0.16595406574E+03 -0.57413937174E+03  0.16982023264E+04  0.18002970656E+04  0.12699999809E+01 0.  1.
</event>
<event>
 5   0  0.1252124E-04  0.2227465E+04  0.7818609E-02  0.8507083E-01
       -2   -1    0    0    0  501  0.00000000000E+00  0.00000000000E+00  0.57048779759E+03  0.57048779759E+03  0.25500000920E-02 0.  1.
        2   -1    0    0  501    0  0.00000000000E+00  0.00000000000E+00 -0.21742801720E+04  0.21742801720E+04  0.25500000920E-02 0. -1.
    10030    2    1    2    0    0  0.00000000000E+00  0.00000000000E+00 -0.16037923744E+04  0.27447679696E+04  0.22274652021E+04 0.  0.
        3    1    3    3  502    0 -0.92977460787E+02 -0.10959770016E+04 -0.10174142818E+04  0.14983131273E+04  0.10100000352E+00 0. -1.
       -3    1    3    3    0  502  0.92977460787E+02  0.10959770016E+04 -0.58637809261E+03  0.12464548423E+04  0.10100000352E+00 0.  1.
</event>
<event>
 5   0  0.1252124E-04  0.2233428E+04  0.7818609E-02  0.8504642E-01
        2   -1    0    0  501    0  0.00000000000E+00  0.00000000000E+00  0.21043153959E+04  0.21043153959E+04  0.25500000920E-02 0. -1.
       -2   -1    0    0    0  501  0.00000000000E+00  0.00000000000E+00 -0.59261568541E+03  0.59261568542E+03  0.25500000920E-02 0.  1.
    10030    2    1    2    0    0  0.00000000000E+00  0.00000000000E+00  0.15116997105E+04  0.26969310814E+04  0.22334281369E+04 0.  0.
        3    1    3    3  502    0  0.55998570520E+03  0.74703349480E+03  0.14957092683E+04  0.17631759010E+04  0.10100000352E+00 0. -1.
       -3    1    3    3    0  502 -0.55998570520E+03 -0.74703349480E+03  0.15990442213E+02  0.93375518035E+03  0.10100000352E+00 0.  1.
</event>
<event>
 5   0  0.5981239E-05  0.2205380E+04  0.7818609E-02  0.8516192E-01
       -1   -1    0    0    0  501  0.00000000000E+00  0.00000000000E+00  0.71627263127E+03  0.71627263129E+03  0.50400001928E-02 0. -1.
        1   -1    0    0  501    0  0.00000000000E+00  0.00000000000E+00 -0.16975733350E+04  0.16975733350E+04  0.50400001928E-02 0.  1.
    10030    2    1    2    0    0  0.00000000000E+00  0.00000000000E+00 -0.98130070370E+03  0.24138459663E+04  0.22053800756E+04 0.  0.
        4    1    3    3  502    0  0.16129312299E+03 -0.36227348388E+03  0.63552397271E+03  0.74909938021E+03  0.12699999809E+01 0. -1.
       -4    1    3    3    0  502 -0.16129312299E+03  0.36227348388E+03 -0.16168246764E+04  0.16647465861E+04  0.12699999809E+01 0.  1.
</event>
<event>
 5   0  0.5895063E-05  0.2195492E+04  0.7818609E-02  0.8520307E-01
        1   -1    0    0  501    0  0.00000000000E+00  0.00000000000E+00  0.12799432350E+04  0.12799432351E+04  0.50400001928E-02 0. -1.
       -1   -1    0    0    0  501  0.00000000000E+00  0.00000000000E+00 -0.94148385128E+03  0.94148385129E+03  0.50400001928E-02 0.  1.
    10030    2    1    2    0    0  0.00000000000E+00  0.00000000000E+00  0.33845938377E+03  0.22214270863E+04  0.21954916410E+04 0.  0.
        5    1    3    3  502    0  0.75393323497E+03  0.47705306414E+03 -0.47787901658E+03  0.10121192584E+04  0.46999998093E+01 0.  1.
       -5    1    3    3    0  502 -0.75393323497E+03 -0.47705306414E+03  0.81633840035E+03  0.12093078279E+04  0.46999998093E+01 0. -1.
</event>
<event>
 5   0  0.5861816E-05  0.2280730E+04  0.7818609E-02  0.8485558E-01
        1   -1    0    0  501    0  0.00000000000E+00  0.00000000000E+00  0.15445288620E+04  0.15445288620E+04  0.50400001928E-02 0.  1.
       -1   -1    0    0    0  501  0.00000000000E+00  0.00000000000E+00 -0.84196018697E+03  0.84196018699E+03  0.50400001928E-02 0. -1.
    10030    2    1    2    0    0  0.00000000000E+00  0.00000000000E+00  0.70256867501E+03  0.23864890490E+04  0.22807295407E+04 0.  0.
        1    1    3    3  502    0  0.22888660582E+03  0.69552799066E+03 -0.56348776769E+03  0.92394086849E+03  0.50400001928E-02 0. -1.
       -1    1    3    3    0  502 -0.22888660582E+03 -0.69552799066E+03  0.12660564427E+04  0.14625481805E+04  0.50400001928E-02 0.  1.
</event>
<event>
 5   0  0.1311472E-04  0.2224959E+04  0.7818609E-02  0.8508111E-01
        2   -1    0    0  501    0  0.00000000000E+00  0.00000000000E+00  0.17905721603E+04  0.17905721603E+04  0.25500000920E-02 0. -1.
       -2   -1    0    0    0  501  0.00000000000E+00  0.00000000000E+00 -0.69118147307E+03  0.69118147308E+03  0.25500000920E-02 0.  1.
    10030    2    1    2    0    0  0.00000000000E+00  0.00000000000E+00  0.10993906872E+04  0.24817536333E+04  0.22249586993E+04 0.  0.
        4    1    3    3  502    0 -0.30827739732E+03 -0.24372304640E+03  0.17105706899E+04  0.17551323526E+04  0.12699999809E+01 0. -1.
       -4    1    3    3    0  502  0.30827739732E+03  0.24372304640E+03 -0.61118000270E+03  0.72662128076E+03  0.12699999809E+01 0.  1.
</event>
<event>
 5   0  0.1311472E-04  0.2203388E+04  0.7818609E-02  0.8517019E-01
        2   -1    0    0  501    0  0.00000000000E+00  0.00000000000E+00  0.12621206552E+04  0.12621206552E+04  0.25500000920E-02 0.  1.
       -2   -1    0    0    0  501  0.00000000000E+00  0.00000000000E+00 -0.96165912082E+03  0.96165912082E+03  0.25500000920E-02 0. -1.
    10030    2    1    2    0    0  0.00000000000E+00  0.00000000000E+00  0.30046153435E+03  0.22237797760E+04  0.22033881543E+04 0.  0.
        4    1    3    3  502    0  0.10715060048E+04 -0.24308570746E+03  0.23167735127E+03  0.11228943795E+04  0.12699999809E+01 0. -1.
       -4    1    3    3    0  502 -0.10715060048E+04  0.24308570746E+03  0.68784183084E+02  0.11008853965E+04  0.12699999809E+01 0.  1.
</event>
<event>
 5   0  0.4586375E-05  0.2218555E+04  0.7818609E-02  0.8510745E-01
        3   -1    0    0  501    0  0.00000000000E+00  0.00000000000E+00  0.74114949542E+03  0.74114950231E+03  0.10100000352E+00 0.  1.
       -3   -1    0    0    0  501  0.00000000000E+00  0.00000000000E+00 -0.16602539058E+04  0.16602539089E+04  0.10100000352E+00 0. -1.
    10030    2    1    2    0    0  0.00000000000E+00  0.00000000000E+00 -0.91910441041E+03  0.24014034112E+04  0.22185548058E+04 0.  0.
        2    1    3    3  502    0  0.80452842972E+03  0.18984594287E+02 -0.12859340996E+04  0.15169881072E+04  0.25500000920E-02 0. -1.
       -2    1    3    3    0  502 -0.80452842972E+03 -0.18984594287E+02  0.36682968916E+03  0.88441530398E+03  0.25500000920E-02 0.  1.
</event>
<event>
 5   0  0.1226021E-04  0.2250742E+04  0.7818609E-02  0.8497600E-01
       -2   -1    0    0    0  501  0.00000000000E+00  0.00000000000E+00  0.13145438046E+04  0.13145438046E+04  0.25500000920E-02 0.  1.
        2   -1    0    0  501    0  0.00000000000E+00  0.00000000000E+00 -0.96342132778E+03  0.96342132779E+03  0.25500000920E-02 0. -1.
    10030    2    1    2    0    0  0.00000000000E+00  0.00000000000E+00  0.35112247679E+03  0.22779651324E+04  0.22507416890E+04 0.  0.
        2    1    3    3  502    0  0.31456124809E+03  0.79749928249E+02  0.12661617893E+04  0.13070862659E+04  0.25500000920E-02 0.  1.
       -2    1    3    3    0  502 -0.31456124809E+03 -0.79749928249E+02 -0.91503931251E+03  0.97087886644E+03  0.25500000920E-02 0. -1.
</event>
<event>
 5   0  0.5849604E-05  0.2234716E+04  0.7818609E-02  0.8504116E-01
        1   -1    0    0  501    0  0.00000000000E+00  0.00000000000E+00  0.15806110289E+04  0.15806110289E+04  0.50400001928E-02 0.  1.
       -1   -1    0    0    0  501  0.00000000000E+00  0.00000000000E+00 -0.78987771121E+03  0.78987771123E+03  0.50400001928E-02 0. -1.
    10030    2    1    2    0    0  0.00000000000E+00  0.00000000000E+00  0.79073331772E+03  0.23704887402E+04  0.22347164669E+04 0.  0.
        2    1    3    3  502    0 -0.59968437157E+03 -0.56220226640E+03  0.11981820994E+04  0.14530426962E+04  0.25500000920E-02 0.  1.
       -2    1    3    3    0  502  0.59968437157E+03  0.56220226640E+03 -0.40744878164E+03  0.91744604393E+03  0.25500000920E-02 0. -1.
</event>
<event>
 5   0  0.6263558E-05  0.2109136E+04  0.7818609E-02  0.8557230E-01
       -1   -1    0    0    0  501  0.00000000000E+00  0.00000000000E+00  0.63476255299E+03  0.63476255301E+03  0.50400001928E-02 0.  1.
        1   -1    0    0  501    0  0.00000000000E+00  0.00000000000E+00 -0.17520149669E+04  0.17520149669E+04  0.50400001928E-02 0. -1.
    10030    2    1    2    0    0  0.00000000000E+00  0.00000000000E+00 -0.11172524139E+04  0.23867775199E+04  0.21091358356E+04 0.  0.
        3    1    3    3  502    0  0.10525795329E+04  0.19454701400E+02 -0.62848890549E+03  0.12260915435E+04  0.10100000352E+00 0. -1.
       -3    1    3    3    0  502 -0.10525795329E+04 -0.19454701400E+02 -0.48876350842E+03  0.11606859764E+04  0.10100000352E+00 0.  1.
</event>
<event>
 5   0  0.1252124E-04  0.2226285E+04  0.7818609E-02  0.8507567E-01
        2   -1    0    0  501    0  0.00000000000E+00  0.00000000000E+00  0.71223464509E+03  0.71223464510E+03  0.25500000920E-02 0. -1.
       -2   -1    0    0    0  501  0.00000000000E+00  0.00000000000E+00 -0.17397170129E+04  0.17397170129E+04  0.25500000920E-02 0.  1.
    10030    2    1    2    0    0  0.00000000000E+00  0.00000000000E+00 -0.10274823678E+04  0.24519516580E+04  0.22262854527E+04 0.  0.
        3    1    3    3  502    0 -0.50879439267E+03  0.84969707652E+03  0.45931727950E+02  0.99144671551E+03  0.10100000352E+00 0. -1.
       -3    1    3    3    0  502  0.50879439267E+03 -0.84969707652E+03 -0.10734140958E+04  0.14605049425E+04  0.10100000352E+00 0.  1.
</event>
<event>
 5   0  0.1241430E-04  0.2248601E+04  0.7818609E-02  0.8498467E-01
       -2   -1    0    0    0  501  0.00000000000E+00  0.00000000000E+00  0.71866922119E+03  0.71866922120E+03  0.25500000920E-02 0. -1.
        2   -1    0    0  501    0  0.00000000000E+00  0.00000000000E+00 -0.17588785589E+04  0.17588785589E+04  0.25500000920E-02 0.  1.
    10030    2    1    2    0    0  0.00000000000E+00  0.00000000000E+00 -0.10402093377E+04  0.24775477801E+04  0.22486012400E+04 0.  0.
        1    1    3    3  502    0 -0.37944017569E+03 -0.41551718208E+03 -0.15925655059E+04  0.16890512917E+04  0.50400001928E-02 0.  1.
       -1    1    3    3    0  502  0.37944017569E+03  0.41551718208E+03  0.55235616821E+03  0.78849648833E+03  0.50400001928E-02 0. -1.
</event>
<event>
 5   0  0.5981239E-05  0.2239074E+04  0.7818609E-02  0.8502339E-01
        1   -1    0    0  501    0  0.00000000000E+00  0.00000000000E+00  0.12280552575E+04  0.12280552575E+04  0.50400001928E-02 0.  1.
       -1   -1    0    0    0  501  0.00000000000E+00  0.00000000000E+00 -0.10206077692E+04  0.10206077692E+04  0.50400001928E-02 0. -1.
    10030    2    1    2    0    0  0.00000000000E+00  0.00000000000E+00  0.20744748825E+03  0.22486630267E+04  0.22390736806E+04 0.  0.
        4    1    3    3  502    0 -0.77574710059E+03 -0.21553871872E+03 -0.67750276271E+03  0.10522604762E+04  0.12699999809E+01 0. -1.
       -4    1    3    3    0  502  0.77574710059E+03  0.21553871872E+03  0.88495025096E+03  0.11964025505E+04  0.12699999809E+01 0.  1.
</event>
<event>
 5   0  0.5981239E-05  0.2311618E+04  0.7818609E-02  0.8473354E-01
        1   -1    0    0  501    0  0.00000000000E+00  0.00000000000E+00  0.11710013457E+04  0.11710013457E+04  0.50400001928E-02 0. -1.
       -1   -1    0    0    0  501  0.00000000000E+00  0.00000000000E+00 -0.11408136692E+04  0.11408136692E+04  0.50400001928E-02 0.  1.
    10030    2    1    2    0    0  0.00000000000E+00  0.00000000000E+00  0.30187676510E+02  0.23118150150E+04  0.23116179113E+04 0.  0.
        4    1    3    3  502    0  0.39973887806E+03  0.43062076498E+03  0.10105014251E+04  0.11689055381E+04  0.12699999809E+01 0. -1.
       -4    1    3    3    0  502 -0.39973887806E+03 -0.43062076498E+03 -0.98031374859E+03  0.11429094769E+04  0.12699999809E+01 0.  1.
</event>
<event>
 5   0  0.5895063E-05  0.2110177E+04  0.7818609E-02  0.8556773E-01
       -1   -1    0    0    0  501  0.00000000000E+00  0.00000000000E+00  0.17431066440E+04  0.17431066440E+04  0.50400001928E-02 0.  1.
        1   -1    0    0  501    0  0.00000000000E+00  0.00000000000E+00 -0.63863671871E+03  0.63863671873E+03  0.50400001928E-02 0. -1.
    10030    2    1    2    0    0  0.00000000000E+00  0.00000000000E+00  0.11044699253E+04  0.23817433628E+04  0.21101771561E+04 0.  0.
        5    1    3    3  502    0 -0.40858173082E+03  0.11219659200E+03  0.16428489256E+04  0.16966148026E+04  0.46999998093E+01 0.  1.
       -5    1    3    3    0  502  0.40858173082E+03 -0.11219659200E+03 -0.53837900028E+03  0.68512856017E+03  0.46999998093E+01 0. -1.
</event>
<event>
 5   0  0.1311472E-04  0.2170612E+04  0.7818609E-02  0.8530760E-01
        2   -1    0    0  501    0  0.00000000000E+00  0.00000000000E+00  0.11691008153E+04  0.11691008153E+04  0.25500000920E-02 0.  1.
       -2   -1    0    0    0  501  0.00000000000E+00  0.00000000000E+00 -0.10075174674E+04  0.10075174674E+04  0.25500000920E-02 0. -1.
    10030    2    1    2    0    0  0.00000000000E+00  0.00000000000E+00  0.16158334793E+03  0.21766182827E+04  0.21706123491E+04 0.  0.
        4    1    3    3  502    0 -0.32944358146E+03  0.68080122189E+03 -0.69973501423E+03  0.10303659933E+04  0.12699999809E+01 0. -1.
       -4    1    3    3    0  502  0.32944358146E+03 -0.68080122189E+03  0.86131836216E+03  0.11462522894E+04  0.12699999809E+01 0.  1.
</event>
<event>
 5   0  0.5895063E-05  0.1905722E+04  0.7818609E-02  0.8652014E-01
        1   -1    0    0  501    0  0.00000000000E+00  0.00000000000E+00  0.34492427149E+04  0.34492427149E+04  0.50400001928E-02 0.  1.
       -1   -1    0    0    0  501  0.00000000000E+00  0.00000000000E+00 -0.26322991885E+03  0.26322991890E+03  0.50400001928E-02 0. -1.
    10030    2    1    2    0    0  0.00000000000E+00  0.00000000000E+00  0.31860127961E+04  0.37124726338E+04  0.19057217846E+04 0.  0.
        5    1    3    3  502    0  0.67328755453E+03  0.25548311187E+03  0.28085343489E+04  0.28993921829E+04  0.46999998093E+01 0. -1.
       -5    1    3    3    0  502 -0.67328755453E+03 -0.25548311187E+03  0.37747844716E+03  0.81308045087E+03  0.46999998093E+01 0.  1.
</event>
<event>
 5   0  0.1252124E-04  0.2239062E+04  0.7818609E-02  0.8502343E-01
        2   -1    0    0  501    0  0.00000000000E+00  0.00000000000E+00  0.95955386093E+03  0.95955386093E+03  0.25500000920E-02 0.  1.
       -2   -1    0    0    0  501  0.00000000000E+00  0.00000000000E+00 -0.13061797337E+04  0.13061797337E+04  0.25500000920E-02 0. -1.
    10030    2    1    2    0    0  0.00000000000E+00  0.00000000000E+00 -0.34662587277E+03  0.22657335946E+04  0.22390621309E+04 0.  0.
        3    1    3    3  502    0  0.72411073680E+03 -0.13736925423E+03 -0.10260509878E+04  0.12633239137E+04  0.10100000352E+00 0. -1.
       -3    1    3    3    0  502 -0.72411073680E+03  0.13736925423E+03  0.67942511508E+03  0.10024096809E+04  0.10100000352E+00 0.  1.
</event>
<event>
 5   0  0.1252124E-04  0.2191384E+04  0.7818609E-02  0.8522023E-01
       -2   -1    0    0    0  501  0.00000000000E+00  0.00000000000E+00  0.11717900330E+04  0.11717900330E+04  0.25500000920E-02 0. -1.
        2   -1    0    0  501    0  0.00000000000E+00  0.00000000000E+00 -0.10245362183E+04  0.10245362183E+04  0.25500000920E-02 0.  1.
    10030    2    1    2    0    0  0.00000000000E+00  0.00000000000E+00  0.14725381472E+03  0.21963262512E+04  0.21913843378E+04 0.  0.
        3    1    3    3  502    0 -0.42945485396E+03  0.97747823137E+03 -0.17319285661E+03  0.10816149685E+04  0.10100000352E+00 0. -1.
       -3    1    3    3    0  502  0.42945485396E+03 -0.97747823137E+03  0.32044667133E+03  0.11147112827E+04  0.10100000352E+00 0.  1.
</event>
<event>
 5   0  0.4586375E-05  0.2027529E+04  0.7818609E-02  0.8593857E-01
       -3   -1    0    0    0  501  0.00000000000E+00  0.00000000000E+00  0.45968896431E+03  0.45968897541E+03  0.10100000352E+00 0. -1.
        3   -1    0    0  501    0  0.00000000000E+00  0.00000000000E+00 -0.22356830740E+04  0.22356830762E+04  0.10100000352E+00 0.  1.
    10030    2    1    2    0    0  0.00000000000E+00  0.00000000000E+00 -0.17759941096E+04  0.26953720517E+04  0.20275293880E+04 0.  0.
        4    1    3    3  502    0  0.93501216137E+03  0.27146102961E+02 -0.14075351766E+04  0.16900122897E+04  0.12699999809E+01 0.  1.
       -4    1    3    3    0  502 -0.93501216137E+03 -0.27146102961E+02 -0.36845893300E+03  0.10053597620E+04  0.12699999809E+01 0. -1.
</event>
<event>
 5   0  0.5895063E-05  0.2151428E+04  0.7818609E-02  0.8538921E-01
        1   -1    0    0  501    0  0.00000000000E+00  0.00000000000E+00  0.10618063660E+04  0.10618063660E+04  0.50400001928E-02 0.  1.
       -1   -1    0    0    0  501  0.00000000000E+00  0.00000000000E+00 -0.10898038483E+04  0.10898038483E+04  0.50400001928E-02 0. -1.
    10030    2    1    2    0    0  0.00000000000E+00  0.00000000000E+00 -0.27997482270E+02  0.21516102143E+04  0.21514280502E+04 0.  0.
        5    1    3    3  502    0  0.10406686857E+04 -0.19598216585E+03  0.17506289806E+03  0.10733449729E+04  0.46999998093E+01 0. -1.
       -5    1    3    3    0  502 -0.10406686857E+04  0.19598216585E+03 -0.20306038033E+03  0.10782652414E+04  0.46999998093E+01 0.  1.
</event>
<event>
 5   0  0.1252124E-04  0.2085138E+04  0.7818609E-02  0.8567819E-01
        2   -1    0    0  501    0  0.00000000000E+00  0.00000000000E+00  0.13462729821E+04  0.13462729821E+04  0.25500000920E-02 0.  1.
       -2   -1    0    0    0  501  0.00000000000E+00  0.00000000000E+00 -0.80737733013E+03  0.80737733014E+03  0.25500000920E-02 0. -1.
    10030    2    1    2    0    0  0.00000000000E+00  0.00000000000E+00  0.53889565193E+03  0.21536503122E+04  0.20851381593E+04 0.  0.
        3    1    3    3  502    0 -0.76364054179E+03 -0.34176138443E+03 -0.37308788229E+03  0.91604710526E+03  0.10100000352E+00 0. -1.
       -3    1    3    3    0  502  0.76364054179E+03  0.34176138443E+03  0.91198353421E+03  0.12376032069E+04  0.10100000352E+00 0.  1.
</event>
<event>
 5   0  0.4586375E-05  0.2221551E+04  0.7818609E-02  0.8509511E-01
        3   -1    0    0  501    0  0.00000000000E+00  0.00000000000E+00  0.12438081216E+04  0.12438081257E+04  0.10100000352E+00 0.  1.
       -3   -1    0    0    0  501  0.00000000000E+00  0.00000000000E+00 -0.99197161496E+03  0.99197162010E+03  0.10100000352E+00 0. -1.
    10030    2    1    2    0    0  0.00000000000E+00  0.00000000000E+00  0.25183650665E+03  0.22357797458E+04  0.22215511351E+04 0.  0.
        3    1    3    3  502    0 -0.15328160429E+03 -0.58877669273E+02  0.12315264347E+04  0.12424247260E+04  0.10100000352E+00 0.  1.
       -3    1    3    3    0  502  0.15328160429E+03  0.58877669273E+02 -0.97968992804E+03  0.99335501985E+03  0.10100000352E+00 0. -1.
</event>
<event>
 5   0  0.1226021E-04  0.2200007E+04  0.7818609E-02  0.8518425E-01
       -2   -1    0    0    0  501  0.00000000000E+00  0.00000000000E+00  0.12584762273E+04  0.12584762273E+04  0.25500000920E-02 0.  1.
        2   -1    0    0  501    0  0.00000000000E+00  0.00000000000E+00 -0.96148642082E+03  0.96148642082E+03  0.25500000920E-02 0. -1.
    10030    2    1    2    0    0  0.00000000000E+00  0.00000000000E+00  0.29698980650E+03  0.22199626481E+04  0.22000070941E+04 0.  0.
        2    1    3    3  502    0  0.77576587571E+03  0.74723053623E+03 -0.76782549853E+02  0.10798433813E+04  0.25500000920E-02 0.  1.
       -2    1    3    3    0  502 -0.77576587571E+03 -0.74723053623E+03  0.37377235635E+03  0.11401192668E+04  0.25500000920E-02 0. -1.
</event>
<event>
 5   0  0.1241430E-04  0.2209966E+04  0.7818609E-02  0.8514291E-01
       -2   -1    0    0    0  501  0.00000000000E+00  0.00000000000E+00  0.78671960086E+03  0.78671960086E+03  0.25500000920E-02 0.  1.
        2   -1    0    0  501    0  0.00000000000E+00  0.00000000000E+00 -0.15519987584E+04  0.15519987584E+04  0.25500000920E-02 0. -1.
    10030    2    1    2    0    0  0.00000000000E+00  0.00000000000E+00 -0.76527915759E+03  0.23387183593E+04  0.22099663742E+04 0.  0.
        1    1    3    3  502    0 -0.24681779880E+03 -0.81960653275E+03 -0.11221457875E+04  0.14113415826E+04  0.50400001928E-02 0. -1.
       -1    1    3    3    0  502  0.24681779880E+03  0.81960653275E+03  0.35686662995E+03  0.92737677668E+03  0.50400001928E-02 0.  1.
</event>
<event>
 5   0  0.5861816E-05  0.2093960E+04  0.7818609E-02  0.8563909E-01
       -1   -1    0    0    0  501  0.00000000000E+00  0.00000000000E+00  0.11567028366E+04  0.11567028367E+04  0.50400001928E-02 0.  1.
        1   -1    0    0  501    0  0.00000000000E+00  0.00000000000E+00 -0.94766512228E+03  0.94766512229E+03  0.50400001928E-02 0. -1.
    10030    2    1    2    0    0  0.00000000000E+00  0.00000000000E+00  0.20903771437E+03  0.21043679589E+04  0.20939598231E+04 0.  0.
        1    1    3    3  502    0 -0.84591261390E+03  0.43917706894E+03 -0.33090403099E+03  0.10089311800E+04  0.50400001928E-02 0. -1.
       -1    1    3    3    0  502  0.84591261390E+03 -0.43917706894E+03  0.53994174536E+03  0.10954367789E+04  0.50400001928E-02 0.  1.
</event>
<event>
 5   0  0.1311472E-04  0.2216712E+04  0.7818609E-02  0.8511504E-01
        2   -1    0    0  501    0  0.00000000000E+00  0.00000000000E+00  0.84742561987E+03  0.84742561987E+03  0.25500000920E-02 0. -1.
       -2   -1    0    0    0  501  0.00000000000E+00  0.00000000000E+00 -0.14496296059E+04  0.14496296059E+04  0.25500000920E-02 0.  1.
    10030    2    1    2    0    0  0.00000000000E+00  0.00000000000E+00 -0.60220398602E+03  0.22970552258E+04  0.22167122207E+04 0.  0.
        4    1    3    3  502    0 -0.57073018290E+03  0.68263082110E+03  0.38370874333E+03  0.96899524880E+03  0.12699999809E+01 0. -1.
       -4    1    3    3    0  502  0.57073018290E+03 -0.68263082110E+03 -0.98591272935E+03  0.13280599770E+04  0.12699999809E+01 0.  1.
</event>
<event>
 5   0  0.1311472E-04  0.2202490E+04  0.7818609E-02  0.8517392E-01
       -2   -1    0    0    0  501  0.00000000000E+00  0.00000000000E+00  0.52691652811E+03  0.52691652812E+03  0.25500000920E-02 0. -1.
        2   -1    0    0  501    0  0.00000000000E+00  0.00000000000E+00 -0.23015798017E+04  0.23015798017E+04  0.25500000920E-02 0.  1.
    10030    2    1    2    0    0  0.00000000000E+00  0.00000000000E+00 -0.17746632736E+04  0.28284963298E+04  0.22024898985E+04 0.  0.
        4    1    3    3  502    0  0.78618925377E+02 -0.97198340189E+03 -0.15444318706E+04  0.18265278768E+04  0.12699999809E+01 0.  1.
       -4    1    3    3    0  502 -0.78618925377E+02  0.97198340189E+03 -0.23023140300E+03  0.10019684530E+04  0.12699999809E+01 0. -1.
</event>
<event>
 5   0  0.1252124E-04  0.2293472E+04  0.7818609E-02  0.8480499E-01
       -2   -1    0    0    0  501  0.00000000000E+00  0.00000000000E+00  0.87142979646E+03  0.87142979646E+03  0.25500000920E-02 0. -1.
        2   -1    0    0  501    0  0.00000000000E+00  0.00000000000E+00 -0.15090187475E+04  0.15090187475E+04  0.25500000920E-02 0.  1.
    10030    2    1    2    0    0  0.00000000000E+00  0.00000000000E+00 -0.63758895099E+03  0.23804485439E+04  0.22934723891E+04 0.  0.
        3    1    3    3  502    0  0.87961597037E+02 -0.16803299182E+03 -0.14926263888E+04  0.15046281519E+04  0.10100000352E+00 0.  1.
       -3    1    3    3    0  502 -0.87961597037E+02  0.16803299182E+03  0.85503743776E+03  0.87582039201E+03  0.10100000352E+00 0. -1.
</event>
<event>
 5   0  0.5981239E-05  0.1990776E+04  0.7818609E-02  0.8610945E-01
        1   -1    0    0  501    0  0.00000000000E+00  0.00000000000E+00  0.13100734230E+04  0.13100734230E+04  0.50400001928E-02 0.  1.
       -1   -1    0    0    0  501  0.00000000000E+00  0.00000000000E+00 -0.75629155878E+03  0.75629155880E+03  0.50400001928E-02 0. -1.
    10030    2    1    2    0    0  0.00000000000E+00  0.00000000000E+00  0.55378186424E+03  0.20663649818E+04  0.19907762016E+04 0.  0.
        4    1    3    3  502    0 -0.92209887440E+02 -0.16951736775E+02  0.13054793430E+04  0.13088422184E+04  0.12699999809E+01 0.  1.
       -4    1    3    3    0  502  0.92209887440E+02  0.16951736775E+02 -0.75169747874E+03  0.75752276347E+03  0.12699999809E+01 0. -1.
</event>
<event>
 5   0  0.5849604E-05  0.2200976E+04  0.7818609E-02  0.8518022E-01
        1   -1    0    0  501    0  0.00000000000E+00  0.00000000000E+00  0.21154337654E+04  0.21154337654E+04  0.50400001928E-02 0. -1.
       -1   -1    0    0    0  501  0.00000000000E+00  0.00000000000E+00 -0.57249418132E+03  0.57249418134E+03  0.50400001928E-02 0.  1.
    10030    2    1    2    0    0  0.00000000000E+00  0.00000000000E+00  0.15429395841E+04  0.26879279468E+04  0.22009757125E+04 0.  0.
        2    1    3    3  502    0  0.45805067025E+03 -0.22945414996E+03 -0.41798273732E+03  0.66118771326E+03  0.25500000920E-02 0.  1.
       -2    1    3    3    0  502 -0.45805067025E+03  0.22945414996E+03  0.19609223214E+04  0.20267402335E+04  0.25500000920E-02 0. -1.
</event>
<event>
 5   0  0.1252124E-04  0.2122583E+04  0.7818609E-02  0.8551360E-01
       -2   -1    0    0    0  501  0.00000000000E+00  0.00000000000E+00  0.59518609171E+03  0.59518609172E+03  0.25500000920E-02 0.  1.
        2   -1    0    0  501    0  0.00000000000E+00  0.00000000000E+00 -0.18924166960E+04  0.18924166960E+04  0.25500000920E-02 0. -1.
    10030    2    1    2    0    0  0.00000000000E+00  0.00000000000E+00 -0.12972306043E+04  0.24876027878E+04  0.21225834233E+04 0.  0.
        3    1    3    3  502    0 -0.82224399179E+02  0.10040850051E+04 -0.10397661857E+04  0.14477780495E+04  0.10100000352E+00 0. -1.
       -3    1    3    3    0  502  0.82224399179E+02 -0.10040850051E+04 -0.25746441859E+03  0.10398247383E+04  0.10100000352E+00 0.  1.
</event>
<event>
 5   0  0.1311472E-04  0.2176132E+04  0.7818609E-02  0.8528429E-01
        2   -1    0    0  501    0  0.00000000000E+00  0.00000000000E+00  0.19434308014E+04  0.19434308014E+04  0.25500000920E-02 0.  1.
       -2   -1    0    0    0  501  0.00000000000E+00  0.00000000000E+00 -0.60917379935E+03  0.60917379936E+03  0.25500000920E-02 0. -1.
    10030    2    1    2    0    0  0.00000000000E+00  0.00000000000E+00  0.13342570020E+04  0.25526046007E+04  0.21761315448E+04 0.  0.
        4    1    3    3  502    0  0.95949080750E+03  0.31125262410E+03  0.18865806817E+03  0.10262038225E+04  0.12699999809E+01 0. -1.
       -4    1    3    3    0  502 -0.95949080750E+03 -0.31125262410E+03  0.11455989338E+04  0.15264007782E+04  0.12699999809E+01 0.  1.
</event>
<event>
 5   0  0.1311472E-04  0.1767906E+04  0.7818609E-02  0.8723555E-01
       -2   -1    0    0    0  501  0.00000000000E+00  0.00000000000E+00  0.13605438178E+04  0.13605438178E+04  0.25500000920E-02 0.  1.
        2   -1    0    0  501    0  0.00000000000E+00  0.00000000000E+00 -0.57430913835E+03  0.57430913836E+03  0.25500000920E-02 0. -1.
    10030    2    1    2    0    0  0.00000000000E+00  0.00000000000E+00  0.78623467947E+03  0.19348529562E+04  0.17679058207E+04 0.  0.
        4    1    3    3  502    0  0.63079247553E+03  0.64811822880E+02  0.10671235463E+04  0.12413114016E+04  0.12699999809E+01 0.  1.
       -4    1    3    3    0  502 -0.63079247553E+03 -0.64811822880E+02 -0.28088886687E+03  0.69354155463E+03  0.12699999809E+01 0. -1.
</event>
<event>
 5   0  0.6263558E-05  0.1954293E+04  0.7818609E-02  0.8628293E-01
        1   -1    0    0  501    0  0.00000000000E+00  0.00000000000E+00  0.12853137198E+04  0.12853137198E+04  0.50400001928E-02 0.  1.
       -1   -1    0    0    0  501  0.00000000000E+00  0.00000000000E+00 -0.74286584717E+03  0.74286584719E+03  0.50400001928E-02 0. -1.
    10030    2    1    2    0    0  0.00000000000E+00  0.00000000000E+00  0.54244787264E+03  0.20281795670E+04  0.19542933919E+04 0.  0.
        3    1    3    3  502    0  0.61881152104E+03  0.96098878108E+02 -0.50723721530E+03  0.80588603148E+03  0.10100000352E+00 0. -1.
       -3    1    3    3    0  502 -0.61881152104E+03 -0.96098878108E+02  0.10496850879E+04  0.12222935355E+04  0.10100000352E+00 0.  1.
</event>
<event>
 5   0  0.5861816E-05  0.1586971E+04  0.7818609E-02  0.8828593E-01
       -1   -1    0    0    0  501  0.00000000000E+00  0.00000000000E+00  0.14578180862E+04  0.14578180862E+04  0.50400001928E-02 0. -1.
        1   -1    0    0  501    0  0.00000000000E+00  0.00000000000E+00 -0.43189130324E+03  0.43189130327E+03  0.50400001928E-02 0.  1.
    10030    2    1    2    0    0  0.00000000000E+00  0.00000000000E+00  0.10259267830E+04  0.18897093895E+04  0.15869706401E+04 0.  0.
        1    1    3    3  502    0  0.30903036916E+03  0.34504775430E+03 -0.25419000806E+03  0.52836567075E+03  0.50400001928E-02 0.  1.
       -1    1    3    3    0  502 -0.30903036916E+03 -0.34504775430E+03  0.12801167910E+04  0.13613437187E+04  0.50400001928E-02 0. -1.
</event>
<event>
 5   0  0.5849604E-05  0.2230373E+04  0.7818609E-02  0.8505892E-01
       -1   -1    0    0    0  501  0.00000000000E+00  0.00000000000E+00  0.84758182712E+03  0.84758182713E+03  0.50400001928E-02 0.  1.
        1   -1    0    0  501    0  0.00000000000E+00  0.00000000000E+00 -0.14672810721E+04  0.14672810721E+04  0.50400001928E-02 0. -1.
    10030    2    1    2    0    0  0.00000000000E+00  0.00000000000E+00 -0.61969924495E+03  0.23148628992E+04  0.22303728585E+04 0.  0.
        2    1    3    3  502    0  0.57830488443E+03 -0.82373772223E+03  0.18861497767E+03  0.10239902266E+04  0.25500000920E-02 0.  1.
       -2    1    3    3    0  502 -0.57830488443E+03  0.82373772223E+03 -0.80831422262E+03  0.12908726726E+04  0.25500000920E-02 0. -1.
</event>
<event>
 5   0  0.1241430E-04  0.2227468E+04  0.7818609E-02  0.8507082E-01
        2   -1    0    0  501    0  0.00000000000E+00  0.00000000000E+00  0.14784546067E+04  0.14784546067E+04  0.25500000920E-02 0. -1.
       -2   -1    0    0    0  501  0.00000000000E+00  0.00000000000E+00 -0.83898616307E+03  0.83898616307E+03  0.25500000920E-02 0.  1.
    10030    2    1    2    0    0  0.00000000000E+00  0.00000000000E+00  0.63946844365E+03  0.23174407698E+04  0.22274675825E+04 0.  0.
        1    1    3    3  502    0  0.42454565934E+03  0.97915009540E+03  0.65107767211E+03  0.12501504155E+04  0.50400001928E-02 0. -1.
       -1    1    3    3    0  502 -0.42454565934E+03 -0.97915009540E+03 -0.11609228456E+02  0.10672903543E+04  0.50400001928E-02 0.  1.
</event>
<event>
 5   0  0.1311472E-04  0.2303814E+04  0.7818609E-02  0.8476419E-01
       -2   -1    0    0    0  501  0.00000000000E+00  0.00000000000E+00  0.98808346261E+03  0.98808346261E+03  0.25500000920E-02 0. -1.
        2   -1    0    0  501    0  0.00000000000E+00  0.00000000000E+00 -0.13428926842E+04  0.13428926842E+04  0.25500000920E-02 0.  1.
    10030    2    1    2    0    0  0.00000000000E+00  0.00000000000E+00 -0.35480922160E+03  0.23309761468E+04  0.23038142749E+04 0.  0.
        4    1    3    3  502    0  0.59613253973E+03 -0.54962690410E+03  0.65042552346E+03  0.10394800205E+04  0.12699999809E+01 0. -1.
       -4    1    3    3    0  502 -0.59613253973E+03  0.54962690410E+03 -0.10052347451E+04  0.12914961263E+04  0.12699999809E+01 0.  1.
</event>
<event>
 5   0  0.5895063E-05  0.2203640E+04  0.7818609E-02  0.8516915E-01
       -1   -1    0    0    0  501  0.00000000000E+00  0.00000000000E+00  0.67664351334E+03  0.67664351336E+03  0.50400001928E-02 0.  1.
        1   -1    0    0  501    0  0.00000000000E+00  0.00000000000E+00 -0.17941606033E+04  0.17941606033E+04  0.50400001928E-02 0. -1.
    10030    2    1    2    0    0  0.00000000000E+00  0.00000000000E+00 -0.11175170900E+04  0.24708041167E+04  0.22036398382E+04 0.  0.
        5    1    3    3  502    0 -0.43926938346E+03 -0.66222073373E+03 -0.14144995993E+04  0.16224441740E+04  0.46999998093E+01 0. -1.
       -5    1    3    3    0  502  0.43926938346E+03  0.66222073373E+03  0.29698250933E+03  0.84835994264E+03  0.46999998093E+01 0.  1.
</event>
<event>
 5   0  0.1241430E-04  0.2187401E+04  0.7818609E-02  0.8523691E-01
       -2   -1    0    0    0  501  0.00000000000E+00  0.00000000000E+00  0.56970051494E+03  0.56970051494E+03  0.25500000920E-02 0.  1.
        2   -1    0    0  501    0  0.00000000000E+00  0.00000000000E+00 -0.20996653900E+04  0.20996653900E+04  0.25500000920E-02 0. -1.
    10030    2    1    2    0    0  0.00000000000E+00  0.00000000000E+00 -0.15299648751E+04  0.26693659050E+04  0.21874006985E+04 0.  0.
        1    1    3    3  502    0 -0.86660481526E+03 -0.54587513197E+03 -0.29678495169E+03  0.10663324402E+04  0.50400001928E-02 0.  1.
       -1    1    3    3    0  502  0.86660481526E+03  0.54587513197E+03 -0.12331799234E+04  0.16030334647E+04  0.50400001928E-02 0. -1.
</event>
<event>
 5   0  0.6263558E-05  0.1640827E+04  0.7818609E-02  0.8795852E-01
       -1   -1    0    0    0  501  0.00000000000E+00  0.00000000000E+00  0.46114459030E+03  0.46114459033E+03  0.50400001928E-02 0. -1.
        1   -1    0    0  501    0  0.00000000000E+00  0.00000000000E+00 -0.14595816785E+04  0.14595816786E+04  0.50400001928E-02 0.  1.
    10030    2    1    2    0    0  0.00000000000E+00  0.00000000000E+00 -0.99843708824E+03  0.19207262689E+04  0.16408268589E+04 0.  0.
        3    1    3    3  502    0 -0.73028784379E+03 -0.36230379665E+03 -0.60710178114E+03  0.10164432885E+04  0.10100000352E+00 0. -1.
       -3    1    3    3    0  502  0.73028784379E+03  0.36230379665E+03 -0.39133530709E+03  0.90428298039E+03  0.10100000352E+00 0.  1.
</event>
<event>
 5   0  0.5895063E-05  0.1494655E+04  0.7818609E-02  0.8888015E-01
       -1   -1    0    0    0  501  0.00000000000E+00  0.00000000000E+00  0.56230564598E+03  0.56230564600E+03  0.50400001928E-02 0.  1.
        1   -1    0    0  501    0  0.00000000000E+00  0.00000000000E+00 -0.99322925467E+03  0.99322925468E+03  0.50400001928E-02 0. -1.
    10030    2    1    2    0    0  0.00000000000E+00  0.00000000000E+00 -0.43092360869E+03  0.15555349007E+04  0.14946550340E+04 0.  0.
        5    1    3    3  502    0 -0.52372957429E+03  0.36461608431E+03  0.18927282199E+03  0.66564543645E+03  0.46999998093E+01 0.  1.
       -5    1    3    3    0  502  0.52372957429E+03 -0.36461608431E+03 -0.62019643068E+03  0.88988946423E+03  0.46999998093E+01 0. -1.
</event>
<event>
 5   0  0.5895063E-05  0.1818184E+04  0.7818609E-02  0.8696689E-01
        1   -1    0    0  501    0  0.00000000000E+00  0.00000000000E+00  0.10225324277E+04  0.10225324277E+04  0.50400001928E-02 0. -1.
       -1   -1    0    0    0  501  0.00000000000E+00  0.00000000000E+00 -0.80823644225E+03  0.80823644226E+03  0.50400001928E-02 0.  1.
    10030    2    1    2    0    0  0.00000000000E+00  0.00000000000E+00  0.21429598548E+03  0.18307688700E+04  0.18181836777E+04 0.  0.
        5    1    3    3  502    0 -0.73167415877E+03 -0.31215188959E+03 -0.33594339288E+03  0.86351950181E+03  0.46999998093E+01 0.  1.
       -5    1    3    3    0  502  0.73167415877E+03  0.31215188959E+03  0.55023937836E+03  0.96724936820E+03  0.46999998093E+01 0. -1.
</event>
<event>
 5   0  0.1404159E-04  0.2195424E+04  0.7818609E-02  0.8520335E-01
        2   -1    0    0  501    0  0.00000000000E+00  0.00000000000E+00  0.10512990644E+04  0.10512990645E+04  0.25500000920E-02 0.  1.
       -2   -1    0    0    0  501  0.00000000000E+00  0.00000000000E+00 -0.11461743943E+04  0.11461743943E+04  0.25500000920E-02 0. -1.
    10030    2    1    2    0    0  0.00000000000E+00  0.00000000000E+00 -0.94875329820E+02  0.21974734587E+04  0.21954243949E+04 0.  0.
        5    1    3    3  502    0 -0.70204724871E+03  0.50226237885E+02  0.79570057355E+03  0.10623344610E+04  0.46999998093E+01 0.  1.
       -5    1    3    3    0  502  0.70204724871E+03 -0.50226237885E+02 -0.89057590336E+03  0.11351389977E+04  0.46999998093E+01 0. -1.
</event>
<event>
 5   0  0.1404159E-04  0.2073628E+04  0.7818609E-02  0.8572950E-01
        2   -1    0    0  501    0  0.00000000000E+00  0.00000000000E+00  0.29353903757E+04  0.29353903757E+04  0.25500000920E-02 0.  1.
       -2   -1    0    0    0  501  0.00000000000E+00  0.00000000000E+00 -0.36621482871E+03  0.36621482872E+03  0.25500000920E-02 0. -1.
    10030    2    1    2    0    0  0.00000000000E+00  0.00000000000E+00  0.25691755470E+04  0.33016052045E+04  0.20736282055E+04 0.  0.
        5    1    3    3  502    0 -0.61129877763E+03  0.21250068015E+03 -0.51025557198E+01  0.64721778457E+03  0.46999998093E+01 0. -1.
       -5    1    3    3    0  502  0.61129877763E+03 -0.21250068015E+03  0.25742781027E+04  0.26543874199E+04  0.46999998093E+01 0.  1.
</event>
<event>
 5   0  0.1226021E-04  0.2193457E+04  0.7818609E-02  0.8521156E-01
       -2   -1    0    0    0  501  0.00000000000E+00  0.00000000000E+00  0.18714296232E+04  0.18714296232E+04  0.25500000920E-02 0.  1.
        2   -1    0    0  501    0  0.00000000000E+00  0.00000000000E+00 -0.64272452993E+03  0.64272452994E+03  0.25500000920E-02 0. -1.
    10030    2    1    2    0    0  0.00000000000E+00  0.00000000000E+00  0.12287050933E+04  0.25141541531E+04  0.21934572938E+04 0.  0.
        2    1    3    3  502    0 -0.12201196275E+03 -0.74507419111E+03 -0.29743352550E+03  0.81147345700E+03  0.25500000920E-02 0. -1.
       -2    1    3    3    0  502  0.12201196275E+03  0.74507419111E+03  0.15261386188E+04  0.17026806962E+04  0.25500000920E-02 0.  1.
</event>
<event>
 5   0  0.5861816E-05  0.1454449E+04  0.7818609E-02  0.8915322E-01
        1   -1    0    0  501    0  0.00000000000E+00  0.00000000000E+00  0.95526054615E+03  0.95526054616E+03  0.50400001928E-02 0.  1.
       -1   -1    0    0    0  501  0.00000000000E+00  0.00000000000E+00 -0.55362406494E+03  0.55362406496E+03  0.50400001928E-02 0. -1.
    10030    2    1    2    0    0  0.00000000000E+00  0.00000000000E+00  0.40163648120E+03  0.15088846111E+04  0.14544486607E+04 0.  0.
        1    1    3    3  502    0 -0.54728595199E+03  0.24837079871E+02  0.69696061151E+03  0.88650599987E+03  0.50400001928E-02 0.  1.
       -1    1    3    3    0  502  0.54728595199E+03 -0.24837079871E+02 -0.29532413031E+03  0.62237861125E+03  0.50400001928E-02 0. -1.
</event>
<event>
 5   0  0.1404159E-04  0.2301636E+04  0.7818609E-02  0.8477276E-01
        2   -1    0    0  501    0  0.00000000000E+00  0.00000000000E+00  0.19490788822E+04  0.19490788822E+04  0.25500000920E-02 0. -1.
       -2   -1    0    0    0  501  0.00000000000E+00  0.00000000000E+00 -0.67949137133E+03  0.67949137134E+03  0.25500000920E-02 0.  1.
    10030    2    1    2    0    0  0.00000000000E+00  0.00000000000E+00  0.12695875109E+04  0.26285702536E+04  0.23016361854E+04 0.  0.
        5    1    3    3  502    0  0.64422550063E+03 -0.45937648643E+03 -0.31955275841E+03  0.85334008892E+03  0.46999998093E+01 0.  1.
       -5    1    3    3    0  502 -0.64422550063E+03  0.45937648643E+03  0.15891402693E+04  0.17752301646E+04  0.46999998093E+01 0. -1.
</event>
<event>
 5   0  0.5895063E-05  0.2186587E+04  0.7818609E-02  0.8524032E-01
       -1   -1    0    0    0  501  0.00000000000E+00  0.00000000000E+00  0.13355989496E+04  0.13355989496E+04  0.50400001928E-02 0. -1.
        1   -1    0    0  501    0  0.00000000000E+00  0.00000000000E+00 -0.89494698936E+03  0.89494698938E+03  0.50400001928E-02 0.  1.
    10030    2    1    2    0    0  0.00000000000E+00  0.00000000000E+00  0.44065196023E+03  0.22305459390E+04  0.21865866175E+04 0.  0.
        5    1    3    3  502    0 -0.94646099913E+02 -0.49084214928E+03 -0.77153012793E+03  0.91932841142E+03  0.46999998093E+01 0.  1.
       -5    1    3    3    0  502  0.94646099913E+02  0.49084214928E+03  0.12121820882E+04  0.13112175276E+04  0.46999998093E+01 0. -1.
</event>
<event>
 5   0  0.1252124E-04  0.2166008E+04  0.7818609E-02  0.8532711E-01
       -2   -1    0    0    0  501  0.00000000000E+00  0.00000000000E+00  0.10388141370E+04  0.10388141370E+04  0.25500000920E-02 0. -1.
        2   -1    0    0  501    0  0.00000000000E+00  0.00000000000E+00 -0.11290731960E+04  0.11290731960E+04  0.25500000920E-02 0.  1.
    10030    2    1    2    0    0  0.00000000000E+00  0.00000000000E+00 -0.90259058930E+02  0.21678873330E+04  0.21660075694E+04 0.  0.
        3    1    3    3  502    0 -0.28632077022E+03 -0.64319786196E+02 -0.10885219324E+04  0.11273848615E+04  0.10100000352E+00 0.  1.
       -3    1    3    3    0  502  0.28632077022E+03  0.64319786196E+02  0.99826287351E+03  0.10405024715E+04  0.10100000352E+00 0. -1.
</event>
<event>
 5   0  0.1404159E-04  0.2189093E+04  0.7818609E-02  0.8522982E-01
       -2   -1    0    0    0  501  0.00000000000E+00  0.00000000000E+00  0.15493240326E+04  0.15493240326E+04  0.25500000920E-02 0.  1.
        2   -1    0    0  501    0  0.00000000000E+00  0.00000000000E+00 -0.77326102615E+03  0.77326102615E+03  0.25500000920E-02 0. -1.
    10030    2    1    2    0    0  0.00000000000E+00  0.00000000000E+00  0.77606300644E+03  0.23225850587E+04  0.21890928635E+04 0.  0.
        5    1    3    3  502    0  0.63276593708E+03  0.82622094138E+03  0.28272981587E+02  0.10410836790E+04  0.46999998093E+01 0. -1.
       -5    1    3    3    0  502 -0.63276593708E+03 -0.82622094138E+03  0.74779002485E+03  0.12815013798E+04  0.46999998093E+01 0.  1.
</event>
<event>
 5   0  0.5981239E-05  0.2202489E+04  0.7818609E-02  0.8517393E-01
       -1   -1    0    0    0  501  0.00000000000E+00  0.00000000000E+00  0.64475145367E+03  0.64475145369E+03  0.50400001928E-02 0.  1.
        1   -1    0    0  501    0  0.00000000000E+00  0.00000000000E+00 -0.18809407391E+04  0.18809407391E+04  0.50400001928E-02 0. -1.
    10030    2    1    2    0    0  0.00000000000E+00  0.00000000000E+00 -0.12361892855E+04  0.25256921928E+04  0.22024888430E+04 0.  0.
        4    1    3    3  502    0 -0.44287888483E+03 -0.52789073776E+03  0.36698989196E+03  0.78070066693E+03  0.12699999809E+01 0.  1.
       -4    1    3    3    0  502  0.44287888483E+03  0.52789073776E+03 -0.16031791774E+04  0.17449915259E+04  0.12699999809E+01 0. -1.
</event>
<event>
 5   0  0.1252124E-04  0.2197274E+04  0.7818609E-02  0.8519564E-01
       -2   -1    0    0    0  501  0.00000000000E+00  0.00000000000E+00  0.70735478731E+03  0.70735478732E+03  0.25500000920E-02 0.  1.
        2   -1    0    0  501    0  0.00000000000E+00  0.00000000000E+00 -0.17063620110E+04  0.17063620110E+04  0.25500000920E-02 0. -1.
    10030    2    1    2    0    0  0.00000000000E+00  0.00000000000E+00 -0.99900722366E+03  0.24137167983E+04  0.21972740724E+04 0.  0.
        3    1    3    3  502    0 -0.10634065281E+04 -0.20410823024E+03 -0.70357060204E+03  0.12913191766E+04  0.10100000352E+00 0. -1.
       -3    1    3    3    0  502  0.10634065281E+04  0.20410823024E+03 -0.29543662162E+03  0.11223976217E+04  0.10100000352E+00 0.  1.
</event>
<event>
 5   0  0.1226021E-04  0.2201889E+04  0.7818609E-02  0.8517642E-01
       -2   -1    0    0    0  501  0.00000000000E+00  0.00000000000E+00  0.14885716738E+04  0.14885716738E+04  0.25500000920E-02 0. -1.
        2   -1    0    0  501    0  0.00000000000E+00  0.00000000000E+00 -0.81425624541E+03  0.81425624542E+03  0.25500000920E-02 0.  1.
    10030    2    1    2    0    0  0.00000000000E+00  0.00000000000E+00  0.67431542843E+03  0.23028279193E+04  0.22018889910E+04 0.  0.
        2    1    3    3  502    0 -0.38454631789E+03  0.65469873716E+03 -0.49661678175E+03  0.90726762036E+03  0.25500000920E-02 0.  1.
       -2    1    3    3    0  502  0.38454631789E+03 -0.65469873716E+03  0.11709322102E+04  0.13955602989E+04  0.25500000920E-02 0. -1.
</event>
<event>
 5   0  0.1311472E-04  0.2259649E+04  0.7818609E-02  0.8494003E-01
        2   -1    0    0  501    0  0.00000000000E+00  0.00000000000E+00  0.24878749602E+04  0.24878749602E+04  0.25500000920E-02 0.  1.
       -2   -1    0    0    0  501  0.00000000000E+00  0.00000000000E+00 -0.51309002362E+03  0.51309002362E+03  0.25500000920E-02 0. -1.
    10030    2    1    2    0    0  0.00000000000E+00  0.00000000000E+00  0.19747849366E+04  0.30009649839E+04  0.22596493729E+04 0.  0.
        4    1    3    3  502    0 -0.51864048300E+03  0.55791472362E+03  0.20955488406E+04  0.22297047665E+04  0.12699999809E+01 0.  1.
       -4    1    3    3    0  502  0.51864048300E+03 -0.55791472362E+03 -0.12076390402E+03  0.77126021734E+03  0.12699999809E+01 0. -1.
</event>
<event>
 5   0  0.1252124E-04  0.2247384E+04  0.7818609E-02  0.8498960E-01
       -2   -1    0    0    0  501  0.00000000000E+00  0.00000000000E+00  0.10627690450E+04  0.10627690450E+04  0.25500000920E-02 0.  1.
        2   -1    0    0  501    0  0.00000000000E+00  0.00000000000E+00 -0.11881078672E+04  0.11881078672E+04  0.25500000920E-02 0. -1.
    10030    2    1    2    0    0  0.00000000000E+00  0.00000000000E+00 -0.12533882222E+03  0.22508769121E+04  0.22473844916E+04 0.  0.
        3    1    3    3  502    0  0.65649781109E+02  0.10349627393E+03 -0.11813935117E+04  0.11877339821E+04  0.10100000352E+00 0. -1.
       -3    1    3    3    0  502 -0.65649781109E+02 -0.10349627393E+03  0.10560546895E+04  0.10631429301E+04  0.10100000352E+00 0.  1.
</event>
<event>
 5   0  0.1241430E-04  0.2197653E+04  0.7818609E-02  0.8519406E-01
        2   -1    0    0  501    0  0.00000000000E+00  0.00000000000E+00  0.20782686848E+04  0.20782686848E+04  0.25500000920E-02 0. -1.
       -2   -1    0    0    0  501  0.00000000000E+00  0.00000000000E+00 -0.58097378851E+03  0.58097378851E+03  0.25500000920E-02 0.  1.
    10030    2    1    2    0    0  0.00000000000E+00  0.00000000000E+00  0.14972948963E+04  0.26592424733E+04  0.21976529584E+04 0.  0.
        1    1    3    3  502    0  0.88442427844E+03  0.65083435373E+03  0.79747018991E+03  0.13571110360E+04  0.50400001928E-02 0. -1.
       -1    1    3    3    0  502 -0.88442427844E+03 -0.65083435373E+03  0.69982470639E+03  0.13021314373E+04  0.50400001928E-02 0.  1.
</event>
<event>
 5   0  0.1241430E-04  0.1888463E+04  0.7818609E-02  0.8660621E-01
       -2   -1    0    0    0  501  0.00000000000E+00  0.00000000000E+00  0.60412863890E+03  0.60412863890E+03  0.25500000920E-02 0.  1.
        2   -1    0    0  501    0  0.00000000000E+00  0.00000000000E+00 -0.14757997327E+04  0.14757997327E+04  0.25500000920E-02 0. -1.
    10030    2    1    2    0    0  0.00000000000E+00  0.00000000000E+00 -0.87167109383E+03  0.20799283716E+04  0.18884627439E+04 0.  0.
        1    1    3    3  502    0  0.45538626787E+03 -0.78535272996E+01 -0.13468194862E+04  0.14217457787E+04  0.50400001928E-02 0. -1.
       -1    1    3    3    0  502 -0.45538626787E+03  0.78535272996E+01  0.47514839235E+03  0.65818259293E+03  0.50400001928E-02 0.  1.
</event>
<event>
 5   0  0.5861816E-05  0.2251477E+04  0.7818609E-02  0.8497302E-01
        1   -1    0    0  501    0  0.00000000000E+00  0.00000000000E+00  0.11951164925E+04  0.11951164925E+04  0.50400001928E-02 0.  1.
       -1   -1    0    0    0  501  0.00000000000E+00  0.00000000000E+00 -0.10603883503E+04  0.10603883503E+04  0.50400001928E-02 0. -1.
    10030    2    1    2    0    0  0.00000000000E+00  0.00000000000E+00  0.13472814227E+03  0.22555048428E+04  0.22514773869E+04 0.  0.
        1    1    3    3  502    0 -0.29940776048E+03  0.92347375421E+02 -0.10158260968E+04  0.10630501888E+04  0.50400001928E-02 0. -1.
       -1    1    3    3    0  502  0.29940776048E+03 -0.92347375421E+02  0.11505542391E+04  0.11924546540E+04  0.50400001928E-02 0.  1.
</event>
<event>
 5   0  0.5849604E-05  0.2183099E+04  0.7818609E-02  0.8525496E-01
        1   -1    0    0  501    0  0.00000000000E+00  0.00000000000E+00  0.16477248176E+04  0.16477248176E+04  0.50400001928E-02 0.  1.
       -1   -1    0    0    0  501  0.00000000000E+00  0.00000000000E+00 -0.72310637478E+03  0.72310637480E+03  0.50400001928E-02 0. -1.
    10030    2    1    2    0    0  0.00000000000E+00  0.00000000000E+00  0.92461844284E+03  0.23708311924E+04  0.21830990079E+04 0.  0.
        2    1    3    3  502    0 -0.35130172845E+03  0.60707086802E+03 -0.44599453455E+03  0.83117932365E+03  0.25500000920E-02 0. -1.
       -2    1    3    3    0  502  0.35130172845E+03 -0.60707086802E+03  0.13706129774E+04  0.15396518688E+04  0.25500000920E-02 0.  1.
</event>
<event>
 5   0  0.1241430E-04  0.2187501E+04  0.7818609E-02  0.8523649E-01
        2   -1    0    0  501    0  0.00000000000E+00  0.00000000000E+00  0.15089619693E+04  0.15089619693E+04  0.25500000920E-02 0. -1.
       -2   -1    0    0    0  501  0.00000000000E+00  0.00000000000E+00 -0.79278988410E+03  0.79278988411E+03  0.25500000920E-02 0.  1.
    10030    2    1    2    0    0  0.00000000000E+00  0.00000000000E+00  0.71617208515E+03  0.23017518534E+04  0.21875006603E+04 0.  0.
        1    1    3    3  502    0  0.54567063352E+03  0.35435965048E+03 -0.56701579645E+03  0.86303772550E+03  0.50400001928E-02 0.  1.
       -1    1    3    3    0  502 -0.54567063352E+03 -0.35435965048E+03  0.12831878816E+04  0.14387141279E+04  0.50400001928E-02 0. -1.
</event>
<event>
 5   0  0.6263558E-05  0.2221227E+04  0.7818609E-02  0.8509644E-01
        1   -1    0    0  501    0  0.00000000000E+00  0.00000000000E+00  0.11126361670E+04  0.11126361670E+04  0.50400001928E-02 0.  1.
       -1   -1    0    0    0  501  0.00000000000E+00  0.00000000000E+00 -0.11085949903E+04  0.11085949903E+04  0.50400001928E-02 0. -1.
    10030    2    1    2    0    0  0.00000000000E+00  0.00000000000E+00  0.40411766936E+01  0.22212311572E+04  0.22212274811E+04 0.  0.
        3    1    3    3  502    0 -0.98673081981E+03  0.47395267110E+03 -0.18558042920E+03  0.11102742684E+04  0.10100000352E+00 0.  1.
       -3    1    3    3    0  502  0.98673081981E+03 -0.47395267110E+03  0.18962160589E+03  0.11109568888E+04  0.10100000352E+00 0. -1.
</event>
<event>
 5   0  0.1252124E-04  0.2170151E+04  0.7818609E-02  0.8530956E-01
       -2   -1    0    0    0  501  0.00000000000E+00  0.00000000000E+00  0.14130340049E+04  0.14130340049E+04  0.25500000920E-02 0.  1.
        2   -1    0    0  501    0  0.00000000000E+00  0.00000000000E+00 -0.83323437748E+03  0.83323437748E+03  0.25500000920E-02 0. -1.
    10030    2    1    2    0    0  0.00000000000E+00  0.00000000000E+00  0.57979962745E+03  0.22462683824E+04  0.21701506947E+04 0.  0.
        3    1    3    3  502    0 -0.97896375358E+03  0.21119565056E+03 -0.14237855194E+03  0.10115558788E+04  0.10100000352E+00 0. -1.
       -3    1    3    3    0  502  0.97896375358E+03 -0.21119565056E+03  0.72217817939E+03  0.12347125036E+04  0.10100000352E+00 0.  1.
</event>
<event>
 5   0  0.6263558E-05  0.2213346E+04  0.7818609E-02  0.8512894E-01
        1   -1    0    0  501    0  0.00000000000E+00  0.00000000000E+00  0.11295002646E+04  0.11295002646E+04  0.50400001928E-02 0. -1.
       -1   -1    0    0    0  501  0.00000000000E+00  0.00000000000E+00 -0.10843071566E+04  0.10843071566E+04  0.50400001928E-02 0.  1.
    10030    2    1    2    0    0  0.00000000000E+00  0.00000000000E+00  0.45193108019E+02  0.22138074212E+04  0.22133460826E+04 0.  0.
        3    1    3    3  502    0  0.25815243273E+03 -0.20784539957E+03 -0.10335036453E+04  0.10853442697E+04  0.10100000352E+00 0.  1.
       -3    1    3    3    0  502 -0.25815243273E+03  0.20784539957E+03  0.10786967533E+04  0.11284631516E+04  0.10100000352E+00 0. -1.
</event>
<event>
 5   0  0.1226021E-04  0.2204581E+04  0.7818609E-02  0.8516524E-01
        2   -1    0    0  501    0  0.00000000000E+00  0.00000000000E+00  0.28143144378E+04  0.28143144378E+04  0.25500000920E-02 0. -1.
       -2   -1    0    0    0  501  0.00000000000E+00  0.00000000000E+00 -0.43173721441E+03  0.43173721441E+03  0.25500000920E-02 0.  1.
    10030    2    1    2    0    0  0.00000000000E+00  0.00000000000E+00  0.23825772234E+04  0.32460516522E+04  0.22045809360E+04 0.  0.
        2    1    3    3  502    0 -0.17528550425E+03 -0.74885736847E+03  0.28612577994E+02  0.76963046064E+03  0.25500000920E-02 0.  1.
       -2    1    3    3    0  502  0.17528550425E+03  0.74885736847E+03  0.23539646454E+04  0.24764211916E+04  0.25500000920E-02 0. -1.
</event>
<event>
 5   0  0.5981239E-05  0.2275474E+04  0.7818609E-02  0.8487655E-01
        1   -1    0    0  501    0  0.00000000000E+00  0.00000000000E+00  0.14844490290E+04  0.14844490290E+04  0.50400001928E-02 0.  1.
       -1   -1    0    0    0  501  0.00000000000E+00  0.00000000000E+00 -0.87200378270E+03  0.87200378271E+03  0.50400001928E-02 0. -1.
    10030    2    1    2    0    0  0.00000000000E+00  0.00000000000E+00  0.61244524628E+03  0.23564528117E+04  0.22754737252E+04 0.  0.
        4    1    3    3  502    0 -0.46804506918E+03  0.42156761031E+03 -0.67494318149E+03  0.92322009726E+03  0.12699999809E+01 0. -1.
       -4    1    3    3    0  502  0.46804506918E+03 -0.42156761031E+03  0.12873884278E+04  0.14332327144E+04  0.12699999809E+01 0.  1.
</event>
<event>
 5   0  0.5895063E-05  0.1424936E+04  0.7818609E-02  0.8935964E-01
        1   -1    0    0  501    0  0.00000000000E+00  0.00000000000E+00  0.19185070398E+04  0.19185070398E+04  0.50400001928E-02 0. -1.
       -1   -1    0    0    0  501  0.00000000000E+00  0.00000000000E+00 -0.26458622635E+03  0.26458622640E+03  0.50400001928E-02 0.  1.
    10030    2    1    2    0    0  0.00000000000E+00  0.00000000000E+00  0.16539208134E+04  0.21830932662E+04  0.14249358413E+04 0.  0.
        5    1    3    3  502    0 -0.48646216213E+03 -0.10258156181E+03  0.45127083531E+02  0.49922635715E+03  0.46999998093E+01 0.  1.
       -5    1    3    3    0  502  0.48646216213E+03  0.10258156181E+03  0.16087937299E+04  0.16838669091E+04  0.46999998093E+01 0. -1.
</event>
<event>
 5   0  0.5861816E-05  0.2176240E+04  0.7818609E-02  0.8528383E-01
        1   -1    0    0  501    0  0.00000000000E+00  0.00000000000E+00  0.11336726826E+04  0.11336726826E+04  0.50400001928E-02 0. -1.
       -1   -1    0    0    0  501  0.00000000000E+00  0.00000000000E+00 -0.10443974736E+04  0.10443974736E+04  0.50400001928E-02 0.  1.
    10030    2    1    2    0    0  0.00000000000E+00  0.00000000000E+00  0.89275209072E+02  0.21780701562E+04  0.21762397714E+04 0.  0.
        1    1    3    3  502    0  0.44565415070E+03  0.72420495866E+03 -0.63484757794E+03  0.10611841930E+04  0.50400001928E-02 0.  1.
       -1    1    3    3    0  502 -0.44565415070E+03 -0.72420495866E+03  0.72412278701E+03  0.11168859632E+04  0.50400001928E-02 0. -1.
</event>
<event>
 5   0  0.5849604E-05  0.2183011E+04  0.7818609E-02  0.8525533E-01
        1   -1    0    0  501    0  0.00000000000E+00  0.00000000000E+00  0.25843242624E+04  0.25843242624E+04  0.50400001928E-02 0.  1.
       -1   -1    0    0    0  501  0.00000000000E+00  0.00000000000E+00 -0.46100433372E+03  0.46100433375E+03  0.50400001928E-02 0. -1.
    10030    2    1    2    0    0  0.00000000000E+00  0.00000000000E+00  0.21233199287E+04  0.30453285962E+04  0.21830113923E+04 0.  0.
        2    1    3    3  502    0 -0.38507326250E+03  0.82989892258E+03  0.23122185035E+03  0.94365098595E+03  0.25500000920E-02 0.  1.
       -2    1    3    3    0  502  0.38507326250E+03 -0.82989892258E+03  0.18920980784E+04  0.21016776102E+04  0.25500000920E-02 0. -1.
</event>
<event>
 5   0  0.1252124E-04  0.2227492E+04  0.7818609E-02  0.8507072E-01
       -2   -1    0    0    0  501  0.00000000000E+00  0.00000000000E+00  0.11791445796E+04  0.11791445796E+04  0.25500000920E-02 0. -1.
        2   -1    0    0  501    0  0.00000000000E+00  0.00000000000E+00 -0.10519742338E+04  0.10519742338E+04  0.25500000920E-02 0.  1.
    10030    2    1    2    0    0  0.00000000000E+00  0.00000000000E+00  0.12717034583E+03  0.22311188134E+04  0.22274916078E+04 0.  0.
        3    1    3    3  502    0 -0.22362700116E+03  0.28966919129E+03  0.11172070272E+04  0.11756142343E+04  0.10100000352E+00 0. -1.
       -3    1    3    3    0  502  0.22362700116E+03 -0.28966919129E+03 -0.99003668135E+03  0.10555045792E+04  0.10100000352E+00 0.  1.
</event>
<event>
 5   0  0.1241430E-04  0.2081669E+04  0.7818609E-02  0.8569362E-01
       -2   -1    0    0    0  501  0.00000000000E+00  0.00000000000E+00  0.86116855863E+03  0.86116855863E+03  0.25500000920E-02 0.  1.
        2   -1    0    0  501    0  0.00000000000E+00  0.00000000000E+00 -0.12579838504E+04  0.12579838504E+04  0.25500000920E-02 0. -1.
    10030    2    1    2    0    0  0.00000000000E+00  0.00000000000E+00 -0.39681529173E+03  0.21191524090E+04  0.20816686953E+04 0.  0.
        1    1    3    3  502    0  0.20151352150E+03  0.86787121196E+03  0.34935935514E+03  0.95700579881E+03  0.50400001928E-02 0.  1.
       -1    1    3    3    0  502 -0.20151352150E+03 -0.86787121196E+03 -0.74617464687E+03  0.11621466102E+04  0.50400001928E-02 0. -1.
</event>
<event>
 5   0  0.5849604E-05  0.2257185E+04  0.7818609E-02  0.8494996E-01
        1   -1    0    0  501    0  0.00000000000E+00  0.00000000000E+00  0.19374458354E+04  0.19374458354E+04  0.50400001928E-02 0.  1.
       -1   -1    0    0    0  501  0.00000000000E+00  0.00000000000E+00 -0.65742301748E+03  0.65742301750E+03  0.50400001928E-02 0. -1.
    10030    2    1    2    0    0  0.00000000000E+00  0.00000000000E+00  0.12800228179E+04  0.25948688529E+04  0.22571854043E+04 0.  0.
        2    1    3    3  502    0 -0.17294326843E+03  0.96814690418E+03  0.35588601790E+01  0.98347875811E+03  0.25500000920E-02 0. -1.
       -2    1    3    3    0  502  0.17294326843E+03 -0.96814690418E+03  0.12764639577E+04  0.16113900947E+04  0.25500000920E-02 0.  1.
</event>
<event>
 5   0  0.5981239E-05  0.2202042E+04  0.7818609E-02  0.8517579E-01
        1   -1    0    0  501    0  0.00000000000E+00  0.00000000000E+00  0.12269696944E+04  0.12269696944E+04  0.50400001928E-02 0. -1.
       -1   -1    0    0    0  501  0.00000000000E+00  0.00000000000E+00 -0.98800100573E+03  0.98800100575E+03  0.50400001928E-02 0.  1.
    10030    2    1    2    0    0  0.00000000000E+00  0.00000000000E+00  0.23896868864E+03  0.22149707001E+04  0.22020420451E+04 0.  0.
        4    1    3    3  502    0  0.32572434333E+03 -0.46072312990E+03 -0.83152075607E+03  0.10048833420E+04  0.12699999809E+01 0.  1.
       -4    1    3    3    0  502 -0.32572434333E+03  0.46072312990E+03  0.10704894447E+04  0.12100873582E+04  0.12699999809E+01 0. -1.
</event>
<event>
 5   0  0.6263558E-05  0.2727555E+04  0.7818609E-02  0.8326119E-01
        1   -1    0    0  501    0  0.00000000000E+00  0.00000000000E+00  0.10434906003E+04  0.10434906004E+04  0.50400001928E-02 0. -1.
       -1   -1    0    0    0  501  0.00000000000E+00  0.00000000000E+00 -0.17823727385E+04  0.17823727385E+04  0.50400001928E-02 0.  1.
    10030    2    1    2    0    0  0.00000000000E+00  0.00000000000E+00 -0.73888213812E+03  0.28258633388E+04  0.27275550949E+04 0.  0.
        3    1    3    3  502    0  0.26483038046E+02  0.84790840777E+02 -0.17793722694E+04  0.17815882020E+04  0.10100000352E+00 0.  1.
       -3    1    3    3    0  502 -0.26483038046E+02 -0.84790840777E+02  0.10404901313E+04  0.10442751369E+04  0.10100000352E+00 0. -1.
</event>
<event>
 5   0  0.5981239E-05  0.2246561E+04  0.7818609E-02  0.8499294E-01
       -1   -1    0    0    0  501  0.00000000000E+00  0.00000000000E+00  0.98443060825E+03  0.98443060827E+03  0.50400001928E-02 0.  1.
        1   -1    0    0  501    0  0.00000000000E+00  0.00000000000E+00 -0.12817146479E+04  0.12817146479E+04  0.50400001928E-02 0. -1.
    10030    2    1    2    0    0  0.00000000000E+00  0.00000000000E+00 -0.29728403967E+03  0.22661452562E+04  0.22465610435E+04 0.  0.
        4    1    3    3  502    0  0.57457969882E+02  0.11070327924E+03 -0.12747072468E+04  0.12807953827E+04  0.12699999809E+01 0. -1.
       -4    1    3    3    0  502 -0.57457969882E+02 -0.11070327924E+03  0.97742320718E+03  0.98534987348E+03  0.12699999809E+01 0.  1.
</event>
<event>
 5   0  0.1226021E-04  0.2210503E+04  0.7818609E-02  0.8514069E-01
       -2   -1    0    0    0  501  0.00000000000E+00  0.00000000000E+00  0.85932704230E+03  0.85932704230E+03  0.25500000920E-02 0. -1.
        2   -1    0    0  501    0  0.00000000000E+00  0.00000000000E+00 -0.14215558196E+04  0.14215558196E+04  0.25500000920E-02 0.  1.
    10030    2    1    2    0    0  0.00000000000E+00  0.00000000000E+00 -0.56222877729E+03  0.22808828619E+04  0.22105034340E+04 0.  0.
        2    1    3    3  502    0  0.49708535092E+03 -0.27836410878E+03  0.69614136470E+03  0.89955167879E+03  0.25500000920E-02 0. -1.
       -2    1    3    3    0  502 -0.49708535092E+03  0.27836410878E+03 -0.12583701420E+04  0.13813311831E+04  0.25500000920E-02 0.  1.
</event>
<event>
 5   0  0.1241430E-04  0.2226661E+04  0.7818609E-02  0.8507413E-01
        2   -1    0    0  501    0  0.00000000000E+00  0.00000000000E+00  0.14276434273E+04  0.14276434273E+04  0.25500000920E-02 0.  1.
       -2   -1    0    0    0  501  0.00000000000E+00  0.00000000000E+00 -0.86821726256E+03  0.86821726256E+03  0.25500000920E-02 0. -1.
    10030    2    1    2    0    0  0.00000000000E+00  0.00000000000E+00  0.55942616477E+03  0.22958606899E+04  0.22266608798E+04 0.  0.
        1    1    3    3  502    0 -0.51376935031E+03 -0.48978493420E+03  0.11640728440E+04  0.13634198962E+04  0.50400001928E-02 0.  1.
       -1    1    3    3    0  502  0.51376935031E+03  0.48978493420E+03 -0.60464667922E+03  0.93244079373E+03  0.50400001928E-02 0. -1.
</event>
<event>
 5   0  0.5861816E-05  0.2188284E+04  0.7818609E-02  0.8523320E-01
        1   -1    0    0  501    0  0.00000000000E+00  0.00000000000E+00  0.11793969392E+04  0.11793969392E+04  0.50400001928E-02 0.  1.
       -1   -1    0    0    0  501  0.00000000000E+00  0.00000000000E+00 -0.10150497929E+04  0.10150497929E+04  0.50400001928E-02 0. -1.
    10030    2    1    2    0    0  0.00000000000E+00  0.00000000000E+00  0.16434714636E+03  0.21944467321E+04  0.21882839111E+04 0.  0.
        1    1    3    3  502    0 -0.48191357022E+03  0.71842895634E+03 -0.58961286918E+03  0.10469117394E+04  0.50400001928E-02 0. -1.
       -1    1    3    3    0  502  0.48191357022E+03 -0.71842895634E+03  0.75396001554E+03  0.11475349927E+04  0.50400001928E-02 0.  1.
</event>
<event>
 5   0  0.1226021E-04  0.2229805E+04  0.7818609E-02  0.8506124E-01
       -2   -1    0    0    0  501  0.00000000000E+00  0.00000000000E+00  0.13184378086E+04  0.13184378086E+04  0.25500000920E-02 0. -1.
        2   -1    0    0  501    0  0.00000000000E+00  0.00000000000E+00 -0.94278850018E+03  0.94278850019E+03  0.25500000920E-02 0.  1.
    10030    2    1    2    0    0  0.00000000000E+00  0.00000000000E+00  0.37564930838E+03  0.22612263088E+04  0.22298053764E+04 0.  0.
        2    1    3    3  502    0 -0.68358402849E+03  0.21886917815E+03 -0.67731898244E+03  0.98688998634E+03  0.25500000920E-02 0.  1.
       -2    1    3    3    0  502  0.68358402849E+03 -0.21886917815E+03  0.10529682908E+04  0.12743363224E+04  0.25500000920E-02 0. -1.
</event>
<event>
 5   0  0.6263558E-05  0.2149699E+04  0.7818609E-02  0.8539661E-01
       -1   -1    0    0    0  501  0.00000000000E+00  0.00000000000E+00  0.97345208275E+03  0.97345208276E+03  0.50400001928E-02 0. -1.
        1   -1    0    0  501    0  0.00000000000E+00  0.00000000000E+00 -0.11868089954E+04  0.11868089954E+04  0.50400001928E-02 0.  1.
    10030    2    1    2    0    0  0.00000000000E+00  0.00000000000E+00 -0.21335691262E+03  0.21602610781E+04  0.21496992240E+04 0.  0.
        3    1    3    3  502    0  0.31072040812E+02 -0.75414969985E+03 -0.87567964715E+03  0.11560804886E+04  0.10100000352E+00 0.  1.
       -3    1    3    3    0  502 -0.31072040812E+02  0.75414969985E+03  0.66232273453E+03  0.10041805895E+04  0.10100000352E+00 0. -1.
</event>
<event>
 5   0  0.1241430E-04  0.2209487E+04  0.7818609E-02  0.8514490E-01
        2   -1    0    0  501    0  0.00000000000E+00  0.00000000000E+00  0.23868416867E+04  0.23868416867E+04  0.25500000920E-02 0. -1.
       -2   -1    0    0    0  501  0.00000000000E+00  0.00000000000E+00 -0.51132753372E+03  0.51132753372E+03  0.25500000920E-02 0.  1.
    10030    2    1    2    0    0  0.00000000000E+00  0.00000000000E+00  0.18755141530E+04  0.28981692205E+04  0.22094867033E+04 0.  0.
        1    1    3    3  502    0  0.19187506947E+03 -0.55547537062E+03 -0.28928214749E+03  0.65502144281E+03  0.50400001928E-02 0.  1.
       -1    1    3    3    0  502 -0.19187506947E+03  0.55547537062E+03  0.21647963005E+04  0.22431477776E+04  0.50400001928E-02 0. -1.
</event>
<event>
 5   0  0.6263558E-05  0.2229251E+04  0.7818609E-02  0.8506351E-01
        1   -1    0    0  501    0  0.00000000000E+00  0.00000000000E+00  0.22026840991E+04  0.22026840991E+04  0.50400001928E-02 0.  1.
       -1   -1    0    0    0  501  0.00000000000E+00  0.00000000000E+00 -0.56403477970E+03  0.56403477972E+03  0.50400001928E-02 0. -1.
    10030    2    1    2    0    0  0.00000000000E+00  0.00000000000E+00  0.16386493194E+04  0.27667188788E+04  0.22292513906E+04 0.  0.
        3    1    3    3  502    0  0.10362283011E+04 -0.40417740427E+03  0.90935314346E+03  0.14366807634E+04  0.10100000352E+00 0. -1.
       -3    1    3    3    0  502 -0.10362283011E+04  0.40417740427E+03  0.72929617596E+03  0.13300381155E+04  0.10100000352E+00 0.  1.
</event>
<event>
 5   0  0.1404159E-04  0.2143991E+04  0.7818609E-02  0.8542109E-01
        2   -1    0    0  501    0  0.00000000000E+00  0.00000000000E+00  0.80829700546E+03  0.80829700547E+03  0.25500000920E-02 0.  1.
       -2   -1    0    0    0  501  0.00000000000E+00  0.00000000000E+00 -0.14217234088E+04  0.14217234088E+04  0.25500000920E-02 0. -1.
    10030    2    1    2    0    0  0.00000000000E+00  0.00000000000E+00 -0.61342640334E+03  0.22300204143E+04  0.21439913936E+04 0.  0.
        5    1    3    3  502    0 -0.99138740151E+03  0.35206931690E+03 -0.92662269317E+02  0.10561298073E+04  0.46999998093E+01 0. -1.
       -5    1    3    3    0  502  0.99138740151E+03 -0.35206931690E+03 -0.52076413402E+03  0.11738906069E+04  0.46999998093E+01 0.  1.
</event>
<event>
 5   0  0.1241430E-04  0.2214843E+04  0.7818609E-02  0.8512276E-01
        2   -1    0    0  501    0  0.00000000000E+00  0.00000000000E+00  0.11010922466E+04  0.11010922466E+04  0.25500000920E-02 0.  1.
       -2   -1    0    0    0  501  0.00000000000E+00  0.00000000000E+00 -0.11137868640E+04  0.11137868640E+04  0.25500000920E-02 0. -1.
    10030    2    1    2    0    0  0.00000000000E+00  0.00000000000E+00 -0.12694617396E+02  0.22148791106E+04  0.22148427306E+04 0.  0.
        1    1    3    3  502    0  0.21239230829E+03 -0.64862045741E+03 -0.87846431659E+03  0.11124381088E+04  0.50400001928E-02 0. -1.
       -1    1    3    3    0  502 -0.21239230829E+03  0.64862045741E+03  0.86576969919E+03  0.11024410018E+04  0.50400001928E-02 0.  1.
</event>
<event>
 5   0  0.5849604E-05  0.2177881E+04  0.7818609E-02  0.8527691E-01
        1   -1    0    0  501    0  0.00000000000E+00  0.00000000000E+00  0.17670277250E+04  0.17670277250E+04  0.50400001928E-02 0. -1.
       -1   -1    0    0    0  501  0.00000000000E+00  0.00000000000E+00 -0.67106577157E+03  0.67106577159E+03  0.50400001928E-02 0.  1.
    10030    2    1    2    0    0  0.00000000000E+00  0.00000000000E+00  0.10959619535E+04  0.24380934966E+04  0.21778813776E+04 0.  0.
        2    1    3    3  502    0 -0.53812840657E+03  0.67955520290E+03 -0.18986926695E+03  0.88737128322E+03  0.25500000920E-02 0.  1.
       -2    1    3    3    0  502  0.53812840657E+03 -0.67955520290E+03  0.12858312204E+04  0.15507222134E+04  0.25500000920E-02 0. -1.
</event>
<event>
 5   0  0.1226021E-04  0.2198558E+04  0.7818609E-02  0.8519029E-01
       -2   -1    0    0    0  501  0.00000000000E+00  0.00000000000E+00  0.13250846848E+04  0.13250846848E+04  0.25500000920E-02 0. -1.
        2   -1    0    0  501    0  0.00000000000E+00  0.00000000000E+00 -0.91195253370E+03  0.91195253371E+03  0.25500000920E-02 0.  1.
    10030    2    1    2    0    0  0.00000000000E+00  0.00000000000E+00  0.41313215112E+03  0.22370372185E+04  0.21985580144E+04 0.  0.
        2    1    3    3  502    0 -0.37348888329E+03  0.31182992001E+03  0.12095580735E+04  0.13037494307E+04  0.25500000920E-02 0. -1.
       -2    1    3    3    0  502  0.37348888329E+03 -0.31182992001E+03 -0.79642592240E+03  0.93328778778E+03  0.25500000920E-02 0.  1.
</event>
<event>
 5   0  0.1241430E-04  0.2253557E+04  0.7818609E-02  0.8496461E-01
        2   -1    0    0  501    0  0.00000000000E+00  0.00000000000E+00  0.20428687268E+04  0.20428687268E+04  0.25500000920E-02 0. -1.
       -2   -1    0    0    0  501  0.00000000000E+00  0.00000000000E+00 -0.62149374459E+03  0.62149374459E+03  0.25500000920E-02 0.  1.
    10030    2    1    2    0    0  0.00000000000E+00  0.00000000000E+00  0.14213749822E+04  0.26643624714E+04  0.22535573077E+04 0.  0.
        1    1    3    3  502    0  0.42548431400E+03  0.64484726514E+03 -0.25905510569E+03  0.81484627055E+03  0.50400001928E-02 0.  1.
       -1    1    3    3    0  502 -0.42548431400E+03 -0.64484726514E+03  0.16804300879E+04  0.18495162008E+04  0.50400001928E-02 0. -1.
</event>
<event>
 5   0  0.5849604E-05  0.2426657E+04  0.7818609E-02  0.8429590E-01
        1   -1    0    0  501    0  0.00000000000E+00  0.00000000000E+00  0.12117620093E+04  0.12117620093E+04  0.50400001928E-02 0. -1.
       -1   -1    0    0    0  501  0.00000000000E+00  0.00000000000E+00 -0.12148971609E+04  0.12148971609E+04  0.50400001928E-02 0.  1.
    10030    2    1    2    0    0  0.00000000000E+00  0.00000000000E+00 -0.31351515992E+01  0.24266591701E+04  0.24266571449E+04 0.  0.
        2    1    3    3  502    0 -0.10907743307E+04 -0.34076299996E+03 -0.40931558570E+03  0.12138563800E+04  0.25500000920E-02 0. -1.
       -2    1    3    3    0  502  0.10907743307E+04  0.34076299996E+03  0.40618043410E+03  0.12128027901E+04  0.25500000920E-02 0.  1.
</event>
<event>
 5   0  0.5981239E-05  0.2242556E+04  0.7818609E-02  0.8500921E-01
        1   -1    0    0  501    0  0.00000000000E+00  0.00000000000E+00  0.16947395351E+04  0.16947395351E+04  0.50400001928E-02 0. -1.
       -1   -1    0    0    0  501  0.00000000000E+00  0.00000000000E+00 -0.74186295717E+03  0.74186295718E+03  0.50400001928E-02 0.  1.
    10030    2    1    2    0    0  0.00000000000E+00  0.00000000000E+00  0.95287657794E+03  0.24366024923E+04  0.22425561158E+04 0.  0.
        4    1    3    3  502    0  0.87920094265E+03 -0.12115928869E+03  0.12209993540E+04  0.15094750433E+04  0.12699999809E+01 0. -1.
       -4    1    3    3    0  502 -0.87920094265E+03  0.12115928869E+03 -0.26812277610E+03  0.92712744903E+03  0.12699999809E+01 0.  1.
</event>
<event>
 5   0  0.1404159E-04  0.2172368E+04  0.7818609E-02  0.8530018E-01
       -2   -1    0    0    0  501  0.00000000000E+00  0.00000000000E+00  0.55167554752E+03  0.55167554753E+03  0.25500000920E-02 0.  1.
        2   -1    0    0  501    0  0.00000000000E+00  0.00000000000E+00 -0.21385672520E+04  0.21385672520E+04  0.25500000920E-02 0. -1.
    10030    2    1    2    0    0  0.00000000000E+00  0.00000000000E+00 -0.15868917044E+04  0.26902427995E+04  0.21723676113E+04 0.  0.
        5    1    3    3  502    0 -0.28774300318E+03  0.97408486455E+03 -0.31680837474E+03  0.10639675726E+04  0.46999998093E+01 0. -1.
       -5    1    3    3    0  502  0.28774300318E+03 -0.97408486455E+03 -0.12700833297E+04  0.16262752269E+04  0.46999998093E+01 0.  1.
</event>
<event>
 5   0  0.6263558E-05  0.2160715E+04  0.7818609E-02  0.8534960E-01
        1   -1    0    0  501    0  0.00000000000E+00  0.00000000000E+00  0.20210475392E+04  0.20210475392E+04  0.50400001928E-02 0. -1.
       -1   -1    0    0    0  501  0.00000000000E+00  0.00000000000E+00 -0.57750872298E+03  0.57750872300E+03  0.50400001928E-02 0.  1.
    10030    2    1    2    0    0  0.00000000000E+00  0.00000000000E+00  0.14435388162E+04  0.25985562622E+04  0.21607152367E+04 0.  0.
        3    1    3    3  502    0  0.99937467518E+03  0.86294374069E+02  0.23924942052E+03  0.10312306996E+04  0.10100000352E+00 0.  1.
       -3    1    3    3    0  502 -0.99937467518E+03 -0.86294374069E+02  0.12042893957E+04  0.15673255626E+04  0.10100000352E+00 0. -1.
</event>
<event>
 5   0  0.6263558E-05  0.2201770E+04  0.7818609E-02  0.8517692E-01
       -1   -1    0    0    0  501  0.00000000000E+00  0.00000000000E+00  0.13965219842E+04  0.13965219842E+04  0.50400001928E-02 0.  1.
        1   -1    0    0  501    0  0.00000000000E+00  0.00000000000E+00 -0.86783307824E+03  0.86783307826E+03  0.50400001928E-02 0. -1.
    10030    2    1    2    0    0  0.00000000000E+00  0.00000000000E+00  0.52868890592E+03  0.22643550624E+04  0.22017701718E+04 0.  0.
        3    1    3    3  502    0 -0.78825784743E+03  0.73553635560E+03  0.35340785703E+02  0.10787090181E+04  0.10100000352E+00 0. -1.
       -3    1    3    3    0  502  0.78825784743E+03 -0.73553635560E+03  0.49334812022E+03  0.11856460443E+04  0.10100000352E+00 0.  1.
</event>
<event>
 5   0  0.1252124E-04  0.2190440E+04  0.7818609E-02  0.8522418E-01
       -2   -1    0    0    0  501  0.00000000000E+00  0.00000000000E+00  0.69627774833E+03  0.69627774833E+03  0.25500000920E-02 0. -1.
        2   -1    0    0  501    0  0.00000000000E+00  0.00000000000E+00 -0.17227417492E+04  0.17227417492E+04  0.25500000920E-02 0.  1.
    10030    2    1    2    0    0  0.00000000000E+00  0.00000000000E+00 -0.10264640009E+04  0.24190194975E+04  0.21904399066E+04 0.  0.
        3    1    3    3  502    0 -0.42161730878E+03 -0.44644005497E+03 -0.15147512671E+04  0.16344850226E+04  0.10100000352E+00 0.  1.
       -3    1    3    3    0  502  0.42161730878E+03  0.44644005497E+03  0.48828726625E+03  0.78453447491E+03  0.10100000352E+00 0. -1.
</event>
<event>
 5   0  0.1404159E-04  0.2201021E+04  0.7818609E-02  0.8518003E-01
        2   -1    0    0  501    0  0.00000000000E+00  0.00000000000E+00  0.20932719847E+04  0.20932719847E+04  0.25500000920E-02 0.  1.
       -2   -1    0    0    0  501  0.00000000000E+00  0.00000000000E+00 -0.57857899990E+03  0.57857899991E+03  0.25500000920E-02 0. -1.
    10030    2    1    2    0    0  0.00000000000E+00  0.00000000000E+00  0.15146929848E+04  0.26718509846E+04  0.22010208644E+04 0.  0.
        5    1    3    3  502    0  0.97457419479E+03  0.48769677666E+03  0.94327013640E+03  0.14413270438E+04  0.46999998093E+01 0. -1.
       -5    1    3    3    0  502 -0.97457419479E+03 -0.48769677666E+03  0.57142284840E+03  0.12305239408E+04  0.46999998093E+01 0.  1.
</event>
<event>
 5   0  0.5895063E-05  0.1995419E+04  0.7818609E-02  0.8608766E-01
       -1   -1    0    0    0  501  0.00000000000E+00  0.00000000000E+00  0.11028632265E+04  0.11028632265E+04  0.50400001928E-02 0.  1.
        1   -1    0    0  501    0  0.00000000000E+00  0.00000000000E+00 -0.90258154525E+03  0.90258154527E+03  0.50400001928E-02 0. -1.
    10030    2    1    2    0    0  0.00000000000E+00  0.00000000000E+00  0.20028168124E+03  0.20054447718E+04  0.19954187482E+04 0.  0.
        5    1    3    3  502    0 -0.88114696662E+03 -0.24375023642E+03 -0.30132557408E+03  0.96262835307E+03  0.46999998093E+01 0. -1.
       -5    1    3    3    0  502  0.88114696662E+03  0.24375023642E+03  0.50160725532E+03  0.10428164187E+04  0.46999998093E+01 0.  1.
</event>
<event>
 5   0  0.5849604E-05  0.2114428E+04  0.7818609E-02  0.8554914E-01
        1   -1    0    0  501    0  0.00000000000E+00  0.00000000000E+00  0.27524406565E+04  0.27524406565E+04  0.50400001928E-02 0. -1.
       -1   -1    0    0    0  501  0.00000000000E+00  0.00000000000E+00 -0.40607635054E+03  0.40607635057E+03  0.50400001928E-02 0.  1.
    10030    2    1    2    0    0  0.00000000000E+00  0.00000000000E+00  0.23463643060E+04  0.31585170071E+04  0.21144276360E+04 0.  0.
        2    1    3    3  502    0  0.64899311443E+03 -0.51208611085E+02 -0.71145252464E+02  0.65488627363E+03  0.25500000920E-02 0.  1.
       -2    1    3    3    0  502 -0.64899311443E+03  0.51208611085E+02  0.24175095584E+04  0.25036307335E+04  0.25500000920E-02 0. -1.
</event>
<event>
 5   0  0.1311472E-04  0.2241247E+04  0.7818609E-02  0.8501454E-01
        2   -1    0    0  501    0  0.00000000000E+00  0.00000000000E+00  0.19580603670E+04  0.19580603670E+04  0.25500000920E-02 0. -1.
       -2   -1    0    0    0  501  0.00000000000E+00  0.00000000000E+00 -0.64134735407E+03  0.64134735408E+03  0.25500000920E-02 0.  1.
    10030    2    1    2    0    0  0.00000000000E+00  0.00000000000E+00  0.13167130129E+04  0.25994077211E+04  0.22412468276E+04 0.  0.
        4    1    3    3  502    0  0.80097484193E+03 -0.71237542905E+03  0.27940782341E+03  0.11077498788E+04  0.12699999809E+01 0.  1.
       -4    1    3    3    0  502 -0.80097484193E+03  0.71237542905E+03  0.10373051895E+04  0.14916578423E+04  0.12699999809E+01 0. -1.
</event>
<event>
 5   0  0.1404159E-04  0.2149767E+04  0.7818609E-02  0.8539632E-01
       -2   -1    0    0    0  501  0.00000000000E+00  0.00000000000E+00  0.82229545937E+03  0.82229545937E+03  0.25500000920E-02 0.  1.
        2   -1    0    0  501    0  0.00000000000E+00  0.00000000000E+00 -0.14050600867E+04  0.14050600867E+04  0.25500000920E-02 0. -1.
    10030    2    1    2    0    0  0.00000000000E+00  0.00000000000E+00 -0.58276462737E+03  0.22273555461E+04  0.21497669915E+04 0.  0.
        5    1    3    3  502    0  0.36124824201E+03  0.88443353990E+02 -0.13362589595E+04  0.13870589807E+04  0.46999998093E+01 0. -1.
       -5    1    3    3    0  502 -0.36124824201E+03 -0.88443353990E+02  0.75349433213E+03  0.84029656537E+03  0.46999998093E+01 0.  1.
</event>
<event>
 5   0  0.5861816E-05  0.1987193E+04  0.7818609E-02  0.8612632E-01
       -1   -1    0    0    0  501  0.00000000000E+00  0.00000000000E+00  0.72028283040E+03  0.72028283042E+03  0.50400001928E-02 0. -1.
        1   -1    0    0  501    0  0.00000000000E+00  0.00000000000E+00 -0.13706198774E+04  0.13706198774E+04  0.50400001928E-02 0.  1.
    10030    2    1    2    0    0  0.00000000000E+00  0.00000000000E+00 -0.65033704703E+03  0.20909027079E+04  0.19871929597E+04 0.  0.
        1    1    3    3  502    0 -0.35597286720E+03  0.56030700650E+03  0.45272115279E+03  0.80350299684E+03  0.50400001928E-02 0. -1.
       -1    1    3    3    0  502  0.35597286720E+03 -0.56030700650E+03 -0.11030581998E+04  0.12873997110E+04  0.50400001928E-02 0.  1.
</event>
<event>
 5   0  0.1226021E-04  0.1991090E+04  0.7818609E-02  0.8610798E-01
        2   -1    0    0  501    0  0.00000000000E+00  0.00000000000E+00  0.88206142185E+03  0.88206142186E+03  0.25500000920E-02 0.  1.
       -2   -1    0    0    0  501  0.00000000000E+00  0.00000000000E+00 -0.11236288398E+04  0.11236288398E+04  0.25500000920E-02 0. -1.
    10030    2    1    2    0    0  0.00000000000E+00  0.00000000000E+00 -0.24156741797E+03  0.20056902617E+04  0.19910898042E+04 0.  0.
        2    1    3    3  502    0 -0.13035909962E+02  0.92729392221E+03  0.24390098941E+03  0.95892212705E+03  0.25500000920E-02 0.  1.
       -2    1    3    3    0  502  0.13035909962E+02 -0.92729392221E+03 -0.48546840738E+03  0.10467681346E+04  0.25500000920E-02 0. -1.
</event>
<event>
 5   0  0.5849604E-05  0.2182347E+04  0.7818609E-02  0.8525812E-01
        1   -1    0    0  501    0  0.00000000000E+00  0.00000000000E+00  0.84340128247E+03  0.84340128249E+03  0.50400001928E-02 0. -1.
       -1   -1    0    0    0  501  0.00000000000E+00  0.00000000000E+00 -0.14117353629E+04  0.14117353629E+04  0.50400001928E-02 0.  1.
    10030    2    1    2    0    0  0.00000000000E+00  0.00000000000E+00 -0.56833408038E+03  0.22551366454E+04  0.21823468245E+04 0.  0.
        2    1    3    3  502    0 -0.94517149131E+03 -0.31735733986E+03  0.17401163113E+03  0.10120992426E+04  0.25500000920E-02 0. -1.
       -2    1    3    3    0  502  0.94517149131E+03  0.31735733986E+03 -0.74234571151E+03  0.12430374027E+04  0.25500000920E-02 0.  1.
</event>
<event>
 5   0  0.1241430E-04  0.2265714E+04  0.7818609E-02  0.8491563E-01
       -2   -1    0    0    0  501  0.00000000000E+00  0.00000000000E+00  0.69500559039E+03  0.69500559040E+03  0.25500000920E-02 0.  1.
        2   -1    0    0  501    0  0.00000000000E+00  0.00000000000E+00 -0.18465538268E+04  0.18465538268E+04  0.25500000920E-02 0. -1.
    10030    2    1    2    0    0  0.00000000000E+00  0.00000000000E+00 -0.11515482364E+04  0.25415594172E+04  0.22657142208E+04 0.  0.
        1    1    3    3  502    0 -0.15921724798E+03 -0.10199945198E+04 -0.52474032327E+02  0.10336790975E+04  0.50400001928E-02 0.  1.
       -1    1    3    3    0  502  0.15921724798E+03  0.10199945198E+04 -0.10990742041E+04  0.15078803197E+04  0.50400001928E-02 0. -1.
</event>
<event>
 5   0  0.6263558E-05  0.2156629E+04  0.7818609E-02  0.8536700E-01
       -1   -1    0    0    0  501  0.00000000000E+00  0.00000000000E+00  0.59050835956E+03  0.59050835958E+03  0.50400001928E-02 0.  1.
        1   -1    0    0  501    0  0.00000000000E+00  0.00000000000E+00 -0.19690868776E+04  0.19690868776E+04  0.50400001928E-02 0. -1.
    10030    2    1    2    0    0  0.00000000000E+00  0.00000000000E+00 -0.13785785180E+04  0.25595952372E+04  0.21566290937E+04 0.  0.
        3    1    3    3  502    0  0.23585961543E+03 -0.80821404658E+03 -0.14889149003E+04  0.17104699044E+04  0.10100000352E+00 0.  1.
       -3    1    3    3    0  502 -0.23585961543E+03  0.80821404658E+03  0.11033638231E+03  0.84912533276E+03  0.10100000352E+00 0. -1.
</event>
<event>
 5   0  0.6263558E-05  0.2192603E+04  0.7818609E-02  0.8521513E-01
        1   -1    0    0  501    0  0.00000000000E+00  0.00000000000E+00  0.13110612461E+04  0.13110612461E+04  0.50400001928E-02 0.  1.
       -1   -1    0    0    0  501  0.00000000000E+00  0.00000000000E+00 -0.91672035260E+03  0.91672035262E+03  0.50400001928E-02 0. -1.
    10030    2    1    2    0    0  0.00000000000E+00  0.00000000000E+00  0.39434089352E+03  0.22277815987E+04  0.21926025886E+04 0.  0.
        3    1    3    3  502    0  0.94215790543E+03  0.50702357779E+03  0.44004988630E+03  0.11568830277E+04  0.10100000352E+00 0.  1.
       -3    1    3    3    0  502 -0.94215790543E+03 -0.50702357779E+03 -0.45708992779E+02  0.10708985710E+04  0.10100000352E+00 0. -1.
</event>
<event>
 5   0  0.1311472E-04  0.2216105E+04  0.7818609E-02  0.8511755E-01
        2   -1    0    0  501    0  0.00000000000E+00  0.00000000000E+00  0.15115056131E+04  0.15115056131E+04  0.25500000920E-02 0. -1.
       -2   -1    0    0    0  501  0.00000000000E+00  0.00000000000E+00 -0.81228948047E+03  0.81228948048E+03  0.25500000920E-02 0.  1.
    10030    2    1    2    0    0  0.00000000000E+00  0.00000000000E+00  0.69921613266E+03  0.23237950936E+04  0.22161047892E+04 0.  0.
        4    1    3    3  502    0 -0.39437784558E+03  0.26758579599E+03 -0.69932312575E+03  0.84628038522E+03  0.12699999809E+01 0.  1.
       -4    1    3    3    0  502  0.39437784558E+03 -0.26758579599E+03  0.13985392584E+04  0.14775147084E+04  0.12699999809E+01 0. -1.
</event>
<event>
 5   0  0.1241430E-04  0.2283541E+04  0.7818609E-02  0.8484439E-01
       -2   -1    0    0    0  501  0.00000000000E+00  0.00000000000E+00  0.87416955779E+03  0.87416955779E+03  0.25500000920E-02 0. -1.
        2   -1    0    0  501    0  0.00000000000E+00  0.00000000000E+00 -0.14912897703E+04  0.14912897703E+04  0.25500000920E-02 0.  1.
    10030    2    1    2    0    0  0.00000000000E+00  0.00000000000E+00 -0.61712021249E+03  0.23654593281E+04  0.22835412140E+04 0.  0.
        1    1    3    3  502    0 -0.28008205318E+03 -0.57444492662E+03  0.67153543031E+03  0.92703439225E+03  0.50400001928E-02 0. -1.
       -1    1    3    3    0  502  0.28008205318E+03  0.57444492662E+03 -0.12886556428E+04  0.14384249358E+04  0.50400001928E-02 0.  1.
</event>
<event>
 5   0  0.1404159E-04  0.2147933E+04  0.7818609E-02  0.8540417E-01
       -2   -1    0    0    0  501  0.00000000000E+00  0.00000000000E+00  0.12286948407E+04  0.12286948407E+04  0.25500000920E-02 0.  1.
        2   -1    0    0  501    0  0.00000000000E+00  0.00000000000E+00 -0.93872325213E+03  0.93872325213E+03  0.25500000920E-02 0. -1.
    10030    2    1    2    0    0  0.00000000000E+00  0.00000000000E+00  0.28997158857E+03  0.21674180928E+04  0.21479333479E+04 0.  0.
        5    1    3    3  502    0 -0.33761633185E+03  0.17179479238E+03  0.11590317994E+04  0.12193748563E+04  0.46999998093E+01 0.  1.
       -5    1    3    3    0  502  0.33761633185E+03 -0.17179479238E+03 -0.86906021083E+03  0.94804323650E+03  0.46999998093E+01 0. -1.
</event>
<event>
 5   0  0.5981239E-05  0.2242657E+04  0.7818609E-02  0.8500880E-01
       -1   -1    0    0    0  501  0.00000000000E+00  0.00000000000E+00  0.12105900185E+04  0.12105900185E+04  0.50400001928E-02 0. -1.
        1   -1    0    0  501    0  0.00000000000E+00  0.00000000000E+00 -0.10386490441E+04  0.10386490441E+04  0.50400001928E-02 0.  1.
    10030    2    1    2    0    0  0.00000000000E+00  0.00000000000E+00  0.17194097441E+03  0.22492390626E+04  0.22426574999E+04 0.  0.
        4    1    3    3  502    0 -0.15893686645E+03 -0.38377091285E+03 -0.95864055181E+03  0.10447652184E+04  0.12699999809E+01 0.  1.
       -4    1    3    3    0  502  0.15893686645E+03  0.38377091285E+03  0.11305815262E+04  0.12044738442E+04  0.12699999809E+01 0. -1.
</event>
<event>
 5   0  0.5895063E-05  0.2201117E+04  0.7818609E-02  0.8517963E-01
        1   -1    0    0  501    0  0.00000000000E+00  0.00000000000E+00  0.14843669627E+04  0.14843669627E+04  0.50400001928E-02 0.  1.
       -1   -1    0    0    0  501  0.00000000000E+00  0.00000000000E+00 -0.81599012097E+03  0.81599012099E+03  0.50400001928E-02 0. -1.
    10030    2    1    2    0    0  0.00000000000E+00  0.00000000000E+00  0.66837684175E+03  0.23003570837E+04  0.22011167870E+04 0.  0.
        5    1    3    3  502    0 -0.16977660526E+03  0.65359524640E+03  0.12423894021E+04  0.14140595314E+04  0.46999998093E+01 0.  1.
       -5    1    3    3    0  502  0.16977660526E+03 -0.65359524640E+03 -0.57401256037E+03  0.88629755233E+03  0.46999998093E+01 0. -1.
</event>
<event>
 5   0  0.1226021E-04  0.2169524E+04  0.7818609E-02  0.8531221E-01
        2   -1    0    0  501    0  0.00000000000E+00  0.00000000000E+00  0.19873119865E+04  0.19873119865E+04  0.25500000920E-02 0. -1.
       -2   -1    0    0    0  501  0.00000000000E+00  0.00000000000E+00 -0.59211060646E+03  0.59211060646E+03  0.25500000920E-02 0.  1.
    10030    2    1    2    0    0  0.00000000000E+00  0.00000000000E+00  0.13952013800E+04  0.25794225929E+04  0.21695239160E+04 0.  0.
        2    1    3    3  502    0 -0.71745412914E+03 -0.22641713220E+03 -0.23152231289E+03  0.78715165409E+03  0.25500000920E-02 0.  1.
       -2    1    3    3    0  502  0.71745412914E+03  0.22641713220E+03  0.16267236929E+04  0.17922709389E+04  0.25500000920E-02 0. -1.
</event>
<event>
 5   0  0.5981239E-05  0.2098273E+04  0.7818609E-02  0.8562005E-01
        1   -1    0    0  501    0  0.00000000000E+00  0.00000000000E+00  0.17485776072E+04  0.17485776072E+04  0.50400001928E-02 0.  1.
       -1   -1    0    0    0  501  0.00000000000E+00  0.00000000000E+00 -0.62947584567E+03  0.62947584569E+03  0.50400001928E-02 0. -1.
    10030    2    1    2    0    0  0.00000000000E+00  0.00000000000E+00  0.11191017616E+04  0.23780534529E+04  0.20982729737E+04 0.  0.
        4    1    3    3  502    0 -0.31190987856E+03  0.81190497936E+03 -0.10537048248E+03  0.87611758306E+03  0.12699999809E+01 0. -1.
       -4    1    3    3    0  502  0.31190987856E+03 -0.81190497936E+03  0.12244722440E+04  0.15019358699E+04  0.12699999809E+01 0.  1.
</event>
<event>
 5   0  0.1404159E-04  0.2326798E+04  0.7818609E-02  0.8467429E-01
        2   -1    0    0  501    0  0.00000000000E+00  0.00000000000E+00  0.12117726295E+04  0.12117726295E+04  0.25500000920E-02 0.  1.
       -2   -1    0    0    0  501  0.00000000000E+00  0.00000000000E+00 -0.11169568792E+04  0.11169568792E+04  0.25500000920E-02 0. -1.
    10030    2    1    2    0    0  0.00000000000E+00  0.00000000000E+00  0.94815750276E+02  0.23287295087E+04  0.23267984653E+04 0.  0.
        5    1    3    3  502    0  0.44014433896E+03 -0.12012171288E+03 -0.10236762683E+04  0.11207548605E+04  0.46999998093E+01 0. -1.
       -5    1    3    3    0  502 -0.44014433896E+03  0.12012171288E+03  0.11184920186E+04  0.12079746482E+04  0.46999998093E+01 0.  1.
</event>
<event>
 5   0  0.5895063E-05  0.2161980E+04  0.7818609E-02  0.8534422E-01
        1   -1    0    0  501    0  0.00000000000E+00  0.00000000000E+00  0.17080356125E+04  0.17080356126E+04  0.50400001928E-02 0.  1.
       -1   -1    0    0    0  501  0.00000000000E+00  0.00000000000E+00 -0.68414207437E+03  0.68414207439E+03  0.50400001928E-02 0. -1.
    10030    2    1    2    0    0  0.00000000000E+00  0.00000000000E+00  0.10238935382E+04  0.23921776869E+04  0.21619796734E+04 0.  0.
        5    1    3    3  502    0  0.73323746427E+02  0.87515259624E+03 -0.18543880740E+03  0.89759572179E+03  0.46999998093E+01 0. -1.
       -5    1    3    3    0  502 -0.73323746427E+02 -0.87515259624E+03  0.12093323456E+04  0.14945819651E+04  0.46999998093E+01 0.  1.
</event>
<event>
 5   0  0.5861816E-05  0.2211961E+04  0.7818609E-02  0.8513466E-01
       -1   -1    0    0    0  501  0.00000000000E+00  0.00000000000E+00  0.84494415656E+03  0.84494415658E+03  0.50400001928E-02 0.  1.
        1   -1    0    0  501    0  0.00000000000E+00  0.00000000000E+00 -0.14476610568E+04  0.14476610568E+04  0.50400001928E-02 0. -1.
    10030    2    1    2    0    0  0.00000000000E+00  0.00000000000E+00 -0.60271690028E+03  0.22926052134E+04  0.22119608954E+04 0.  0.
        1    1    3    3  502    0 -0.96986028997E+03 -0.23581407232E+03  0.19240868355E+03  0.10164931679E+04  0.50400001928E-02 0.  1.
       -1    1    3    3    0  502  0.96986028997E+03  0.23581407232E+03 -0.79512558383E+03  0.12761120456E+04  0.50400001928E-02 0. -1.
</event>
<event>
 5   0  0.1226021E-04  0.2199028E+04  0.7818609E-02  0.8518833E-01
        2   -1    0    0  501    0  0.00000000000E+00  0.00000000000E+00  0.98534431766E+03  0.98534431766E+03  0.25500000920E-02 0. -1.
       -2   -1    0    0    0  501  0.00000000000E+00  0.00000000000E+00 -0.12269117677E+04  0.12269117677E+04  0.25500000920E-02 0.  1.
    10030    2    1    2    0    0  0.00000000000E+00  0.00000000000E+00 -0.24156745006E+03  0.22122560854E+04  0.21990275474E+04 0.  0.
        2    1    3    3  502    0  0.32667714257E+03  0.10450656365E+04 -0.19928972405E+02  0.10951152013E+04  0.25500000920E-02 0.  1.
       -2    1    3    3    0  502 -0.32667714257E+03 -0.10450656365E+04 -0.22163847766E+03  0.11171408841E+04  0.25500000920E-02 0. -1.
</event>
<event>
 5   0  0.5895063E-05  0.2137858E+04  0.7818609E-02  0.8544748E-01
       -1   -1    0    0    0  501  0.00000000000E+00  0.00000000000E+00  0.67215215109E+03  0.67215215111E+03  0.50400001928E-02 0. -1.
        1   -1    0    0  501    0  0.00000000000E+00  0.00000000000E+00 -0.16999261371E+04  0.16999261372E+04  0.50400001928E-02 0.  1.
    10030    2    1    2    0    0  0.00000000000E+00  0.00000000000E+00 -0.10277739861E+04  0.23720782883E+04  0.21378578155E+04 0.  0.
        5    1    3    3  502    0  0.10457028557E+04  0.86478854634E+02 -0.74023111911E+03  0.12841095180E+04  0.46999998093E+01 0. -1.
       -5    1    3    3    0  502 -0.10457028557E+04 -0.86478854634E+02 -0.28754286695E+03  0.10879687702E+04  0.46999998093E+01 0.  1.
</event>
<event>
 5   0  0.1241430E-04  0.2181394E+04  0.7818609E-02  0.8526213E-01
       -2   -1    0    0    0  501  0.00000000000E+00  0.00000000000E+00  0.76417743847E+03  0.76417743847E+03  0.25500000920E-02 0.  1.
        2   -1    0    0  501    0  0.00000000000E+00  0.00000000000E+00 -0.15567322668E+04  0.15567322668E+04  0.25500000920E-02 0. -1.
    10030    2    1    2    0    0  0.00000000000E+00  0.00000000000E+00 -0.79255482830E+03  0.23209097052E+04  0.21813937526E+04 0.  0.
        1    1    3    3  502    0  0.20161879631E+03  0.82887889038E+03 -0.11194000311E+04  0.14073900609E+04  0.50400001928E-02 0. -1.
       -1    1    3    3    0  502 -0.20161879631E+03 -0.82887889038E+03  0.32684520279E+03  0.91351964432E+03  0.50400001928E-02 0.  1.
</event>
<event>
 5   0  0.5861816E-05  0.2159488E+04  0.7818609E-02  0.8535482E-01
        1   -1    0    0  501    0  0.00000000000E+00  0.00000000000E+00  0.14210989604E+04  0.14210989604E+04  0.50400001928E-02 0. -1.
       -1   -1    0    0    0  501  0.00000000000E+00  0.00000000000E+00 -0.82038447285E+03  0.82038447287E+03  0.50400001928E-02 0.  1.
    10030    2    1    2    0    0  0.00000000000E+00  0.00000000000E+00  0.60071448754E+03  0.22414834333E+04  0.21594883853E+04 0.  0.
        1    1    3    3  502    0  0.10061864767E+04  0.22790109081E+02  0.70625103911E+03  0.12295206974E+04  0.50400001928E-02 0. -1.
       -1    1    3    3    0  502 -0.10061864767E+04 -0.22790109081E+02 -0.10553655158E+03  0.10119627359E+04  0.50400001928E-02 0.  1.
</event>
<event>
 5   0  0.5849604E-05  0.2322403E+04  0.7818609E-02  0.8469140E-01
       -1   -1    0    0    0  501  0.00000000000E+00  0.00000000000E+00  0.85653800544E+03  0.85653800546E+03  0.50400001928E-02 0.  1.
        1   -1    0    0  501    0  0.00000000000E+00  0.00000000000E+00 -0.15742309238E+04  0.15742309238E+04  0.50400001928E-02 0. -1.
    10030    2    1    2    0    0  0.00000000000E+00  0.00000000000E+00 -0.71769291833E+03  0.24307689292E+04  0.23224027347E+04 0.  0.
        2    1    3    3  502    0  0.65382048725E+03 -0.14848371236E+03  0.63347449679E+03  0.92239827649E+03  0.25500000920E-02 0.  1.
       -2    1    3    3    0  502 -0.65382048725E+03  0.14848371236E+03 -0.13511674151E+04  0.15083706527E+04  0.25500000920E-02 0. -1.
</event>
<event>
 5   0  0.1311472E-04  0.2280950E+04  0.7818609E-02  0.8485470E-01
        2   -1    0    0  501    0  0.00000000000E+00  0.00000000000E+00  0.10127394783E+04  0.10127394783E+04  0.25500000920E-02 0. -1.
       -2   -1    0    0    0  501  0.00000000000E+00  0.00000000000E+00 -0.12843220662E+04  0.12843220662E+04  0.25500000920E-02 0.  1.
    10030    2    1    2    0    0  0.00000000000E+00  0.00000000000E+00 -0.27158258792E+03  0.22970615446E+04  0.22809503803E+04 0.  0.
        4    1    3    3  502    0  0.19580797304E+03  0.11159804311E+04 -0.47609287109E+01  0.11330389951E+04  0.12699999809E+01 0.  1.
       -4    1    3    3    0  502 -0.19580797304E+03 -0.11159804311E+04 -0.26682165921E+03  0.11640225495E+04  0.12699999809E+01 0. -1.
</event>
<event>
 5   0  0.1226021E-04  0.1657553E+04  0.7818609E-02  0.8785951E-01
       -2   -1    0    0    0  501  0.00000000000E+00  0.00000000000E+00  0.45063882592E+03  0.45063882593E+03  0.25500000920E-02 0.  1.
        2   -1    0    0  501    0  0.00000000000E+00  0.00000000000E+00 -0.15242145973E+04  0.15242145973E+04  0.25500000920E-02 0. -1.
    10030    2    1    2    0    0  0.00000000000E+00  0.00000000000E+00 -0.10735757713E+04  0.19748534232E+04  0.16575527462E+04 0.  0.
        2    1    3    3  502    0 -0.11814941454E+03 -0.36766281241E+03 -0.14104664529E+04  0.14623784881E+04  0.25500000920E-02 0. -1.
       -2    1    3    3    0  502  0.11814941454E+03  0.36766281241E+03  0.33689068153E+03  0.51247493509E+03  0.25500000920E-02 0.  1.
</event>
<event>
 5   0  0.1311472E-04  0.1765549E+04  0.7818609E-02  0.8724837E-01
       -2   -1    0    0    0  501  0.00000000000E+00  0.00000000000E+00  0.84306639028E+03  0.84306639028E+03  0.25500000920E-02 0. -1.
        2   -1    0    0  501    0  0.00000000000E+00  0.00000000000E+00 -0.92435332636E+03  0.92435332637E+03  0.25500000920E-02 0.  1.
    10030    2    1    2    0    0  0.00000000000E+00  0.00000000000E+00 -0.81286936084E+02  0.17674197167E+04  0.17655494581E+04 0.  0.
        4    1    3    3  502    0 -0.35261099528E+03 -0.58629019238E+03 -0.59910439549E+03  0.90939452015E+03  0.12699999809E+01 0.  1.
       -4    1    3    3    0  502  0.35261099528E+03  0.58629019238E+03  0.51781745941E+03  0.85802519651E+03  0.12699999809E+01 0. -1.
</event>
<event>
 5   0  0.5849604E-05  0.2120686E+04  0.7818609E-02  0.8552185E-01
        1   -1    0    0  501    0  0.00000000000E+00  0.00000000000E+00  0.20874236347E+04  0.20874236347E+04  0.50400001928E-02 0. -1.
       -1   -1    0    0    0  501  0.00000000000E+00  0.00000000000E+00 -0.53861948073E+03  0.53861948075E+03  0.50400001928E-02 0.  1.
    10030    2    1    2    0    0  0.00000000000E+00  0.00000000000E+00  0.15488041540E+04  0.26260431155E+04  0.21206857704E+04 0.  0.
        2    1    3    3  502    0 -0.72346094021E+03 -0.24257220488E+02  0.17338584138E+04  0.18788957245E+04  0.25500000920E-02 0. -1.
       -2    1    3    3    0  502  0.72346094021E+03  0.24257220488E+02 -0.18505425974E+03  0.74714739095E+03  0.25500000920E-02 0.  1.
</event>
<event>
 5   0  0.1241430E-04  0.2166749E+04  0.7818609E-02  0.8532397E-01
       -2   -1    0    0    0  501  0.00000000000E+00  0.00000000000E+00  0.11559366312E+04  0.11559366312E+04  0.25500000920E-02 0.  1.
        2   -1    0    0  501    0  0.00000000000E+00  0.00000000000E+00 -0.10153669102E+04  0.10153669102E+04  0.25500000920E-02 0. -1.
    10030    2    1    2    0    0  0.00000000000E+00  0.00000000000E+00  0.14056972101E+03  0.21713035414E+04  0.21667485369E+04 0.  0.
        1    1    3    3  502    0 -0.80081086915E+02  0.10151586270E+04  0.44084566305E+03  0.11096417968E+04  0.50400001928E-02 0.  1.
       -1    1    3    3    0  502  0.80081086915E+02 -0.10151586270E+04 -0.30027594204E+03  0.10616617446E+04  0.50400001928E-02 0. -1.
</event>
<event>
 5   0  0.5981239E-05  0.1870218E+04  0.7818609E-02  0.8669824E-01
        1   -1    0    0  501    0  0.00000000000E+00  0.00000000000E+00  0.14482689968E+04  0.14482689968E+04  0.50400001928E-02 0. -1.
       -1   -1    0    0    0  501  0.00000000000E+00  0.00000000000E+00 -0.60377545535E+03  0.60377545537E+03  0.50400001928E-02 0.  1.
    10030    2    1    2    0    0  0.00000000000E+00  0.00000000000E+00  0.84449354143E+03  0.20520444521E+04  0.18702184611E+04 0.  0.
        4    1    3    3  502    0  0.51590370096E+03  0.77227642551E+03  0.54173897978E+03  0.10751977684E+04  0.12699999809E+01 0.  1.
       -4    1    3    3    0  502 -0.51590370096E+03 -0.77227642551E+03  0.30275456165E+03  0.97684668375E+03  0.12699999809E+01 0. -1.
</event>
<event>
 5   0  0.5849604E-05  0.2194494E+04  0.7818609E-02  0.8520723E-01
        1   -1    0    0  501    0  0.00000000000E+00  0.00000000000E+00  0.57636462381E+03  0.57636462384E+03  0.50400001928E-02 0.  1.
       -1   -1    0    0    0  501  0.00000000000E+00  0.00000000000E+00 -0.20888706282E+04  0.20888706282E+04  0.50400001928E-02 0. -1.
    10030    2    1    2    0    0  0.00000000000E+00  0.00000000000E+00 -0.15125060044E+04  0.26652352521E+04  0.21944941411E+04 0.  0.
        2    1    3    3  502    0 -0.49790163624E+02 -0.82073177607E+03  0.12614638915E+03  0.83186093798E+03  0.25500000920E-02 0.  1.
       -2    1    3    3    0  502  0.49790163624E+02  0.82073177607E+03 -0.16386523936E+04  0.18333743141E+04  0.25500000920E-02 0. -1.
</event>
<event>
 5   0  0.5861816E-05  0.2210599E+04  0.7818609E-02  0.8514029E-01
        1   -1    0    0  501    0  0.00000000000E+00  0.00000000000E+00  0.10624843060E+04  0.10624843060E+04  0.50400001928E-02 0. -1.
       -1   -1    0    0    0  501  0.00000000000E+00  0.00000000000E+00 -0.11498401905E+04  0.11498401905E+04  0.50400001928E-02 0.  1.
    10030    2    1    2    0    0  0.00000000000E+00  0.00000000000E+00 -0.87355884460E+02  0.22123244965E+04  0.22105991558E+04 0.  0.
        1    1    3    3  502    0 -0.94882899851E+02  0.21824024177E+02  0.10581846011E+04  0.10626540843E+04  0.50400001928E-02 0. -1.
       -1    1    3    3    0  502  0.94882899851E+02 -0.21824024177E+02 -0.11455404856E+04  0.11496704123E+04  0.50400001928E-02 0.  1.
</event>
<event>
 5   0  0.1241430E-04  0.2184636E+04  0.7818609E-02  0.8524850E-01
        2   -1    0    0  501    0  0.00000000000E+00  0.00000000000E+00  0.58124947403E+03  0.58124947404E+03  0.25500000920E-02 0.  1.
       -2   -1    0    0    0  501  0.00000000000E+00  0.00000000000E+00 -0.20527478874E+04  0.20527478874E+04  0.25500000920E-02 0. -1.
    10030    2    1    2    0    0  0.00000000000E+00  0.00000000000E+00 -0.14714984134E+04  0.26339973614E+04  0.21846360153E+04 0.  0.
        1    1    3    3  502    0 -0.92141673292E+03  0.40518869168E+03 -0.12472409972E+04  0.16027466352E+04  0.50400001928E-02 0. -1.
       -1    1    3    3    0  502  0.92141673292E+03 -0.40518869168E+03 -0.22425741614E+03  0.10312507262E+04  0.50400001928E-02 0.  1.
</event>
<event>
 5   0  0.6263558E-05  0.2152720E+04  0.7818609E-02  0.8538369E-01
       -1   -1    0    0    0  501  0.00000000000E+00  0.00000000000E+00  0.14044180550E+04  0.14044180550E+04  0.50400001928E-02 0.  1.
        1   -1    0    0  501    0  0.00000000000E+00  0.00000000000E+00 -0.82493323235E+03  0.82493323237E+03  0.50400001928E-02 0. -1.
    10030    2    1    2    0    0  0.00000000000E+00  0.00000000000E+00  0.57948482260E+03  0.22293512873E+04  0.21527202565E+04 0.  0.
        3    1    3    3  502    0  0.26461173568E+02  0.86719879993E+03 -0.36997221867E+03  0.94319319606E+03  0.10100000352E+00 0. -1.
       -3    1    3    3    0  502 -0.26461173568E+02 -0.86719879993E+03  0.94945704128E+03  0.12861580913E+04  0.10100000352E+00 0.  1.
</event>
<event>
 5   0  0.5895063E-05  0.2172623E+04  0.7818609E-02  0.8529910E-01
       -1   -1    0    0    0  501  0.00000000000E+00  0.00000000000E+00  0.96263830386E+03  0.96263830387E+03  0.50400001928E-02 0.  1.
        1   -1    0    0  501    0  0.00000000000E+00  0.00000000000E+00 -0.12258732062E+04  0.12258732062E+04  0.50400001928E-02 0. -1.
    10030    2    1    2    0    0  0.00000000000E+00  0.00000000000E+00 -0.26323490234E+03  0.21885115101E+04  0.21726228425E+04 0.  0.
        5    1    3    3  502    0  0.13792482324E+03  0.10145740712E+04  0.23389512353E+03  0.10502917793E+04  0.46999998093E+01 0. -1.
       -5    1    3    3    0  502 -0.13792482324E+03 -0.10145740712E+04 -0.49713002587E+03  0.11382197308E+04  0.46999998093E+01 0.  1.
</event>
<event>
 5   0  0.6263558E-05  0.2130350E+04  0.7818609E-02  0.8547991E-01
       -1   -1    0    0    0  501  0.00000000000E+00  0.00000000000E+00  0.13302799803E+04  0.13302799803E+04  0.50400001928E-02 0. -1.
        1   -1    0    0  501    0  0.00000000000E+00  0.00000000000E+00 -0.85290131483E+03  0.85290131485E+03  0.50400001928E-02 0.  1.
    10030    2    1    2    0    0  0.00000000000E+00  0.00000000000E+00  0.47737866548E+03  0.21831812952E+04  0.21303497782E+04 0.  0.
        3    1    3    3  502    0  0.34922482536E+03 -0.68689572631E+03 -0.51494864524E+03  0.92679870247E+03  0.10100000352E+00 0.  1.
       -3    1    3    3    0  502 -0.34922482536E+03  0.68689572631E+03  0.99232731072E+03  0.12563825927E+04  0.10100000352E+00 0. -1.
</event>
<event>
 5   0  0.1226021E-04  0.2196068E+04  0.7818609E-02  0.8520066E-01
       -2   -1    0    0    0  501  0.00000000000E+00  0.00000000000E+00  0.86898182511E+03  0.86898182512E+03  0.25500000920E-02 0.  1.
        2   -1    0    0  501    0  0.00000000000E+00  0.00000000000E+00 -0.13874618733E+04  0.13874618733E+04  0.25500000920E-02 0. -1.
    10030    2    1    2    0    0  0.00000000000E+00  0.00000000000E+00 -0.51848004817E+03  0.22564436984E+04  0.21960684424E+04 0.  0.
        2    1    3    3  502    0  0.10650059898E+04  0.24835509561E+03 -0.36075471152E+03  0.11515476428E+04  0.25500000920E-02 0.  1.
       -2    1    3    3    0  502 -0.10650059898E+04 -0.24835509561E+03 -0.15772533665E+03  0.11048960556E+04  0.25500000920E-02 0. -1.
</event>
<event>
 5   0  0.1226021E-04  0.2205945E+04  0.7818609E-02  0.8515958E-01
        2   -1    0    0  501    0  0.00000000000E+00  0.00000000000E+00  0.81048868139E+03  0.81048868140E+03  0.25500000920E-02 0. -1.
       -2   -1    0    0    0  501  0.00000000000E+00  0.00000000000E+00 -0.15010054061E+04  0.15010054061E+04  0.25500000920E-02 0.  1.
    10030    2    1    2    0    0  0.00000000000E+00  0.00000000000E+00 -0.69051672471E+03  0.23114940875E+04  0.22059445980E+04 0.  0.
        2    1    3    3  502    0  0.71477854914E+03 -0.69336077195E+03 -0.84217507533E+03  0.13041918539E+04  0.25500000920E-02 0.  1.
       -2    1    3    3    0  502 -0.71477854914E+03  0.69336077195E+03  0.15165835063E+03  0.10073022335E+04  0.25500000920E-02 0. -1.
</event>
<event>
 5   0  0.1311472E-04  0.2086280E+04  0.7818609E-02  0.8567311E-01
       -2   -1    0    0    0  501  0.00000000000E+00  0.00000000000E+00  0.45072086247E+03  0.45072086247E+03  0.25500000920E-02 0.  1.
        2   -1    0    0  501    0  0.00000000000E+00  0.00000000000E+00 -0.24142233515E+04  0.24142233515E+04  0.25500000920E-02 0. -1.
    10030    2    1    2    0    0  0.00000000000E+00  0.00000000000E+00 -0.19635024891E+04  0.28649442140E+04  0.20862797811E+04 0.  0.
        4    1    3    3  502    0  0.75789978348E+02  0.10396184826E+04 -0.92701961804E+03  0.13949615390E+04  0.12699999809E+01 0.  1.
       -4    1    3    3    0  502 -0.75789978348E+02 -0.10396184826E+04 -0.10364828710E+04  0.14699826750E+04  0.12699999809E+01 0. -1.
</event>
<event>
 5   0  0.4586375E-05  0.2215165E+04  0.7818609E-02  0.8512143E-01
        3   -1    0    0  501    0  0.00000000000E+00  0.00000000000E+00  0.77470086115E+03  0.77470086774E+03  0.10100000352E+00 0. -1.
       -3   -1    0    0    0  501  0.00000000000E+00  0.00000000000E+00 -0.15834997597E+04  0.15834997629E+04  0.10100000352E+00 0.  1.
    10030    2    1    2    0    0  0.00000000000E+00  0.00000000000E+00 -0.80879889853E+03  0.23582006306E+04  0.22151646792E+04 0.  0.
        4    1    3    3  502    0  0.75951158176E+03 -0.53642058104E+03 -0.10450309222E+04  0.13988195466E+04  0.12699999809E+01 0.  1.
       -4    1    3    3    0  502 -0.75951158176E+03  0.53642058104E+03  0.23623202366E+03  0.95938108408E+03  0.12699999809E+01 0. -1.
</event>
<event>
 5   0  0.6263558E-05  0.2209279E+04  0.7818609E-02  0.8514576E-01
       -1   -1    0    0    0  501  0.00000000000E+00  0.00000000000E+00  0.66775513390E+03  0.66775513391E+03  0.50400001928E-02 0. -1.
        1   -1    0    0  501    0  0.00000000000E+00  0.00000000000E+00 -0.18273592139E+04  0.18273592139E+04  0.50400001928E-02 0.  1.
    10030    2    1    2    0    0  0.00000000000E+00  0.00000000000E+00 -0.11596040800E+04  0.24951143478E+04  0.22092790648E+04 0.  0.
        3    1    3    3  502    0  0.39523101992E+03  0.93929074121E+03 -0.10612858217E+04  0.14713267010E+04  0.10100000352E+00 0.  1.
       -3    1    3    3    0  502 -0.39523101992E+03 -0.93929074121E+03 -0.98318258326E+02  0.10237876468E+04  0.10100000352E+00 0. -1.
</event>
<event>
 5   0  0.5981239E-05  0.1819066E+04  0.7818609E-02  0.8696226E-01
       -1   -1    0    0    0  501  0.00000000000E+00  0.00000000000E+00  0.82775813488E+03  0.82775813490E+03  0.50400001928E-02 0.  1.
        1   -1    0    0  501    0  0.00000000000E+00  0.00000000000E+00 -0.99938668655E+03  0.99938668656E+03  0.50400001928E-02 0. -1.
    10030    2    1    2    0    0  0.00000000000E+00  0.00000000000E+00 -0.17162855166E+03  0.18271448215E+04  0.18190661997E+04 0.  0.
        4    1    3    3  502    0 -0.36522624813E+03 -0.73319617825E+03  0.31126657658E+03  0.87627355473E+03  0.12699999809E+01 0.  1.
       -4    1    3    3    0  502  0.36522624813E+03  0.73319617825E+03 -0.48289512824E+03  0.95087126673E+03  0.12699999809E+01 0. -1.
</event>
<event>
 5   0  0.1404159E-04  0.2231551E+04  0.7818609E-02  0.8505410E-01
        2   -1    0    0  501    0  0.00000000000E+00  0.00000000000E+00  0.18571992375E+04  0.18571992375E+04  0.25500000920E-02 0.  1.
       -2   -1    0    0    0  501  0.00000000000E+00  0.00000000000E+00 -0.67033993400E+03  0.67033993401E+03  0.25500000920E-02 0. -1.
    10030    2    1    2    0    0  0.00000000000E+00  0.00000000000E+00  0.11868593035E+04  0.25275391715E+04  0.22315508637E+04 0.  0.
        5    1    3    3  502    0  0.32734551331E+03 -0.10061153763E+04  0.99469290068E+03  0.14521912037E+04  0.46999998093E+01 0.  1.
       -5    1    3    3    0  502 -0.32734551331E+03  0.10061153763E+04  0.19216640286E+03  0.10753479678E+04  0.46999998093E+01 0. -1.
</event>
<event>
 5   0  0.6263558E-05  0.2141800E+04  0.7818609E-02  0.8543050E-01
        1   -1    0    0  501    0  0.00000000000E+00  0.00000000000E+00  0.11807392119E+04  0.11807392119E+04  0.50400001928E-02 0. -1.
       -1   -1    0    0    0  501  0.00000000000E+00  0.00000000000E+00 -0.97127883261E+03  0.97127883262E+03  0.50400001928E-02 0.  1.
    10030    2    1    2    0    0  0.00000000000E+00  0.00000000000E+00  0.20946037925E+03  0.21520180445E+04  0.21418001805E+04 0.  0.
        3    1    3    3  502    0  0.50111785690E+03  0.91298803584E+03 -0.14577978409E+03  0.10516263670E+04  0.10100000352E+00 0. -1.
       -3    1    3    3    0  502 -0.50111785690E+03 -0.91298803584E+03  0.35524016335E+03  0.11003916775E+04  0.10100000352E+00 0.  1.
</event>
<event>
 5   0  0.5849604E-05  0.2224610E+04  0.7818609E-02  0.8508254E-01
       -1   -1    0    0    0  501  0.00000000000E+00  0.00000000000E+00  0.96364123038E+03  0.96364123040E+03  0.50400001928E-02 0. -1.
        1   -1    0    0  501    0  0.00000000000E+00  0.00000000000E+00 -0.12839033549E+04  0.12839033549E+04  0.50400001928E-02 0.  1.
    10030    2    1    2    0    0  0.00000000000E+00  0.00000000000E+00 -0.32026212450E+03  0.22475445853E+04  0.22246098162E+04 0.  0.
        2    1    3    3  502    0 -0.34546835514E+03  0.31600130595E+03  0.85923925056E+03  0.97851790963E+03  0.25500000920E-02 0. -1.
       -2    1    3    3    0  502  0.34546835514E+03 -0.31600130595E+03 -0.11795013751E+04  0.12690266757E+04  0.25500000920E-02 0.  1.
</event>
<event>
 5   0  0.1252124E-04  0.2127788E+04  0.7818609E-02  0.8549100E-01
        2   -1    0    0  501    0  0.00000000000E+00  0.00000000000E+00  0.13402661898E+04  0.13402661898E+04  0.25500000920E-02 0.  1.
       -2   -1    0    0    0  501  0.00000000000E+00  0.00000000000E+00 -0.84451192350E+03  0.84451192350E+03  0.25500000920E-02 0. -1.
    10030    2    1    2    0    0  0.00000000000E+00  0.00000000000E+00  0.49575426633E+03  0.21847781133E+04  0.21277883146E+04 0.  0.
        3    1    3    3  502    0 -0.34486292862E+03  0.44722834103E+03  0.11736505973E+04  0.13024589680E+04  0.10100000352E+00 0.  1.
       -3    1    3    3    0  502  0.34486292862E+03 -0.44722834103E+03 -0.67789633095E+03  0.88231914536E+03  0.10100000352E+00 0. -1.
</event>
<event>
 5   0  0.6263558E-05  0.2190662E+04  0.7818609E-02  0.8522325E-01
        1   -1    0    0  501    0  0.00000000000E+00  0.00000000000E+00  0.60950639145E+03  0.60950639147E+03  0.50400001928E-02 0. -1.
       -1   -1    0    0    0  501  0.00000000000E+00  0.00000000000E+00 -0.19683965837E+04  0.19683965837E+04  0.50400001928E-02 0.  1.
    10030    2    1    2    0    0  0.00000000000E+00  0.00000000000E+00 -0.13588901923E+04  0.25779029752E+04  0.21906622731E+04 0.  0.
        3    1    3    3  502    0  0.60793152881E+03  0.86605786984E+02  0.38789715210E+03  0.72632328675E+03  0.10100000352E+00 0. -1.
       -3    1    3    3    0  502 -0.60793152881E+03 -0.86605786984E+02 -0.17467873444E+04  0.18515796885E+04  0.10100000352E+00 0.  1.
</event>
<event>
 5   0  0.6263558E-05  0.1663817E+04  0.7818609E-02  0.8782274E-01
       -1   -1    0    0    0  501  0.00000000000E+00  0.00000000000E+00  0.36892514943E+03  0.36892514946E+03  0.50400001928E-02 0.  1.
        1   -1    0    0  501    0  0.00000000000E+00  0.00000000000E+00 -0.18759141625E+04  0.18759141625E+04  0.50400001928E-02 0. -1.
    10030    2    1    2    0    0  0.00000000000E+00  0.00000000000E+00 -0.15069890130E+04  0.22448393119E+04  0.16638171928E+04 0.  0.
        3    1    3    3  502    0  0.55328225537E+03  0.47570611692E+03 -0.12925953535E+04  0.14843248707E+04  0.10100000352E+00 0. -1.
       -3    1    3    3    0  502 -0.55328225537E+03 -0.47570611692E+03 -0.21439365951E+03  0.76051444117E+03  0.10100000352E+00 0.  1.
</event>
<event>
 5   0  0.6263558E-05  0.2174282E+04  0.7818609E-02  0.8529209E-01
        1   -1    0    0  501    0  0.00000000000E+00  0.00000000000E+00  0.12771477312E+04  0.12771477312E+04  0.50400001928E-02 0.  1.
       -1   -1    0    0    0  501  0.00000000000E+00  0.00000000000E+00 -0.92540248096E+03  0.92540248098E+03  0.50400001928E-02 0. -1.
    10030    2    1    2    0    0  0.00000000000E+00  0.00000000000E+00  0.35174525022E+03  0.22025502122E+04  0.21742821151E+04 0.  0.
        3    1    3    3  502    0  0.13860132653E+03 -0.32908477705E+03 -0.86430173920E+03  0.93516021344E+03  0.10100000352E+00 0. -1.
       -3    1    3    3    0  502 -0.13860132653E+03  0.32908477705E+03  0.12160469894E+04  0.12673899987E+04  0.10100000352E+00 0.  1.
</event>
<event>
 5   0  0.1404159E-04  0.2176819E+04  0.7818609E-02  0.8528139E-01
        2   -1    0    0  501    0  0.00000000000E+00  0.00000000000E+00  0.25746472830E+04  0.25746472830E+04  0.25500000920E-02 0.  1.
       -2   -1    0    0    0  501  0.00000000000E+00  0.00000000000E+00 -0.46011549219E+03  0.46011549220E+03  0.25500000920E-02 0. -1.
    10030    2    1    2    0    0  0.00000000000E+00  0.00000000000E+00  0.21145317908E+04  0.30347627752E+04  0.21768188733E+04 0.  0.
        5    1    3    3  502    0 -0.53663955575E+03 -0.85935172229E+03  0.50285592323E+03  0.11310851272E+04  0.46999998093E+01 0. -1.
       -5    1    3    3    0  502  0.53663955575E+03  0.85935172229E+03  0.16116758676E+04  0.19036776480E+04  0.46999998093E+01 0.  1.
</event>
<event>
 5   0  0.5981239E-05  0.2189812E+04  0.7818609E-02  0.8522681E-01
        1   -1    0    0  501    0  0.00000000000E+00  0.00000000000E+00  0.20229196344E+04  0.20229196344E+04  0.50400001928E-02 0.  1.
       -1   -1    0    0    0  501  0.00000000000E+00  0.00000000000E+00 -0.59261807385E+03  0.59261807387E+03  0.50400001928E-02 0. -1.
    10030    2    1    2    0    0  0.00000000000E+00  0.00000000000E+00  0.14303015606E+04  0.26155377083E+04  0.21898116242E+04 0.  0.
        4    1    3    3  502    0  0.94657441234E+03 -0.27693773001E+03  0.14718360498E+03  0.99717714117E+03  0.12699999809E+01 0. -1.
       -4    1    3    3    0  502 -0.94657441234E+03  0.27693773001E+03  0.12831179556E+04  0.16183605671E+04  0.12699999809E+01 0.  1.
</event>
<event>
 5   0  0.5981239E-05  0.2199355E+04  0.7818609E-02  0.8518697E-01
        1   -1    0    0  501    0  0.00000000000E+00  0.00000000000E+00  0.15633378292E+04  0.15633378293E+04  0.50400001928E-02 0.  1.
       -1   -1    0    0    0  501  0.00000000000E+00  0.00000000000E+00 -0.77353135845E+03  0.77353135846E+03  0.50400001928E-02 0. -1.
    10030    2    1    2    0    0  0.00000000000E+00  0.00000000000E+00  0.78980647080E+03  0.23368691877E+04  0.21993552099E+04 0.  0.
        4    1    3    3  502    0 -0.44402669243E+02 -0.31777594172E+03  0.15124933794E+04  0.15461536087E+04  0.12699999809E+01 0.  1.
       -4    1    3    3    0  502  0.44402669243E+02  0.31777594172E+03 -0.72268690857E+03  0.79071557901E+03  0.12699999809E+01 0. -1.
</event>
<event>
 5   0  0.1252124E-04  0.2177664E+04  0.7818609E-02  0.8527783E-01
       -2   -1    0    0    0  501  0.00000000000E+00  0.00000000000E+00  0.10960540274E+04  0.10960540274E+04  0.25500000920E-02 0.  1.
        2   -1    0    0  501    0  0.00000000000E+00  0.00000000000E+00 -0.10816574340E+04  0.10816574340E+04  0.25500000920E-02 0. -1.
    10030    2    1    2    0    0  0.00000000000E+00  0.00000000000E+00  0.14396593422E+02  0.21777114614E+04  0.21776638738E+04 0.  0.
        3    1    3    3  502    0  0.81723606915E+03  0.68065831526E+03 -0.22601152013E+03  0.10873140081E+04  0.10100000352E+00 0. -1.
       -3    1    3    3    0  502 -0.81723606915E+03 -0.68065831526E+03  0.24040811355E+03  0.10903974533E+04  0.10100000352E+00 0.  1.
</event>
<event>
 5   0  0.1311472E-04  0.2585695E+04  0.7818609E-02  0.8373076E-01
        2   -1    0    0  501    0  0.00000000000E+00  0.00000000000E+00  0.13859971096E+04  0.13859971096E+04  0.25500000920E-02 0. -1.
       -2   -1    0    0    0  501  0.00000000000E+00  0.00000000000E+00 -0.12059586947E+04  0.12059586947E+04  0.25500000920E-02 0.  1.
    10030    2    1    2    0    0  0.00000000000E+00  0.00000000000E+00  0.18003841482E+03  0.25919558043E+04  0.25856954694E+04 0.  0.
        4    1    3    3  502    0  0.65466765728E+03 -0.48470609638E+03 -0.91636564557E+03  0.12260739581E+04  0.12699999809E+01 0.  1.
       -4    1    3    3    0  502 -0.65466765728E+03  0.48470609638E+03  0.10964040604E+04  0.13658818462E+04  0.12699999809E+01 0. -1.
</event>
<event>
 5   0  0.1311472E-04  0.1389314E+04  0.7818609E-02  0.8961590E-01
       -2   -1    0    0    0  501  0.00000000000E+00  0.00000000000E+00  0.66008419305E+03  0.66008419306E+03  0.25500000920E-02 0.  1.
        2   -1    0    0  501    0  0.00000000000E+00  0.00000000000E+00 -0.73104097922E+03  0.73104097922E+03  0.25500000920E-02 0. -1.
    10030    2    1    2    0    0  0.00000000000E+00  0.00000000000E+00 -0.70956786167E+02  0.13911251723E+04  0.13893143559E+04 0.  0.
        4    1    3    3  502    0  0.39734175135E+03  0.52228493594E+03  0.19260120039E+03  0.68392898532E+03  0.12699999809E+01 0.  1.
       -4    1    3    3    0  502 -0.39734175135E+03 -0.52228493594E+03 -0.26355798656E+03  0.70719618696E+03  0.12699999809E+01 0. -1.
</event>
<event>
 5   0  0.5895063E-05  0.1735237E+04  0.7818609E-02  0.8741519E-01
       -1   -1    0    0    0  501  0.00000000000E+00  0.00000000000E+00  0.60852491109E+03  0.60852491111E+03  0.50400001928E-02 0.  1.
        1   -1    0    0  501    0  0.00000000000E+00  0.00000000000E+00 -0.12370273180E+04  0.12370273180E+04  0.50400001928E-02 0. -1.
    10030    2    1    2    0    0  0.00000000000E+00  0.00000000000E+00 -0.62850240692E+03  0.18455522291E+04  0.17352370890E+04 0.  0.
        5    1    3    3  502    0 -0.14560746099E+03  0.52291779391E+03  0.40560447527E+03  0.67762942103E+03  0.46999998093E+01 0.  1.
       -5    1    3    3    0  502  0.14560746099E+03 -0.52291779391E+03 -0.10341068822E+04  0.11679228081E+04  0.46999998093E+01 0. -1.
</event>
<event>
 5   0  0.6263558E-05  0.2155757E+04  0.7818609E-02  0.8537072E-01
       -1   -1    0    0    0  501  0.00000000000E+00  0.00000000000E+00  0.93638161641E+03  0.93638161643E+03  0.50400001928E-02 0. -1.
        1   -1    0    0  501    0  0.00000000000E+00  0.00000000000E+00 -0.12407573535E+04  0.12407573535E+04  0.50400001928E-02 0.  1.
    10030    2    1    2    0    0  0.00000000000E+00  0.00000000000E+00 -0.30437573708E+03  0.21771389699E+04  0.21557572927E+04 0.  0.
        3    1    3    3  502    0 -0.19539293205E+03  0.63792795293E+01 -0.12227029386E+04  0.12382332492E+04  0.10100000352E+00 0.  1.
       -3    1    3    3    0  502  0.19539293205E+03 -0.63792795293E+01  0.91832720155E+03  0.93890572072E+03  0.10100000352E+00 0. -1.
</event>
<event>
 5   0  0.1311472E-04  0.2229873E+04  0.7818609E-02  0.8506096E-01
        2   -1    0    0  501    0  0.00000000000E+00  0.00000000000E+00  0.30184127923E+04  0.30184127923E+04  0.25500000920E-02 0.  1.
       -2   -1    0    0    0  501  0.00000000000E+00  0.00000000000E+00 -0.41183328820E+03  0.41183328821E+03  0.25500000920E-02 0. -1.
    10030    2    1    2    0    0  0.00000000000E+00  0.00000000000E+00  0.26065795041E+04  0.34302460805E+04  0.22298725214E+04 0.  0.
        4    1    3    3  502    0  0.10410167715E+04  0.36780523546E+02  0.69179744121E+03  0.12504615300E+04  0.12699999809E+01 0.  1.
       -4    1    3    3    0  502 -0.10410167715E+04 -0.36780523546E+02  0.19147820629E+04  0.21797845505E+04  0.12699999809E+01 0. -1.
</event>
<event>
 5   0  0.1404159E-04  0.2231996E+04  0.7818609E-02  0.8505227E-01
        2   -1    0    0  501    0  0.00000000000E+00  0.00000000000E+00  0.13817447098E+04  0.13817447098E+04  0.25500000920E-02 0.  1.
       -2   -1    0    0    0  501  0.00000000000E+00  0.00000000000E+00 -0.90136184837E+03  0.90136184838E+03  0.25500000920E-02 0. -1.
    10030    2    1    2    0    0  0.00000000000E+00  0.00000000000E+00  0.48038286139E+03  0.22831065581E+04  0.22319963849E+04 0.  0.
        5    1    3    3  502    0 -0.61050850234E+02 -0.43144187569E+02  0.13791704786E+04  0.13812030721E+04  0.46999998093E+01 0.  1.
       -5    1    3    3    0  502  0.61050850234E+02  0.43144187569E+02 -0.89878761724E+03  0.90190348605E+03  0.46999998093E+01 0. -1.
</event>
<event>
 5   0  0.5895063E-05  0.2190030E+04  0.7818609E-02  0.8522589E-01
        1   -1    0    0  501    0  0.00000000000E+00  0.00000000000E+00  0.13785244457E+04  0.13785244457E+04  0.50400001928E-02 0.  1.
       -1   -1    0    0    0  501  0.00000000000E+00  0.00000000000E+00 -0.86981287855E+03  0.86981287857E+03  0.50400001928E-02 0. -1.
    10030    2    1    2    0    0  0.00000000000E+00  0.00000000000E+00  0.50871156718E+03  0.22483373243E+04  0.21900304257E+04 0.  0.
        5    1    3    3  502    0  0.78705730818E+03  0.50419664047E+03  0.83994793675E+03  0.12566654627E+04  0.46999998093E+01 0.  1.
       -5    1    3    3    0  502 -0.78705730818E+03 -0.50419664047E+03 -0.33123636958E+03  0.99167186163E+03  0.46999998093E+01 0. -1.
</event>
<event>
 5   0  0.6263558E-05  0.1877327E+04  0.7818609E-02  0.8666225E-01
       -1   -1    0    0    0  501  0.00000000000E+00  0.00000000000E+00  0.37472450326E+03  0.37472450329E+03  0.50400001928E-02 0. -1.
        1   -1    0    0  501    0  0.00000000000E+00  0.00000000000E+00 -0.23512986822E+04  0.23512986822E+04  0.50400001928E-02 0.  1.
    10030    2    1    2    0    0  0.00000000000E+00  0.00000000000E+00 -0.19765741790E+04  0.27260231855E+04  0.18773270687E+04 0.  0.
        3    1    3    3  502    0  0.50861955619E+03 -0.10219019795E+03 -0.21242089848E+04  0.21866413768E+04  0.10100000352E+00 0.  1.
       -3    1    3    3    0  502 -0.50861955619E+03  0.10219019795E+03  0.14763480582E+03  0.53938180873E+03  0.10100000352E+00 0. -1.
</event>
<event>
 5   0  0.1226021E-04  0.2207254E+04  0.7818609E-02  0.8515415E-01
       -2   -1    0    0    0  501  0.00000000000E+00  0.00000000000E+00  0.11788868634E+04  0.11788868634E+04  0.25500000920E-02 0.  1.
        2   -1    0    0  501    0  0.00000000000E+00  0.00000000000E+00 -0.10331714119E+04  0.10331714119E+04  0.25500000920E-02 0. -1.
    10030    2    1    2    0    0  0.00000000000E+00  0.00000000000E+00  0.14571545149E+03  0.22120582753E+04  0.22072536828E+04 0.  0.
        2    1    3    3  502    0  0.21658663883E+03  0.24970061560E+03  0.11281131955E+04  0.11755422372E+04  0.25500000920E-02 0.  1.
       -2    1    3    3    0  502 -0.21658663883E+03 -0.24970061560E+03 -0.98239774405E+03  0.10365160380E+04  0.25500000920E-02 0. -1.
</event>
<event>
 5   0  0.1404159E-04  0.2197803E+04  0.7818609E-02  0.8519343E-01
       -2   -1    0    0    0  501  0.00000000000E+00  0.00000000000E+00  0.95744230923E+03  0.95744230924E+03  0.25500000920E-02 0. -1.
        2   -1    0    0  501    0  0.00000000000E+00  0.00000000000E+00 -0.12612613536E+04  0.12612613536E+04  0.25500000920E-02 0.  1.
    10030    2    1    2    0    0  0.00000000000E+00  0.00000000000E+00 -0.30381904433E+03  0.22187036628E+04  0.21978034333E+04 0.  0.
        5    1    3    3  502    0  0.86036391380E+03  0.63932225168E+02 -0.83900633202E+03  0.12034396988E+04  0.46999998093E+01 0.  1.
       -5    1    3    3    0  502 -0.86036391380E+03 -0.63932225168E+02  0.53518728769E+03  0.10152639640E+04  0.46999998093E+01 0. -1.
</event>
<event>
 5   0  0.1241430E-04  0.2197518E+04  0.7818609E-02  0.8519462E-01
       -2   -1    0    0    0  501  0.00000000000E+00  0.00000000000E+00  0.86600571239E+03  0.86600571239E+03  0.25500000920E-02 0.  1.
        2   -1    0    0  501    0  0.00000000000E+00  0.00000000000E+00 -0.13940679564E+04  0.13940679564E+04  0.25500000920E-02 0. -1.
    10030    2    1    2    0    0  0.00000000000E+00  0.00000000000E+00 -0.52806224405E+03  0.22600736688E+04  0.21975175210E+04 0.  0.
        1    1    3    3  502    0 -0.43599131390E+03  0.95347730206E+03  0.74056762440E+02  0.10510431939E+04  0.50400001928E-02 0. -1.
       -1    1    3    3    0  502  0.43599131390E+03 -0.95347730206E+03 -0.60211900649E+03  0.12090304749E+04  0.50400001928E-02 0.  1.
</event>
<event>
 5   0  0.1311472E-04  0.2184143E+04  0.7818609E-02  0.8525057E-01
        2   -1    0    0  501    0  0.00000000000E+00  0.00000000000E+00  0.12053462133E+04  0.12053462133E+04  0.25500000920E-02 0.  1.
       -2   -1    0    0    0  501  0.00000000000E+00  0.00000000000E+00 -0.98944229228E+03  0.98944229228E+03  0.25500000920E-02 0. -1.
    10030    2    1    2    0    0  0.00000000000E+00  0.00000000000E+00  0.21590392105E+03  0.21947885056E+04  0.21841433289E+04 0.  0.
        4    1    3    3  502    0 -0.54329794606E+03 -0.87873120740E+03  0.46362295829E+03  0.11323820263E+04  0.12699999809E+01 0.  1.
       -4    1    3    3    0  502  0.54329794606E+03  0.87873120740E+03 -0.24771903724E+03  0.10624064793E+04  0.12699999809E+01 0. -1.
</event>
<event>
 5   0  0.1404159E-04  0.2218528E+04  0.7818609E-02  0.8510756E-01
       -2   -1    0    0    0  501  0.00000000000E+00  0.00000000000E+00  0.58702585635E+03  0.58702585636E+03  0.25500000920E-02 0.  1.
        2   -1    0    0  501    0  0.00000000000E+00  0.00000000000E+00 -0.20961023477E+04  0.20961023477E+04  0.25500000920E-02 0. -1.
    10030    2    1    2    0    0  0.00000000000E+00  0.00000000000E+00 -0.15090764914E+04  0.26831282041E+04  0.22185276881E+04 0.  0.
        5    1    3    3  502    0  0.25728929786E+03 -0.60963679750E+03 -0.18312530764E+04  0.19471427086E+04  0.46999998093E+01 0. -1.
       -5    1    3    3    0  502 -0.25728929786E+03  0.60963679750E+03  0.32217658504E+03  0.73598549552E+03  0.46999998093E+01 0.  1.
</event>
<event>
 5   0  0.1252124E-04  0.2205315E+04  0.7818609E-02  0.8516219E-01
        2   -1    0    0  501    0  0.00000000000E+00  0.00000000000E+00  0.12043799019E+04  0.12043799019E+04  0.25500000920E-02 0.  1.
       -2   -1    0    0    0  501  0.00000000000E+00  0.00000000000E+00 -0.10095262372E+04  0.10095262372E+04  0.25500000920E-02 0. -1.
    10030    2    1    2    0    0  0.00000000000E+00  0.00000000000E+00  0.19485366468E+03  0.22139061392E+04  0.22053145903E+04 0.  0.
        3    1    3    3  502    0  0.86973398851E+03 -0.23465308140E+03 -0.54093869951E+03  0.10507682743E+04  0.10100000352E+00 0. -1.
       -3    1    3    3    0  502 -0.86973398851E+03  0.23465308140E+03  0.73579236418E+03  0.11631378649E+04  0.10100000352E+00 0.  1.
</event>
<event>
 5   0  0.5849604E-05  0.2234993E+04  0.7818609E-02  0.8504003E-01
       -1   -1    0    0    0  501  0.00000000000E+00  0.00000000000E+00  0.80669265443E+03  0.80669265445E+03  0.50400001928E-02 0.  1.
        1   -1    0    0  501    0  0.00000000000E+00  0.00000000000E+00 -0.15480467994E+04  0.15480467995E+04  0.50400001928E-02 0. -1.
    10030    2    1    2    0    0  0.00000000000E+00  0.00000000000E+00 -0.74135414502E+03  0.23547394539E+04  0.22349926012E+04 0.  0.
        2    1    3    3  502    0  0.92683603358E+03  0.39016973774E+03  0.14281722648E+03  0.10157038041E+04  0.25500000920E-02 0.  1.
       -2    1    3    3    0  502 -0.92683603358E+03 -0.39016973774E+03 -0.88417137150E+03  0.13390356498E+04  0.25500000920E-02 0. -1.
</event>
<event>
 5   0  0.1404159E-04  0.2117844E+04  0.7818609E-02  0.8553424E-01
        2   -1    0    0  501    0  0.00000000000E+00  0.00000000000E+00  0.18930265923E+04  0.18930265923E+04  0.25500000920E-02 0. -1.
       -2   -1    0    0    0  501  0.00000000000E+00  0.00000000000E+00 -0.59233996559E+03  0.59233996559E+03  0.25500000920E-02 0.  1.
    10030    2    1    2    0    0  0.00000000000E+00  0.00000000000E+00  0.13006866267E+04  0.24853665579E+04  0.21178435320E+04 0.  0.
        5    1    3    3  502    0  0.24843749052E+03  0.51049289605E+03  0.16993096543E+04  0.17916471681E+04  0.46999998093E+01 0. -1.
       -5    1    3    3    0  502 -0.24843749052E+03 -0.51049289605E+03 -0.39862302763E+03  0.69371938979E+03  0.46999998093E+01 0.  1.
</event>
<event>
 5   0  0.5895063E-05  0.2209512E+04  0.7818609E-02  0.8514479E-01
       -1   -1    0    0    0  501  0.00000000000E+00  0.00000000000E+00  0.93621505291E+03  0.93621505292E+03  0.50400001928E-02 0.  1.
        1   -1    0    0  501    0  0.00000000000E+00  0.00000000000E+00 -0.13036385120E+04  0.13036385120E+04  0.50400001928E-02 0. -1.
    10030    2    1    2    0    0  0.00000000000E+00  0.00000000000E+00 -0.36742345908E+03  0.22398535649E+04  0.22095121620E+04 0.  0.
        5    1    3    3  502    0 -0.10453258500E+04  0.34962158437E+03 -0.10837755805E+03  0.11075690363E+04  0.46999998093E+01 0.  1.
       -5    1    3    3    0  502  0.10453258500E+04 -0.34962158437E+03 -0.25904590103E+03  0.11322845287E+04  0.46999998093E+01 0. -1.
</event>
<event>
 5   0  0.5895063E-05  0.2228604E+04  0.7818609E-02  0.8506616E-01
        1   -1    0    0  501    0  0.00000000000E+00  0.00000000000E+00  0.88334886032E+03  0.88334886034E+03  0.50400001928E-02 0.  1.
       -1   -1    0    0    0  501  0.00000000000E+00  0.00000000000E+00 -0.14056381990E+04  0.14056381990E+04  0.50400001928E-02 0. -1.
    10030    2    1    2    0    0  0.00000000000E+00  0.00000000000E+00 -0.52228933870E+03  0.22889870594E+04  0.22286039587E+04 0.  0.
        5    1    3    3  502    0 -0.10156819642E+04 -0.39557600325E+03 -0.23451404460E+02  0.10902578984E+04  0.46999998093E+01 0.  1.
       -5    1    3    3    0  502  0.10156819642E+04  0.39557600325E+03 -0.49883793424E+03  0.11987291610E+04  0.46999998093E+01 0. -1.
</event>
<event>
 5   0  0.5895063E-05  0.2192156E+04  0.7818609E-02  0.8521700E-01
        1   -1    0    0  501    0  0.00000000000E+00  0.00000000000E+00  0.68303348231E+03  0.68303348232E+03  0.50400001928E-02 0. -1.
       -1   -1    0    0    0  501  0.00000000000E+00  0.00000000000E+00 -0.17588992248E+04  0.17588992248E+04  0.50400001928E-02 0.  1.
    10030    2    1    2    0    0  0.00000000000E+00  0.00000000000E+00 -0.10758657424E+04  0.24419327071E+04  0.21921560734E+04 0.  0.
        5    1    3    3  502    0 -0.66127126257E+03 -0.84896128899E+03 -0.76986284028E+03  0.13231499672E+04  0.46999998093E+01 0. -1.
       -5    1    3    3    0  502  0.66127126257E+03  0.84896128899E+03 -0.30600290216E+03  0.11187827399E+04  0.46999998093E+01 0.  1.
</event>
<event>
 5   0  0.5981239E-05  0.2202246E+04  0.7818609E-02  0.8517494E-01
        1   -1    0    0  501    0  0.00000000000E+00  0.00000000000E+00  0.18805296480E+04  0.18805296480E+04  0.50400001928E-02 0.  1.
       -1   -1    0    0    0  501  0.00000000000E+00  0.00000000000E+00 -0.64475036919E+03  0.64475036921E+03  0.50400001928E-02 0. -1.
    10030    2    1    2    0    0  0.00000000000E+00  0.00000000000E+00  0.12357792788E+04  0.25252800172E+04  0.22022462940E+04 0.  0.
        4    1    3    3  502    0  0.82235885210E+03  0.34804807966E+03 -0.12086221640E+03  0.90112198710E+03  0.12699999809E+01 0. -1.
       -4    1    3    3    0  502 -0.82235885210E+03 -0.34804807966E+03  0.13566414952E+04  0.16241580301E+04  0.12699999809E+01 0.  1.
</event>
<event>
 5   0  0.1252124E-04  0.2173522E+04  0.7818609E-02  0.8529530E-01
       -2   -1    0    0    0  501  0.00000000000E+00  0.00000000000E+00  0.13821025706E+04  0.13821025706E+04  0.25500000920E-02 0. -1.
        2   -1    0    0  501    0  0.00000000000E+00  0.00000000000E+00 -0.85453079674E+03  0.85453079674E+03  0.25500000920E-02 0.  1.
    10030    2    1    2    0    0  0.00000000000E+00  0.00000000000E+00  0.52757177389E+03  0.22366333674E+04  0.21735217605E+04 0.  0.
        3    1    3    3  502    0  0.99350825059E+03  0.37479109890E+03  0.25719686711E+02  0.10621621930E+04  0.10100000352E+00 0.  1.
       -3    1    3    3    0  502 -0.99350825059E+03 -0.37479109890E+03  0.50185208718E+03  0.11744711744E+04  0.10100000352E+00 0. -1.
</event>
<event>
 5   0  0.1404159E-04  0.1794876E+04  0.7818609E-02  0.8709029E-01
       -2   -1    0    0    0  501  0.00000000000E+00  0.00000000000E+00  0.37194300339E+03  0.37194300340E+03  0.25500000920E-02 0.  1.
        2   -1    0    0  501    0  0.00000000000E+00  0.00000000000E+00 -0.21653720522E+04  0.21653720522E+04  0.25500000920E-02 0. -1.
    10030    2    1    2    0    0  0.00000000000E+00  0.00000000000E+00 -0.17934290489E+04  0.25373150556E+04  0.17948760231E+04 0.  0.
        5    1    3    3  502    0 -0.46504436264E+03 -0.14294809895E+02 -0.19815442162E+04  0.20354385698E+04  0.46999998093E+01 0. -1.
       -5    1    3    3    0  502  0.46504436264E+03  0.14294809895E+02  0.18811516735E+03  0.50187648580E+03  0.46999998093E+01 0.  1.
</event>
<event>
 5   0  0.5981239E-05  0.2152227E+04  0.7818609E-02  0.8538580E-01
        1   -1    0    0  501    0  0.00000000000E+00  0.00000000000E+00  0.15229257818E+04  0.15229257818E+04  0.50400001928E-02 0.  1.
       -1   -1    0    0    0  501  0.00000000000E+00  0.00000000000E+00 -0.76039155307E+03  0.76039155309E+03  0.50400001928E-02 0. -1.
    10030    2    1    2    0    0  0.00000000000E+00  0.00000000000E+00  0.76253422873E+03  0.22833173349E+04  0.21522266614E+04 0.  0.
        4    1    3    3  502    0 -0.52757340518E+02 -0.59112662531E+03 -0.57107512530E+03  0.82361546596E+03  0.12699999809E+01 0. -1.
       -4    1    3    3    0  502  0.52757340518E+02  0.59112662531E+03  0.13336093540E+04  0.14597018689E+04  0.12699999809E+01 0.  1.
</event>
<event>
 5   0  0.1226021E-04  0.2207555E+04  0.7818609E-02  0.8515290E-01
        2   -1    0    0  501    0  0.00000000000E+00  0.00000000000E+00  0.16091564609E+04  0.16091564609E+04  0.25500000920E-02 0.  1.
       -2   -1    0    0    0  501  0.00000000000E+00  0.00000000000E+00 -0.75712000817E+03  0.75712000818E+03  0.25500000920E-02 0. -1.
    10030    2    1    2    0    0  0.00000000000E+00  0.00000000000E+00  0.85203645275E+03  0.23662764691E+04  0.22075548037E+04 0.  0.
        2    1    3    3  502    0 -0.87542717306E+03  0.61527867625E+03  0.71639012668E+03  0.12876938294E+04  0.25500000920E-02 0. -1.
       -2    1    3    3    0  502  0.87542717306E+03 -0.61527867625E+03  0.13564632607E+03  0.10785826397E+04  0.25500000920E-02 0.  1.
</event>
<event>
 5   0  0.1226021E-04  0.2008685E+04  0.7818609E-02  0.8602571E-01
        2   -1    0    0  501    0  0.00000000000E+00  0.00000000000E+00  0.89963392624E+03  0.89963392625E+03  0.25500000920E-02 0.  1.
       -2   -1    0    0    0  501  0.00000000000E+00  0.00000000000E+00 -0.11212384307E+04  0.11212384307E+04  0.25500000920E-02 0. -1.
    10030    2    1    2    0    0  0.00000000000E+00  0.00000000000E+00 -0.22160450448E+03  0.20208723570E+04  0.20086852732E+04 0.  0.
        2    1    3    3  502    0  0.44223623108E+02 -0.92753465081E+03 -0.49578287155E+03  0.10526523230E+04  0.25500000920E-02 0. -1.
       -2    1    3    3    0  502 -0.44223623108E+02  0.92753465081E+03  0.27417836707E+03  0.96822003402E+03  0.25500000920E-02 0.  1.
</event>
<event>
 5   0  0.5861816E-05  0.2142049E+04  0.7818609E-02  0.8542943E-01
       -1   -1    0    0    0  501  0.00000000000E+00  0.00000000000E+00  0.52481954554E+03  0.52481954556E+03  0.50400001928E-02 0.  1.
        1   -1    0    0  501    0  0.00000000000E+00  0.00000000000E+00 -0.21856916639E+04  0.21856916639E+04  0.50400001928E-02 0. -1.
    10030    2    1    2    0    0  0.00000000000E+00  0.00000000000E+00 -0.16608721184E+04  0.27105112095E+04  0.21420492112E+04 0.  0.
        1    1    3    3  502    0  0.14420616299E+03  0.10525076467E+04 -0.65820482552E+03  0.12497205113E+04  0.50400001928E-02 0. -1.
       -1    1    3    3    0  502 -0.14420616299E+03 -0.10525076467E+04 -0.10026672929E+04  0.14607906983E+04  0.50400001928E-02 0.  1.
</event>
<event>
 5   0  0.1404159E-04  0.2193853E+04  0.7818609E-02  0.8520991E-01
        2   -1    0    0  501    0  0.00000000000E+00  0.00000000000E+00  0.22729293468E+04  0.22729293468E+04  0.25500000920E-02 0. -1.
       -2   -1    0    0    0  501  0.00000000000E+00  0.00000000000E+00 -0.52938180064E+03  0.52938180064E+03  0.25500000920E-02 0.  1.
    10030    2    1    2    0    0  0.00000000000E+00  0.00000000000E+00  0.17435475461E+04  0.28023111474E+04  0.21938527118E+04 0.  0.
        5    1    3    3  502    0  0.82889036534E+02 -0.75558807333E+03  0.18819617699E+04  0.20296763590E+04  0.46999998093E+01 0. -1.
       -5    1    3    3    0  502 -0.82889036534E+02  0.75558807333E+03 -0.13841422376E+03  0.77263478842E+03  0.46999998093E+01 0.  1.
</event>
<event>
 5   0  0.6263558E-05  0.1901161E+04  0.7818609E-02  0.8654279E-01
       -1   -1    0    0    0  501  0.00000000000E+00  0.00000000000E+00  0.77632911780E+03  0.77632911782E+03  0.50400001928E-02 0. -1.
        1   -1    0    0  501    0  0.00000000000E+00  0.00000000000E+00 -0.11639440257E+04  0.11639440258E+04  0.50400001928E-02 0.  1.
    10030    2    1    2    0    0  0.00000000000E+00  0.00000000000E+00 -0.38761490794E+03  0.19402731436E+04  0.19011613700E+04 0.  0.
        3    1    3    3  502    0  0.58953175435E+01  0.20506033533E+02 -0.11636996031E+04  0.11638951966E+04  0.10100000352E+00 0.  1.
       -3    1    3    3    0  502 -0.58953175435E+01 -0.20506033533E+02  0.77608469520E+03  0.77637794694E+03  0.10100000352E+00 0. -1.
</event>
<event>
 5   0  0.1311472E-04  0.2232431E+04  0.7818609E-02  0.8505050E-01
       -2   -1    0    0    0  501  0.00000000000E+00  0.00000000000E+00  0.14849352211E+04  0.14849352211E+04  0.25500000920E-02 0.  1.
        2   -1    0    0  501    0  0.00000000000E+00  0.00000000000E+00 -0.83905138222E+03  0.83905138223E+03  0.25500000920E-02 0. -1.
    10030    2    1    2    0    0  0.00000000000E+00  0.00000000000E+00  0.64588383891E+03  0.23239866034E+04  0.22324309170E+04 0.  0.
        4    1    3    3  502    0 -0.76054000390E+03  0.75181045497E+03 -0.10011429688E+02  0.10694586945E+04  0.12699999809E+01 0.  1.
       -4    1    3    3    0  502  0.76054000390E+03 -0.75181045497E+03  0.65589526860E+03  0.12545279088E+04  0.12699999809E+01 0. -1.
</event>
<event>
 5   0  0.4586375E-05  0.2216162E+04  0.7818609E-02  0.8511731E-01
       -3   -1    0    0    0  501  0.00000000000E+00  0.00000000000E+00  0.11870049800E+04  0.11870049843E+04  0.10100000352E+00 0. -1.
        3   -1    0    0  501    0  0.00000000000E+00  0.00000000000E+00 -0.10344049640E+04  0.10344049690E+04  0.10100000352E+00 0.  1.
    10030    2    1    2    0    0  0.00000000000E+00  0.00000000000E+00  0.15260001599E+03  0.22214099533E+04  0.22161623171E+04 0.  0.
        5    1    3    3  502    0  0.73268161951E+03  0.56940946459E+03 -0.53075129278E+03  0.10690035167E+04  0.46999998093E+01 0. -1.
       -5    1    3    3    0  502 -0.73268161951E+03 -0.56940946459E+03  0.68335130877E+03  0.11524064366E+04  0.46999998093E+01 0.  1.
</event>
<event>
 5   0  0.1404159E-04  0.2174379E+04  0.7818609E-02  0.8529168E-01
       -2   -1    0    0    0  501  0.00000000000E+00  0.00000000000E+00  0.68595660397E+03  0.68595660397E+03  0.25500000920E-02 0. -1.
        2   -1    0    0  501    0  0.00000000000E+00  0.00000000000E+00 -0.17231141410E+04  0.17231141410E+04  0.25500000920E-02 0.  1.
    10030    2    1    2    0    0  0.00000000000E+00  0.00000000000E+00 -0.10371575371E+04  0.24090707450E+04  0.21743794742E+04 0.  0.
        5    1    3    3  502    0  0.82813493187E+03  0.10677934794E+03  0.25280977675E+03  0.87243576712E+03  0.46999998093E+01 0. -1.
       -5    1    3    3    0  502 -0.82813493187E+03 -0.10677934794E+03 -0.12899673138E+04  0.15366349779E+04  0.46999998093E+01 0.  1.
</event>
<event>
 5   0  0.5861816E-05  0.2199653E+04  0.7818609E-02  0.8518572E-01
        1   -1    0    0  501    0  0.00000000000E+00  0.00000000000E+00  0.10683056457E+04  0.10683056457E+04  0.50400001928E-02 0. -1.
       -1   -1    0    0    0  501  0.00000000000E+00  0.00000000000E+00 -0.11322777338E+04  0.11322777338E+04  0.50400001928E-02 0.  1.
    10030    2    1    2    0    0  0.00000000000E+00  0.00000000000E+00 -0.63972088127E+02  0.22005833795E+04  0.21996533322E+04 0.  0.
        1    1    3    3  502    0  0.68008968877E+02 -0.41821946306E+03 -0.10473466760E+04  0.11298087444E+04  0.50400001928E-02 0.  1.
       -1    1    3    3    0  502 -0.68008968877E+02  0.41821946306E+03  0.98337458787E+03  0.10707746351E+04  0.50400001928E-02 0. -1.
</event>
<event>
 5   0  0.5861816E-05  0.2220182E+04  0.7818609E-02  0.8510075E-01
        1   -1    0    0  501    0  0.00000000000E+00  0.00000000000E+00  0.10146344599E+04  0.10146344600E+04  0.50400001928E-02 0. -1.
       -1   -1    0    0    0  501  0.00000000000E+00  0.00000000000E+00 -0.12145276490E+04  0.12145276490E+04  0.50400001928E-02 0.  1.
    10030    2    1    2    0    0  0.00000000000E+00  0.00000000000E+00 -0.19989318904E+03  0.22291621090E+04  0.22201816189E+04 0.  0.
        1    1    3    3  502    0 -0.84593534964E+03  0.46480178968E+03 -0.65048402187E+03  0.11639487885E+04  0.50400001928E-02 0.  1.
       -1    1    3    3    0  502  0.84593534964E+03 -0.46480178968E+03  0.45059083283E+03  0.10652133205E+04  0.50400001928E-02 0. -1.
</event>
<event>
 5   0  0.6263558E-05  0.2213635E+04  0.7818609E-02  0.8512774E-01
       -1   -1    0    0    0  501  0.00000000000E+00  0.00000000000E+00  0.84233546028E+03  0.84233546030E+03  0.50400001928E-02 0. -1.
        1   -1    0    0  501    0  0.00000000000E+00  0.00000000000E+00 -0.14543435724E+04  0.14543435724E+04  0.50400001928E-02 0.  1.
    10030    2    1    2    0    0  0.00000000000E+00  0.00000000000E+00 -0.61200811208E+03  0.22966790327E+04  0.22136351664E+04 0.  0.
        3    1    3    3  502    0  0.33598773638E+03  0.86806941512E+01 -0.14001183033E+04  0.14398938804E+04  0.10100000352E+00 0.  1.
       -3    1    3    3    0  502 -0.33598773638E+03 -0.86806941512E+01  0.78811019121E+03  0.85678515226E+03  0.10100000352E+00 0. -1.
</event>
<event>
 5   0  0.1311472E-04  0.2161957E+04  0.7818609E-02  0.8534432E-01
        2   -1    0    0  501    0  0.00000000000E+00  0.00000000000E+00  0.13375132437E+04  0.13375132437E+04  0.25500000920E-02 0.  1.
       -2   -1    0    0    0  501  0.00000000000E+00  0.00000000000E+00 -0.87364677691E+03  0.87364677691E+03  0.25500000920E-02 0. -1.
    10030    2    1    2    0    0  0.00000000000E+00  0.00000000000E+00  0.46386646676E+03  0.22111600206E+04  0.21619566456E+04 0.  0.
        4    1    3    3  502    0 -0.49332208051E+03 -0.64138172193E+03  0.96502749073E+03  0.12593716128E+04  0.12699999809E+01 0.  1.
       -4    1    3    3    0  502  0.49332208051E+03  0.64138172193E+03 -0.50116102397E+03  0.95178840779E+03  0.12699999809E+01 0. -1.
</event>
<event>
 5   0  0.1241430E-04  0.2219223E+04  0.7818609E-02  0.8510469E-01
        2   -1    0    0  501    0  0.00000000000E+00  0.00000000000E+00  0.16413340492E+04  0.16413340492E+04  0.25500000920E-02 0.  1.
       -2   -1    0    0    0  501  0.00000000000E+00  0.00000000000E+00 -0.75014450009E+03  0.75014450009E+03  0.25500000920E-02 0. -1.
    10030    2    1    2    0    0  0.00000000000E+00  0.00000000000E+00  0.89118954907E+03  0.23914785493E+04  0.22192230260E+04 0.  0.
        1    1    3    3  502    0  0.58163241489E+02 -0.48715586335E+03  0.15181019691E+04  0.15954113534E+04  0.50400001928E-02 0.  1.
       -1    1    3    3    0  502 -0.58163241489E+02  0.48715586335E+03 -0.62691242006E+03  0.79606719585E+03  0.50400001928E-02 0. -1.
</event>
<event>
 5   0  0.1404159E-04  0.2270226E+04  0.7818609E-02  0.8489754E-01
       -2   -1    0    0    0  501  0.00000000000E+00  0.00000000000E+00  0.52655865486E+03  0.52655865486E+03  0.25500000920E-02 0.  1.
        2   -1    0    0  501    0  0.00000000000E+00  0.00000000000E+00 -0.24469857719E+04  0.24469857719E+04  0.25500000920E-02 0. -1.
    10030    2    1    2    0    0  0.00000000000E+00  0.00000000000E+00 -0.19204271170E+04  0.29735444268E+04  0.22702260121E+04 0.  0.
        5    1    3    3  502    0  0.89150937316E+03  0.45444851964E+03 -0.25834223589E+03  0.10334772471E+04  0.46999998093E+01 0. -1.
       -5    1    3    3    0  502 -0.89150937316E+03 -0.45444851964E+03 -0.16620848812E+04  0.19400671797E+04  0.46999998093E+01 0.  1.
</event>
<event>
 5   0  0.5849604E-05  0.2082114E+04  0.7818609E-02  0.8569163E-01
       -1   -1    0    0    0  501  0.00000000000E+00  0.00000000000E+00  0.10272599025E+04  0.10272599026E+04  0.50400001928E-02 0. -1.
        1   -1    0    0  501    0  0.00000000000E+00  0.00000000000E+00 -0.10550397438E+04  0.10550397438E+04  0.50400001928E-02 0.  1.
    10030    2    1    2    0    0  0.00000000000E+00  0.00000000000E+00 -0.27779841271E+02  0.20822996464E+04  0.20821143335E+04 0.  0.
        2    1    3    3  502    0  0.65677021079E+03  0.30169789072E+03 -0.76324380175E+03  0.10511469107E+04  0.25500000920E-02 0.  1.
       -2    1    3    3    0  502 -0.65677021079E+03 -0.30169789072E+03  0.73546396048E+03  0.10311527356E+04  0.25500000920E-02 0. -1.
</event>
<event>
 5   0  0.5895063E-05  0.1596156E+04  0.7818609E-02  0.8822913E-01
        1   -1    0    0  501    0  0.00000000000E+00  0.00000000000E+00  0.81135367089E+03  0.81135367091E+03  0.50400001928E-02 0.  1.
       -1   -1    0    0    0  501  0.00000000000E+00  0.00000000000E+00 -0.78501927782E+03  0.78501927784E+03  0.50400001928E-02 0. -1.
    10030    2    1    2    0    0  0.00000000000E+00  0.00000000000E+00  0.26334393072E+02  0.15963729487E+04  0.15961557227E+04 0.  0.
        5    1    3    3  502    0 -0.28426316093E+03  0.48426271832E+03 -0.55399926604E+03  0.78883027439E+03  0.46999998093E+01 0. -1.
       -5    1    3    3    0  502  0.28426316093E+03 -0.48426271832E+03  0.58033365912E+03  0.80754267436E+03  0.46999998093E+01 0.  1.
</event>
<event>
 5   0  0.1311472E-04  0.1840244E+04  0.7818609E-02  0.8685186E-01
       -2   -1    0    0    0  501  0.00000000000E+00  0.00000000000E+00  0.90333356097E+03  0.90333356098E+03  0.25500000920E-02 0. -1.
        2   -1    0    0  501    0  0.00000000000E+00  0.00000000000E+00 -0.93722254879E+03  0.93722254879E+03  0.25500000920E-02 0.  1.
    10030    2    1    2    0    0  0.00000000000E+00  0.00000000000E+00 -0.33888987815E+02  0.18405561098E+04  0.18402440951E+04 0.  0.
        4    1    3    3  502    0 -0.69202120014E+02  0.59198684079E+03  0.68416338659E+03  0.90736900186E+03  0.12699999809E+01 0. -1.
       -4    1    3    3    0  502  0.69202120014E+02 -0.59198684079E+03 -0.71805237440E+03  0.93318710791E+03  0.12699999809E+01 0.  1.
</event>
<event>
 5   0  0.6263558E-05  0.2215837E+04  0.7818609E-02  0.8511865E-01
       -1   -1    0    0    0  501  0.00000000000E+00  0.00000000000E+00  0.10075403795E+04  0.10075403795E+04  0.50400001928E-02 0.  1.
        1   -1    0    0  501    0  0.00000000000E+00  0.00000000000E+00 -0.12182968981E+04  0.12182968982E+04  0.50400001928E-02 0. -1.
    10030    2    1    2    0    0  0.00000000000E+00  0.00000000000E+00 -0.21075651862E+03  0.22258372777E+04  0.22158369246E+04 0.  0.
        3    1    3    3  502    0  0.82827626554E+03 -0.42767519090E+03 -0.70685910242E+03  0.11698706945E+04  0.10100000352E+00 0. -1.
       -3    1    3    3    0  502 -0.82827626554E+03  0.42767519090E+03  0.49610258380E+03  0.10559665832E+04  0.10100000352E+00 0.  1.
</event>
<event>
 5   0  0.1311472E-04  0.2144154E+04  0.7818609E-02  0.8542039E-01
       -2   -1    0    0    0  501  0.00000000000E+00  0.00000000000E+00  0.87818517732E+03  0.87818517732E+03  0.25500000920E-02 0. -1.
        2   -1    0    0  501    0  0.00000000000E+00  0.00000000000E+00 -0.13087776345E+04  0.13087776345E+04  0.25500000920E-02 0.  1.
    10030    2    1    2    0    0  0.00000000000E+00  0.00000000000E+00 -0.43059245717E+03  0.21869628118E+04  0.21441540234E+04 0.  0.
        4    1    3    3  502    0  0.76632270695E+03  0.26073140403E+03 -0.93226451043E+03  0.12346457332E+04  0.12699999809E+01 0.  1.
       -4    1    3    3    0  502 -0.76632270695E+03 -0.26073140403E+03  0.50167205327E+03  0.95231707859E+03  0.12699999809E+01 0. -1.
</event>
<event>
 5   0  0.5861816E-05  0.2199138E+04  0.7818609E-02  0.8518787E-01
       -1   -1    0    0    0  501  0.00000000000E+00  0.00000000000E+00  0.85526734446E+03  0.85526734447E+03  0.50400001928E-02 0.  1.
        1   -1    0    0  501    0  0.00000000000E+00  0.00000000000E+00 -0.14136534232E+04  0.14136534232E+04  0.50400001928E-02 0. -1.
    10030    2    1    2    0    0  0.00000000000E+00  0.00000000000E+00 -0.55838607873E+03  0.22689207677E+04  0.21991376576E+04 0.  0.
        1    1    3    3  502    0  0.58897837649E+03 -0.44615996685E+03  0.56095451215E+03  0.92769833929E+03  0.50400001928E-02 0.  1.
       -1    1    3    3    0  502 -0.58897837649E+03  0.44615996685E+03 -0.11193405909E+04  0.13412224284E+04  0.50400001928E-02 0. -1.
</event>
<event>
 5   0  0.5861816E-05  0.2177835E+04  0.7818609E-02  0.8527711E-01
        1   -1    0    0  501    0  0.00000000000E+00  0.00000000000E+00  0.10299979107E+04  0.10299979107E+04  0.50400001928E-02 0.  1.
       -1   -1    0    0    0  501  0.00000000000E+00  0.00000000000E+00 -0.11512079265E+04  0.11512079265E+04  0.50400001928E-02 0. -1.
    10030    2    1    2    0    0  0.00000000000E+00  0.00000000000E+00 -0.12121001576E+03  0.21812058372E+04  0.21778354016E+04 0.  0.
        1    1    3    3  502    0  0.51448326496E+02 -0.44146732043E+03  0.93501665602E+03  0.10352760368E+04  0.50400001928E-02 0.  1.
       -1    1    3    3    0  502 -0.51448326496E+02  0.44146732043E+03 -0.10562266718E+04  0.11459298004E+04  0.50400001928E-02 0. -1.
</event>
<event>
 5   0  0.1311472E-04  0.2222644E+04  0.7818609E-02  0.8509062E-01
        2   -1    0    0  501    0  0.00000000000E+00  0.00000000000E+00  0.98398563491E+03  0.98398563491E+03  0.25500000920E-02 0.  1.
       -2   -1    0    0    0  501  0.00000000000E+00  0.00000000000E+00 -0.12551371459E+04  0.12551371459E+04  0.25500000920E-02 0. -1.
    10030    2    1    2    0    0  0.00000000000E+00  0.00000000000E+00 -0.27115151100E+03  0.22391227808E+04  0.22226443003E+04 0.  0.
        4    1    3    3  502    0 -0.54931843391E+03 -0.83834614972E+03  0.34804619437E+03  0.10609961239E+04  0.12699999809E+01 0.  1.
       -4    1    3    3    0  502  0.54931843391E+03  0.83834614972E+03 -0.61919770537E+03  0.11781266569E+04  0.12699999809E+01 0. -1.
</event>
<event>
 5   0  0.1241430E-04  0.2224680E+04  0.7818609E-02  0.8508226E-01
       -2   -1    0    0    0  501  0.00000000000E+00  0.00000000000E+00  0.11989750089E+04  0.11989750089E+04  0.25500000920E-02 0.  1.
        2   -1    0    0  501    0  0.00000000000E+00  0.00000000000E+00 -0.10319648031E+04  0.10319648031E+04  0.25500000920E-02 0. -1.
    10030    2    1    2    0    0  0.00000000000E+00  0.00000000000E+00  0.16701020582E+03  0.22309398121E+04  0.22246797604E+04 0.  0.
        1    1    3    3  502    0  0.66256515863E+03  0.75083668313E+03  0.56917326889E+03  0.11518274715E+04  0.50400001928E-02 0.  1.
       -1    1    3    3    0  502 -0.66256515863E+03 -0.75083668313E+03 -0.40216306307E+03  0.10791123405E+04  0.50400001928E-02 0. -1.
</event>
<event>
 5   0  0.1226021E-04  0.2184105E+04  0.7818609E-02  0.8525073E-01
        2   -1    0    0  501    0  0.00000000000E+00  0.00000000000E+00  0.80826308351E+03  0.80826308352E+03  0.25500000920E-02 0. -1.
       -2   -1    0    0    0  501  0.00000000000E+00  0.00000000000E+00 -0.14754828072E+04  0.14754828072E+04  0.25500000920E-02 0.  1.
    10030    2    1    2    0    0  0.00000000000E+00  0.00000000000E+00 -0.66721972366E+03  0.22837458907E+04  0.21841046526E+04 0.  0.
        2    1    3    3  502    0  0.72013063977E+03  0.29031314588E+03 -0.11365681776E+04  0.13764654312E+04  0.25500000920E-02 0.  1.
       -2    1    3    3    0  502 -0.72013063977E+03 -0.29031314588E+03  0.46934845390E+03  0.90728045950E+03  0.25500000920E-02 0. -1.
</event>
<event>
 5   0  0.1311472E-04  0.1497472E+04  0.7818609E-02  0.8886135E-01
       -2   -1    0    0    0  501  0.00000000000E+00  0.00000000000E+00  0.10273610757E+04  0.10273610757E+04  0.25500000920E-02 0. -1.
        2   -1    0    0  501    0  0.00000000000E+00  0.00000000000E+00 -0.54567563246E+03  0.54567563247E+03  0.25500000920E-02 0.  1.
    10030    2    1    2    0    0  0.00000000000E+00  0.00000000000E+00  0.48168544328E+03  0.15730367082E+04  0.14974724101E+04 0.  0.
        4    1    3    3  502    0 -0.55391247644E+03  0.86316566126E+02  0.76220887517E+03  0.94616783047E+03  0.12699999809E+01 0. -1.
       -4    1    3    3    0  502  0.55391247644E+03 -0.86316566126E+02 -0.28052343189E+03  0.62686887774E+03  0.12699999809E+01 0.  1.
</event>
<event>
 5   0  0.5861816E-05  0.2046901E+04  0.7818609E-02  0.8585002E-01
        1   -1    0    0  501    0  0.00000000000E+00  0.00000000000E+00  0.13603048227E+04  0.13603048227E+04  0.50400001928E-02 0. -1.
       -1   -1    0    0    0  501  0.00000000000E+00  0.00000000000E+00 -0.77001165406E+03  0.77001165407E+03  0.50400001928E-02 0.  1.
    10030    2    1    2    0    0  0.00000000000E+00  0.00000000000E+00  0.59029316860E+03  0.21303164767E+04  0.20469006488E+04 0.  0.
        1    1    3    3  502    0  0.86774990701E+03  0.38417047427E+03  0.69400558647E+03  0.11756787863E+04  0.50400001928E-02 0. -1.
       -1    1    3    3    0  502 -0.86774990701E+03 -0.38417047427E+03 -0.10371241787E+03  0.95463769047E+03  0.50400001928E-02 0.  1.
</event>
<event>
 5   0  0.6263558E-05  0.2202667E+04  0.7818609E-02  0.8517319E-01
       -1   -1    0    0    0  501  0.00000000000E+00  0.00000000000E+00  0.70092758552E+03  0.70092758554E+03  0.50400001928E-02 0.  1.
        1   -1    0    0  501    0  0.00000000000E+00  0.00000000000E+00 -0.17304725766E+04  0.17304725766E+04  0.50400001928E-02 0. -1.
    10030    2    1    2    0    0  0.00000000000E+00  0.00000000000E+00 -0.10295449911E+04  0.24314001622E+04  0.22026674420E+04 0.  0.
        3    1    3    3  502    0 -0.18329140601E+03 -0.54724663093E+03  0.52064292051E+03  0.77726679812E+03  0.10100000352E+00 0.  1.
       -3    1    3    3    0  502  0.18329140601E+03  0.54724663093E+03 -0.15501879116E+04  0.16541333641E+04  0.10100000352E+00 0. -1.
</event>
<event>
 5   0  0.1226021E-04  0.2141672E+04  0.7818609E-02  0.8543106E-01
        2   -1    0    0  501    0  0.00000000000E+00  0.00000000000E+00  0.11328529220E+04  0.11328529220E+04  0.25500000920E-02 0.  1.
       -2   -1    0    0    0  501  0.00000000000E+00  0.00000000000E+00 -0.10122138482E+04  0.10122138482E+04  0.25500000920E-02 0. -1.
    10030    2    1    2    0    0  0.00000000000E+00  0.00000000000E+00  0.12063907375E+03  0.21450667702E+04  0.21416716981E+04 0.  0.
        2    1    3    3  502    0 -0.82794315402E+03  0.62975864096E+03 -0.19425577762E+03  0.10582160079E+04  0.25500000920E-02 0. -1.
       -2    1    3    3    0  502  0.82794315402E+03 -0.62975864096E+03  0.31489485138E+03  0.10868507623E+04  0.25500000920E-02 0.  1.
</event>
<event>
 5   0  0.5849604E-05  0.2202417E+04  0.7818609E-02  0.8517423E-01
       -1   -1    0    0    0  501  0.00000000000E+00  0.00000000000E+00  0.70307635584E+03  0.70307635586E+03  0.50400001928E-02 0.  1.
        1   -1    0    0  501    0  0.00000000000E+00  0.00000000000E+00 -0.17247922288E+04  0.17247922288E+04  0.50400001928E-02 0. -1.
    10030    2    1    2    0    0  0.00000000000E+00  0.00000000000E+00 -0.10217158730E+04  0.24278685847E+04  0.22024174308E+04 0.  0.
        2    1    3    3  502    0  0.23129119290E+03  0.51495193924E+01 -0.16977007535E+04  0.17133913686E+04  0.25500000920E-02 0. -1.
       -2    1    3    3    0  502 -0.23129119290E+03 -0.51495193924E+01  0.67598488059E+03  0.71447721605E+03  0.25500000920E-02 0.  1.
</event>
<event>
 5   0  0.5981239E-05  0.2186641E+04  0.7818609E-02  0.8524009E-01
       -1   -1    0    0    0  501  0.00000000000E+00  0.00000000000E+00  0.77244169409E+03  0.77244169410E+03  0.50400001928E-02 0.  1.
        1   -1    0    0  501    0  0.00000000000E+00  0.00000000000E+00 -0.15474945360E+04  0.15474945360E+04  0.50400001928E-02 0. -1.
    10030    2    1    2    0    0  0.00000000000E+00  0.00000000000E+00 -0.77505284186E+03  0.23199362301E+04  0.21866406206E+04 0.  0.
        4    1    3    3  502    0  0.61038689283E+03 -0.19433725113E+02 -0.13496694137E+04  0.14814043904E+04  0.12699999809E+01 0. -1.
       -4    1    3    3    0  502 -0.61038689283E+03  0.19433725113E+02  0.57461657185E+03  0.83853183968E+03  0.12699999809E+01 0.  1.
</event>
<event>
 5   0  0.5981239E-05  0.1507848E+04  0.7818609E-02  0.8879251E-01
        1   -1    0    0  501    0  0.00000000000E+00  0.00000000000E+00  0.11926727928E+04  0.11926727928E+04  0.50400001928E-02 0. -1.
       -1   -1    0    0    0  501  0.00000000000E+00  0.00000000000E+00 -0.47657792052E+03  0.47657792055E+03  0.50400001928E-02 0.  1.
    10030    2    1    2    0    0  0.00000000000E+00  0.00000000000E+00  0.71609487227E+03  0.16692507133E+04  0.15078481614E+04 0.  0.
        4    1    3    3  502    0 -0.37371879665E+03 -0.63025021181E+03  0.16150829240E+03  0.75031167515E+03  0.12699999809E+01 0. -1.
       -4    1    3    3    0  502  0.37371879665E+03  0.63025021181E+03  0.55458657987E+03  0.91893903820E+03  0.12699999809E+01 0.  1.
</event>
<event>
 5   0  0.1226021E-04  0.2236984E+04  0.7818609E-02  0.8503190E-01
        2   -1    0    0  501    0  0.00000000000E+00  0.00000000000E+00  0.15370043322E+04  0.15370043322E+04  0.25500000920E-02 0.  1.
       -2   -1    0    0    0  501  0.00000000000E+00  0.00000000000E+00 -0.81393686025E+03  0.81393686026E+03  0.25500000920E-02 0. -1.
    10030    2    1    2    0    0  0.00000000000E+00  0.00000000000E+00  0.72306747191E+03  0.23509411924E+04  0.22369841129E+04 0.  0.
        2    1    3    3  502    0 -0.78532319319E+03 -0.28806572652E+03  0.11418611062E+04  0.14154720648E+04  0.25500000920E-02 0.  1.
       -2    1    3    3    0  502  0.78532319319E+03  0.28806572652E+03 -0.41879363425E+03  0.93546912758E+03  0.25500000920E-02 0. -1.
</event>
<event>
 5   0  0.5861816E-05  0.2214885E+04  0.7818609E-02  0.8512258E-01
       -1   -1    0    0    0  501  0.00000000000E+00  0.00000000000E+00  0.15261330742E+04  0.15261330742E+04  0.50400001928E-02 0.  1.
        1   -1    0    0  501    0  0.00000000000E+00  0.00000000000E+00 -0.80361831763E+03  0.80361831765E+03  0.50400001928E-02 0. -1.
    10030    2    1    2    0    0  0.00000000000E+00  0.00000000000E+00  0.72251475657E+03  0.23297513919E+04  0.22148846413E+04 0.  0.
        1    1    3    3  502    0 -0.30364709479E+03  0.99467276483E+03 -0.39076417869E+02  0.10407220732E+04  0.50400001928E-02 0. -1.
       -1    1    3    3    0  502  0.30364709479E+03 -0.99467276483E+03  0.76159117444E+03  0.12890293186E+04  0.50400001928E-02 0.  1.
</event>
<event>
 5   0  0.1226021E-04  0.2959821E+04  0.7818609E-02  0.8255298E-01
       -2   -1    0    0    0  501  0.00000000000E+00  0.00000000000E+00  0.13213163397E+04  0.13213163397E+04  0.25500000920E-02 0. -1.
        2   -1    0    0  501    0  0.00000000000E+00  0.00000000000E+00 -0.16575397850E+04  0.16575397850E+04  0.25500000920E-02 0.  1.
    10030    2    1    2    0    0  0.00000000000E+00  0.00000000000E+00 -0.33622344531E+03  0.29788561247E+04  0.29598205362E+04 0.  0.
        2    1    3    3  502    0  0.68906117682E+03 -0.11982358814E+04 -0.70024640160E+03  0.15494900954E+04  0.25500000920E-02 0.  1.
       -2    1    3    3    0  502 -0.68906117682E+03  0.11982358814E+04  0.36402295629E+03  0.14293660293E+04  0.25500000920E-02 0. -1.
</event>
<event>
 5   0  0.1226021E-04  0.2205785E+04  0.7818609E-02  0.8516024E-01
       -2   -1    0    0    0  501  0.00000000000E+00  0.00000000000E+00  0.10526979127E+04  0.10526979127E+04  0.25500000920E-02 0.  1.
        2   -1    0    0  501    0  0.00000000000E+00  0.00000000000E+00 -0.11554808777E+04  0.11554808777E+04  0.25500000920E-02 0. -1.
    10030    2    1    2    0    0  0.00000000000E+00  0.00000000000E+00 -0.10278296502E+03  0.22081787904E+04  0.22057854004E+04 0.  0.
        2    1    3    3  502    0  0.32976272678E+03 -0.27368256312E+03 -0.10687257665E+04  0.11514427321E+04  0.25500000920E-02 0. -1.
       -2    1    3    3    0  502 -0.32976272678E+03  0.27368256312E+03  0.96594280146E+03  0.10567360584E+04  0.25500000920E-02 0.  1.
</event>
<event>
 5   0  0.1226021E-04  0.2180613E+04  0.7818609E-02  0.8526541E-01
        2   -1    0    0  501    0  0.00000000000E+00  0.00000000000E+00  0.22924657198E+04  0.22924657198E+04  0.25500000920E-02 0. -1.
       -2   -1    0    0    0  501  0.00000000000E+00  0.00000000000E+00 -0.51855435264E+03  0.51855435265E+03  0.25500000920E-02 0.  1.
    10030    2    1    2    0    0  0.00000000000E+00  0.00000000000E+00  0.17739113672E+04  0.28110200725E+04  0.21806128288E+04 0.  0.
        2    1    3    3  502    0  0.68707542783E+03 -0.50106687774E+03  0.73163181268E+01  0.85040824785E+03  0.25500000920E-02 0.  1.
       -2    1    3    3    0  502 -0.68707542783E+03  0.50106687774E+03  0.17665950490E+04  0.19606118246E+04  0.25500000920E-02 0. -1.
</event>
<event>
 5   0  0.1241430E-04  0.2188033E+04  0.7818609E-02  0.8523426E-01
        2   -1    0    0  501    0  0.00000000000E+00  0.00000000000E+00  0.65385351271E+03  0.65385351271E+03  0.25500000920E-02 0. -1.
       -2   -1    0    0    0  501  0.00000000000E+00  0.00000000000E+00 -0.18304899075E+04  0.18304899075E+04  0.25500000920E-02 0.  1.
    10030    2    1    2    0    0  0.00000000000E+00  0.00000000000E+00 -0.11766363948E+04  0.24843434202E+04  0.21880331405E+04 0.  0.
        1    1    3    3  502    0 -0.65344930041E+03 -0.75252101359E+03 -0.76006537611E+02  0.99953031864E+03  0.50400001928E-02 0. -1.
       -1    1    3    3    0  502  0.65344930041E+03  0.75252101359E+03 -0.11006298572E+04  0.14848131016E+04  0.50400001928E-02 0.  1.
</event>
<event>
 5   0  0.5849604E-05  0.2124653E+04  0.7818609E-02  0.8550461E-01
       -1   -1    0    0    0  501  0.00000000000E+00  0.00000000000E+00  0.10942673217E+04  0.10942673217E+04  0.50400001928E-02 0. -1.
        1   -1    0    0  501    0  0.00000000000E+00  0.00000000000E+00 -0.10313176077E+04  0.10313176077E+04  0.50400001928E-02 0.  1.
    10030    2    1    2    0    0  0.00000000000E+00  0.00000000000E+00  0.62949713995E+02  0.21255849294E+04  0.21246525894E+04 0.  0.
        2    1    3    3  502    0  0.92955195166E+03 -0.48839743644E+03 -0.12964944017E+03  0.10580207295E+04  0.25500000920E-02 0. -1.
       -2    1    3    3    0  502 -0.92955195166E+03  0.48839743644E+03  0.19259915417E+03  0.10675641999E+04  0.25500000920E-02 0.  1.
</event>
<event>
 5   0  0.1311472E-04  0.2208950E+04  0.7818609E-02  0.8514712E-01
       -2   -1    0    0    0  501  0.00000000000E+00  0.00000000000E+00  0.54770389130E+03  0.54770389130E+03  0.25500000920E-02 0. -1.
        2   -1    0    0  501    0  0.00000000000E+00  0.00000000000E+00 -0.22272336324E+04  0.22272336324E+04  0.25500000920E-02 0.  1.
    10030    2    1    2    0    0  0.00000000000E+00  0.00000000000E+00 -0.16795297411E+04  0.27749375237E+04  0.22089495488E+04 0.  0.
        4    1    3    3  502    0 -0.10230739854E+04  0.49192468734E+02 -0.13588801806E+04  0.17016630797E+04  0.12699999809E+01 0.  1.
       -4    1    3    3    0  502  0.10230739854E+04 -0.49192468734E+02 -0.32064956050E+03  0.10732744440E+04  0.12699999809E+01 0. -1.
</event>
<event>
 5   0  0.1404159E-04  0.2212550E+04  0.7818609E-02  0.8513222E-01
        2   -1    0    0  501    0  0.00000000000E+00  0.00000000000E+00  0.12040507192E+04  0.12040507192E+04  0.25500000920E-02 0.  1.
       -2   -1    0    0    0  501  0.00000000000E+00  0.00000000000E+00 -0.10164395150E+04  0.10164395150E+04  0.25500000920E-02 0. -1.
    10030    2    1    2    0    0  0.00000000000E+00  0.00000000000E+00  0.18761120427E+03  0.22204902342E+04  0.22125503195E+04 0.  0.
        5    1    3    3  502    0  0.39238827124E+03  0.41743567175E+03 -0.85595276365E+03  0.10299991840E+04  0.46999998093E+01 0. -1.
       -5    1    3    3    0  502 -0.39238827124E+03 -0.41743567175E+03  0.10435639679E+04  0.11904910502E+04  0.46999998093E+01 0.  1.
</event>
<event>
 5   0  0.6263558E-05  0.2171686E+04  0.7818609E-02  0.8530306E-01
        1   -1    0    0  501    0  0.00000000000E+00  0.00000000000E+00  0.14586543592E+04  0.14586543592E+04  0.50400001928E-02 0.  1.
       -1   -1    0    0    0  501  0.00000000000E+00  0.00000000000E+00 -0.80831690780E+03  0.80831690781E+03  0.50400001928E-02 0. -1.
    10030    2    1    2    0    0  0.00000000000E+00  0.00000000000E+00  0.65033745138E+03  0.22669712670E+04  0.21716859636E+04 0.  0.
        3    1    3    3  502    0  0.38258546578E+02  0.59074760911E+03 -0.62505022548E+03  0.86089154289E+03  0.10100000352E+00 0. -1.
       -3    1    3    3    0  502 -0.38258546578E+02 -0.59074760911E+03  0.12753876769E+04  0.14060797241E+04  0.10100000352E+00 0.  1.
</event>
<event>
 5   0  0.1404159E-04  0.2191187E+04  0.7818609E-02  0.8522105E-01
       -2   -1    0    0    0  501  0.00000000000E+00  0.00000000000E+00  0.80303108739E+03  0.80303108739E+03  0.25500000920E-02 0. -1.
        2   -1    0    0  501    0  0.00000000000E+00  0.00000000000E+00 -0.14947427373E+04  0.14947427373E+04  0.25500000920E-02 0.  1.
    10030    2    1    2    0    0  0.00000000000E+00  0.00000000000E+00 -0.69171164986E+03  0.22977738246E+04  0.21911867886E+04 0.  0.
        5    1    3    3  502    0  0.33803214639E+03 -0.97172723781E+03 -0.74071326333E+03  0.12677530458E+04  0.46999998093E+01 0. -1.
       -5    1    3    3    0  502 -0.33803214639E+03  0.97172723781E+03  0.49001613471E+02  0.10300207788E+04  0.46999998093E+01 0.  1.
</event>
<event>
 5   0  0.5895063E-05  0.2324673E+04  0.7818609E-02  0.8468256E-01
       -1   -1    0    0    0  501  0.00000000000E+00  0.00000000000E+00  0.11455284036E+04  0.11455284036E+04  0.50400001928E-02 0. -1.
        1   -1    0    0  501    0  0.00000000000E+00  0.00000000000E+00 -0.11793916318E+04  0.11793916318E+04  0.50400001928E-02 0.  1.
    10030    2    1    2    0    0  0.00000000000E+00  0.00000000000E+00 -0.33863228161E+02  0.23249200354E+04  0.23246734078E+04 0.  0.
        5    1    3    3  502    0  0.56426647686E+03 -0.27482589867E+03  0.96147611175E+03  0.11482091861E+04  0.46999998093E+01 0. -1.
       -5    1    3    3    0  502 -0.56426647686E+03  0.27482589867E+03 -0.99533933991E+03  0.11767108494E+04  0.46999998093E+01 0.  1.
</event>
<event>
 5   0  0.1252124E-04  0.2195944E+04  0.7818609E-02  0.8520118E-01
       -2   -1    0    0    0  501  0.00000000000E+00  0.00000000000E+00  0.16782931747E+04  0.16782931747E+04  0.25500000920E-02 0.  1.
        2   -1    0    0  501    0  0.00000000000E+00  0.00000000000E+00 -0.71831450353E+03  0.71831450353E+03  0.25500000920E-02 0. -1.
    10030    2    1    2    0    0  0.00000000000E+00  0.00000000000E+00  0.95997867113E+03  0.23966076782E+04  0.21959438322E+04 0.  0.
        3    1    3    3  502    0  0.44909594138E+03  0.66281810996E+03  0.12999975366E+04  0.15267641000E+04  0.10100000352E+00 0.  1.
       -3    1    3    3    0  502 -0.44909594138E+03 -0.66281810996E+03 -0.34001886552E+03  0.86984357822E+03  0.10100000352E+00 0. -1.
</event>
<event>
 5   0  0.1226021E-04  0.2162325E+04  0.7818609E-02  0.8534275E-01
        2   -1    0    0  501    0  0.00000000000E+00  0.00000000000E+00  0.15091537211E+04  0.15091537211E+04  0.25500000920E-02 0. -1.
       -2   -1    0    0    0  501  0.00000000000E+00  0.00000000000E+00 -0.77454788370E+03  0.77454788370E+03  0.25500000920E-02 0.  1.
    10030    2    1    2    0    0  0.00000000000E+00  0.00000000000E+00  0.73460583744E+03  0.22837016048E+04  0.21623245093E+04 0.  0.
        2    1    3    3  502    0 -0.60729849681E+03  0.37500555392E+03  0.12249653766E+04  0.14177379178E+04  0.25500000920E-02 0. -1.
       -2    1    3    3    0  502  0.60729849681E+03 -0.37500555392E+03 -0.49035953913E+03  0.86596368706E+03  0.25500000920E-02 0.  1.
</event>
<event>
 5   0  0.5861816E-05  0.2218276E+04  0.7818609E-02  0.8510860E-01
       -1   -1    0    0    0  501  0.00000000000E+00  0.00000000000E+00  0.10947768898E+04  0.10947768898E+04  0.50400001928E-02 0. -1.
        1   -1    0    0  501    0  0.00000000000E+00  0.00000000000E+00 -0.11236871690E+04  0.11236871690E+04  0.50400001928E-02 0.  1.
    10030    2    1    2    0    0  0.00000000000E+00  0.00000000000E+00 -0.28910279230E+02  0.22184640588E+04  0.22182756763E+04 0.  0.
        1    1    3    3  502    0 -0.11616929787E+03 -0.11027009977E+04  0.12785894156E+02  0.11088770334E+04  0.50400001928E-02 0.  1.
       -1    1    3    3    0  502  0.11616929787E+03  0.11027009977E+04 -0.41696173386E+02  0.11095870254E+04  0.50400001928E-02 0. -1.
</event>
<event>
 5   0  0.5861816E-05  0.1943675E+04  0.7818609E-02  0.8633417E-01
       -1   -1    0    0    0  501  0.00000000000E+00  0.00000000000E+00  0.42526895695E+03  0.42526895698E+03  0.50400001928E-02 0.  1.
        1   -1    0    0  501    0  0.00000000000E+00  0.00000000000E+00 -0.22208714199E+04  0.22208714199E+04  0.50400001928E-02 0. -1.
    10030    2    1    2    0    0  0.00000000000E+00  0.00000000000E+00 -0.17956024630E+04  0.26461403769E+04  0.19436745327E+04 0.  0.
        1    1    3    3  502    0 -0.45984581123E+03  0.11938282903E+03  0.25639712673E+03  0.53986101600E+03  0.50400001928E-02 0.  1.
       -1    1    3    3    0  502  0.45984581123E+03 -0.11938282903E+03 -0.20519995897E+04  0.21062793609E+04  0.50400001928E-02 0. -1.
</event>
<event>
 5   0  0.1311472E-04  0.1389582E+04  0.7818609E-02  0.8961394E-01
        2   -1    0    0  501    0  0.00000000000E+00  0.00000000000E+00  0.32830961168E+03  0.32830961169E+03  0.25500000920E-02 0. -1.
       -2   -1    0    0    0  501  0.00000000000E+00  0.00000000000E+00 -0.14703640447E+04  0.14703640447E+04  0.25500000920E-02 0.  1.
    10030    2    1    2    0    0  0.00000000000E+00  0.00000000000E+00 -0.11420544330E+04  0.17986736564E+04  0.13895821653E+04 0.  0.
        4    1    3    3  502    0  0.28619813872E+03  0.35210608204E+03 -0.12520889187E+04  0.13317718802E+04  0.12699999809E+01 0.  1.
       -4    1    3    3    0  502 -0.28619813872E+03 -0.35210608204E+03  0.11003448574E+03  0.46690177614E+03  0.12699999809E+01 0. -1.
</event>
<event>
 5   0  0.1311472E-04  0.2170716E+04  0.7818609E-02  0.8530716E-01
       -2   -1    0    0    0  501  0.00000000000E+00  0.00000000000E+00  0.63433880657E+03  0.63433880658E+03  0.25500000920E-02 0.  1.
        2   -1    0    0  501    0  0.00000000000E+00  0.00000000000E+00 -0.18570553103E+04  0.18570553103E+04  0.25500000920E-02 0. -1.
    10030    2    1    2    0    0  0.00000000000E+00  0.00000000000E+00 -0.12227165037E+04  0.24913941169E+04  0.21707162406E+04 0.  0.
        4    1    3    3  502    0 -0.95790755060E+03  0.50913762034E+03 -0.65099471291E+03  0.12651496833E+04  0.12699999809E+01 0. -1.
       -4    1    3    3    0  502  0.95790755060E+03 -0.50913762034E+03 -0.57172179081E+03  0.12262444336E+04  0.12699999809E+01 0.  1.
</event>
<event>
 5   0  0.1241430E-04  0.1780391E+04  0.7818609E-02  0.8716797E-01
        2   -1    0    0  501    0  0.00000000000E+00  0.00000000000E+00  0.83499498133E+03  0.83499498133E+03  0.25500000920E-02 0.  1.
       -2   -1    0    0    0  501  0.00000000000E+00  0.00000000000E+00 -0.94904537971E+03  0.94904537971E+03  0.25500000920E-02 0. -1.
    10030    2    1    2    0    0  0.00000000000E+00  0.00000000000E+00 -0.11405039838E+03  0.17840403610E+04  0.17803911133E+04 0.  0.
        1    1    3    3  502    0 -0.47471943349E+03  0.18912971151E+03  0.67338554305E+03  0.84532637361E+03  0.50400001928E-02 0.  1.
       -1    1    3    3    0  502  0.47471943349E+03 -0.18912971151E+03 -0.78743594144E+03  0.93871398743E+03  0.50400001928E-02 0. -1.
</event>
<event>
 5   0  0.1404159E-04  0.2227150E+04  0.7818609E-02  0.8507212E-01
        2   -1    0    0  501    0  0.00000000000E+00  0.00000000000E+00  0.12848220902E+04  0.12848220902E+04  0.25500000920E-02 0. -1.
       -2   -1    0    0    0  501  0.00000000000E+00  0.00000000000E+00 -0.96515252334E+03  0.96515252334E+03  0.25500000920E-02 0.  1.
    10030    2    1    2    0    0  0.00000000000E+00  0.00000000000E+00  0.31966956690E+03  0.22499746136E+04  0.22271500016E+04 0.  0.
        5    1    3    3  502    0  0.71502739287E+03  0.36616462711E+03 -0.61922750864E+03  0.10143004999E+04  0.46999998093E+01 0.  1.
       -5    1    3    3    0  502 -0.71502739287E+03 -0.36616462711E+03  0.93889707554E+03  0.12356741137E+04  0.46999998093E+01 0. -1.
</event>
<event>
 5   0  0.6263558E-05  0.2260414E+04  0.7818609E-02  0.8493695E-01
       -1   -1    0    0    0  501  0.00000000000E+00  0.00000000000E+00  0.14053756228E+04  0.14053756228E+04  0.50400001928E-02 0.  1.
        1   -1    0    0  501    0  0.00000000000E+00  0.00000000000E+00 -0.90891574042E+03  0.90891574043E+03  0.50400001928E-02 0. -1.
    10030    2    1    2    0    0  0.00000000000E+00  0.00000000000E+00  0.49645988240E+03  0.23142913633E+04  0.22604141433E+04 0.  0.
        3    1    3    3  502    0  0.77654650460E+03  0.40439202330E+03 -0.48351542811E+03  0.10001722660E+04  0.10100000352E+00 0. -1.
       -3    1    3    3    0  502 -0.77654650460E+03 -0.40439202330E+03  0.97997531051E+03  0.13141190972E+04  0.10100000352E+00 0.  1.
</event>
<event>
 5   0  0.5861816E-05  0.1968631E+04  0.7818609E-02  0.8621429E-01
       -1   -1    0    0    0  501  0.00000000000E+00  0.00000000000E+00  0.67010766663E+03  0.67010766665E+03  0.50400001928E-02 0.  1.
        1   -1    0    0  501    0  0.00000000000E+00  0.00000000000E+00 -0.14458531261E+04  0.14458531261E+04  0.50400001928E-02 0. -1.
    10030    2    1    2    0    0  0.00000000000E+00  0.00000000000E+00 -0.77574545946E+03  0.21159607928E+04  0.19686312653E+04 0.  0.
        1    1    3    3  502    0  0.55573295826E+03  0.79304094648E+03 -0.57749631049E+03  0.11274994689E+04  0.50400001928E-02 0. -1.
       -1    1    3    3    0  502 -0.55573295826E+03 -0.79304094648E+03 -0.19824914897E+03  0.98846132387E+03  0.50400001928E-02 0.  1.
</event>
<event>
 5   0  0.1226021E-04  0.1873126E+04  0.7818609E-02  0.8668350E-01
        2   -1    0    0  501    0  0.00000000000E+00  0.00000000000E+00  0.36253929737E+03  0.36253929738E+03  0.25500000920E-02 0. -1.
       -2   -1    0    0    0  501  0.00000000000E+00  0.00000000000E+00 -0.24194615971E+04  0.24194615971E+04  0.25500000920E-02 0.  1.
    10030    2    1    2    0    0  0.00000000000E+00  0.00000000000E+00 -0.20569222997E+04  0.27820008944E+04  0.18731256311E+04 0.  0.
        2    1    3    3  502    0 -0.62683078187E+03 -0.64088540872E+03 -0.62580810389E+03  0.10932916899E+04  0.25500000920E-02 0.  1.
       -2    1    3    3    0  502  0.62683078187E+03  0.64088540872E+03 -0.14311141958E+04  0.16887092046E+04  0.25500000920E-02 0. -1.
</event>
<event>
 5   0  0.5895063E-05  0.2050947E+04  0.7818609E-02  0.8583165E-01
        1   -1    0    0  501    0  0.00000000000E+00  0.00000000000E+00  0.67552448624E+03  0.67552448626E+03  0.50400001928E-02 0. -1.
       -1   -1    0    0    0  501  0.00000000000E+00  0.00000000000E+00 -0.15567097038E+04  0.15567097038E+04  0.50400001928E-02 0.  1.
    10030    2    1    2    0    0  0.00000000000E+00  0.00000000000E+00 -0.88118521759E+03  0.22322341901E+04  0.20509466331E+04 0.  0.
        5    1    3    3  502    0  0.71374426655E+03 -0.55691834916E+03  0.83628961381E+02  0.90917810073E+03  0.46999998093E+01 0.  1.
       -5    1    3    3    0  502 -0.71374426655E+03  0.55691834916E+03 -0.96481417898E+03  0.13230560894E+04  0.46999998093E+01 0. -1.
</event>
<event>
 5   0  0.5861816E-05  0.2162523E+04  0.7818609E-02  0.8534191E-01
       -1   -1    0    0    0  501  0.00000000000E+00  0.00000000000E+00  0.59459629184E+03  0.59459629187E+03  0.50400001928E-02 0. -1.
        1   -1    0    0  501    0  0.00000000000E+00  0.00000000000E+00 -0.19662518601E+04  0.19662518601E+04  0.50400001928E-02 0.  1.
    10030    2    1    2    0    0  0.00000000000E+00  0.00000000000E+00 -0.13716555682E+04  0.25608481519E+04  0.21625226610E+04 0.  0.
        1    1    3    3  502    0  0.84827780724E+03  0.50069053765E+02 -0.14775963482E+04  0.17045155079E+04  0.50400001928E-02 0.  1.
       -1    1    3    3    0  502 -0.84827780724E+03 -0.50069053765E+02  0.10594077996E+03  0.85633264406E+03  0.50400001928E-02 0. -1.
</event>
<event>
 5   0  0.5849604E-05  0.2200650E+04  0.7818609E-02  0.8518158E-01
        1   -1    0    0  501    0  0.00000000000E+00  0.00000000000E+00  0.28865752793E+04  0.28865752793E+04  0.50400001928E-02 0.  1.
       -1   -1    0    0    0  501  0.00000000000E+00  0.00000000000E+00 -0.41942947177E+03  0.41942947180E+03  0.50400001928E-02 0. -1.
    10030    2    1    2    0    0  0.00000000000E+00  0.00000000000E+00  0.24671458075E+04  0.33060047511E+04  0.22006496720E+04 0.  0.
        2    1    3    3  502    0 -0.71417593001E+03  0.77729536916E+03  0.76694592228E+03  0.13047763784E+04  0.25500000920E-02 0. -1.
       -2    1    3    3    0  502  0.71417593001E+03 -0.77729536916E+03  0.17001998852E+04  0.20012283727E+04  0.25500000920E-02 0.  1.
</event>
<event>
 5   0  0.1226021E-04  0.2235373E+04  0.7818609E-02  0.8503848E-01
        2   -1    0    0  501    0  0.00000000000E+00  0.00000000000E+00  0.66896588384E+03  0.66896588384E+03  0.25500000920E-02 0.  1.
       -2   -1    0    0    0  501  0.00000000000E+00  0.00000000000E+00 -0.18673939652E+04  0.18673939652E+04  0.25500000920E-02 0. -1.
    10030    2    1    2    0    0  0.00000000000E+00  0.00000000000E+00 -0.11984280813E+04  0.25363598490E+04  0.22353727693E+04 0.  0.
        2    1    3    3  502    0 -0.29018029402E+03  0.50271047717E+03 -0.16829658926E+04  0.17802518425E+04  0.25500000920E-02 0. -1.
       -2    1    3    3    0  502  0.29018029402E+03 -0.50271047717E+03  0.48453781132E+03  0.75610800651E+03  0.25500000920E-02 0.  1.
</event>
<event>
 5   0  0.1252124E-04  0.2921631E+04  0.7818609E-02  0.8266471E-01
        2   -1    0    0  501    0  0.00000000000E+00  0.00000000000E+00  0.13457081579E+04  0.13457081579E+04  0.25500000920E-02 0.  1.
       -2   -1    0    0    0  501  0.00000000000E+00  0.00000000000E+00 -0.15857683883E+04  0.15857683883E+04  0.25500000920E-02 0. -1.
    10030    2    1    2    0    0  0.00000000000E+00  0.00000000000E+00 -0.24006023046E+03  0.29314765462E+04  0.29216306794E+04 0.  0.
        3    1    3    3  502    0  0.63086090470E+03 -0.49514661303E+03  0.11050783962E+04  0.13654134617E+04  0.10100000352E+00 0.  1.
       -3    1    3    3    0  502 -0.63086090470E+03  0.49514661303E+03 -0.13451386267E+04  0.15660630845E+04  0.10100000352E+00 0. -1.
</event>
<event>
 5   0  0.5895063E-05  0.2166810E+04  0.7818609E-02  0.8532371E-01
        1   -1    0    0  501    0  0.00000000000E+00  0.00000000000E+00  0.21893319995E+04  0.21893319995E+04  0.50400001928E-02 0.  1.
       -1   -1    0    0    0  501  0.00000000000E+00  0.00000000000E+00 -0.53612989420E+03  0.53612989423E+03  0.50400001928E-02 0. -1.
    10030    2    1    2    0    0  0.00000000000E+00  0.00000000000E+00  0.16532021053E+04  0.27254618937E+04  0.21668099439E+04 0.  0.
        5    1    3    3  502    0 -0.25576826130E+03 -0.10523171351E+04  0.78772056853E+03  0.13391469451E+04  0.46999998093E+01 0.  1.
       -5    1    3    3    0  502  0.25576826130E+03  0.10523171351E+04  0.86548153674E+03  0.13863149486E+04  0.46999998093E+01 0. -1.
</event>
<event>
 5   0  0.5861816E-05  0.2174071E+04  0.7818609E-02  0.8529298E-01
       -1   -1    0    0    0  501  0.00000000000E+00  0.00000000000E+00  0.83874781597E+03  0.83874781599E+03  0.50400001928E-02 0. -1.
        1   -1    0    0  501    0  0.00000000000E+00  0.00000000000E+00 -0.14088217631E+04  0.14088217631E+04  0.50400001928E-02 0.  1.
    10030    2    1    2    0    0  0.00000000000E+00  0.00000000000E+00 -0.57007394711E+03  0.22475695791E+04  0.21740709987E+04 0.  0.
        1    1    3    3  502    0 -0.19442792237E+03  0.27844458672E+03  0.78249695646E+03  0.85301529398E+03  0.50400001928E-02 0. -1.
       -1    1    3    3    0  502  0.19442792237E+03 -0.27844458672E+03 -0.13525709036E+04  0.13945542851E+04  0.50400001928E-02 0.  1.
</event>
<event>
 5   0  0.6263558E-05  0.2176350E+04  0.7818609E-02  0.8528337E-01
        1   -1    0    0  501    0  0.00000000000E+00  0.00000000000E+00  0.15349374747E+04  0.15349374747E+04  0.50400001928E-02 0. -1.
       -1   -1    0    0    0  501  0.00000000000E+00  0.00000000000E+00 -0.77144837654E+03  0.77144837656E+03  0.50400001928E-02 0.  1.
    10030    2    1    2    0    0  0.00000000000E+00  0.00000000000E+00  0.76348909812E+03  0.23063858512E+04  0.21763501767E+04 0.  0.
        3    1    3    3  502    0 -0.86865346250E+03 -0.48845205293E+03 -0.81380217601E+02  0.99988349119E+03  0.10100000352E+00 0.  1.
       -3    1    3    3    0  502  0.86865346250E+03  0.48845205293E+03  0.84486931572E+03  0.13065023600E+04  0.10100000352E+00 0. -1.
</event>
<event>
 5   0  0.1404159E-04  0.1735630E+04  0.7818609E-02  0.8741300E-01
       -2   -1    0    0    0  501  0.00000000000E+00  0.00000000000E+00  0.45681532480E+03  0.45681532480E+03  0.25500000920E-02 0.  1.
        2   -1    0    0  501    0  0.00000000000E+00  0.00000000000E+00 -0.16485942627E+04  0.16485942627E+04  0.25500000920E-02 0. -1.
    10030    2    1    2    0    0  0.00000000000E+00  0.00000000000E+00 -0.11917789379E+04  0.21054095875E+04  0.17356302874E+04 0.  0.
        5    1    3    3  502    0  0.87555512014E+02  0.29453040968E+03 -0.15803817085E+04  0.16099821628E+04  0.46999998093E+01 0. -1.
       -5    1    3    3    0  502 -0.87555512014E+02 -0.29453040968E+03  0.38860277056E+03  0.49542742476E+03  0.46999998093E+01 0.  1.
</event>
<event>
 5   0  0.4586375E-05  0.2197743E+04  0.7818609E-02  0.8519368E-01
       -3   -1    0    0    0  501  0.00000000000E+00  0.00000000000E+00  0.11584868869E+04  0.11584868913E+04  0.10100000352E+00 0.  1.
        3   -1    0    0  501    0  0.00000000000E+00  0.00000000000E+00 -0.10423241525E+04  0.10423241574E+04  0.10100000352E+00 0. -1.
    10030    2    1    2    0    0  0.00000000000E+00  0.00000000000E+00  0.11616273434E+03  0.22008110487E+04  0.21977432723E+04 0.  0.
        4    1    3    3  502    0  0.94644204430E+03 -0.56799373376E+02 -0.49815645241E+03  0.10710462997E+04  0.12699999809E+01 0.  1.
       -4    1    3    3    0  502 -0.94644204430E+03  0.56799373376E+02  0.61431918675E+03  0.11297647490E+04  0.12699999809E+01 0. -1.
</event>
<event>
 5   0  0.1226021E-04  0.2230719E+04  0.7818609E-02  0.8505750E-01
        2   -1    0    0  501    0  0.00000000000E+00  0.00000000000E+00  0.10935798243E+04  0.10935798243E+04  0.25500000920E-02 0. -1.
       -2   -1    0    0    0  501  0.00000000000E+00  0.00000000000E+00 -0.11375724647E+04  0.11375724647E+04  0.25500000920E-02 0.  1.
    10030    2    1    2    0    0  0.00000000000E+00  0.00000000000E+00 -0.43992640418E+02  0.22311522890E+04  0.22307185354E+04 0.  0.
        2    1    3    3  502    0  0.86691875685E+03 -0.69370774200E+03 -0.12807227562E+03  0.11176676922E+04  0.25500000920E-02 0. -1.
       -2    1    3    3    0  502 -0.86691875685E+03  0.69370774200E+03  0.84079635203E+02  0.11134845968E+04  0.25500000920E-02 0.  1.
</event>
<event>
 5   0  0.1226021E-04  0.2227054E+04  0.7818609E-02  0.8507251E-01
        2   -1    0    0  501    0  0.00000000000E+00  0.00000000000E+00  0.88112017760E+03  0.88112017760E+03  0.25500000920E-02 0.  1.
       -2   -1    0    0    0  501  0.00000000000E+00  0.00000000000E+00 -0.14072343297E+04  0.14072343297E+04  0.25500000920E-02 0. -1.
    10030    2    1    2    0    0  0.00000000000E+00  0.00000000000E+00 -0.52611415207E+03  0.22883545073E+04  0.22270541641E+04 0.  0.
        2    1    3    3  502    0  0.67015171935E+03  0.50889139946E+03 -0.10124244393E+04  0.13164638350E+04  0.25500000920E-02 0. -1.
       -2    1    3    3    0  502 -0.67015171935E+03 -0.50889139946E+03  0.48631028727E+03  0.97189067230E+03  0.25500000920E-02 0.  1.
</event>
<event>
 5   0  0.1404159E-04  0.2006892E+04  0.7818609E-02  0.8603405E-01
       -2   -1    0    0    0  501  0.00000000000E+00  0.00000000000E+00  0.10114382495E+04  0.10114382495E+04  0.25500000920E-02 0.  1.
        2   -1    0    0  501    0  0.00000000000E+00  0.00000000000E+00 -0.99551707781E+03  0.99551707781E+03  0.25500000920E-02 0. -1.
    10030    2    1    2    0    0  0.00000000000E+00  0.00000000000E+00  0.15921171687E+02  0.20069553273E+04  0.20068921750E+04 0.  0.
        5    1    3    3  502    0 -0.77438262700E+02 -0.96160655398E+03 -0.26808815437E+03  0.10012877697E+04  0.46999998093E+01 0. -1.
       -5    1    3    3    0  502  0.77438262700E+02  0.96160655398E+03  0.28400932605E+03  0.10056675576E+04  0.46999998093E+01 0.  1.
</event>
<event>
 5   0  0.1241430E-04  0.2156039E+04  0.7818609E-02  0.8536952E-01
        2   -1    0    0  501    0  0.00000000000E+00  0.00000000000E+00  0.77440835104E+03  0.77440835105E+03  0.25500000920E-02 0.  1.
       -2   -1    0    0    0  501  0.00000000000E+00  0.00000000000E+00 -0.15006636664E+04  0.15006636664E+04  0.25500000920E-02 0. -1.
    10030    2    1    2    0    0  0.00000000000E+00  0.00000000000E+00 -0.72625531538E+03  0.22750720175E+04  0.21560394017E+04 0.  0.
        1    1    3    3  502    0 -0.93016053697E+03 -0.45210567826E+03 -0.68410602402E+03  0.12399996859E+04  0.50400001928E-02 0. -1.
       -1    1    3    3    0  502  0.93016053697E+03  0.45210567826E+03 -0.42149291364E+02  0.10350723316E+04  0.50400001928E-02 0.  1.
</event>
<event>
 5   0  0.1226021E-04  0.2139774E+04  0.7818609E-02  0.8543922E-01
       -2   -1    0    0    0  501  0.00000000000E+00  0.00000000000E+00  0.63879844418E+03  0.63879844418E+03  0.25500000920E-02 0. -1.
        2   -1    0    0  501    0  0.00000000000E+00  0.00000000000E+00 -0.17918920237E+04  0.17918920237E+04  0.25500000920E-02 0.  1.
    10030    2    1    2    0    0  0.00000000000E+00  0.00000000000E+00 -0.11530935795E+04  0.24306904679E+04  0.21397736673E+04 0.  0.
        2    1    3    3  502    0  0.56418146450E+03 -0.76228472574E+03 -0.11391369072E+04  0.14822319729E+04  0.25500000920E-02 0.  1.
       -2    1    3    3    0  502 -0.56418146450E+03  0.76228472574E+03 -0.13956672258E+02  0.94845849498E+03  0.25500000920E-02 0. -1.
</event>
<event>
 5   0  0.1241430E-04  0.2135146E+04  0.7818609E-02  0.8545917E-01
       -2   -1    0    0    0  501  0.00000000000E+00  0.00000000000E+00  0.39571398468E+03  0.39571398469E+03  0.25500000920E-02 0. -1.
        2   -1    0    0  501    0  0.00000000000E+00  0.00000000000E+00 -0.28801419895E+04  0.28801419895E+04  0.25500000920E-02 0.  1.
    10030    2    1    2    0    0  0.00000000000E+00  0.00000000000E+00 -0.24844280048E+04  0.32758559742E+04  0.21351463305E+04 0.  0.
        1    1    3    3  502    0  0.39353272325E+02 -0.72496323116E+02  0.39081722466E+03  0.39942771564E+03  0.50400001928E-02 0. -1.
       -1    1    3    3    0  502 -0.39353272325E+02  0.72496323116E+02 -0.28752452295E+04  0.28764282586E+04  0.50400001928E-02 0.  1.
</event>
<event>
 5   0  0.5981239E-05  0.2227041E+04  0.7818609E-02  0.8507256E-01
       -1   -1    0    0    0  501  0.00000000000E+00  0.00000000000E+00  0.96795923225E+03  0.96795923227E+03  0.50400001928E-02 0.  1.
        1   -1    0    0  501    0  0.00000000000E+00  0.00000000000E+00 -0.12809715857E+04  0.12809715857E+04  0.50400001928E-02 0. -1.
    10030    2    1    2    0    0  0.00000000000E+00  0.00000000000E+00 -0.31301235345E+03  0.22489308180E+04  0.22270413312E+04 0.  0.
        4    1    3    3  502    0  0.21335587574E+03  0.28781251542E+03  0.90816673620E+03  0.97628131570E+03  0.12699999809E+01 0.  1.
       -4    1    3    3    0  502 -0.21335587574E+03 -0.28781251542E+03 -0.12211790897E+04  0.12726495023E+04  0.12699999809E+01 0. -1.
</event>
<event>
 5   0  0.5981239E-05  0.2161870E+04  0.7818609E-02  0.8534468E-01
        1   -1    0    0  501    0  0.00000000000E+00  0.00000000000E+00  0.17918575362E+04  0.17918575362E+04  0.50400001928E-02 0. -1.
       -1   -1    0    0    0  501  0.00000000000E+00  0.00000000000E+00 -0.65207203167E+03  0.65207203169E+03  0.50400001928E-02 0.  1.
    10030    2    1    2    0    0  0.00000000000E+00  0.00000000000E+00  0.11397855045E+04  0.24439295679E+04  0.21618697316E+04 0.  0.
        4    1    3    3  502    0 -0.97165586098E+02 -0.18307430540E+03  0.17691833587E+04  0.17812828866E+04  0.12699999809E+01 0. -1.
       -4    1    3    3    0  502  0.97165586098E+02  0.18307430540E+03 -0.62939785422E+03  0.66264668128E+03  0.12699999809E+01 0.  1.
</event>
<event>
 5   0  0.5981239E-05  0.2200701E+04  0.7818609E-02  0.8518136E-01
        1   -1    0    0  501    0  0.00000000000E+00  0.00000000000E+00  0.17832903672E+04  0.17832903672E+04  0.50400001928E-02 0.  1.
       -1   -1    0    0    0  501  0.00000000000E+00  0.00000000000E+00 -0.67895362828E+03  0.67895362830E+03  0.50400001928E-02 0. -1.
    10030    2    1    2    0    0  0.00000000000E+00  0.00000000000E+00  0.11043367389E+04  0.24622439955E+04  0.22007012202E+04 0.  0.
        4    1    3    3  502    0 -0.36197460770E+03 -0.77664826740E+03  0.13245457966E+04  0.15775396439E+04  0.12699999809E+01 0.  1.
       -4    1    3    3    0  502  0.36197460770E+03  0.77664826740E+03 -0.22020905764E+03  0.88470435165E+03  0.12699999809E+01 0. -1.
</event>
<event>
 5   0  0.1311472E-04  0.2183252E+04  0.7818609E-02  0.8525432E-01
       -2   -1    0    0    0  501  0.00000000000E+00  0.00000000000E+00  0.60767830172E+03  0.60767830173E+03  0.25500000920E-02 0. -1.
        2   -1    0    0  501    0  0.00000000000E+00  0.00000000000E+00 -0.19609829718E+04  0.19609829718E+04  0.25500000920E-02 0.  1.
    10030    2    1    2    0    0  0.00000000000E+00  0.00000000000E+00 -0.13533046701E+04  0.25686612736E+04  0.21832515220E+04 0.  0.
        4    1    3    3  502    0  0.36650416837E+03  0.36521454416E+02  0.53236397746E+03  0.64735781409E+03  0.12699999809E+01 0. -1.
       -4    1    3    3    0  502 -0.36650416837E+03 -0.36521454416E+02 -0.18856686476E+04  0.19213034595E+04  0.12699999809E+01 0.  1.
</event>
<event>
 5   0  0.5895063E-05  0.2210615E+04  0.7818609E-02  0.8514023E-01
        1   -1    0    0  501    0  0.00000000000E+00  0.00000000000E+00  0.17299780485E+04  0.17299780485E+04  0.50400001928E-02 0. -1.
       -1   -1    0    0    0  501  0.00000000000E+00  0.00000000000E+00 -0.70619652281E+03  0.70619652282E+03  0.50400001928E-02 0.  1.
    10030    2    1    2    0    0  0.00000000000E+00  0.00000000000E+00  0.10237815257E+04  0.24361745713E+04  0.22106148307E+04 0.  0.
        5    1    3    3  502    0 -0.15678422551E+03  0.10582020939E+04  0.20547468078E+03  0.10893185481E+04  0.46999998093E+01 0. -1.
       -5    1    3    3    0  502  0.15678422551E+03 -0.10582020939E+04  0.81830684492E+03  0.13468560232E+04  0.46999998093E+01 0.  1.
</event>
<event>
 5   0  0.5849604E-05  0.2144713E+04  0.7818609E-02  0.8541799E-01
        1   -1    0    0  501    0  0.00000000000E+00  0.00000000000E+00  0.12163385209E+04  0.12163385209E+04  0.50400001928E-02 0.  1.
       -1   -1    0    0    0  501  0.00000000000E+00  0.00000000000E+00 -0.94541772317E+03  0.94541772318E+03  0.50400001928E-02 0. -1.
    10030    2    1    2    0    0  0.00000000000E+00  0.00000000000E+00  0.27092079773E+03  0.21617562441E+04  0.21447125635E+04 0.  0.
        2    1    3    3  502    0 -0.50733258336E+02 -0.10025403472E+04 -0.24474669248E+03  0.10332288976E+04  0.25500000920E-02 0. -1.
       -2    1    3    3    0  502  0.50733258336E+02  0.10025403472E+04  0.51566749021E+03  0.11285273465E+04  0.25500000920E-02 0.  1.
</event>
<event>
 5   0  0.5981239E-05  0.2258627E+04  0.7818609E-02  0.8494415E-01
        1   -1    0    0  501    0  0.00000000000E+00  0.00000000000E+00  0.18415801075E+04  0.18415801075E+04  0.50400001928E-02 0.  1.
       -1   -1    0    0    0  501  0.00000000000E+00  0.00000000000E+00 -0.69253000014E+03  0.69253000016E+03  0.50400001928E-02 0. -1.
    10030    2    1    2    0    0  0.00000000000E+00  0.00000000000E+00  0.11490501074E+04  0.25341101077E+04  0.22586274347E+04 0.  0.
        4    1    3    3  502    0 -0.18686968233E+03  0.55849105316E+02 -0.67349014128E+03  0.70116330768E+03  0.12699999809E+01 0. -1.
       -4    1    3    3    0  502  0.18686968233E+03 -0.55849105316E+02  0.18225402487E+04  0.18329468000E+04  0.12699999809E+01 0.  1.
</event>
<event>
 5   0  0.5981239E-05  0.2107496E+04  0.7818609E-02  0.8557949E-01
       -1   -1    0    0    0  501  0.00000000000E+00  0.00000000000E+00  0.98837341811E+03  0.98837341813E+03  0.50400001928E-02 0.  1.
        1   -1    0    0  501    0  0.00000000000E+00  0.00000000000E+00 -0.11234466899E+04  0.11234466899E+04  0.50400001928E-02 0. -1.
    10030    2    1    2    0    0  0.00000000000E+00  0.00000000000E+00 -0.13507327176E+03  0.21118201080E+04  0.21074959976E+04 0.  0.
        4    1    3    3  502    0  0.10134760268E+03  0.29122141497E+02 -0.11181456549E+04  0.11231076325E+04  0.12699999809E+01 0. -1.
       -4    1    3    3    0  502 -0.10134760268E+03 -0.29122141497E+02  0.98307238318E+03  0.98871247548E+03  0.12699999809E+01 0.  1.
</event>
<event>
 5   0  0.1252124E-04  0.2181359E+04  0.7818609E-02  0.8526227E-01
       -2   -1    0    0    0  501  0.00000000000E+00  0.00000000000E+00  0.10131743100E+04  0.10131743100E+04  0.25500000920E-02 0. -1.
        2   -1    0    0  501    0  0.00000000000E+00  0.00000000000E+00 -0.11741132818E+04  0.11741132818E+04  0.25500000920E-02 0.  1.
    10030    2    1    2    0    0  0.00000000000E+00  0.00000000000E+00 -0.16093897178E+03  0.21872875918E+04  0.21813586721E+04 0.  0.
        3    1    3    3  502    0 -0.84502917135E+03 -0.67767892906E+03 -0.20832437631E+03  0.11030512623E+04  0.10100000352E+00 0. -1.
       -3    1    3    3    0  502  0.84502917135E+03  0.67767892906E+03  0.47385404535E+02  0.10842363294E+04  0.10100000352E+00 0.  1.
</event>
<event>
 5   0  0.5849604E-05  0.2203922E+04  0.7818609E-02  0.8516797E-01
       -1   -1    0    0    0  501  0.00000000000E+00  0.00000000000E+00  0.12679323743E+04  0.12679323743E+04  0.50400001928E-02 0. -1.
        1   -1    0    0  501    0  0.00000000000E+00  0.00000000000E+00 -0.95771534502E+03  0.95771534504E+03  0.50400001928E-02 0.  1.
    10030    2    1    2    0    0  0.00000000000E+00  0.00000000000E+00  0.31021702928E+03  0.22256477194E+04  0.22039222231E+04 0.  0.
        2    1    3    3  502    0  0.52763113053E+03  0.61172246362E+03 -0.60175894994E+03  0.10073295470E+04  0.25500000920E-02 0.  1.
       -2    1    3    3    0  502 -0.52763113053E+03 -0.61172246362E+03  0.91197597923E+03  0.12183181724E+04  0.25500000920E-02 0. -1.
</event>
<event>
 5   0  0.1252124E-04  0.2179956E+04  0.7818609E-02  0.8526817E-01
        2   -1    0    0  501    0  0.00000000000E+00  0.00000000000E+00  0.12366290892E+04  0.12366290892E+04  0.25500000920E-02 0. -1.
       -2   -1    0    0    0  501  0.00000000000E+00  0.00000000000E+00 -0.96071830368E+03  0.96071830369E+03  0.25500000920E-02 0.  1.
    10030    2    1    2    0    0  0.00000000000E+00  0.00000000000E+00  0.27591078549E+03  0.21973473929E+04  0.21799561471E+04 0.  0.
        3    1    3    3  502    0 -0.67303265456E+03  0.61484799167E+03  0.74025159164E+03  0.11743012544E+04  0.10100000352E+00 0. -1.
       -3    1    3    3    0  502  0.67303265456E+03 -0.61484799167E+03 -0.46434080615E+03  0.10230461385E+04  0.10100000352E+00 0.  1.
</event>
<event>
 5   0  0.5895063E-05  0.2220439E+04  0.7818609E-02  0.8509969E-01
        1   -1    0    0  501    0  0.00000000000E+00  0.00000000000E+00  0.52104462748E+03  0.52104462751E+03  0.50400001928E-02 0. -1.
       -1   -1    0    0    0  501  0.00000000000E+00  0.00000000000E+00 -0.23656084856E+04  0.23656084856E+04  0.50400001928E-02 0.  1.
    10030    2    1    2    0    0  0.00000000000E+00  0.00000000000E+00 -0.18445638581E+04  0.28866531131E+04  0.22204392288E+04 0.  0.
        5    1    3    3  502    0  0.24437141748E+03 -0.10459376064E+04 -0.12873647114E+04  0.16766135083E+04  0.46999998093E+01 0. -1.
       -5    1    3    3    0  502 -0.24437141748E+03  0.10459376064E+04 -0.55719914673E+03  0.12100396048E+04  0.46999998093E+01 0.  1.
</event>
<event>
 5   0  0.1252124E-04  0.2587374E+04  0.7818609E-02  0.8372503E-01
        2   -1    0    0  501    0  0.00000000000E+00  0.00000000000E+00  0.13164678727E+04  0.13164678727E+04  0.25500000920E-02 0.  1.
       -2   -1    0    0    0  501  0.00000000000E+00  0.00000000000E+00 -0.12713005377E+04  0.12713005377E+04  0.25500000920E-02 0. -1.
    10030    2    1    2    0    0  0.00000000000E+00  0.00000000000E+00  0.45167335029E+02  0.25877684105E+04  0.25873742014E+04 0.  0.
        3    1    3    3  502    0 -0.77467047786E+03  0.96617170369E+03 -0.35167141273E+03  0.12873518956E+04  0.10100000352E+00 0.  1.
       -3    1    3    3    0  502  0.77467047786E+03 -0.96617170369E+03  0.39683874776E+03  0.13004165149E+04  0.10100000352E+00 0. -1.
</event>
<event>
 5   0  0.6263558E-05  0.2200441E+04  0.7818609E-02  0.8518245E-01
        1   -1    0    0  501    0  0.00000000000E+00  0.00000000000E+00  0.14471279996E+04  0.14471279997E+04  0.50400001928E-02 0. -1.
       -1   -1    0    0    0  501  0.00000000000E+00  0.00000000000E+00 -0.83647417438E+03  0.83647417439E+03  0.50400001928E-02 0.  1.
    10030    2    1    2    0    0  0.00000000000E+00  0.00000000000E+00  0.61065382527E+03  0.22836021740E+04  0.22004410456E+04 0.  0.
        3    1    3    3  502    0  0.93105057317E+03  0.25395955265E+03  0.85362599491E+03  0.12884207285E+04  0.10100000352E+00 0. -1.
       -3    1    3    3    0  502 -0.93105057317E+03 -0.25395955265E+03 -0.24297216964E+03  0.99518144557E+03  0.10100000352E+00 0.  1.
</event>
<event>
 5   0  0.5895063E-05  0.2274607E+04  0.7818609E-02  0.8488001E-01
       -1   -1    0    0    0  501  0.00000000000E+00  0.00000000000E+00  0.79016284476E+03  0.79016284478E+03  0.50400001928E-02 0. -1.
        1   -1    0    0  501    0  0.00000000000E+00  0.00000000000E+00 -0.16369534495E+04  0.16369534495E+04  0.50400001928E-02 0.  1.
    10030    2    1    2    0    0  0.00000000000E+00  0.00000000000E+00 -0.84679060470E+03  0.24271162942E+04  0.22746074777E+04 0.  0.
        5    1    3    3  502    0 -0.95439959053E+03 -0.60273243758E+03 -0.57152965868E+03  0.12652403766E+04  0.46999998093E+01 0. -1.
       -5    1    3    3    0  502  0.95439959053E+03  0.60273243758E+03 -0.27526094602E+03  0.11618759177E+04  0.46999998093E+01 0.  1.
</event>
<event>
 5   0  0.1252124E-04  0.2206485E+04  0.7818609E-02  0.8515734E-01
       -2   -1    0    0    0  501  0.00000000000E+00  0.00000000000E+00  0.11103678331E+04  0.11103678331E+04  0.25500000920E-02 0.  1.
        2   -1    0    0  501    0  0.00000000000E+00  0.00000000000E+00 -0.10961626237E+04  0.10961626237E+04  0.25500000920E-02 0. -1.
    10030    2    1    2    0    0  0.00000000000E+00  0.00000000000E+00  0.14205209378E+02  0.22065304568E+04  0.22064847312E+04 0.  0.
        3    1    3    3  502    0 -0.10566667559E+04  0.31240286698E+03  0.61908144349E+02  0.11036180557E+04  0.10100000352E+00 0.  1.
       -3    1    3    3    0  502  0.10566667559E+04 -0.31240286698E+03 -0.47702934971E+02  0.11029124011E+04  0.10100000352E+00 0. -1.
</event>
<event>
 5   0  0.5861816E-05  0.2422963E+04  0.7818609E-02  0.8430956E-01
       -1   -1    0    0    0  501  0.00000000000E+00  0.00000000000E+00  0.89945767509E+03  0.89945767510E+03  0.50400001928E-02 0.  1.
        1   -1    0    0  501    0  0.00000000000E+00  0.00000000000E+00 -0.16317467994E+04  0.16317467994E+04  0.50400001928E-02 0. -1.
    10030    2    1    2    0    0  0.00000000000E+00  0.00000000000E+00 -0.73228912429E+03  0.25312044745E+04  0.24229628000E+04 0.  0.
        1    1    3    3  502    0 -0.30678398785E+03  0.11505683772E+04 -0.59918674078E+03  0.13330224139E+04  0.50400001928E-02 0. -1.
       -1    1    3    3    0  502  0.30678398785E+03 -0.11505683772E+04 -0.13310238351E+03  0.11981820605E+04  0.50400001928E-02 0.  1.
</event>
<event>
 5   0  0.5849604E-05  0.2279938E+04  0.7818609E-02  0.8485873E-01
       -1   -1    0    0    0  501  0.00000000000E+00  0.00000000000E+00  0.71109032564E+03  0.71109032566E+03  0.50400001928E-02 0. -1.
        1   -1    0    0  501    0  0.00000000000E+00  0.00000000000E+00 -0.18275172791E+04  0.18275172791E+04  0.50400001928E-02 0.  1.
    10030    2    1    2    0    0  0.00000000000E+00  0.00000000000E+00 -0.11164269535E+04  0.25386076048E+04  0.22799384703E+04 0.  0.
        2    1    3    3  502    0 -0.96204541200E+02 -0.10939479579E+04 -0.89877841683E+03  0.14190771970E+04  0.25500000920E-02 0.  1.
       -2    1    3    3    0  502  0.96204541200E+02  0.10939479579E+04 -0.21764853663E+03  0.11195304078E+04  0.25500000920E-02 0. -1.
</event>
<event>
 5   0  0.1226021E-04  0.2241240E+04  0.7818609E-02  0.8501457E-01
       -2   -1    0    0    0  501  0.00000000000E+00  0.00000000000E+00  0.56334582501E+03  0.56334582501E+03  0.25500000920E-02 0.  1.
        2   -1    0    0  501    0  0.00000000000E+00  0.00000000000E+00 -0.22291615472E+04  0.22291615472E+04  0.25500000920E-02 0. -1.
    10030    2    1    2    0    0  0.00000000000E+00  0.00000000000E+00 -0.16658157222E+04  0.27925073722E+04  0.22412397024E+04 0.  0.
        2    1    3    3  502    0  0.60145329240E+03 -0.42866385911E+03 -0.18829915123E+04  0.20226605752E+04  0.25500000920E-02 0. -1.
       -2    1    3    3    0  502 -0.60145329240E+03  0.42866385911E+03  0.21717579012E+03  0.76984679701E+03  0.25500000920E-02 0.  1.
</event>
<event>
 5   0  0.1226021E-04  0.1435678E+04  0.7818609E-02  0.8928391E-01
       -2   -1    0    0    0  501  0.00000000000E+00  0.00000000000E+00  0.52569890386E+03  0.52569890387E+03  0.25500000920E-02 0.  1.
        2   -1    0    0  501    0  0.00000000000E+00  0.00000000000E+00 -0.98020465742E+03  0.98020465742E+03  0.25500000920E-02 0. -1.
    10030    2    1    2    0    0  0.00000000000E+00  0.00000000000E+00 -0.45450575356E+03  0.15059035613E+04  0.14356775599E+04 0.  0.
        2    1    3    3  502    0 -0.51446253424E+03 -0.38781244523E+03 -0.55931739947E+03  0.85317415876E+03  0.25500000920E-02 0. -1.
       -2    1    3    3    0  502  0.51446253424E+03  0.38781244523E+03  0.10481164591E+03  0.65272940254E+03  0.25500000920E-02 0.  1.
</event>
<event>
 5   0  0.1311472E-04  0.2221336E+04  0.7818609E-02  0.8509600E-01
       -2   -1    0    0    0  501  0.00000000000E+00  0.00000000000E+00  0.10979908114E+04  0.10979908114E+04  0.25500000920E-02 0. -1.
        2   -1    0    0  501    0  0.00000000000E+00  0.00000000000E+00 -0.11234917522E+04  0.11234917522E+04  0.25500000920E-02 0.  1.
    10030    2    1    2    0    0  0.00000000000E+00  0.00000000000E+00 -0.25500940870E+02  0.22214825636E+04  0.22213361930E+04 0.  0.
        4    1    3    3  502    0 -0.43309922780E+03  0.29280914955E+02  0.10096425241E+04  0.10990049829E+04  0.12699999809E+01 0. -1.
       -4    1    3    3    0  502  0.43309922780E+03 -0.29280914955E+02 -0.10351434650E+04  0.11224775807E+04  0.12699999809E+01 0.  1.
</event>
<event>
 5   0  0.1241430E-04  0.2221906E+04  0.7818609E-02  0.8509365E-01
       -2   -1    0    0    0  501  0.00000000000E+00  0.00000000000E+00  0.88437943802E+03  0.88437943802E+03  0.25500000920E-02 0. -1.
        2   -1    0    0  501    0  0.00000000000E+00  0.00000000000E+00 -0.13955737494E+04  0.13955737494E+04  0.25500000920E-02 0.  1.
    10030    2    1    2    0    0  0.00000000000E+00  0.00000000000E+00 -0.51119431135E+03  0.22799531874E+04  0.22219061440E+04 0.  0.
        1    1    3    3  502    0 -0.39816386877E+03  0.10177103348E+04 -0.46068852941E+03  0.11859606710E+04  0.50400001928E-02 0. -1.
       -1    1    3    3    0  502  0.39816386877E+03 -0.10177103348E+04 -0.50505781939E+02  0.10939925164E+04  0.50400001928E-02 0.  1.
</event>
<event>
 5   0  0.1404159E-04  0.2179744E+04  0.7818609E-02  0.8526907E-01
       -2   -1    0    0    0  501  0.00000000000E+00  0.00000000000E+00  0.14140580448E+04  0.14140580448E+04  0.25500000920E-02 0. -1.
        2   -1    0    0  501    0  0.00000000000E+00  0.00000000000E+00 -0.84000871923E+03  0.84000871923E+03  0.25500000920E-02 0.  1.
    10030    2    1    2    0    0  0.00000000000E+00  0.00000000000E+00  0.57404932556E+03  0.22540667640E+04  0.21797441016E+04 0.  0.
        5    1    3    3  502    0 -0.69674754285E+03  0.25839798307E+01  0.11536541786E+04  0.13477402825E+04  0.46999998093E+01 0. -1.
       -5    1    3    3    0  502  0.69674754285E+03 -0.25839798307E+01 -0.57960485301E+03  0.90632648149E+03  0.46999998093E+01 0.  1.
</event>
<event>
 5   0  0.1226021E-04  0.2196614E+04  0.7818609E-02  0.8519839E-01
        2   -1    0    0  501    0  0.00000000000E+00  0.00000000000E+00  0.12778411759E+04  0.12778411759E+04  0.25500000920E-02 0.  1.
       -2   -1    0    0    0  501  0.00000000000E+00  0.00000000000E+00 -0.94399671719E+03  0.94399671719E+03  0.25500000920E-02 0. -1.
    10030    2    1    2    0    0  0.00000000000E+00  0.00000000000E+00  0.33384445871E+03  0.22218378931E+04  0.21966136439E+04 0.  0.
        2    1    3    3  502    0 -0.18145365425E+03  0.28353602134E+03 -0.89053005814E+03  0.95203040313E+03  0.25500000920E-02 0. -1.
       -2    1    3    3    0  502  0.18145365425E+03 -0.28353602134E+03  0.12243745168E+04  0.12698074900E+04  0.25500000920E-02 0.  1.
</event>
<event>
 5   0  0.1241430E-04  0.2167432E+04  0.7818609E-02  0.8532107E-01
       -2   -1    0    0    0  501  0.00000000000E+00  0.00000000000E+00  0.13741597663E+04  0.13741597663E+04  0.25500000920E-02 0.  1.
        2   -1    0    0  501    0  0.00000000000E+00  0.00000000000E+00 -0.85466035327E+03  0.85466035327E+03  0.25500000920E-02 0. -1.
    10030    2    1    2    0    0  0.00000000000E+00  0.00000000000E+00  0.51949941299E+03  0.22288201195E+04  0.21674315410E+04 0.  0.
        1    1    3    3  502    0 -0.26679513004E+03  0.33275850290E+03  0.12842259479E+04  0.13531977490E+04  0.50400001928E-02 0.  1.
       -1    1    3    3    0  502  0.26679513004E+03 -0.33275850290E+03 -0.76472653486E+03  0.87562237055E+03  0.50400001928E-02 0. -1.
</event>
<event>
 5   0  0.4586375E-05  0.2211678E+04  0.7818609E-02  0.8513583E-01
        3   -1    0    0  501    0  0.00000000000E+00  0.00000000000E+00  0.16725070334E+04  0.16725070365E+04  0.10100000352E+00 0.  1.
       -3   -1    0    0    0  501  0.00000000000E+00  0.00000000000E+00 -0.73116595079E+03  0.73116595776E+03  0.10100000352E+00 0. -1.
    10030    2    1    2    0    0  0.00000000000E+00  0.00000000000E+00  0.94134108264E+03  0.24036729942E+04  0.22116782834E+04 0.  0.
        3    1    3    3  502    0 -0.10360117214E+04  0.25767210146E+03  0.15725269464E+03  0.10790938879E+04  0.10100000352E+00 0. -1.
       -3    1    3    3    0  502  0.10360117214E+04 -0.25767210146E+03  0.78408838799E+03  0.13245791064E+04  0.10100000352E+00 0.  1.
</event>
<event>
 5   0  0.4586375E-05  0.2177295E+04  0.7818609E-02  0.8527938E-01
       -3   -1    0    0    0  501  0.00000000000E+00  0.00000000000E+00  0.12091614511E+04  0.12091614553E+04  0.10100000352E+00 0. -1.
        3   -1    0    0  501    0  0.00000000000E+00  0.00000000000E+00 -0.98014441576E+03  0.98014442097E+03  0.10100000352E+00 0.  1.
    10030    2    1    2    0    0  0.00000000000E+00  0.00000000000E+00  0.22901703532E+03  0.21893058763E+04  0.21772945178E+04 0.  0.
        1    1    3    3  502    0 -0.51147140355E+03  0.44146873512E+03  0.97283063181E+03  0.11844395632E+04  0.50400001928E-02 0. -1.
       -1    1    3    3    0  502  0.51147140355E+03 -0.44146873512E+03 -0.74381359649E+03  0.10048663130E+04  0.50400001928E-02 0.  1.
</event>
<event>
 5   0  0.6263558E-05  0.2230674E+04  0.7818609E-02  0.8505768E-01
       -1   -1    0    0    0  501  0.00000000000E+00  0.00000000000E+00  0.17947319640E+04  0.17947319640E+04  0.50400001928E-02 0. -1.
        1   -1    0    0  501    0  0.00000000000E+00  0.00000000000E+00 -0.69312661942E+03  0.69312661944E+03  0.50400001928E-02 0.  1.
    10030    2    1    2    0    0  0.00000000000E+00  0.00000000000E+00  0.11016053445E+04  0.24878585834E+04  0.22306738883E+04 0.  0.
        3    1    3    3  502    0 -0.81430153846E+03  0.63583070950E+03  0.10195035632E+04  0.14514665729E+04  0.10100000352E+00 0. -1.
       -3    1    3    3    0  502  0.81430153846E+03 -0.63583070950E+03  0.82101781300E+02  0.10363920105E+04  0.10100000352E+00 0.  1.
</event>
<event>
 5   0  0.1404159E-04  0.2219324E+04  0.7818609E-02  0.8510428E-01
        2   -1    0    0  501    0  0.00000000000E+00  0.00000000000E+00  0.72309761623E+03  0.72309761624E+03  0.25500000920E-02 0. -1.
       -2   -1    0    0    0  501  0.00000000000E+00  0.00000000000E+00 -0.17028818374E+04  0.17028818374E+04  0.25500000920E-02 0.  1.
    10030    2    1    2    0    0  0.00000000000E+00  0.00000000000E+00 -0.97978422114E+03  0.24259794536E+04  0.22193240388E+04 0.  0.
        5    1    3    3  502    0  0.47372675318E+03  0.81587089653E+03 -0.11284679737E+04  0.14708923870E+04  0.46999998093E+01 0.  1.
       -5    1    3    3    0  502 -0.47372675318E+03 -0.81587089653E+03  0.14868375259E+03  0.95508706659E+03  0.46999998093E+01 0. -1.
</event>
<event>
 5   0  0.5981239E-05  0.2213975E+04  0.7818609E-02  0.8512634E-01
        1   -1    0    0  501    0  0.00000000000E+00  0.00000000000E+00  0.59685261798E+03  0.59685261800E+03  0.50400001928E-02 0. -1.
       -1   -1    0    0    0  501  0.00000000000E+00  0.00000000000E+00 -0.20531387883E+04  0.20531387883E+04  0.50400001928E-02 0.  1.
    10030    2    1    2    0    0  0.00000000000E+00  0.00000000000E+00 -0.14562861704E+04  0.26499914064E+04  0.22139749420E+04 0.  0.
        4    1    3    3  502    0 -0.13338411425E+03 -0.48929704701E+02  0.58589359886E+03  0.60287507829E+03  0.12699999809E+01 0. -1.
       -4    1    3    3    0  502  0.13338411425E+03  0.48929704701E+02 -0.20421797692E+04  0.20471163281E+04  0.12699999809E+01 0.  1.
</event>
<event>
 5   0  0.1241430E-04  0.2028223E+04  0.7818609E-02  0.8593538E-01
       -2   -1    0    0    0  501  0.00000000000E+00  0.00000000000E+00  0.51571793585E+03  0.51571793586E+03  0.25500000920E-02 0.  1.
        2   -1    0    0  501    0  0.00000000000E+00  0.00000000000E+00 -0.19941569790E+04  0.19941569790E+04  0.25500000920E-02 0. -1.
    10030    2    1    2    0    0  0.00000000000E+00  0.00000000000E+00 -0.14784390431E+04  0.25098749148E+04  0.20282233812E+04 0.  0.
        1    1    3    3  502    0  0.11924517013E+03  0.92577683409E+03 -0.24867303420E+03  0.96598159149E+03  0.50400001928E-02 0. -1.
       -1    1    3    3    0  502 -0.11924517013E+03 -0.92577683409E+03 -0.12297660089E+04  0.15438933233E+04  0.50400001928E-02 0.  1.
</event>
<event>
 5   0  0.1226021E-04  0.2176451E+04  0.7818609E-02  0.8528294E-01
       -2   -1    0    0    0  501  0.00000000000E+00  0.00000000000E+00  0.94989485010E+03  0.94989485011E+03  0.25500000920E-02 0. -1.
        2   -1    0    0  501    0  0.00000000000E+00  0.00000000000E+00 -0.12467007891E+04  0.12467007891E+04  0.25500000920E-02 0.  1.
    10030    2    1    2    0    0  0.00000000000E+00  0.00000000000E+00 -0.29680593900E+03  0.21965956392E+04  0.21764509268E+04 0.  0.
        2    1    3    3  502    0 -0.26744859679E+03  0.80297285576E+02 -0.12099261921E+04  0.12417317732E+04  0.25500000920E-02 0.  1.
       -2    1    3    3    0  502  0.26744859679E+03 -0.80297285576E+02  0.91312025315E+03  0.95486386606E+03  0.25500000920E-02 0. -1.
</event>
<event>
 5   0  0.5895063E-05  0.1700979E+04  0.7818609E-02  0.8760806E-01
        1   -1    0    0  501    0  0.00000000000E+00  0.00000000000E+00  0.12669001343E+04  0.12669001343E+04  0.50400001928E-02 0.  1.
       -1   -1    0    0    0  501  0.00000000000E+00  0.00000000000E+00 -0.57094641458E+03  0.57094641460E+03  0.50400001928E-02 0. -1.
    10030    2    1    2    0    0  0.00000000000E+00  0.00000000000E+00  0.69595371970E+03  0.18378465489E+04  0.17009786469E+04 0.  0.
        5    1    3    3  502    0  0.55353106080E+03 -0.35879752237E+03 -0.23203993926E+03  0.69928314776E+03  0.46999998093E+01 0. -1.
       -5    1    3    3    0  502 -0.55353106080E+03  0.35879752237E+03  0.92799365896E+03  0.11385634011E+04  0.46999998093E+01 0.  1.
</event>
<event>
 5   0  0.1226021E-04  0.2215464E+04  0.7818609E-02  0.8512019E-01
        2   -1    0    0  501    0  0.00000000000E+00  0.00000000000E+00  0.17660061201E+04  0.17660061201E+04  0.25500000920E-02 0. -1.
       -2   -1    0    0    0  501  0.00000000000E+00  0.00000000000E+00 -0.69482754984E+03  0.69482754984E+03  0.25500000920E-02 0.  1.
    10030    2    1    2    0    0  0.00000000000E+00  0.00000000000E+00  0.10711785703E+04  0.24608336700E+04  0.22154635682E+04 0.  0.
        2    1    3    3  502    0 -0.15299711184E+03  0.63257991088E+03  0.15312508339E+04  0.16638192739E+04  0.25500000920E-02 0. -1.
       -2    1    3    3    0  502  0.15299711184E+03 -0.63257991088E+03 -0.46007226357E+03  0.79701439611E+03  0.25500000920E-02 0.  1.
</event>
<event>
 5   0  0.1252124E-04  0.2166676E+04  0.7818609E-02  0.8532427E-01
        2   -1    0    0  501    0  0.00000000000E+00  0.00000000000E+00  0.14930685187E+04  0.14930685187E+04  0.25500000920E-02 0.  1.
       -2   -1    0    0    0  501  0.00000000000E+00  0.00000000000E+00 -0.78604679479E+03  0.78604679479E+03  0.25500000920E-02 0. -1.
    10030    2    1    2    0    0  0.00000000000E+00  0.00000000000E+00  0.70702172390E+03  0.22791153135E+04  0.21666764627E+04 0.  0.
        3    1    3    3  502    0 -0.99447861889E+03  0.24697878486E+03 -0.16354597016E+02  0.10248188750E+04  0.10100000352E+00 0. -1.
       -3    1    3    3    0  502  0.99447861889E+03 -0.24697878486E+03  0.72337632091E+03  0.12542964384E+04  0.10100000352E+00 0.  1.
</event>
<event>
 5   0  0.5981239E-05  0.2202375E+04  0.7818609E-02  0.8517440E-01
       -1   -1    0    0    0  501  0.00000000000E+00  0.00000000000E+00  0.10208516930E+04  0.10208516930E+04  0.50400001928E-02 0. -1.
        1   -1    0    0  501    0  0.00000000000E+00  0.00000000000E+00 -0.11878449331E+04  0.11878449331E+04  0.50400001928E-02 0.  1.
    10030    2    1    2    0    0  0.00000000000E+00  0.00000000000E+00 -0.16699324015E+03  0.22086966261E+04  0.22023746375E+04 0.  0.
        4    1    3    3  502    0 -0.20919717389E+03  0.10626844489E+03 -0.11624825320E+04  0.11859273545E+04  0.12699999809E+01 0.  1.
       -4    1    3    3    0  502  0.20919717389E+03 -0.10626844489E+03  0.99548929186E+03  0.10227692717E+04  0.12699999809E+01 0. -1.
</event>
<event>
 5   0  0.1241430E-04  0.2234542E+04  0.7818609E-02  0.8504187E-01
        2   -1    0    0  501    0  0.00000000000E+00  0.00000000000E+00  0.12885660577E+04  0.12885660577E+04  0.25500000920E-02 0. -1.
       -2   -1    0    0    0  501  0.00000000000E+00  0.00000000000E+00 -0.96874682104E+03  0.96874682104E+03  0.25500000920E-02 0.  1.
    10030    2    1    2    0    0  0.00000000000E+00  0.00000000000E+00  0.31981923664E+03  0.22573128787E+04  0.22345418072E+04 0.  0.
        1    1    3    3  502    0  0.35546649074E+03 -0.10591556685E+04  0.17129907845E+03  0.11302701140E+04  0.50400001928E-02 0. -1.
       -1    1    3    3    0  502 -0.35546649074E+03  0.10591556685E+04  0.14852015818E+03  0.11270427648E+04  0.50400001928E-02 0.  1.
</event>
<event>
 5   0  0.5895063E-05  0.2209671E+04  0.7818609E-02  0.8514414E-01
        1   -1    0    0  501    0  0.00000000000E+00  0.00000000000E+00  0.96311632418E+03  0.96311632420E+03  0.50400001928E-02 0.  1.
       -1   -1    0    0    0  501  0.00000000000E+00  0.00000000000E+00 -0.12674078428E+04  0.12674078428E+04  0.50400001928E-02 0. -1.
    10030    2    1    2    0    0  0.00000000000E+00  0.00000000000E+00 -0.30429151865E+03  0.22305241670E+04  0.22096707292E+04 0.  0.
        5    1    3    3  502    0  0.11795012171E+03  0.38577109394E+03 -0.11903988280E+04  0.12569021553E+04  0.46999998093E+01 0. -1.
       -5    1    3    3    0  502 -0.11795012171E+03 -0.38577109394E+03  0.88610730937E+03  0.97362201179E+03  0.46999998093E+01 0.  1.
</event>
<event>
 5   0  0.6263558E-05  0.2141054E+04  0.7818609E-02  0.8543371E-01
        1   -1    0    0  501    0  0.00000000000E+00  0.00000000000E+00  0.55926135280E+03  0.55926135283E+03  0.50400001928E-02 0.  1.
       -1   -1    0    0    0  501  0.00000000000E+00  0.00000000000E+00 -0.20491814682E+04  0.20491814682E+04  0.50400001928E-02 0. -1.
    10030    2    1    2    0    0  0.00000000000E+00  0.00000000000E+00 -0.14899201154E+04  0.26084428210E+04  0.21410539462E+04 0.  0.
        3    1    3    3  502    0 -0.45470596816E+03  0.95410494716E+03 -0.53765511221E+03  0.11858106078E+04  0.10100000352E+00 0.  1.
       -3    1    3    3    0  502  0.45470596816E+03 -0.95410494716E+03 -0.95226500319E+03  0.14226322132E+04  0.10100000352E+00 0. -1.
</event>
<event>
 5   0  0.6263558E-05  0.1519516E+04  0.7818609E-02  0.8871578E-01
       -1   -1    0    0    0  501  0.00000000000E+00  0.00000000000E+00  0.69465390108E+03  0.69465390110E+03  0.50400001928E-02 0.  1.
        1   -1    0    0  501    0  0.00000000000E+00  0.00000000000E+00 -0.83096406820E+03  0.83096406822E+03  0.50400001928E-02 0. -1.
    10030    2    1    2    0    0  0.00000000000E+00  0.00000000000E+00 -0.13631016712E+03  0.15256179693E+04  0.15195162805E+04 0.  0.
        3    1    3    3  502    0 -0.71227493622E+03  0.12050036809E+02 -0.33332095603E+03  0.78650089516E+03  0.10100000352E+00 0.  1.
       -3    1    3    3    0  502  0.71227493622E+03 -0.12050036809E+02  0.19701078891E+03  0.73911707415E+03  0.10100000352E+00 0. -1.
</event>
<event>
 5   0  0.5981239E-05  0.1741788E+04  0.7818609E-02  0.8737884E-01
       -1   -1    0    0    0  501  0.00000000000E+00  0.00000000000E+00  0.93922615016E+03  0.93922615017E+03  0.50400001928E-02 0.  1.
        1   -1    0    0  501    0  0.00000000000E+00  0.00000000000E+00 -0.80753330351E+03  0.80753330352E+03  0.50400001928E-02 0. -1.
    10030    2    1    2    0    0  0.00000000000E+00  0.00000000000E+00  0.13169284665E+03  0.17467594537E+04  0.17417880420E+04 0.  0.
        4    1    3    3  502    0 -0.40013795250E+03  0.73654328808E+03 -0.17115072132E+03  0.85551188101E+03  0.12699999809E+01 0. -1.
       -4    1    3    3    0  502  0.40013795250E+03 -0.73654328808E+03  0.30284356797E+03  0.89124757268E+03  0.12699999809E+01 0.  1.
</event>
<event>
 5   0  0.1252124E-04  0.2129176E+04  0.7818609E-02  0.8548499E-01
        2   -1    0    0  501    0  0.00000000000E+00  0.00000000000E+00  0.67048691312E+03  0.67048691313E+03  0.25500000920E-02 0. -1.
       -2   -1    0    0    0  501  0.00000000000E+00  0.00000000000E+00 -0.16903347263E+04  0.16903347263E+04  0.25500000920E-02 0.  1.
    10030    2    1    2    0    0  0.00000000000E+00  0.00000000000E+00 -0.10198478132E+04  0.23608216394E+04  0.21291757211E+04 0.  0.
        3    1    3    3  502    0 -0.13376466290E+03  0.28408475963E+03 -0.16378208626E+04  0.16676493408E+04  0.10100000352E+00 0.  1.
       -3    1    3    3    0  502  0.13376466290E+03 -0.28408475963E+03  0.61797304938E+03  0.69317229867E+03  0.10100000352E+00 0. -1.
</event>
<event>
 5   0  0.4586375E-05  0.2207193E+04  0.7818609E-02  0.8515440E-01
       -3   -1    0    0    0  501  0.00000000000E+00  0.00000000000E+00  0.27859011778E+04  0.27859011796E+04  0.10100000352E+00 0. -1.
        3   -1    0    0  501    0  0.00000000000E+00  0.00000000000E+00 -0.43717465188E+03  0.43717466355E+03  0.10100000352E+00 0.  1.
    10030    2    1    2    0    0  0.00000000000E+00  0.00000000000E+00  0.23487265259E+04  0.32230758432E+04  0.22071931491E+04 0.  0.
        2    1    3    3  502    0 -0.10271692850E+02  0.80603653819E+03  0.73705927264E+02  0.80946462078E+03  0.25500000920E-02 0.  1.
       -2    1    3    3    0  502  0.10271692850E+02 -0.80603653819E+03  0.22750205987E+04  0.24136112224E+04  0.25500000920E-02 0. -1.
</event>
<event>
 5   0  0.1252124E-04  0.2178088E+04  0.7818609E-02  0.8527604E-01
        2   -1    0    0  501    0  0.00000000000E+00  0.00000000000E+00  0.20651771619E+04  0.20651771619E+04  0.25500000920E-02 0. -1.
       -2   -1    0    0    0  501  0.00000000000E+00  0.00000000000E+00 -0.57429284198E+03  0.57429284198E+03  0.25500000920E-02 0.  1.
    10030    2    1    2    0    0  0.00000000000E+00  0.00000000000E+00  0.14908843199E+04  0.26394700039E+04  0.21780876580E+04 0.  0.
        3    1    3    3  502    0  0.15231301065E+03 -0.44525097924E+03  0.19356093497E+04  0.19919917803E+04  0.10100000352E+00 0. -1.
       -3    1    3    3    0  502 -0.15231301065E+03  0.44525097924E+03 -0.44472502980E+03  0.64747822362E+03  0.10100000352E+00 0.  1.
</event>
<event>
 5   0  0.1404159E-04  0.2198197E+04  0.7818609E-02  0.8519179E-01
        2   -1    0    0  501    0  0.00000000000E+00  0.00000000000E+00  0.88063454938E+03  0.88063454938E+03  0.25500000920E-02 0.  1.
       -2   -1    0    0    0  501  0.00000000000E+00  0.00000000000E+00 -0.13717575841E+04  0.13717575841E+04  0.25500000920E-02 0. -1.
    10030    2    1    2    0    0  0.00000000000E+00  0.00000000000E+00 -0.49112303468E+03  0.22523921334E+04  0.21981966444E+04 0.  0.
        5    1    3    3  502    0 -0.61649342998E+02 -0.90494121403E+03  0.39044756992E+03  0.98751741109E+03  0.46999998093E+01 0.  1.
       -5    1    3    3    0  502  0.61649342998E+02  0.90494121403E+03 -0.88157060460E+03  0.12648747223E+04  0.46999998093E+01 0. -1.
</event>
<event>
 5   0  0.5849604E-05  0.2152277E+04  0.7818609E-02  0.8538558E-01
       -1   -1    0    0    0  501  0.00000000000E+00  0.00000000000E+00  0.19744759621E+04  0.19744759621E+04  0.50400001928E-02 0.  1.
        1   -1    0    0  501    0  0.00000000000E+00  0.00000000000E+00 -0.58652229047E+03  0.58652229049E+03  0.50400001928E-02 0. -1.
    10030    2    1    2    0    0  0.00000000000E+00  0.00000000000E+00  0.13879536717E+04  0.25609982526E+04  0.21522770861E+04 0.  0.
        2    1    3    3  502    0 -0.77834167680E+02  0.11421792705E+03 -0.57591664697E+03  0.59227010458E+03  0.25500000920E-02 0. -1.
       -2    1    3    3    0  502  0.77834167680E+02 -0.11421792705E+03  0.19638703186E+04  0.19687281481E+04  0.25500000920E-02 0.  1.
</event>
<event>
 5   0  0.5981239E-05  0.2247221E+04  0.7818609E-02  0.8499027E-01
        1   -1    0    0  501    0  0.00000000000E+00  0.00000000000E+00  0.11278807213E+04  0.11278807213E+04  0.50400001928E-02 0.  1.
       -1   -1    0    0    0  501  0.00000000000E+00  0.00000000000E+00 -0.11193566478E+04  0.11193566478E+04  0.50400001928E-02 0. -1.
    10030    2    1    2    0    0  0.00000000000E+00  0.00000000000E+00  0.85240734501E+01  0.22472373691E+04  0.22472212025E+04 0.  0.
        4    1    3    3  502    0  0.85506789936E+03  0.50483377942E+03 -0.52157528732E+03  0.11216241129E+04  0.12699999809E+01 0.  1.
       -4    1    3    3    0  502 -0.85506789936E+03 -0.50483377942E+03  0.53009936077E+03  0.11256132562E+04  0.12699999809E+01 0. -1.
</event>
<event>
 5   0  0.1226021E-04  0.2199608E+04  0.7818609E-02  0.8518591E-01
        2   -1    0    0  501    0  0.00000000000E+00  0.00000000000E+00  0.11530798403E+04  0.11530798403E+04  0.25500000920E-02 0.  1.
       -2   -1    0    0    0  501  0.00000000000E+00  0.00000000000E+00 -0.10489893709E+04  0.10489893709E+04  0.25500000920E-02 0. -1.
    10030    2    1    2    0    0  0.00000000000E+00  0.00000000000E+00  0.10409046939E+03  0.22020692112E+04  0.21996076889E+04 0.  0.
        2    1    3    3  502    0 -0.54672227632E+03  0.27368853933E+03  0.96726620668E+03  0.11442965431E+04  0.25500000920E-02 0.  1.
       -2    1    3    3    0  502  0.54672227632E+03 -0.27368853933E+03 -0.86317573729E+03  0.10577726681E+04  0.25500000920E-02 0. -1.
</event>
<event>
 5   0  0.1252124E-04  0.2186137E+04  0.7818609E-02  0.8524220E-01
        2   -1    0    0  501    0  0.00000000000E+00  0.00000000000E+00  0.10254993983E+04  0.10254993983E+04  0.25500000920E-02 0.  1.
       -2   -1    0    0    0  501  0.00000000000E+00  0.00000000000E+00 -0.11650895439E+04  0.11650895439E+04  0.25500000920E-02 0. -1.
    10030    2    1    2    0    0  0.00000000000E+00  0.00000000000E+00 -0.13959014562E+03  0.21905889422E+04  0.21861368907E+04 0.  0.
        3    1    3    3  502    0  0.72821755334E+01  0.67924731625E+03 -0.92790853293E+03  0.11499757399E+04  0.10100000352E+00 0. -1.
       -3    1    3    3    0  502 -0.72821755334E+01 -0.67924731625E+03  0.78831838731E+03  0.10406132022E+04  0.10100000352E+00 0.  1.
</event>
<event>
 5   0  0.5861816E-05  0.2159715E+04  0.7818609E-02  0.8535385E-01
       -1   -1    0    0    0  501  0.00000000000E+00  0.00000000000E+00  0.80468507371E+03  0.80468507372E+03  0.50400001928E-02 0.  1.
        1   -1    0    0  501    0  0.00000000000E+00  0.00000000000E+00 -0.14491292343E+04  0.14491292344E+04  0.50400001928E-02 0. -1.
    10030    2    1    2    0    0  0.00000000000E+00  0.00000000000E+00 -0.64444416064E+03  0.22538143081E+04  0.21597154116E+04 0.  0.
        1    1    3    3  502    0  0.69972540303E+02  0.93422025226E+03 -0.88267751896E+03  0.12871609218E+04  0.50400001928E-02 0.  1.
       -1    1    3    3    0  502 -0.69972540303E+02 -0.93422025226E+03  0.23823335833E+03  0.96665338626E+03  0.50400001928E-02 0. -1.
</event>
<event>
 5   0  0.1404159E-04  0.2223641E+04  0.7818609E-02  0.8508652E-01
       -2   -1    0    0    0  501  0.00000000000E+00  0.00000000000E+00  0.60462816217E+03  0.60462816218E+03  0.25500000920E-02 0.  1.
        2   -1    0    0  501    0  0.00000000000E+00  0.00000000000E+00 -0.20444710577E+04  0.20444710577E+04  0.25500000920E-02 0. -1.
    10030    2    1    2    0    0  0.00000000000E+00  0.00000000000E+00 -0.14398428956E+04  0.26490992199E+04  0.22236409587E+04 0.  0.
        5    1    3    3  502    0  0.34045009189E+03 -0.10444186600E+04 -0.51562906646E+03  0.12135122688E+04  0.46999998093E+01 0.  1.
       -5    1    3    3    0  502 -0.34045009189E+03  0.10444186600E+04 -0.92421382912E+03  0.14355869511E+04  0.46999998093E+01 0. -1.
</event>
<event>
 5   0  0.5981239E-05  0.2207196E+04  0.7818609E-02  0.8515439E-01
       -1   -1    0    0    0  501  0.00000000000E+00  0.00000000000E+00  0.11770852512E+04  0.11770852512E+04  0.50400001928E-02 0. -1.
        1   -1    0    0  501    0  0.00000000000E+00  0.00000000000E+00 -0.10346987065E+04  0.10346987065E+04  0.50400001928E-02 0.  1.
    10030    2    1    2    0    0  0.00000000000E+00  0.00000000000E+00  0.14238654469E+03  0.22117839577E+04  0.22071960374E+04 0.  0.
        4    1    3    3  502    0  0.81412514257E+02 -0.85653336890E+03  0.76375181246E+03  0.11504763594E+04  0.12699999809E+01 0. -1.
       -4    1    3    3    0  502 -0.81412514257E+02  0.85653336890E+03 -0.62136526776E+03  0.10613075984E+04  0.12699999809E+01 0.  1.
</event>
<event>
 5   0  0.5895063E-05  0.2197207E+04  0.7818609E-02  0.8519591E-01
        1   -1    0    0  501    0  0.00000000000E+00  0.00000000000E+00  0.15699760118E+04  0.15699760118E+04  0.50400001928E-02 0. -1.
       -1   -1    0    0    0  501  0.00000000000E+00  0.00000000000E+00 -0.76875694062E+03  0.76875694064E+03  0.50400001928E-02 0.  1.
    10030    2    1    2    0    0  0.00000000000E+00  0.00000000000E+00  0.80121907117E+03  0.23387329524E+04  0.21972072781E+04 0.  0.
        5    1    3    3  502    0  0.49740569835E+02 -0.29745215467E+02  0.15683369807E+04  0.15694145013E+04  0.46999998093E+01 0. -1.
       -5    1    3    3    0  502 -0.49740569835E+02  0.29745215467E+02 -0.76711790949E+03  0.76931845109E+03  0.46999998093E+01 0.  1.
</event>
<event>
 5   0  0.1226021E-04  0.2032721E+04  0.7818609E-02  0.8591473E-01
        2   -1    0    0  501    0  0.00000000000E+00  0.00000000000E+00  0.18739453556E+04  0.18739453556E+04  0.25500000920E-02 0. -1.
       -2   -1    0    0    0  501  0.00000000000E+00  0.00000000000E+00 -0.55123760348E+03  0.55123760348E+03  0.25500000920E-02 0.  1.
    10030    2    1    2    0    0  0.00000000000E+00  0.00000000000E+00  0.13227077521E+04  0.24251829591E+04  0.20327214732E+04 0.  0.
        2    1    3    3  502    0 -0.26377769009E+03 -0.52896511016E+03  0.16477916389E+04  0.17505999094E+04  0.25500000920E-02 0. -1.
       -2    1    3    3    0  502  0.26377769009E+03  0.52896511016E+03 -0.32508388674E+03  0.67458304973E+03  0.25500000920E-02 0.  1.
</event>
<event>
 5   0  0.5861816E-05  0.2273558E+04  0.7818609E-02  0.8488420E-01
       -1   -1    0    0    0  501  0.00000000000E+00  0.00000000000E+00  0.12149967184E+04  0.12149967184E+04  0.50400001928E-02 0. -1.
        1   -1    0    0  501    0  0.00000000000E+00  0.00000000000E+00 -0.10635969660E+04  0.10635969660E+04  0.50400001928E-02 0.  1.
    10030    2    1    2    0    0  0.00000000000E+00  0.00000000000E+00  0.15139975240E+03  0.22785936844E+04  0.22735582891E+04 0.  0.
        1    1    3    3  502    0  0.39523595085E+03 -0.47591041107E+03  0.10315231084E+04  0.12028059275E+04  0.50400001928E-02 0. -1.
       -1    1    3    3    0  502 -0.39523595085E+03  0.47591041107E+03 -0.88012335596E+03  0.10757877569E+04  0.50400001928E-02 0.  1.
</event>
<event>
 5   0  0.5849604E-05  0.2182339E+04  0.7818609E-02  0.8525815E-01
       -1   -1    0    0    0  501  0.00000000000E+00  0.00000000000E+00  0.14279998119E+04  0.14279998119E+04  0.50400001928E-02 0. -1.
        1   -1    0    0  501    0  0.00000000000E+00  0.00000000000E+00 -0.83378913205E+03  0.83378913206E+03  0.50400001928E-02 0.  1.
    10030    2    1    2    0    0  0.00000000000E+00  0.00000000000E+00  0.59421067982E+03  0.22617889439E+04  0.21823388589E+04 0.  0.
        2    1    3    3  502    0 -0.21724354575E+03 -0.18924982800E+03  0.13878655786E+04  0.14174558616E+04  0.25500000920E-02 0. -1.
       -2    1    3    3    0  502  0.21724354575E+03  0.18924982800E+03 -0.79365489873E+03  0.84433308230E+03  0.25500000920E-02 0.  1.
</event>
<event>
 5   0  0.1404159E-04  0.2588417E+04  0.7818609E-02  0.8372146E-01
       -2   -1    0    0    0  501  0.00000000000E+00  0.00000000000E+00  0.99804230160E+03  0.99804230161E+03  0.25500000920E-02 0. -1.
        2   -1    0    0  501    0  0.00000000000E+00  0.00000000000E+00 -0.16782617937E+04  0.16782617937E+04  0.25500000920E-02 0.  1.
    10030    2    1    2    0    0  0.00000000000E+00  0.00000000000E+00 -0.68021949209E+03  0.26763040953E+04  0.25884174805E+04 0.  0.
        5    1    3    3  502    0  0.11435000610E+04  0.15186167069E+02  0.28637681646E+03  0.11789218719E+04  0.46999998093E+01 0. -1.
       -5    1    3    3    0  502 -0.11435000610E+04 -0.15186167069E+02 -0.96659630854E+03  0.14973822234E+04  0.46999998093E+01 0.  1.
</event>
<event>
 5   0  0.1311472E-04  0.1858520E+04  0.7818609E-02  0.8675784E-01
       -2   -1    0    0    0  501  0.00000000000E+00  0.00000000000E+00  0.91770682671E+03  0.91770682671E+03  0.25500000920E-02 0. -1.
        2   -1    0    0  501    0  0.00000000000E+00  0.00000000000E+00 -0.94095875766E+03  0.94095875766E+03  0.25500000920E-02 0.  1.
    10030    2    1    2    0    0  0.00000000000E+00  0.00000000000E+00 -0.23251930951E+02  0.18586655844E+04  0.18585201377E+04 0.  0.
        4    1    3    3  502    0 -0.10781660946E+03 -0.73316334750E+03  0.54910476666E+03  0.92231804334E+03  0.12699999809E+01 0. -1.
       -4    1    3    3    0  502  0.10781660946E+03  0.73316334750E+03 -0.57235669761E+03  0.93634754103E+03  0.12699999809E+01 0.  1.
</event>
<event>
 5   0  0.5849604E-05  0.2245487E+04  0.7818609E-02  0.8499730E-01
        1   -1    0    0  501    0  0.00000000000E+00  0.00000000000E+00  0.98697453188E+03  0.98697453189E+03  0.50400001928E-02 0. -1.
       -1   -1    0    0    0  501  0.00000000000E+00  0.00000000000E+00 -0.12771890682E+04  0.12771890682E+04  0.50400001928E-02 0.  1.
    10030    2    1    2    0    0  0.00000000000E+00  0.00000000000E+00 -0.29021453634E+03  0.22641636001E+04  0.22454871033E+04 0.  0.
        2    1    3    3  502    0  0.45749776684E+03 -0.19098789357E+03  0.87063045985E+03  0.10018872091E+04  0.25500000920E-02 0. -1.
       -2    1    3    3    0  502 -0.45749776684E+03  0.19098789357E+03 -0.11608449962E+04  0.12622763910E+04  0.25500000920E-02 0.  1.
</event>
<event>
 5   0  0.6263558E-05  0.2159937E+04  0.7818609E-02  0.8535291E-01
        1   -1    0    0  501    0  0.00000000000E+00  0.00000000000E+00  0.17230851717E+04  0.17230851717E+04  0.50400001928E-02 0.  1.
       -1   -1    0    0    0  501  0.00000000000E+00  0.00000000000E+00 -0.67688608218E+03  0.67688608220E+03  0.50400001928E-02 0. -1.
    10030    2    1    2    0    0  0.00000000000E+00  0.00000000000E+00  0.10461990895E+04  0.23999712539E+04  0.21599373798E+04 0.  0.
        3    1    3    3  502    0 -0.22854685265E+03  0.18571917878E+03 -0.63141057019E+03  0.69670983599E+03  0.10100000352E+00 0. -1.
       -3    1    3    3    0  502  0.22854685265E+03 -0.18571917878E+03  0.16776096597E+04  0.17032614179E+04  0.10100000352E+00 0.  1.
</event>
<event>
 5   0  0.5849604E-05  0.2185213E+04  0.7818609E-02  0.8524608E-01
       -1   -1    0    0    0  501  0.00000000000E+00  0.00000000000E+00  0.10594996447E+04  0.10594996447E+04  0.50400001928E-02 0. -1.
        1   -1    0    0  501    0  0.00000000000E+00  0.00000000000E+00 -0.11267474251E+04  0.11267474251E+04  0.50400001928E-02 0.  1.
    10030    2    1    2    0    0  0.00000000000E+00  0.00000000000E+00 -0.67247780390E+02  0.21862470698E+04  0.21852125724E+04 0.  0.
        2    1    3    3  502    0 -0.66786142422E+03 -0.77020929328E+03 -0.42690954052E+03  0.11052207893E+04  0.25500000920E-02 0.  1.
       -2    1    3    3    0  502  0.66786142422E+03  0.77020929328E+03  0.35966176013E+03  0.10810262805E+04  0.25500000920E-02 0. -1.
</event>
<event>
 5   0  0.1252124E-04  0.2227787E+04  0.7818609E-02  0.8506951E-01
        2   -1    0    0  501    0  0.00000000000E+00  0.00000000000E+00  0.19731820798E+04  0.19731820798E+04  0.25500000920E-02 0.  1.
       -2   -1    0    0    0  501  0.00000000000E+00  0.00000000000E+00 -0.62881117454E+03  0.62881117455E+03  0.25500000920E-02 0. -1.
    10030    2    1    2    0    0  0.00000000000E+00  0.00000000000E+00  0.13443709052E+04  0.26019932543E+04  0.22277871902E+04 0.  0.
        3    1    3    3  502    0  0.98012254758E+02 -0.85562560533E+03  0.14972875537E+04  0.17273018286E+04  0.10100000352E+00 0.  1.
       -3    1    3    3    0  502 -0.98012254758E+02  0.85562560533E+03 -0.15291664847E+03  0.87469142568E+03  0.10100000352E+00 0. -1.
</event>
<event>
 5   0  0.5895063E-05  0.2191648E+04  0.7818609E-02  0.8521912E-01
       -1   -1    0    0    0  501  0.00000000000E+00  0.00000000000E+00  0.12780673935E+04  0.12780673936E+04  0.50400001928E-02 0.  1.
        1   -1    0    0  501    0  0.00000000000E+00  0.00000000000E+00 -0.93956758738E+03  0.93956758739E+03  0.50400001928E-02 0. -1.
    10030    2    1    2    0    0  0.00000000000E+00  0.00000000000E+00  0.33849980616E+03  0.22176349809E+04  0.21916484184E+04 0.  0.
        5    1    3    3  502    0  0.33593041439E+03  0.10421655619E+04  0.21277511747E+03  0.11154611792E+04  0.46999998093E+01 0. -1.
       -5    1    3    3    0  502 -0.33593041439E+03 -0.10421655619E+04  0.12572468869E+03  0.11021738017E+04  0.46999998093E+01 0.  1.
</event>
<event>
 5   0  0.5981239E-05  0.2189807E+04  0.7818609E-02  0.8522683E-01
        1   -1    0    0  501    0  0.00000000000E+00  0.00000000000E+00  0.12078512197E+04  0.12078512197E+04  0.50400001928E-02 0.  1.
       -1   -1    0    0    0  501  0.00000000000E+00  0.00000000000E+00 -0.99251783146E+03  0.99251783148E+03  0.50400001928E-02 0. -1.
    10030    2    1    2    0    0  0.00000000000E+00  0.00000000000E+00  0.21533338826E+03  0.22003690512E+04  0.21898071818E+04 0.  0.
        4    1    3    3  502    0  0.32434744230E+03 -0.49422599326E+03  0.10337145345E+04  0.11908097864E+04  0.12699999809E+01 0.  1.
       -4    1    3    3    0  502 -0.32434744230E+03  0.49422599326E+03 -0.81838114622E+03  0.10095592648E+04  0.12699999809E+01 0. -1.
</event>
<event>
 5   0  0.6263558E-05  0.1562204E+04  0.7818609E-02  0.8844110E-01
       -1   -1    0    0    0  501  0.00000000000E+00  0.00000000000E+00  0.39633128999E+03  0.39633129002E+03  0.50400001928E-02 0. -1.
        1   -1    0    0  501    0  0.00000000000E+00  0.00000000000E+00 -0.15394206380E+04  0.15394206380E+04  0.50400001928E-02 0.  1.
    10030    2    1    2    0    0  0.00000000000E+00  0.00000000000E+00 -0.11430893480E+04  0.19357519280E+04  0.15622042982E+04 0.  0.
        3    1    3    3  502    0  0.29569243902E+03 -0.13441399991E+03  0.30868063198E+03  0.44809026392E+03  0.10100000352E+00 0. -1.
       -3    1    3    3    0  502 -0.29569243902E+03  0.13441399991E+03 -0.14517699800E+04  0.14876616641E+04  0.10100000352E+00 0.  1.
</event>
<event>
 5   0  0.1241430E-04  0.1598789E+04  0.7818609E-02  0.8821292E-01
       -2   -1    0    0    0  501  0.00000000000E+00  0.00000000000E+00  0.48958987297E+03  0.48958987298E+03  0.25500000920E-02 0.  1.
        2   -1    0    0  501    0  0.00000000000E+00  0.00000000000E+00 -0.13052388041E+04  0.13052388041E+04  0.25500000920E-02 0. -1.
    10030    2    1    2    0    0  0.00000000000E+00  0.00000000000E+00 -0.81564893117E+03  0.17948286771E+04  0.15987891672E+04 0.  0.
        1    1    3    3  502    0  0.65746930067E+03 -0.15447825875E+03 -0.88793514939E+03  0.11155977067E+04  0.50400001928E-02 0. -1.
       -1    1    3    3    0  502 -0.65746930067E+03  0.15447825875E+03  0.72286218213E+02  0.67923097038E+03  0.50400001928E-02 0.  1.
</event>
<event>
 5   0  0.5861816E-05  0.1990122E+04  0.7818609E-02  0.8611253E-01
       -1   -1    0    0    0  501  0.00000000000E+00  0.00000000000E+00  0.10994116249E+04  0.10994116249E+04  0.50400001928E-02 0. -1.
        1   -1    0    0  501    0  0.00000000000E+00  0.00000000000E+00 -0.90061521766E+03  0.90061521768E+03  0.50400001928E-02 0.  1.
    10030    2    1    2    0    0  0.00000000000E+00  0.00000000000E+00  0.19879640720E+03  0.20000268426E+04  0.19901224484E+04 0.  0.
        1    1    3    3  502    0  0.92302717006E+03  0.24928481898E+03 -0.17769990476E+03  0.97247073674E+03  0.50400001928E-02 0.  1.
       -1    1    3    3    0  502 -0.92302717006E+03 -0.24928481898E+03  0.37649631196E+03  0.10275561058E+04  0.50400001928E-02 0. -1.
</event>
<event>
 5   0  0.1252124E-04  0.2205315E+04  0.7818609E-02  0.8516219E-01
        2   -1    0    0  501    0  0.00000000000E+00  0.00000000000E+00  0.17164430184E+04  0.17164430184E+04  0.25500000920E-02 0.  1.
       -2   -1    0    0    0  501  0.00000000000E+00  0.00000000000E+00 -0.70835675130E+03  0.70835675130E+03  0.25500000920E-02 0. -1.
    10030    2    1    2    0    0  0.00000000000E+00  0.00000000000E+00  0.10080862671E+04  0.24247997697E+04  0.22053153973E+04 0.  0.
        3    1    3    3  502    0  0.72319859568E+03  0.21761658206E+03 -0.37933539337E+03  0.84514409212E+03  0.10100000352E+00 0. -1.
       -3    1    3    3    0  502 -0.72319859568E+03 -0.21761658206E+03  0.13874216605E+04  0.15796556776E+04  0.10100000352E+00 0.  1.
</event>
<event>
 5   0  0.1252124E-04  0.2232944E+04  0.7818609E-02  0.8504840E-01
        2   -1    0    0  501    0  0.00000000000E+00  0.00000000000E+00  0.66682827651E+03  0.66682827652E+03  0.25500000920E-02 0.  1.
       -2   -1    0    0    0  501  0.00000000000E+00  0.00000000000E+00 -0.18693112522E+04  0.18693112522E+04  0.25500000920E-02 0. -1.
    10030    2    1    2    0    0  0.00000000000E+00  0.00000000000E+00 -0.12024829756E+04  0.25361395287E+04  0.22329438869E+04 0.  0.
        3    1    3    3  502    0  0.20458204911E+03  0.38428701760E+03  0.56645121746E+03  0.71442096741E+03  0.10100000352E+00 0.  1.
       -3    1    3    3    0  502 -0.20458204911E+03 -0.38428701760E+03 -0.17689341931E+04  0.18217185613E+04  0.10100000352E+00 0. -1.
</event>
<event>
 5   0  0.1311472E-04  0.2149510E+04  0.7818609E-02  0.8539742E-01
       -2   -1    0    0    0  501  0.00000000000E+00  0.00000000000E+00  0.11161554843E+04  0.11161554843E+04  0.25500000920E-02 0.  1.
        2   -1    0    0  501    0  0.00000000000E+00  0.00000000000E+00 -0.10348904002E+04  0.10348904003E+04  0.25500000920E-02 0. -1.
    10030    2    1    2    0    0  0.00000000000E+00  0.00000000000E+00  0.81265084022E+02  0.21510458845E+04  0.21495102660E+04 0.  0.
        4    1    3    3  502    0  0.79999723046E+03  0.14747156380E+03  0.74352564292E+03  0.11020777765E+04  0.12699999809E+01 0.  1.
       -4    1    3    3    0  502 -0.79999723046E+03 -0.14747156380E+03 -0.66226055890E+03  0.10489681080E+04  0.12699999809E+01 0. -1.
</event>
<event>
 5   0  0.6263558E-05  0.2211103E+04  0.7818609E-02  0.8513821E-01
        1   -1    0    0  501    0  0.00000000000E+00  0.00000000000E+00  0.17347213706E+04  0.17347213706E+04  0.50400001928E-02 0.  1.
       -1   -1    0    0    0  501  0.00000000000E+00  0.00000000000E+00 -0.70457643999E+03  0.70457644001E+03  0.50400001928E-02 0. -1.
    10030    2    1    2    0    0  0.00000000000E+00  0.00000000000E+00  0.10301449306E+04  0.24392978106E+04  0.22111027183E+04 0.  0.
        3    1    3    3  502    0 -0.29674455003E+03  0.10620785333E+04  0.42837676744E+03  0.11830362649E+04  0.10100000352E+00 0. -1.
       -3    1    3    3    0  502  0.29674455003E+03 -0.10620785333E+04  0.60176816317E+03  0.12562615457E+04  0.10100000352E+00 0.  1.
</event>
<event>
 5   0  0.1311472E-04  0.2202097E+04  0.7818609E-02  0.8517556E-01
       -2   -1    0    0    0  501  0.00000000000E+00  0.00000000000E+00  0.78102210735E+03  0.78102210735E+03  0.25500000920E-02 0. -1.
        2   -1    0    0  501    0  0.00000000000E+00  0.00000000000E+00 -0.15522070517E+04  0.15522070517E+04  0.25500000920E-02 0.  1.
    10030    2    1    2    0    0  0.00000000000E+00  0.00000000000E+00 -0.77118494435E+03  0.23332291591E+04  0.22020972027E+04 0.  0.
        4    1    3    3  502    0  0.36359333326E+03  0.79159873148E+03 -0.10991005590E+04  0.14024451203E+04  0.12699999809E+01 0.  1.
       -4    1    3    3    0  502 -0.36359333326E+03 -0.79159873148E+03  0.32791561463E+03  0.93078403880E+03  0.12699999809E+01 0. -1.
</event>
<event>
 5   0  0.5895063E-05  0.2173665E+04  0.7818609E-02  0.8529470E-01
        1   -1    0    0  501    0  0.00000000000E+00  0.00000000000E+00  0.24038029963E+04  0.24038029963E+04  0.50400001928E-02 0. -1.
       -1   -1    0    0    0  501  0.00000000000E+00  0.00000000000E+00 -0.49138983538E+03  0.49138983541E+03  0.50400001928E-02 0.  1.
    10030    2    1    2    0    0  0.00000000000E+00  0.00000000000E+00  0.19124131609E+04  0.28951928317E+04  0.21736645175E+04 0.  0.
        5    1    3    3  502    0  0.87434530238E+03  0.22352283882E+03  0.14959550842E+03  0.91479127313E+03  0.46999998093E+01 0.  1.
       -5    1    3    3    0  502 -0.87434530238E+03 -0.22352283882E+03  0.17628176525E+04  0.19804015586E+04  0.46999998093E+01 0. -1.
</event>
<event>
 5   0  0.1241430E-04  0.2225938E+04  0.7818609E-02  0.8507709E-01
       -2   -1    0    0    0  501  0.00000000000E+00  0.00000000000E+00  0.45325392031E+03  0.45325392031E+03  0.25500000920E-02 0. -1.
        2   -1    0    0  501    0  0.00000000000E+00  0.00000000000E+00 -0.27329044787E+04  0.27329044787E+04  0.25500000920E-02 0.  1.
    10030    2    1    2    0    0  0.00000000000E+00  0.00000000000E+00 -0.22796505584E+04  0.31861583990E+04  0.22259377070E+04 0.  0.
        1    1    3    3  502    0 -0.96590841320E+03 -0.62552024711E+02 -0.35346852312E+03  0.10304522383E+04  0.50400001928E-02 0. -1.
       -1    1    3    3    0  502  0.96590841320E+03  0.62552024711E+02 -0.19261820353E+04  0.21557061608E+04  0.50400001928E-02 0.  1.
</event>
<event>
 5   0  0.5849604E-05  0.2080257E+04  0.7818609E-02  0.8569990E-01
       -1   -1    0    0    0  501  0.00000000000E+00  0.00000000000E+00  0.87402818504E+03  0.87402818506E+03  0.50400001928E-02 0. -1.
        1   -1    0    0  501    0  0.00000000000E+00  0.00000000000E+00 -0.12377949767E+04  0.12377949767E+04  0.50400001928E-02 0.  1.
    10030    2    1    2    0    0  0.00000000000E+00  0.00000000000E+00 -0.36376679165E+03  0.21118231618E+04  0.20802573850E+04 0.  0.
        2    1    3    3  502    0  0.47559458750E+03  0.57371737666E+03 -0.91851496681E+03  0.11827982010E+04  0.25500000920E-02 0.  1.
       -2    1    3    3    0  502 -0.47559458750E+03 -0.57371737666E+03  0.55474817516E+03  0.92902496080E+03  0.25500000920E-02 0. -1.
</event>
<event>
 5   0  0.1404159E-04  0.2176176E+04  0.7818609E-02  0.8528410E-01
       -2   -1    0    0    0  501  0.00000000000E+00  0.00000000000E+00  0.93027745030E+03  0.93027745030E+03  0.25500000920E-02 0. -1.
        2   -1    0    0  501    0  0.00000000000E+00  0.00000000000E+00 -0.12726697656E+04  0.12726697656E+04  0.25500000920E-02 0.  1.
    10030    2    1    2    0    0  0.00000000000E+00  0.00000000000E+00 -0.34239231534E+03  0.22029472159E+04  0.21761764493E+04 0.  0.
        5    1    3    3  502    0 -0.11129902697E+03 -0.60773086248E+03 -0.10778646093E+04  0.12423922410E+04  0.46999998093E+01 0.  1.
       -5    1    3    3    0  502  0.11129902697E+03  0.60773086248E+03  0.73547229397E+03  0.96055497490E+03  0.46999998093E+01 0. -1.
</event>
<event>
 5   0  0.6263558E-05  0.2209233E+04  0.7818609E-02  0.8514595E-01
       -1   -1    0    0    0  501  0.00000000000E+00  0.00000000000E+00  0.90162931925E+03  0.90162931926E+03  0.50400001928E-02 0.  1.
        1   -1    0    0  501    0  0.00000000000E+00  0.00000000000E+00 -0.13533027116E+04  0.13533027116E+04  0.50400001928E-02 0. -1.
    10030    2    1    2    0    0  0.00000000000E+00  0.00000000000E+00 -0.45167339239E+03  0.22549320309E+04  0.22092328104E+04 0.  0.
        3    1    3    3  502    0 -0.66948129569E+03  0.76838678020E+03  0.20906871783E+03  0.10403524346E+04  0.10100000352E+00 0.  1.
       -3    1    3    3    0  502  0.66948129569E+03 -0.76838678020E+03 -0.66074211022E+03  0.12145795963E+04  0.10100000352E+00 0. -1.
</event>
<event>
 5   0  0.6263558E-05  0.2115592E+04  0.7818609E-02  0.8554406E-01
        1   -1    0    0  501    0  0.00000000000E+00  0.00000000000E+00  0.14231953897E+04  0.14231953897E+04  0.50400001928E-02 0.  1.
       -1   -1    0    0    0  501  0.00000000000E+00  0.00000000000E+00 -0.78621143793E+03  0.78621143795E+03  0.50400001928E-02 0. -1.
    10030    2    1    2    0    0  0.00000000000E+00  0.00000000000E+00  0.63698395173E+03  0.22094068276E+04  0.21155921098E+04 0.  0.
        3    1    3    3  502    0  0.90910789231E+03  0.22299316303E+03  0.83301512625E+03  0.12530432241E+04  0.10100000352E+00 0. -1.
       -3    1    3    3    0  502 -0.90910789231E+03 -0.22299316303E+03 -0.19603117452E+03  0.95636360356E+03  0.10100000352E+00 0.  1.
</event>
<event>
 5   0  0.4586375E-05  0.2246202E+04  0.7818609E-02  0.8499440E-01
       -3   -1    0    0    0  501  0.00000000000E+00  0.00000000000E+00  0.10936919126E+04  0.10936919172E+04  0.10100000352E+00 0.  1.
        3   -1    0    0  501    0  0.00000000000E+00  0.00000000000E+00 -0.11533010563E+04  0.11533010607E+04  0.10100000352E+00 0. -1.
    10030    2    1    2    0    0  0.00000000000E+00  0.00000000000E+00 -0.59609143692E+02  0.22469929779E+04  0.22462021709E+04 0.  0.
        1    1    3    3  502    0  0.40870449496E+03 -0.80960052490E+03  0.63289652567E+03  0.11059160847E+04  0.50400001928E-02 0.  1.
       -1    1    3    3    0  502 -0.40870449496E+03  0.80960052490E+03 -0.69250566937E+03  0.11410768932E+04  0.50400001928E-02 0. -1.
</event>
<event>
 5   0  0.5861816E-05  0.2150950E+04  0.7818609E-02  0.8539126E-01
        1   -1    0    0  501    0  0.00000000000E+00  0.00000000000E+00  0.77893687225E+03  0.77893687227E+03  0.50400001928E-02 0. -1.
       -1   -1    0    0    0  501  0.00000000000E+00  0.00000000000E+00 -0.14849041361E+04  0.14849041361E+04  0.50400001928E-02 0.  1.
    10030    2    1    2    0    0  0.00000000000E+00  0.00000000000E+00 -0.70596726386E+03  0.22638410084E+04  0.21509501002E+04 0.  0.
        1    1    3    3  502    0 -0.90932955235E+03  0.46448336655E+03 -0.70837678712E+03  0.12427480457E+04  0.50400001928E-02 0.  1.
       -1    1    3    3    0  502  0.90932955235E+03 -0.46448336655E+03  0.24095232586E+01  0.10210929627E+04  0.50400001928E-02 0. -1.
</event>
<event>
 5   0  0.5849604E-05  0.2166283E+04  0.7818609E-02  0.8532594E-01
       -1   -1    0    0    0  501  0.00000000000E+00  0.00000000000E+00  0.12636862663E+04  0.12636862663E+04  0.50400001928E-02 0.  1.
        1   -1    0    0  501    0  0.00000000000E+00  0.00000000000E+00 -0.92839171344E+03  0.92839171345E+03  0.50400001928E-02 0. -1.
    10030    2    1    2    0    0  0.00000000000E+00  0.00000000000E+00  0.33529455287E+03  0.21920779798E+04  0.21662833222E+04 0.  0.
        2    1    3    3  502    0 -0.55083361102E+03  0.87343264771E+02 -0.77192889600E+03  0.95232385953E+03  0.25500000920E-02 0. -1.
       -2    1    3    3    0  502  0.55083361102E+03 -0.87343264771E+02  0.11072234489E+04  0.12397541202E+04  0.25500000920E-02 0.  1.
</event>
<event>
 5   0  0.5895063E-05  0.2247010E+04  0.7818609E-02  0.8499112E-01
       -1   -1    0    0    0  501  0.00000000000E+00  0.00000000000E+00  0.10054855991E+04  0.10054855991E+04  0.50400001928E-02 0. -1.
        1   -1    0    0  501    0  0.00000000000E+00  0.00000000000E+00 -0.12553768871E+04  0.12553768871E+04  0.50400001928E-02 0.  1.
    10030    2    1    2    0    0  0.00000000000E+00  0.00000000000E+00 -0.24989128801E+03  0.22608624861E+04  0.22470099077E+04 0.  0.
        5    1    3    3  502    0 -0.35307372068E+02  0.53596375573E+03  0.86791915997E+03  0.10206907055E+04  0.46999998093E+01 0. -1.
       -5    1    3    3    0  502  0.35307372068E+02 -0.53596375573E+03 -0.11178104480E+04  0.12401717807E+04  0.46999998093E+01 0.  1.
</event>
<event>
 5   0  0.1404159E-04  0.2197292E+04  0.7818609E-02  0.8519556E-01
        2   -1    0    0  501    0  0.00000000000E+00  0.00000000000E+00  0.85057881732E+03  0.85057881733E+03  0.25500000920E-02 0. -1.
       -2   -1    0    0    0  501  0.00000000000E+00  0.00000000000E+00 -0.14190612790E+04  0.14190612790E+04  0.25500000920E-02 0.  1.
    10030    2    1    2    0    0  0.00000000000E+00  0.00000000000E+00 -0.56848246163E+03  0.22696400963E+04  0.21972923923E+04 0.  0.
        5    1    3    3  502    0  0.97231599513E+03  0.19035946894E+03  0.20611713023E+03  0.10119987565E+04  0.46999998093E+01 0. -1.
       -5    1    3    3    0  502 -0.97231599513E+03 -0.19035946894E+03 -0.77459959186E+03  0.12576413398E+04  0.46999998093E+01 0.  1.
</event>
<event>
 5   0  0.5895063E-05  0.1528214E+04  0.7818609E-02  0.8865905E-01
        1   -1    0    0  501    0  0.00000000000E+00  0.00000000000E+00  0.11668749227E+04  0.11668749227E+04  0.50400001928E-02 0. -1.
       -1   -1    0    0    0  501  0.00000000000E+00  0.00000000000E+00 -0.50036186930E+03  0.50036186932E+03  0.50400001928E-02 0.  1.
    10030    2    1    2    0    0  0.00000000000E+00  0.00000000000E+00  0.66651305342E+03  0.16672367920E+04  0.15282142750E+04 0.  0.
        5    1    3    3  502    0  0.68754501091E+03  0.28760374002E+03  0.14939132990E+03  0.76011440767E+03  0.46999998093E+01 0.  1.
       -5    1    3    3    0  502 -0.68754501091E+03 -0.28760374002E+03  0.51712172352E+03  0.90712238438E+03  0.46999998093E+01 0. -1.
</event>
<event>
 5   0  0.1241430E-04  0.2220275E+04  0.7818609E-02  0.8510036E-01
       -2   -1    0    0    0  501  0.00000000000E+00  0.00000000000E+00  0.60713268665E+03  0.60713268665E+03  0.25500000920E-02 0. -1.
        2   -1    0    0  501    0  0.00000000000E+00  0.00000000000E+00 -0.20298785533E+04  0.20298785533E+04  0.25500000920E-02 0.  1.
    10030    2    1    2    0    0  0.00000000000E+00  0.00000000000E+00 -0.14227458666E+04  0.26370112399E+04  0.22202753159E+04 0.  0.
        1    1    3    3  502    0 -0.68222101961E+03 -0.55626744244E+03  0.92010426161E+02  0.88505644208E+03  0.50400001928E-02 0. -1.
       -1    1    3    3    0  502  0.68222101961E+03  0.55626744244E+03 -0.15147562928E+04  0.17519547978E+04  0.50400001928E-02 0.  1.
</event>
<event>
 5   0  0.5861816E-05  0.2188717E+04  0.7818609E-02  0.8523139E-01
       -1   -1    0    0    0  501  0.00000000000E+00  0.00000000000E+00  0.73761370501E+03  0.73761370503E+03  0.50400001928E-02 0. -1.
        1   -1    0    0  501    0  0.00000000000E+00  0.00000000000E+00 -0.16236425664E+04  0.16236425665E+04  0.50400001928E-02 0.  1.
    10030    2    1    2    0    0  0.00000000000E+00  0.00000000000E+00 -0.88602886144E+03  0.23612562715E+04  0.21887174409E+04 0.  0.
        1    1    3    3  502    0  0.92945652803E+03  0.49154649428E+03 -0.11558678889E+03  0.10577654274E+04  0.50400001928E-02 0.  1.
       -1    1    3    3    0  502 -0.92945652803E+03 -0.49154649428E+03 -0.77044207254E+03  0.13034908441E+04  0.50400001928E-02 0. -1.
</event>
<event>
 5   0  0.1311472E-04  0.2179772E+04  0.7818609E-02  0.8526895E-01
        2   -1    0    0  501    0  0.00000000000E+00  0.00000000000E+00  0.19262313803E+04  0.19262313803E+04  0.25500000920E-02 0.  1.
       -2   -1    0    0    0  501  0.00000000000E+00  0.00000000000E+00 -0.61667151982E+03  0.61667151983E+03  0.25500000920E-02 0. -1.
    10030    2    1    2    0    0  0.00000000000E+00  0.00000000000E+00  0.13095598605E+04  0.25429029001E+04  0.21797724953E+04 0.  0.
        4    1    3    3  502    0 -0.15032413298E+03 -0.64575541964E+03 -0.35434014483E+03  0.75176855354E+03  0.12699999809E+01 0. -1.
       -4    1    3    3    0  502  0.15032413298E+03  0.64575541964E+03  0.16639000053E+04  0.17911343466E+04  0.12699999809E+01 0.  1.
</event>
<event>
 5   0  0.1252124E-04  0.2216719E+04  0.7818609E-02  0.8511501E-01
        2   -1    0    0  501    0  0.00000000000E+00  0.00000000000E+00  0.16255009484E+04  0.16255009484E+04  0.25500000920E-02 0. -1.
       -2   -1    0    0    0  501  0.00000000000E+00  0.00000000000E+00 -0.75574296482E+03  0.75574296482E+03  0.25500000920E-02 0.  1.
    10030    2    1    2    0    0  0.00000000000E+00  0.00000000000E+00  0.86975798363E+03  0.23812439133E+04  0.22167191126E+04 0.  0.
        3    1    3    3  502    0 -0.10693805298E+04 -0.28863007588E+03  0.39219503243E+03  0.11750314855E+04  0.10100000352E+00 0.  1.
       -3    1    3    3    0  502  0.10693805298E+04  0.28863007588E+03  0.47756295120E+03  0.12062124277E+04  0.10100000352E+00 0. -1.
</event>
<event>
 5   0  0.6263558E-05  0.2170379E+04  0.7818609E-02  0.8530859E-01
       -1   -1    0    0    0  501  0.00000000000E+00  0.00000000000E+00  0.71671749447E+03  0.71671749449E+03  0.50400001928E-02 0.  1.
        1   -1    0    0  501    0  0.00000000000E+00  0.00000000000E+00 -0.16430965490E+04  0.16430965490E+04  0.50400001928E-02 0. -1.
    10030    2    1    2    0    0  0.00000000000E+00  0.00000000000E+00 -0.92637905453E+03  0.23598140435E+04  0.21703788073E+04 0.  0.
        3    1    3    3  502    0 -0.13900795175E+02 -0.10830416535E+04 -0.53583084554E+03  0.12084234194E+04  0.10100000352E+00 0. -1.
       -3    1    3    3    0  502  0.13900795175E+02  0.10830416535E+04 -0.39054820899E+03  0.11513906241E+04  0.10100000352E+00 0.  1.
</event>
<event>
 5   0  0.5895063E-05  0.2193686E+04  0.7818609E-02  0.8521061E-01
       -1   -1    0    0    0  501  0.00000000000E+00  0.00000000000E+00  0.11600398975E+04  0.11600398975E+04  0.50400001928E-02 0.  1.
        1   -1    0    0  501    0  0.00000000000E+00  0.00000000000E+00 -0.10370889131E+04  0.10370889131E+04  0.50400001928E-02 0. -1.
    10030    2    1    2    0    0  0.00000000000E+00  0.00000000000E+00  0.12295098442E+03  0.21971288107E+04  0.21936859543E+04 0.  0.
        5    1    3    3  502    0  0.90512579949E+03 -0.22520621827E+03  0.63950504619E+03  0.11309108487E+04  0.46999998093E+01 0.  1.
       -5    1    3    3    0  502 -0.90512579949E+03  0.22520621827E+03 -0.51655406177E+03  0.10662179619E+04  0.46999998093E+01 0. -1.
</event>
<event>
 5   0  0.4586375E-05  0.2171324E+04  0.7818609E-02  0.8530459E-01
       -3   -1    0    0    0  501  0.00000000000E+00  0.00000000000E+00  0.77314821980E+03  0.77314822639E+03  0.10100000352E+00 0.  1.
        3   -1    0    0  501    0  0.00000000000E+00  0.00000000000E+00 -0.15244964644E+04  0.15244964678E+04  0.10100000352E+00 0. -1.
    10030    2    1    2    0    0  0.00000000000E+00  0.00000000000E+00 -0.75134824464E+03  0.22976446942E+04  0.21713237796E+04 0.  0.
        5    1    3    3  502    0  0.69431704905E+03  0.11290745507E+03  0.49936549823E+03  0.86267737239E+03  0.46999998093E+01 0.  1.
       -5    1    3    3    0  502 -0.69431704905E+03 -0.11290745507E+03 -0.12507137429E+04  0.14349673218E+04  0.46999998093E+01 0. -1.
</event>
<event>
 5   0  0.5849604E-05  0.2186267E+04  0.7818609E-02  0.8524166E-01
        1   -1    0    0  501    0  0.00000000000E+00  0.00000000000E+00  0.16112539679E+04  0.16112539679E+04  0.50400001928E-02 0. -1.
       -1   -1    0    0    0  501  0.00000000000E+00  0.00000000000E+00 -0.74162172014E+03  0.74162172016E+03  0.50400001928E-02 0.  1.
    10030    2    1    2    0    0  0.00000000000E+00  0.00000000000E+00  0.86963224776E+03  0.23528756881E+04  0.21862670828E+04 0.  0.
        2    1    3    3  502    0  0.60895936394E+03  0.78410911476E+03 -0.57520389400E+02  0.99446830316E+03  0.25500000920E-02 0.  1.
       -2    1    3    3    0  502 -0.60895936394E+03 -0.78410911476E+03  0.92715263716E+03  0.13584073849E+04  0.25500000920E-02 0. -1.
</event>
<event>
 5   0  0.1252124E-04  0.2205008E+04  0.7818609E-02  0.8516347E-01
       -2   -1    0    0    0  501  0.00000000000E+00  0.00000000000E+00  0.15789805661E+04  0.15789805661E+04  0.25500000920E-02 0.  1.
        2   -1    0    0  501    0  0.00000000000E+00  0.00000000000E+00 -0.76980999250E+03  0.76980999250E+03  0.25500000920E-02 0. -1.
    10030    2    1    2    0    0  0.00000000000E+00  0.00000000000E+00  0.80917057363E+03  0.23487905586E+04  0.22050079526E+04 0.  0.
        3    1    3    3  502    0 -0.46687626615E+03 -0.75852108757E+03  0.10967137743E+04  0.14128371460E+04  0.10100000352E+00 0.  1.
       -3    1    3    3    0  502  0.46687626615E+03  0.75852108757E+03 -0.28754320066E+03  0.93595341264E+03  0.10100000352E+00 0. -1.
</event>
<event>
 5   0  0.1226021E-04  0.2182484E+04  0.7818609E-02  0.8525754E-01
        2   -1    0    0  501    0  0.00000000000E+00  0.00000000000E+00  0.16463464642E+04  0.16463464642E+04  0.25500000920E-02 0.  1.
       -2   -1    0    0    0  501  0.00000000000E+00  0.00000000000E+00 -0.72330408075E+03  0.72330408075E+03  0.25500000920E-02 0. -1.
    10030    2    1    2    0    0  0.00000000000E+00  0.00000000000E+00  0.92304238346E+03  0.23696505450E+04  0.21824840122E+04 0.  0.
        2    1    3    3  502    0  0.14012175216E+03 -0.10142973564E+03  0.16313658905E+04  0.16405111294E+04  0.25500000920E-02 0.  1.
       -2    1    3    3    0  502 -0.14012175216E+03  0.10142973564E+03 -0.70832350709E+03  0.72913941561E+03  0.25500000920E-02 0. -1.
</event>
<event>
 5   0  0.1252124E-04  0.2216547E+04  0.7818609E-02  0.8511572E-01
        2   -1    0    0  501    0  0.00000000000E+00  0.00000000000E+00  0.14058884649E+04  0.14058884649E+04  0.25500000920E-02 0. -1.
       -2   -1    0    0    0  501  0.00000000000E+00  0.00000000000E+00 -0.87366114935E+03  0.87366114935E+03  0.25500000920E-02 0.  1.
    10030    2    1    2    0    0  0.00000000000E+00  0.00000000000E+00  0.53222731557E+03  0.22795496143E+04  0.22165469831E+04 0.  0.
        3    1    3    3  502    0  0.41555946798E+03  0.17632072759E+03  0.13070550475E+04  0.13828129222E+04  0.10100000352E+00 0. -1.
       -3    1    3    3    0  502 -0.41555946798E+03 -0.17632072759E+03 -0.77482773197E+03  0.89673669203E+03  0.10100000352E+00 0.  1.
</event>
<event>
 5   0  0.1226021E-04  0.2201960E+04  0.7818609E-02  0.8517613E-01
        2   -1    0    0  501    0  0.00000000000E+00  0.00000000000E+00  0.14574258436E+04  0.14574258436E+04  0.25500000920E-02 0.  1.
       -2   -1    0    0    0  501  0.00000000000E+00  0.00000000000E+00 -0.83171056292E+03  0.83171056293E+03  0.25500000920E-02 0. -1.
    10030    2    1    2    0    0  0.00000000000E+00  0.00000000000E+00  0.62571528070E+03  0.22891364065E+04  0.22019595535E+04 0.  0.
        2    1    3    3  502    0  0.38126074336E+03  0.96337876132E+02 -0.75621139963E+03  0.85234759444E+03  0.25500000920E-02 0. -1.
       -2    1    3    3    0  502 -0.38126074336E+03 -0.96337876132E+02  0.13819266803E+04  0.14367888121E+04  0.25500000920E-02 0.  1.
</event>
<event>
 5   0  0.1252124E-04  0.1920457E+04  0.7818609E-02  0.8644740E-01
        2   -1    0    0  501    0  0.00000000000E+00  0.00000000000E+00  0.14448221798E+04  0.14448221798E+04  0.25500000920E-02 0. -1.
       -2   -1    0    0    0  501  0.00000000000E+00  0.00000000000E+00 -0.63816766697E+03  0.63816766698E+03  0.25500000920E-02 0.  1.
    10030    2    1    2    0    0  0.00000000000E+00  0.00000000000E+00  0.80665451279E+03  0.20829898467E+04  0.19204570286E+04 0.  0.
        3    1    3    3  502    0  0.44117652013E+03  0.78384001768E+03  0.38727971544E+02  0.90030092814E+03  0.10100000352E+00 0.  1.
       -3    1    3    3    0  502 -0.44117652013E+03 -0.78384001768E+03  0.76792654124E+03  0.11826889186E+04  0.10100000352E+00 0. -1.
</event>
<event>
 5   0  0.1404159E-04  0.2158480E+04  0.7818609E-02  0.8535911E-01
        2   -1    0    0  501    0  0.00000000000E+00  0.00000000000E+00  0.16609829773E+04  0.16609829773E+04  0.25500000920E-02 0. -1.
       -2   -1    0    0    0  501  0.00000000000E+00  0.00000000000E+00 -0.70124705666E+03  0.70124705666E+03  0.25500000920E-02 0.  1.
    10030    2    1    2    0    0  0.00000000000E+00  0.00000000000E+00  0.95973592067E+03  0.23622300340E+04  0.21584804136E+04 0.  0.
        5    1    3    3  502    0  0.12835252335E+03 -0.21122089970E+03  0.16295811188E+04  0.16482249092E+04  0.46999998093E+01 0. -1.
       -5    1    3    3    0  502 -0.12835252335E+03  0.21122089970E+03 -0.66984519812E+03  0.71400512475E+03  0.46999998093E+01 0.  1.
</event>
<event>
 5   0  0.1311472E-04  0.2258591E+04  0.7818609E-02  0.8494429E-01
       -2   -1    0    0    0  501  0.00000000000E+00  0.00000000000E+00  0.45952349684E+03  0.45952349684E+03  0.25500000920E-02 0. -1.
        2   -1    0    0  501    0  0.00000000000E+00  0.00000000000E+00 -0.27752848770E+04  0.27752848770E+04  0.25500000920E-02 0.  1.
    10030    2    1    2    0    0  0.00000000000E+00  0.00000000000E+00 -0.23157613802E+04  0.32348083739E+04  0.22585912525E+04 0.  0.
        4    1    3    3  502    0 -0.47406717399E+03 -0.97956383587E+03 -0.72578084102E+03  0.13080689722E+04  0.12699999809E+01 0. -1.
       -4    1    3    3    0  502  0.47406717399E+03  0.97956383587E+03 -0.15899805392E+04  0.19267394017E+04  0.12699999809E+01 0.  1.
</event>
<event>
 5   0  0.1311472E-04  0.2138937E+04  0.7818609E-02  0.8544283E-01
       -2   -1    0    0    0  501  0.00000000000E+00  0.00000000000E+00  0.77361704102E+03  0.77361704102E+03  0.25500000920E-02 0.  1.
        2   -1    0    0  501    0  0.00000000000E+00  0.00000000000E+00 -0.14784611754E+04  0.14784611754E+04  0.25500000920E-02 0. -1.
    10030    2    1    2    0    0  0.00000000000E+00  0.00000000000E+00 -0.70484413437E+03  0.22520782164E+04  0.21389368946E+04 0.  0.
        4    1    3    3  502    0  0.79091536345E+03  0.54707582149E+03 -0.84506275881E+03  0.12802233187E+04  0.12699999809E+01 0. -1.
       -4    1    3    3    0  502 -0.79091536345E+03 -0.54707582149E+03  0.14021862444E+03  0.97185489768E+03  0.12699999809E+01 0.  1.
</event>
<event>
 5   0  0.5861816E-05  0.2143214E+04  0.7818609E-02  0.8542443E-01
        1   -1    0    0  501    0  0.00000000000E+00  0.00000000000E+00  0.14711575408E+04  0.14711575408E+04  0.50400001928E-02 0. -1.
       -1   -1    0    0    0  501  0.00000000000E+00  0.00000000000E+00 -0.78057007842E+03  0.78057007844E+03  0.50400001928E-02 0.  1.
    10030    2    1    2    0    0  0.00000000000E+00  0.00000000000E+00  0.69058746234E+03  0.22517276192E+04  0.21432139949E+04 0.  0.
        1    1    3    3  502    0  0.54164147781E+03  0.48123803964E+03  0.11748108685E+04  0.13802703062E+04  0.50400001928E-02 0. -1.
       -1    1    3    3    0  502 -0.54164147781E+03 -0.48123803964E+03 -0.48422340620E+03  0.87145731302E+03  0.50400001928E-02 0.  1.
</event>
<event>
 5   0  0.1226021E-04  0.2195675E+04  0.7818609E-02  0.8520230E-01
        2   -1    0    0  501    0  0.00000000000E+00  0.00000000000E+00  0.19637988651E+04  0.19637988651E+04  0.25500000920E-02 0.  1.
       -2   -1    0    0    0  501  0.00000000000E+00  0.00000000000E+00 -0.61373258967E+03  0.61373258968E+03  0.25500000920E-02 0. -1.
    10030    2    1    2    0    0  0.00000000000E+00  0.00000000000E+00  0.13500662754E+04  0.25775314548E+04  0.21956751700E+04 0.  0.
        2    1    3    3  502    0  0.15643410769E+03 -0.10790815903E+04  0.82517772228E+03  0.13674088569E+04  0.25500000920E-02 0. -1.
       -2    1    3    3    0  502 -0.15643410769E+03  0.10790815903E+04  0.52488855316E+03  0.12101225979E+04  0.25500000920E-02 0.  1.
</event>
<event>
 5   0  0.5895063E-05  0.2146697E+04  0.7818609E-02  0.8540948E-01
       -1   -1    0    0    0  501  0.00000000000E+00  0.00000000000E+00  0.76663889888E+03  0.76663889890E+03  0.50400001928E-02 0. -1.
        1   -1    0    0  501    0  0.00000000000E+00  0.00000000000E+00 -0.15027632004E+04  0.15027632004E+04  0.50400001928E-02 0.  1.
    10030    2    1    2    0    0  0.00000000000E+00  0.00000000000E+00 -0.73612430155E+03  0.22694020993E+04  0.21466967418E+04 0.  0.
        5    1    3    3  502    0 -0.24816979419E+03  0.90021930457E+03 -0.92753019481E+03  0.13161752905E+04  0.46999998093E+01 0.  1.
       -5    1    3    3    0  502  0.24816979419E+03 -0.90021930457E+03  0.19140589326E+03  0.95322680882E+03  0.46999998093E+01 0. -1.
</event>
<event>
 5   0  0.5981239E-05  0.2212956E+04  0.7818609E-02  0.8513055E-01
        1   -1    0    0  501    0  0.00000000000E+00  0.00000000000E+00  0.13277711308E+04  0.13277711308E+04  0.50400001928E-02 0.  1.
       -1   -1    0    0    0  501  0.00000000000E+00  0.00000000000E+00 -0.92206704736E+03  0.92206704738E+03  0.50400001928E-02 0. -1.
    10030    2    1    2    0    0  0.00000000000E+00  0.00000000000E+00  0.40570408341E+03  0.22498381782E+04  0.22129563992E+04 0.  0.
        4    1    3    3  502    0 -0.38468186949E+03 -0.95700195601E+03  0.61010209889E+03  0.11983568202E+04  0.12699999809E+01 0.  1.
       -4    1    3    3    0  502  0.38468186949E+03  0.95700195601E+03 -0.20439801548E+03  0.10514813580E+04  0.12699999809E+01 0. -1.
</event>
<event>
 5   0  0.5895063E-05  0.2190558E+04  0.7818609E-02  0.8522368E-01
       -1   -1    0    0    0  501  0.00000000000E+00  0.00000000000E+00  0.10154144623E+04  0.10154144623E+04  0.50400001928E-02 0. -1.
        1   -1    0    0  501    0  0.00000000000E+00  0.00000000000E+00 -0.11814248551E+04  0.11814248551E+04  0.50400001928E-02 0.  1.
    10030    2    1    2    0    0  0.00000000000E+00  0.00000000000E+00 -0.16601039277E+03  0.21968393175E+04  0.21905578139E+04 0.  0.
        5    1    3    3  502    0  0.21425582051E+03 -0.89789626589E+03 -0.67417883730E+03  0.11430933713E+04  0.46999998093E+01 0.  1.
       -5    1    3    3    0  502 -0.21425582051E+03  0.89789626589E+03  0.50816844454E+03  0.10537459461E+04  0.46999998093E+01 0. -1.
</event>
<event>
 5   0  0.1241430E-04  0.2200201E+04  0.7818609E-02  0.8518345E-01
       -2   -1    0    0    0  501  0.00000000000E+00  0.00000000000E+00  0.78815317106E+03  0.78815317107E+03  0.25500000920E-02 0. -1.
        2   -1    0    0  501    0  0.00000000000E+00  0.00000000000E+00 -0.15355145621E+04  0.15355145621E+04  0.25500000920E-02 0.  1.
    10030    2    1    2    0    0  0.00000000000E+00  0.00000000000E+00 -0.74736139106E+03  0.23236677332E+04  0.22002006012E+04 0.  0.
        1    1    3    3  502    0 -0.73715833899E+03 -0.81604351085E+03 -0.40520966764E+03  0.11719745318E+04  0.50400001928E-02 0. -1.
       -1    1    3    3    0  502  0.73715833899E+03  0.81604351085E+03 -0.34215172341E+03  0.11516932014E+04  0.50400001928E-02 0.  1.
</event>
<event>
 5   0  0.1252124E-04  0.2164508E+04  0.7818609E-02  0.8533348E-01
       -2   -1    0    0    0  501  0.00000000000E+00  0.00000000000E+00  0.11257974729E+04  0.11257974729E+04  0.25500000920E-02 0. -1.
        2   -1    0    0  501    0  0.00000000000E+00  0.00000000000E+00 -0.10403948003E+04  0.10403948003E+04  0.25500000920E-02 0.  1.
    10030    2    1    2    0    0  0.00000000000E+00  0.00000000000E+00  0.85402672638E+02  0.21661922731E+04  0.21645081076E+04 0.  0.
        3    1    3    3  502    0 -0.43607392933E+03  0.12310940125E+03  0.10262973936E+04  0.11218746574E+04  0.10100000352E+00 0. -1.
       -3    1    3    3    0  502  0.43607392933E+03 -0.12310940125E+03 -0.94089472096E+03  0.10443176158E+04  0.10100000352E+00 0.  1.
</event>
<event>
 5   0  0.1404159E-04  0.2193051E+04  0.7818609E-02  0.8521326E-01
        2   -1    0    0  501    0  0.00000000000E+00  0.00000000000E+00  0.11618744283E+04  0.11618744284E+04  0.25500000920E-02 0.  1.
       -2   -1    0    0    0  501  0.00000000000E+00  0.00000000000E+00 -0.10348517118E+04  0.10348517118E+04  0.25500000920E-02 0. -1.
    10030    2    1    2    0    0  0.00000000000E+00  0.00000000000E+00  0.12702271659E+03  0.21967261401E+04  0.21930506068E+04 0.  0.
        5    1    3    3  502    0  0.54499329551E+03 -0.91591182062E+03  0.32169030057E+03  0.11132919180E+04  0.46999998093E+01 0.  1.
       -5    1    3    3    0  502 -0.54499329551E+03  0.91591182062E+03 -0.19466758397E+03  0.10834342221E+04  0.46999998093E+01 0. -1.
</event>
<event>
 5   0  0.5895063E-05  0.2220214E+04  0.7818609E-02  0.8510061E-01
       -1   -1    0    0    0  501  0.00000000000E+00  0.00000000000E+00  0.82776921889E+03  0.82776921890E+03  0.50400001928E-02 0. -1.
        1   -1    0    0  501    0  0.00000000000E+00  0.00000000000E+00 -0.14887457713E+04  0.14887457713E+04  0.50400001928E-02 0.  1.
    10030    2    1    2    0    0  0.00000000000E+00  0.00000000000E+00 -0.66097655238E+03  0.23165149902E+04  0.22202143358E+04 0.  0.
        5    1    3    3  502    0  0.94578990610E+02 -0.70665822587E+03 -0.12182796793E+04  0.14115730589E+04  0.46999998093E+01 0.  1.
       -5    1    3    3    0  502 -0.94578990610E+02  0.70665822587E+03  0.55730312694E+03  0.90494193126E+03  0.46999998093E+01 0. -1.
</event>
<event>
 5   0  0.1252124E-04  0.2177498E+04  0.7818609E-02  0.8527853E-01
       -2   -1    0    0    0  501  0.00000000000E+00  0.00000000000E+00  0.90881499293E+03  0.90881499293E+03  0.25500000920E-02 0.  1.
        2   -1    0    0  501    0  0.00000000000E+00  0.00000000000E+00 -0.13043079762E+04  0.13043079762E+04  0.25500000920E-02 0. -1.
    10030    2    1    2    0    0  0.00000000000E+00  0.00000000000E+00 -0.39549298326E+03  0.22131229691E+04  0.21774982380E+04 0.  0.
        3    1    3    3  502    0 -0.10256632411E+04 -0.21585019984E+03 -0.49718192815E+03  0.11600716671E+04  0.10100000352E+00 0.  1.
       -3    1    3    3    0  502  0.10256632411E+04  0.21585019984E+03  0.10168894489E+03  0.10530513020E+04  0.10100000352E+00 0. -1.
</event>
<event>
 5   0  0.1311472E-04  0.2204026E+04  0.7818609E-02  0.8516754E-01
       -2   -1    0    0    0  501  0.00000000000E+00  0.00000000000E+00  0.72401082159E+03  0.72401082160E+03  0.25500000920E-02 0.  1.
        2   -1    0    0  501    0  0.00000000000E+00  0.00000000000E+00 -0.16773681248E+04  0.16773681248E+04  0.25500000920E-02 0. -1.
    10030    2    1    2    0    0  0.00000000000E+00  0.00000000000E+00 -0.95335730323E+03  0.24013789464E+04  0.22040260200E+04 0.  0.
        4    1    3    3  502    0  0.75817793561E+03  0.48132145537E+03 -0.11725599626E+04  0.14769572114E+04  0.12699999809E+01 0. -1.
       -4    1    3    3    0  502 -0.75817793561E+03 -0.48132145537E+03  0.21920265937E+03  0.92442173505E+03  0.12699999809E+01 0.  1.
</event>
<event>
 5   0  0.1404159E-04  0.2273523E+04  0.7818609E-02  0.8488434E-01
        2   -1    0    0  501    0  0.00000000000E+00  0.00000000000E+00  0.76161511827E+03  0.76161511828E+03  0.25500000920E-02 0. -1.
       -2   -1    0    0    0  501  0.00000000000E+00  0.00000000000E+00 -0.16966928880E+04  0.16966928880E+04  0.25500000920E-02 0.  1.
    10030    2    1    2    0    0  0.00000000000E+00  0.00000000000E+00 -0.93507776975E+03  0.24583080063E+04  0.22735232170E+04 0.  0.
        5    1    3    3  502    0 -0.98346101399E+03  0.34151197082E+03  0.26048150320E+02  0.10414060632E+04  0.46999998093E+01 0.  1.
       -5    1    3    3    0  502  0.98346101399E+03 -0.34151197082E+03 -0.96112592007E+03  0.14169019431E+04  0.46999998093E+01 0. -1.
</event>
<event>
 5   0  0.5895063E-05  0.2338634E+04  0.7818609E-02  0.8462842E-01
       -1   -1    0    0    0  501  0.00000000000E+00  0.00000000000E+00  0.10535185813E+04  0.10535185813E+04  0.50400001928E-02 0. -1.
        1   -1    0    0  501    0  0.00000000000E+00  0.00000000000E+00 -0.12978431407E+04  0.12978431407E+04  0.50400001928E-02 0.  1.
    10030    2    1    2    0    0  0.00000000000E+00  0.00000000000E+00 -0.24432455931E+03  0.23513617220E+04  0.23386336732E+04 0.  0.
        5    1    3    3  502    0 -0.74710309078E+03  0.66091360146E+01  0.78221806927E+03  0.10817087902E+04  0.46999998093E+01 0. -1.
       -5    1    3    3    0  502  0.74710309078E+03 -0.66091360146E+01 -0.10265426286E+04  0.12696529318E+04  0.46999998093E+01 0.  1.
</event>
<event>
 5   0  0.1252124E-04  0.1858036E+04  0.7818609E-02  0.8676031E-01
        2   -1    0    0  501    0  0.00000000000E+00  0.00000000000E+00  0.18744895867E+04  0.18744895867E+04  0.25500000920E-02 0. -1.
       -2   -1    0    0    0  501  0.00000000000E+00  0.00000000000E+00 -0.46043160877E+03  0.46043160878E+03  0.25500000920E-02 0.  1.
    10030    2    1    2    0    0  0.00000000000E+00  0.00000000000E+00  0.14140579779E+04  0.23349211955E+04  0.18580357973E+04 0.  0.
        3    1    3    3  502    0 -0.55461853528E+03  0.12975493602E+03 -0.21525764001E+03  0.60891208305E+03  0.10100000352E+00 0.  1.
       -3    1    3    3    0  502  0.55461853528E+03 -0.12975493602E+03  0.16293156180E+04  0.17260091124E+04  0.10100000352E+00 0. -1.
</event>
<event>
 5   0  0.1241430E-04  0.2219240E+04  0.7818609E-02  0.8510463E-01
        2   -1    0    0  501    0  0.00000000000E+00  0.00000000000E+00  0.95016238508E+03  0.95016238509E+03  0.25500000920E-02 0. -1.
       -2   -1    0    0    0  501  0.00000000000E+00  0.00000000000E+00 -0.12958377476E+04  0.12958377476E+04  0.25500000920E-02 0.  1.
    10030    2    1    2    0    0  0.00000000000E+00  0.00000000000E+00 -0.34567536247E+03  0.22460001326E+04  0.22192397661E+04 0.  0.
        1    1    3    3  502    0  0.97117390322E+03  0.49696084766E+03 -0.37803223182E+03  0.11545809641E+04  0.50400001928E-02 0.  1.
       -1    1    3    3    0  502 -0.97117390322E+03 -0.49696084766E+03  0.32356869350E+02  0.10914191685E+04  0.50400001928E-02 0. -1.
</event>
<event>
 5   0  0.1311472E-04  0.2182224E+04  0.7818609E-02  0.8525864E-01
       -2   -1    0    0    0  501  0.00000000000E+00  0.00000000000E+00  0.14690159132E+04  0.14690159132E+04  0.25500000920E-02 0. -1.
        2   -1    0    0  501    0  0.00000000000E+00  0.00000000000E+00 -0.81042341284E+03  0.81042341285E+03  0.25500000920E-02 0.  1.
    10030    2    1    2    0    0  0.00000000000E+00  0.00000000000E+00  0.65859250034E+03  0.22794393260E+04  0.21822235357E+04 0.  0.
        4    1    3    3  502    0 -0.79579608921E+03 -0.63913539880E+03  0.73214264646E+03  0.12561130289E+04  0.12699999809E+01 0. -1.
       -4    1    3    3    0  502  0.79579608921E+03  0.63913539880E+03 -0.73550146119E+02  0.10233262972E+04  0.12699999809E+01 0.  1.
</event>
<event>
 5   0  0.1241430E-04  0.2200115E+04  0.7818609E-02  0.8518380E-01
       -2   -1    0    0    0  501  0.00000000000E+00  0.00000000000E+00  0.15879295518E+04  0.15879295518E+04  0.25500000920E-02 0. -1.
        2   -1    0    0  501    0  0.00000000000E+00  0.00000000000E+00 -0.76207847943E+03  0.76207847943E+03  0.25500000920E-02 0.  1.
    10030    2    1    2    0    0  0.00000000000E+00  0.00000000000E+00  0.82585107233E+03  0.23500080312E+04  0.22001153954E+04 0.  0.
        1    1    3    3  502    0  0.24270026383E+03 -0.63499472507E+03  0.13367217980E+04  0.14996489204E+04  0.50400001928E-02 0. -1.
       -1    1    3    3    0  502 -0.24270026383E+03  0.63499472507E+03 -0.51087072572E+03  0.85035911082E+03  0.50400001928E-02 0.  1.
</event>
<event>
 5   0  0.1252124E-04  0.2467815E+04  0.7818609E-02  0.8414542E-01
       -2   -1    0    0    0  501  0.00000000000E+00  0.00000000000E+00  0.92774708914E+03  0.92774708914E+03  0.25500000920E-02 0. -1.
        2   -1    0    0  501    0  0.00000000000E+00  0.00000000000E+00 -0.16411018052E+04  0.16411018052E+04  0.25500000920E-02 0.  1.
    10030    2    1    2    0    0  0.00000000000E+00  0.00000000000E+00 -0.71335471604E+03  0.25688488943E+04  0.24678147603E+04 0.  0.
        3    1    3    3  502    0  0.95922655219E+03  0.18726020643E+03  0.42738352828E+03  0.10666952019E+04  0.10100000352E+00 0. -1.
       -3    1    3    3    0  502 -0.95922655219E+03 -0.18726020643E+03 -0.11407382443E+04  0.15021536924E+04  0.10100000352E+00 0.  1.
</event>
<event>
 5   0  0.1226021E-04  0.2218798E+04  0.7818609E-02  0.8510644E-01
       -2   -1    0    0    0  501  0.00000000000E+00  0.00000000000E+00  0.12128653646E+04  0.12128653647E+04  0.25500000920E-02 0. -1.
        2   -1    0    0  501    0  0.00000000000E+00  0.00000000000E+00 -0.10147592248E+04  0.10147592248E+04  0.25500000920E-02 0.  1.
    10030    2    1    2    0    0  0.00000000000E+00  0.00000000000E+00  0.19810613987E+03  0.22276245894E+04  0.22187981586E+04 0.  0.
        2    1    3    3  502    0 -0.84675308616E+03  0.67835121251E+03  0.33152365715E+03  0.11344862677E+04  0.25500000920E-02 0. -1.
       -2    1    3    3    0  502  0.84675308616E+03 -0.67835121251E+03 -0.13341751728E+03  0.10931383217E+04  0.25500000920E-02 0.  1.
</event>
<event>
 5   0  0.1241430E-04  0.2202186E+04  0.7818609E-02  0.8517519E-01
       -2   -1    0    0    0  501  0.00000000000E+00  0.00000000000E+00  0.78029800689E+03  0.78029800690E+03  0.25500000920E-02 0.  1.
        2   -1    0    0  501    0  0.00000000000E+00  0.00000000000E+00 -0.15537726149E+04  0.15537726149E+04  0.25500000920E-02 0. -1.
    10030    2    1    2    0    0  0.00000000000E+00  0.00000000000E+00 -0.77347460800E+03  0.23340706218E+04  0.22021858909E+04 0.  0.
        1    1    3    3  502    0 -0.85001588201E+03  0.69060158694E+03 -0.50734177957E+03  0.12070017535E+04  0.50400001928E-02 0.  1.
       -1    1    3    3    0  502  0.85001588201E+03 -0.69060158694E+03 -0.26613282843E+03  0.11270688683E+04  0.50400001928E-02 0. -1.
</event>
<event>
 5   0  0.1226021E-04  0.2169200E+04  0.7818609E-02  0.8531358E-01
        2   -1    0    0  501    0  0.00000000000E+00  0.00000000000E+00  0.13824105205E+04  0.13824105205E+04  0.25500000920E-02 0.  1.
       -2   -1    0    0    0  501  0.00000000000E+00  0.00000000000E+00 -0.85094647728E+03  0.85094647728E+03  0.25500000920E-02 0. -1.
    10030    2    1    2    0    0  0.00000000000E+00  0.00000000000E+00  0.53146404320E+03  0.22333569978E+04  0.21692001868E+04 0.  0.
        2    1    3    3  502    0  0.26890748216E+03  0.68967948425E+03 -0.55042284525E+03  0.92246102006E+03  0.25500000920E-02 0. -1.
       -2    1    3    3    0  502 -0.26890748216E+03 -0.68967948425E+03  0.10818868884E+04  0.13108959777E+04  0.25500000920E-02 0.  1.
</event>
<event>
 5   0  0.5861816E-05  0.2210878E+04  0.7818609E-02  0.8513914E-01
        1   -1    0    0  501    0  0.00000000000E+00  0.00000000000E+00  0.86034446298E+03  0.86034446300E+03  0.50400001928E-02 0. -1.
       -1   -1    0    0    0  501  0.00000000000E+00  0.00000000000E+00 -0.14203558988E+04  0.14203558988E+04  0.50400001928E-02 0.  1.
    10030    2    1    2    0    0  0.00000000000E+00  0.00000000000E+00 -0.56001143582E+03  0.22807003618E+04  0.22108779550E+04 0.  0.
        1    1    3    3  502    0 -0.53527456605E+03 -0.26739623863E+03 -0.12388635764E+04  0.13757916160E+04  0.50400001928E-02 0.  1.
       -1    1    3    3    0  502  0.53527456605E+03  0.26739623863E+03  0.67885214061E+03  0.90490874586E+03  0.50400001928E-02 0. -1.
</event>
<event>
 5   0  0.5849604E-05  0.2219750E+04  0.7818609E-02  0.8510253E-01
       -1   -1    0    0    0  501  0.00000000000E+00  0.00000000000E+00  0.10110458930E+04  0.10110458930E+04  0.50400001928E-02 0.  1.
        1   -1    0    0  501    0  0.00000000000E+00  0.00000000000E+00 -0.12183642186E+04  0.12183642186E+04  0.50400001928E-02 0. -1.
    10030    2    1    2    0    0  0.00000000000E+00  0.00000000000E+00 -0.20731832566E+03  0.22294101116E+04  0.22197496610E+04 0.  0.
        2    1    3    3  502    0 -0.38626798991E+03  0.90970947120E+03 -0.61087967466E+03  0.11618727378E+04  0.25500000920E-02 0. -1.
       -2    1    3    3    0  502  0.38626798991E+03 -0.90970947120E+03  0.40356134900E+03  0.10675373738E+04  0.25500000920E-02 0.  1.
</event>
<event>
 5   0  0.5981239E-05  0.2083858E+04  0.7818609E-02  0.8568387E-01
        1   -1    0    0  501    0  0.00000000000E+00  0.00000000000E+00  0.13356733215E+04  0.13356733215E+04  0.50400001928E-02 0.  1.
       -1   -1    0    0    0  501  0.00000000000E+00  0.00000000000E+00 -0.81278573435E+03  0.81278573436E+03  0.50400001928E-02 0. -1.
    10030    2    1    2    0    0  0.00000000000E+00  0.00000000000E+00  0.52288758714E+03  0.21484590559E+04  0.20838581732E+04 0.  0.
        4    1    3    3  502    0 -0.24068675040E+03  0.10102663110E+04  0.17489819908E+03  0.10531662375E+04  0.12699999809E+01 0.  1.
       -4    1    3    3    0  502  0.24068675040E+03 -0.10102663110E+04  0.34798938807E+03  0.10952928184E+04  0.12699999809E+01 0. -1.
</event>
<event>
 5   0  0.5895063E-05  0.2192109E+04  0.7818609E-02  0.8521720E-01
       -1   -1    0    0    0  501  0.00000000000E+00  0.00000000000E+00  0.77538229456E+03  0.77538229457E+03  0.50400001928E-02 0.  1.
        1   -1    0    0  501    0  0.00000000000E+00  0.00000000000E+00 -0.15493463287E+04  0.15493463287E+04  0.50400001928E-02 0. -1.
    10030    2    1    2    0    0  0.00000000000E+00  0.00000000000E+00 -0.77396403418E+03  0.23247286233E+04  0.21921092231E+04 0.  0.
        5    1    3    3  502    0  0.73734857797E+02  0.10383461912E+04 -0.23130580096E+02  0.10412284839E+04  0.46999998093E+01 0. -1.
       -5    1    3    3    0  502 -0.73734857797E+02 -0.10383461912E+04 -0.75083345409E+03  0.12835001394E+04  0.46999998093E+01 0.  1.
</event>
<event>
 5   0  0.1252124E-04  0.2202999E+04  0.7818609E-02  0.8517181E-01
       -2   -1    0    0    0  501  0.00000000000E+00  0.00000000000E+00  0.98882823172E+03  0.98882823172E+03  0.25500000920E-02 0. -1.
        2   -1    0    0  501    0  0.00000000000E+00  0.00000000000E+00 -0.12270093964E+04  0.12270093964E+04  0.25500000920E-02 0.  1.
    10030    2    1    2    0    0  0.00000000000E+00  0.00000000000E+00 -0.23818116464E+03  0.22158376281E+04  0.22029993479E+04 0.  0.
        3    1    3    3  502    0 -0.82911293680E+03 -0.60124295041E+03  0.28871041402E+03  0.10640841418E+04  0.10100000352E+00 0. -1.
       -3    1    3    3    0  502  0.82911293680E+03  0.60124295041E+03 -0.52689157867E+03  0.11517534863E+04  0.10100000352E+00 0.  1.
</event>
<event>
 5   0  0.1252124E-04  0.2151350E+04  0.7818609E-02  0.8538955E-01
       -2   -1    0    0    0  501  0.00000000000E+00  0.00000000000E+00  0.61977410949E+03  0.61977410950E+03  0.25500000920E-02 0. -1.
        2   -1    0    0  501    0  0.00000000000E+00  0.00000000000E+00 -0.18669328321E+04  0.18669328321E+04  0.25500000920E-02 0.  1.
    10030    2    1    2    0    0  0.00000000000E+00  0.00000000000E+00 -0.12471587226E+04  0.24867069416E+04  0.21513499329E+04 0.  0.
        3    1    3    3  502    0  0.96902138122E+03  0.14163865922E+03 -0.11379309032E+04  0.15013163217E+04  0.10100000352E+00 0. -1.
       -3    1    3    3    0  502 -0.96902138122E+03 -0.14163865922E+03 -0.10922781937E+03  0.98539061989E+03  0.10100000352E+00 0.  1.
</event>
<event>
 5   0  0.6263558E-05  0.2196306E+04  0.7818609E-02  0.8519967E-01
       -1   -1    0    0    0  501  0.00000000000E+00  0.00000000000E+00  0.10249101807E+04  0.10249101807E+04  0.50400001928E-02 0.  1.
        1   -1    0    0  501    0  0.00000000000E+00  0.00000000000E+00 -0.11766299066E+04  0.11766299066E+04  0.50400001928E-02 0. -1.
    10030    2    1    2    0    0  0.00000000000E+00  0.00000000000E+00 -0.15171972587E+03  0.22015400873E+04  0.21963059625E+04 0.  0.
        3    1    3    3  502    0 -0.65682569613E+03  0.49303081339E+03 -0.80659689130E+03  0.11511289820E+04  0.10100000352E+00 0. -1.
       -3    1    3    3    0  502  0.65682569613E+03 -0.49303081339E+03  0.65487716543E+03  0.10504111053E+04  0.10100000352E+00 0.  1.
</event>
<event>
 5   0  0.5981239E-05  0.2163108E+04  0.7818609E-02  0.8533942E-01
       -1   -1    0    0    0  501  0.00000000000E+00  0.00000000000E+00  0.60245028200E+03  0.60245028202E+03  0.50400001928E-02 0. -1.
        1   -1    0    0  501    0  0.00000000000E+00  0.00000000000E+00 -0.19416695428E+04  0.19416695429E+04  0.50400001928E-02 0.  1.
    10030    2    1    2    0    0  0.00000000000E+00  0.00000000000E+00 -0.13392192608E+04  0.25441198249E+04  0.21631082855E+04 0.  0.
        4    1    3    3  502    0 -0.10280738177E+04 -0.24617977577E+03 -0.40084797072E+03  0.11305843468E+04  0.12699999809E+01 0. -1.
       -4    1    3    3    0  502  0.10280738177E+04  0.24617977577E+03 -0.93837129013E+03  0.14135354781E+04  0.12699999809E+01 0.  1.
</event>
<event>
 5   0  0.5895063E-05  0.2160981E+04  0.7818609E-02  0.8534846E-01
        1   -1    0    0  501    0  0.00000000000E+00  0.00000000000E+00  0.84750518944E+03  0.84750518945E+03  0.50400001928E-02 0. -1.
       -1   -1    0    0    0  501  0.00000000000E+00  0.00000000000E+00 -0.13775253115E+04  0.13775253115E+04  0.50400001928E-02 0.  1.
    10030    2    1    2    0    0  0.00000000000E+00  0.00000000000E+00 -0.53002012206E+03  0.22250305010E+04  0.21609811199E+04 0.  0.
        5    1    3    3  502    0 -0.19050630976E+03  0.88950485896E+03 -0.86532247386E+03  0.12555144850E+04  0.46999998093E+01 0.  1.
       -5    1    3    3    0  502  0.19050630976E+03 -0.88950485896E+03  0.33530235180E+03  0.96951601601E+03  0.46999998093E+01 0. -1.
</event>
<event>
 5   0  0.1311472E-04  0.2201004E+04  0.7818609E-02  0.8518010E-01
       -2   -1    0    0    0  501  0.00000000000E+00  0.00000000000E+00  0.10285925083E+04  0.10285925083E+04  0.25500000920E-02 0. -1.
        2   -1    0    0  501    0  0.00000000000E+00  0.00000000000E+00 -0.11774392056E+04  0.11774392056E+04  0.25500000920E-02 0.  1.
    10030    2    1    2    0    0  0.00000000000E+00  0.00000000000E+00 -0.14884669737E+03  0.22060317139E+04  0.22010044488E+04 0.  0.
        4    1    3    3  502    0  0.29159757653E+03 -0.10572760293E+04 -0.16541497949E+03  0.11091552990E+04  0.12699999809E+01 0. -1.
       -4    1    3    3    0  502 -0.29159757653E+03  0.10572760293E+04  0.16568282125E+02  0.10968764150E+04  0.12699999809E+01 0.  1.
</event>
<event>
 5   0  0.1311472E-04  0.1671769E+04  0.7818609E-02  0.8777632E-01
        2   -1    0    0  501    0  0.00000000000E+00  0.00000000000E+00  0.15871235346E+04  0.15871235346E+04  0.25500000920E-02 0. -1.
       -2   -1    0    0    0  501  0.00000000000E+00  0.00000000000E+00 -0.44023195034E+03  0.44023195035E+03  0.25500000920E-02 0.  1.
    10030    2    1    2    0    0  0.00000000000E+00  0.00000000000E+00  0.11468915842E+04  0.20273554849E+04  0.16717685116E+04 0.  0.
        4    1    3    3  502    0  0.36476813446E+03 -0.74531489350E+03  0.69562681819E+03  0.10827965485E+04  0.12699999809E+01 0. -1.
       -4    1    3    3    0  502 -0.36476813446E+03  0.74531489350E+03  0.45126476606E+03  0.94455893642E+03  0.12699999809E+01 0.  1.
</event>
<event>
 5   0  0.1252124E-04  0.2158140E+04  0.7818609E-02  0.8536056E-01
       -2   -1    0    0    0  501  0.00000000000E+00  0.00000000000E+00  0.10363340435E+04  0.10363340435E+04  0.25500000920E-02 0.  1.
        2   -1    0    0  501    0  0.00000000000E+00  0.00000000000E+00 -0.11235686454E+04  0.11235686455E+04  0.25500000920E-02 0. -1.
    10030    2    1    2    0    0  0.00000000000E+00  0.00000000000E+00 -0.87234601935E+02  0.21599026890E+04  0.21581403453E+04 0.  0.
        3    1    3    3  502    0  0.59681539122E+03  0.87230477164E+03  0.17401878149E+03  0.10711614128E+04  0.10100000352E+00 0.  1.
       -3    1    3    3    0  502 -0.59681539122E+03 -0.87230477164E+03 -0.26125338342E+03  0.10887412761E+04  0.10100000352E+00 0. -1.
</event>
<event>
 5   0  0.5861816E-05  0.2136224E+04  0.7818609E-02  0.8545452E-01
       -1   -1    0    0    0  501  0.00000000000E+00  0.00000000000E+00  0.64634311107E+03  0.64634311109E+03  0.50400001928E-02 0. -1.
        1   -1    0    0  501    0  0.00000000000E+00  0.00000000000E+00 -0.17651050494E+04  0.17651050494E+04  0.50400001928E-02 0.  1.
    10030    2    1    2    0    0  0.00000000000E+00  0.00000000000E+00 -0.11187619383E+04  0.24114481605E+04  0.21362242289E+04 0.  0.
        1    1    3    3  502    0  0.97439148772E+03  0.93486270816E+02 -0.10418645958E+04  0.14295664693E+04  0.50400001928E-02 0.  1.
       -1    1    3    3    0  502 -0.97439148772E+03 -0.93486270816E+02 -0.76897342515E+02  0.98188169118E+03  0.50400001928E-02 0. -1.
</event>
<event>
 5   0  0.1311472E-04  0.2218018E+04  0.7818609E-02  0.8510966E-01
        2   -1    0    0  501    0  0.00000000000E+00  0.00000000000E+00  0.54736785963E+03  0.54736785964E+03  0.25500000920E-02 0.  1.
       -2   -1    0    0    0  501  0.00000000000E+00  0.00000000000E+00 -0.22469361930E+04  0.22469361930E+04  0.25500000920E-02 0. -1.
    10030    2    1    2    0    0  0.00000000000E+00  0.00000000000E+00 -0.16995683334E+04  0.27943040526E+04  0.22180177228E+04 0.  0.
        4    1    3    3  502    0  0.11344107048E+03  0.89513387935E+03 -0.16621148821E+04  0.18912326754E+04  0.12699999809E+01 0. -1.
       -4    1    3    3    0  502 -0.11344107048E+03 -0.89513387935E+03 -0.37453451284E+02  0.90307137722E+03  0.12699999809E+01 0.  1.
</event>
<event>
 5   0  0.5981239E-05  0.2372427E+04  0.7818609E-02  0.8449899E-01
       -1   -1    0    0    0  501  0.00000000000E+00  0.00000000000E+00  0.16047794692E+04  0.16047794692E+04  0.50400001928E-02 0. -1.
        1   -1    0    0  501    0  0.00000000000E+00  0.00000000000E+00 -0.87681998862E+03  0.87681998864E+03  0.50400001928E-02 0.  1.
    10030    2    1    2    0    0  0.00000000000E+00  0.00000000000E+00  0.72795948058E+03  0.24815994578E+04  0.23724272094E+04 0.  0.
        4    1    3    3  502    0 -0.42847724001E+03  0.32493395343E+03  0.14699549000E+04  0.15652296446E+04  0.12699999809E+01 0. -1.
       -4    1    3    3    0  502  0.42847724001E+03 -0.32493395343E+03 -0.74199541944E+03  0.91636981326E+03  0.12699999809E+01 0.  1.
</event>
<event>
 5   0  0.1241430E-04  0.2192922E+04  0.7818609E-02  0.8521380E-01
       -2   -1    0    0    0  501  0.00000000000E+00  0.00000000000E+00  0.87009520302E+03  0.87009520302E+03  0.25500000920E-02 0.  1.
        2   -1    0    0  501    0  0.00000000000E+00  0.00000000000E+00 -0.13817188533E+04  0.13817188533E+04  0.25500000920E-02 0. -1.
    10030    2    1    2    0    0  0.00000000000E+00  0.00000000000E+00 -0.51162365030E+03  0.22518140563E+04  0.21929222022E+04 0.  0.
        1    1    3    3  502    0  0.21489966433E+03  0.26381649388E+03 -0.13261311369E+04  0.13690890403E+04  0.50400001928E-02 0. -1.
       -1    1    3    3    0  502 -0.21489966433E+03 -0.26381649388E+03  0.81450748657E+03  0.88272501600E+03  0.50400001928E-02 0.  1.
</event>
<event>
 5   0  0.1404159E-04  0.2156886E+04  0.7818609E-02  0.8536591E-01
       -2   -1    0    0    0  501  0.00000000000E+00  0.00000000000E+00  0.10462366879E+04  0.10462366879E+04  0.25500000920E-02 0. -1.
        2   -1    0    0  501    0  0.00000000000E+00  0.00000000000E+00 -0.11116403051E+04  0.11116403051E+04  0.25500000920E-02 0.  1.
    10030    2    1    2    0    0  0.00000000000E+00  0.00000000000E+00 -0.65403617191E+02  0.21578769929E+04  0.21568855982E+04 0.  0.
        5    1    3    3  502    0 -0.20800744568E+01 -0.48059137572E+03  0.93316639867E+03  0.10496637627E+04  0.46999998093E+01 0. -1.
       -5    1    3    3    0  502  0.20800744568E+01  0.48059137572E+03 -0.99857001586E+03  0.11082132302E+04  0.46999998093E+01 0.  1.
</event>
<event>
 5   0  0.5981239E-05  0.2207334E+04  0.7818609E-02  0.8515382E-01
       -1   -1    0    0    0  501  0.00000000000E+00  0.00000000000E+00  0.58286763103E+03  0.58286763105E+03  0.50400001928E-02 0.  1.
        1   -1    0    0  501    0  0.00000000000E+00  0.00000000000E+00 -0.20898070780E+04  0.20898070780E+04  0.50400001928E-02 0. -1.
    10030    2    1    2    0    0  0.00000000000E+00  0.00000000000E+00 -0.15069394470E+04  0.26726747091E+04  0.22073340489E+04 0.  0.
        4    1    3    3  502    0 -0.10456640288E+04  0.24205045936E+03 -0.44222272063E+03  0.11608463437E+04  0.12699999809E+01 0.  1.
       -4    1    3    3    0  502  0.10456640288E+04 -0.24205045936E+03 -0.10647167264E+04  0.15118283654E+04  0.12699999809E+01 0. -1.
</event>
<event>
 5   0  0.5861816E-05  0.1637467E+04  0.7818609E-02  0.8797856E-01
        1   -1    0    0  501    0  0.00000000000E+00  0.00000000000E+00  0.61452417735E+03  0.61452417737E+03  0.50400001928E-02 0.  1.
       -1   -1    0    0    0  501  0.00000000000E+00  0.00000000000E+00 -0.10908022038E+04  0.10908022038E+04  0.50400001928E-02 0. -1.
    10030    2    1    2    0    0  0.00000000000E+00  0.00000000000E+00 -0.47627802643E+03  0.17053263812E+04  0.16374667349E+04 0.  0.
        1    1    3    3  502    0  0.48096915868E+03  0.15945690751E+03  0.43160323475E+03  0.66561189084E+03  0.50400001928E-02 0.  1.
       -1    1    3    3    0  502 -0.48096915868E+03 -0.15945690751E+03 -0.90788126119E+03  0.10397144903E+04  0.50400001928E-02 0. -1.
</event>
<event>
 5   0  0.5981239E-05  0.2196676E+04  0.7818609E-02  0.8519813E-01
       -1   -1    0    0    0  501  0.00000000000E+00  0.00000000000E+00  0.84613427387E+03  0.84613427388E+03  0.50400001928E-02 0.  1.
        1   -1    0    0  501    0  0.00000000000E+00  0.00000000000E+00 -0.14257153942E+04  0.14257153942E+04  0.50400001928E-02 0. -1.
    10030    2    1    2    0    0  0.00000000000E+00  0.00000000000E+00 -0.57958112036E+03  0.22718496681E+04  0.21966762710E+04 0.  0.
        4    1    3    3  502    0  0.74232615170E+03 -0.24794607063E+03 -0.10867584498E+04  0.13392426631E+04  0.12699999809E+01 0. -1.
       -4    1    3    3    0  502 -0.74232615170E+03  0.24794607063E+03  0.50717732946E+03  0.93260700504E+03  0.12699999809E+01 0.  1.
</event>
<event>
 5   0  0.1311472E-04  0.1598595E+04  0.7818609E-02  0.8821411E-01
       -2   -1    0    0    0  501  0.00000000000E+00  0.00000000000E+00  0.61901156234E+03  0.61901156235E+03  0.25500000920E-02 0. -1.
        2   -1    0    0  501    0  0.00000000000E+00  0.00000000000E+00 -0.10320918051E+04  0.10320918051E+04  0.25500000920E-02 0.  1.
    10030    2    1    2    0    0  0.00000000000E+00  0.00000000000E+00 -0.41308024275E+03  0.16511033674E+04  0.15985953344E+04 0.  0.
        4    1    3    3  502    0  0.75103938627E+03  0.18316140218E+03  0.32749042215E+01  0.77305924538E+03  0.12699999809E+01 0. -1.
       -4    1    3    3    0  502 -0.75103938627E+03 -0.18316140218E+03 -0.41635514697E+03  0.87804412206E+03  0.12699999809E+01 0.  1.
</event>
<event>
 5   0  0.5861816E-05  0.2231717E+04  0.7818609E-02  0.8505342E-01
        1   -1    0    0  501    0  0.00000000000E+00  0.00000000000E+00  0.85504203180E+03  0.85504203182E+03  0.50400001928E-02 0.  1.
       -1   -1    0    0    0  501  0.00000000000E+00  0.00000000000E+00 -0.14562323629E+04  0.14562323629E+04  0.50400001928E-02 0. -1.
    10030    2    1    2    0    0  0.00000000000E+00  0.00000000000E+00 -0.60119033108E+03  0.23112743947E+04  0.22317167189E+04 0.  0.
        1    1    3    3  502    0 -0.55628991963E+03  0.56248448536E+03  0.51441005185E+03  0.94364451592E+03  0.50400001928E-02 0.  1.
       -1    1    3    3    0  502  0.55628991963E+03 -0.56248448536E+03 -0.11156003829E+04  0.13676298788E+04  0.50400001928E-02 0. -1.
</event>
<event>
 5   0  0.1241430E-04  0.2212403E+04  0.7818609E-02  0.8513283E-01
       -2   -1    0    0    0  501  0.00000000000E+00  0.00000000000E+00  0.13062500106E+04  0.13062500106E+04  0.25500000920E-02 0. -1.
        2   -1    0    0  501    0  0.00000000000E+00  0.00000000000E+00 -0.93679008969E+03  0.93679008969E+03  0.25500000920E-02 0.  1.
    10030    2    1    2    0    0  0.00000000000E+00  0.00000000000E+00  0.36945992095E+03  0.22430401003E+04  0.22124032766E+04 0.  0.
        1    1    3    3  502    0  0.11550949371E+03 -0.37870204241E+03 -0.86249398801E+03  0.94902769161E+03  0.50400001928E-02 0.  1.
       -1    1    3    3    0  502 -0.11550949371E+03  0.37870204241E+03  0.12319539090E+04  0.12940124087E+04  0.50400001928E-02 0. -1.
</event>
<event>
 5   0  0.4586375E-05  0.2169276E+04  0.7818609E-02  0.8531326E-01
       -3   -1    0    0    0  501  0.00000000000E+00  0.00000000000E+00  0.22064673535E+04  0.22064673558E+04  0.10100000352E+00 0.  1.
        3   -1    0    0  501    0  0.00000000000E+00  0.00000000000E+00 -0.53317808134E+03  0.53317809091E+03  0.10100000352E+00 0. -1.
    10030    2    1    2    0    0  0.00000000000E+00  0.00000000000E+00  0.16732892722E+04  0.27396454467E+04  0.21692764198E+04 0.  0.
        3    1    3    3  502    0  0.44656988186E+02 -0.64534139673E+03 -0.26288874153E+03  0.69826231858E+03  0.10100000352E+00 0. -1.
       -3    1    3    3    0  502 -0.44656988186E+02  0.64534139673E+03  0.19361780137E+04  0.20413831281E+04  0.10100000352E+00 0.  1.
</event>
<event>
 5   0  0.5895063E-05  0.2194564E+04  0.7818609E-02  0.8520694E-01
        1   -1    0    0  501    0  0.00000000000E+00  0.00000000000E+00  0.20082361016E+04  0.20082361016E+04  0.50400001928E-02 0. -1.
       -1   -1    0    0    0  501  0.00000000000E+00  0.00000000000E+00 -0.59954474822E+03  0.59954474824E+03  0.50400001928E-02 0.  1.
    10030    2    1    2    0    0  0.00000000000E+00  0.00000000000E+00  0.14086913534E+04  0.26077808498E+04  0.21945636541E+04 0.  0.
        5    1    3    3  502    0  0.18139789595E+03 -0.30264087507E+03  0.19389732366E+04  0.19708211482E+04  0.46999998093E+01 0. -1.
       -5    1    3    3    0  502 -0.18139789595E+03  0.30264087507E+03 -0.53028188320E+03  0.63695970168E+03  0.46999998093E+01 0.  1.
</event>
<event>
 5   0  0.1252124E-04  0.2167121E+04  0.7818609E-02  0.8532239E-01
        2   -1    0    0  501    0  0.00000000000E+00  0.00000000000E+00  0.16886694629E+04  0.16886694629E+04  0.25500000920E-02 0. -1.
       -2   -1    0    0    0  501  0.00000000000E+00  0.00000000000E+00 -0.69528314013E+03  0.69528314013E+03  0.25500000920E-02 0.  1.
    10030    2    1    2    0    0  0.00000000000E+00  0.00000000000E+00  0.99338632277E+03  0.23839526030E+04  0.21671210458E+04 0.  0.
        3    1    3    3  502    0  0.82383422833E+03 -0.59987640029E+02 -0.27476008602E+03  0.87051391017E+03  0.10100000352E+00 0.  1.
       -3    1    3    3    0  502 -0.82383422833E+03  0.59987640029E+02  0.12681464088E+04  0.15134386929E+04  0.10100000352E+00 0. -1.
</event>
<event>
 5   0  0.5861816E-05  0.2136662E+04  0.7818609E-02  0.8545263E-01
       -1   -1    0    0    0  501  0.00000000000E+00  0.00000000000E+00  0.66292775673E+03  0.66292775675E+03  0.50400001928E-02 0. -1.
        1   -1    0    0  501    0  0.00000000000E+00  0.00000000000E+00 -0.17216527818E+04  0.17216527818E+04  0.50400001928E-02 0.  1.
    10030    2    1    2    0    0  0.00000000000E+00  0.00000000000E+00 -0.10587250251E+04  0.23845805386E+04  0.21366622724E+04 0.  0.
        1    1    3    3  502    0  0.54501094288E+03  0.56047797996E+03  0.28324185289E+03  0.83150372287E+03  0.50400001928E-02 0. -1.
       -1    1    3    3    0  502 -0.54501094288E+03 -0.56047797996E+03 -0.13419668780E+04  0.15530768157E+04  0.50400001928E-02 0.  1.
</event>
<event>
 5   0  0.5895063E-05  0.2212783E+04  0.7818609E-02  0.8513126E-01
       -1   -1    0    0    0  501  0.00000000000E+00  0.00000000000E+00  0.98317011494E+03  0.98317011496E+03  0.50400001928E-02 0.  1.
        1   -1    0    0  501    0  0.00000000000E+00  0.00000000000E+00 -0.12450563755E+04  0.12450563755E+04  0.50400001928E-02 0. -1.
    10030    2    1    2    0    0  0.00000000000E+00  0.00000000000E+00 -0.26188626053E+03  0.22282264904E+04  0.22127830619E+04 0.  0.
        5    1    3    3  502    0 -0.10036083658E+04  0.20108327553E+03  0.29200718198E+03  0.10644033633E+04  0.46999998093E+01 0.  1.
       -5    1    3    3    0  502  0.10036083658E+04 -0.20108327553E+03 -0.55389344251E+03  0.11638231271E+04  0.46999998093E+01 0. -1.
</event>
<event>
 5   0  0.1252124E-04  0.2152839E+04  0.7818609E-02  0.8538318E-01
       -2   -1    0    0    0  501  0.00000000000E+00  0.00000000000E+00  0.64764708278E+03  0.64764708279E+03  0.25500000920E-02 0. -1.
        2   -1    0    0  501    0  0.00000000000E+00  0.00000000000E+00 -0.17890592797E+04  0.17890592797E+04  0.25500000920E-02 0.  1.
    10030    2    1    2    0    0  0.00000000000E+00  0.00000000000E+00 -0.11414121969E+04  0.24367063625E+04  0.21528390775E+04 0.  0.
        3    1    3    3  502    0 -0.29659549039E+03 -0.22229936350E+03 -0.17145501888E+04  0.17541574194E+04  0.10100000352E+00 0.  1.
       -3    1    3    3    0  502  0.29659549039E+03  0.22229936350E+03  0.57313799182E+03  0.68254894315E+03  0.10100000352E+00 0. -1.
</event>
<event>
 5   0  0.5861816E-05  0.2220325E+04  0.7818609E-02  0.8510016E-01
       -1   -1    0    0    0  501  0.00000000000E+00  0.00000000000E+00  0.92057167814E+03  0.92057167815E+03  0.50400001928E-02 0.  1.
        1   -1    0    0  501    0  0.00000000000E+00  0.00000000000E+00 -0.13387990970E+04  0.13387990970E+04  0.50400001928E-02 0. -1.
    10030    2    1    2    0    0  0.00000000000E+00  0.00000000000E+00 -0.41822741885E+03  0.22593707751E+04  0.22203247793E+04 0.  0.
        1    1    3    3  502    0 -0.26849196927E+03  0.84423283916E+03 -0.88994129791E+03  0.12557119646E+04  0.50400001928E-02 0. -1.
       -1    1    3    3    0  502  0.26849196927E+03 -0.84423283916E+03  0.47171387906E+03  0.10036588106E+04  0.50400001928E-02 0.  1.
</event>
<event>
 5   0  0.5895063E-05  0.1599593E+04  0.7818609E-02  0.8820798E-01
       -1   -1    0    0    0  501  0.00000000000E+00  0.00000000000E+00  0.66191089957E+03  0.66191089959E+03  0.50400001928E-02 0. -1.
        1   -1    0    0  501    0  0.00000000000E+00  0.00000000000E+00 -0.96640539070E+03  0.96640539072E+03  0.50400001928E-02 0.  1.
    10030    2    1    2    0    0  0.00000000000E+00  0.00000000000E+00 -0.30449449113E+03  0.16283162903E+04  0.15995927751E+04 0.  0.
        5    1    3    3  502    0  0.53963995418E+03  0.43195435344E+03 -0.56178521768E+03  0.89074158116E+03  0.46999998093E+01 0.  1.
       -5    1    3    3    0  502 -0.53963995418E+03 -0.43195435344E+03  0.25729072655E+03  0.73757470915E+03  0.46999998093E+01 0. -1.
</event>
<event>
 5   0  0.6263558E-05  0.2190923E+04  0.7818609E-02  0.8522216E-01
        1   -1    0    0  501    0  0.00000000000E+00  0.00000000000E+00  0.16055870456E+04  0.16055870456E+04  0.50400001928E-02 0. -1.
       -1   -1    0    0    0  501  0.00000000000E+00  0.00000000000E+00 -0.74741246065E+03  0.74741246067E+03  0.50400001928E-02 0.  1.
    10030    2    1    2    0    0  0.00000000000E+00  0.00000000000E+00  0.85817458491E+03  0.23529995062E+04  0.21909228782E+04 0.  0.
        3    1    3    3  502    0 -0.16563532848E+02  0.56074770144E+03 -0.58143458882E+03  0.80794710630E+03  0.10100000352E+00 0.  1.
       -3    1    3    3    0  502  0.16563532848E+02 -0.56074770144E+03  0.14396091737E+04  0.15450524000E+04  0.10100000352E+00 0. -1.
</event>
<event>
 5   0  0.1311472E-04  0.2263899E+04  0.7818609E-02  0.8492293E-01
       -2   -1    0    0    0  501  0.00000000000E+00  0.00000000000E+00  0.85024347572E+03  0.85024347573E+03  0.25500000920E-02 0. -1.
        2   -1    0    0  501    0  0.00000000000E+00  0.00000000000E+00 -0.15069912005E+04  0.15069912005E+04  0.25500000920E-02 0.  1.
    10030    2    1    2    0    0  0.00000000000E+00  0.00000000000E+00 -0.65674772477E+03  0.23572346762E+04  0.22638987930E+04 0.  0.
        4    1    3    3  502    0  0.95134680101E+03 -0.27845183005E+03 -0.89745200473E+03  0.13371678545E+04  0.12699999809E+01 0.  1.
       -4    1    3    3    0  502 -0.95134680101E+03  0.27845183005E+03  0.24070427997E+03  0.10200668217E+04  0.12699999809E+01 0. -1.
</event>
<event>
 5   0  0.5849604E-05  0.2251863E+04  0.7818609E-02  0.8497146E-01
       -1   -1    0    0    0  501  0.00000000000E+00  0.00000000000E+00  0.16905140142E+04  0.16905140142E+04  0.50400001928E-02 0. -1.
        1   -1    0    0  501    0  0.00000000000E+00  0.00000000000E+00 -0.74990340608E+03  0.74990340610E+03  0.50400001928E-02 0.  1.
    10030    2    1    2    0    0  0.00000000000E+00  0.00000000000E+00  0.94061060812E+03  0.24404174203E+04  0.22518634215E+04 0.  0.
        2    1    3    3  502    0 -0.52310322782E+03  0.36767239817E+03 -0.53406517020E+03  0.83309398351E+03  0.25500000920E-02 0.  1.
       -2    1    3    3    0  502  0.52310322782E+03 -0.36767239817E+03  0.14746757783E+04  0.16073234368E+04  0.25500000920E-02 0. -1.
</event>
<event>
 5   0  0.4586375E-05  0.2157782E+04  0.7818609E-02  0.8536209E-01
       -3   -1    0    0    0  501  0.00000000000E+00  0.00000000000E+00  0.77504128609E+03  0.77504129267E+03  0.10100000352E+00 0. -1.
        3   -1    0    0  501    0  0.00000000000E+00  0.00000000000E+00 -0.15018629191E+04  0.15018629225E+04  0.10100000352E+00 0.  1.
    10030    2    1    2    0    0  0.00000000000E+00  0.00000000000E+00 -0.72682163302E+03  0.22769042152E+04  0.21577819906E+04 0.  0.
        4    1    3    3  502    0  0.52369859750E+03 -0.80727600630E+03 -0.87824898716E+03  0.13027960960E+04  0.12699999809E+01 0.  1.
       -4    1    3    3    0  502 -0.52369859750E+03  0.80727600630E+03  0.15142735414E+03  0.97410811918E+03  0.12699999809E+01 0. -1.
</event>
<event>
 5   0  0.1241430E-04  0.2218027E+04  0.7818609E-02  0.8510962E-01
        2   -1    0    0  501    0  0.00000000000E+00  0.00000000000E+00  0.11010113792E+04  0.11010113792E+04  0.25500000920E-02 0. -1.
       -2   -1    0    0    0  501  0.00000000000E+00  0.00000000000E+00 -0.11170734807E+04  0.11170734807E+04  0.25500000920E-02 0.  1.
    10030    2    1    2    0    0  0.00000000000E+00  0.00000000000E+00 -0.16062101561E+02  0.22180848599E+04  0.22180267029E+04 0.  0.
        1    1    3    3  502    0  0.10546917856E+04  0.10142390090E+03 -0.33552863500E+03  0.11114139801E+04  0.50400001928E-02 0.  1.
       -1    1    3    3    0  502 -0.10546917856E+04 -0.10142390090E+03  0.31946653344E+03  0.11066708798E+04  0.50400001928E-02 0. -1.
</event>
<event>
 5   0  0.1311472E-04  0.2069993E+04  0.7818609E-02  0.8574578E-01
       -2   -1    0    0    0  501  0.00000000000E+00  0.00000000000E+00  0.49462028881E+03  0.49462028882E+03  0.25500000920E-02 0.  1.
        2   -1    0    0  501    0  0.00000000000E+00  0.00000000000E+00 -0.21657383939E+04  0.21657383939E+04  0.25500000920E-02 0. -1.
    10030    2    1    2    0    0  0.00000000000E+00  0.00000000000E+00 -0.16711181051E+04  0.26603586827E+04  0.20699933815E+04 0.  0.
        4    1    3    3  502    0 -0.65224347902E+03 -0.37856282547E+03 -0.17465894357E+04  0.19024478018E+04  0.12699999809E+01 0. -1.
       -4    1    3    3    0  502  0.65224347902E+03  0.37856282547E+03  0.75471330630E+02  0.75791088091E+03  0.12699999809E+01 0.  1.
</event>
<event>
 5   0  0.1311472E-04  0.2208775E+04  0.7818609E-02  0.8514784E-01
       -2   -1    0    0    0  501  0.00000000000E+00  0.00000000000E+00  0.86978166533E+03  0.86978166534E+03  0.25500000920E-02 0.  1.
        2   -1    0    0  501    0  0.00000000000E+00  0.00000000000E+00 -0.14022740067E+04  0.14022740067E+04  0.25500000920E-02 0. -1.
    10030    2    1    2    0    0  0.00000000000E+00  0.00000000000E+00 -0.53249234132E+03  0.22720556720E+04  0.22087754261E+04 0.  0.
        4    1    3    3  502    0  0.26420926269E+03  0.29024402202E+03 -0.13281106511E+04  0.13848926461E+04  0.12699999809E+01 0. -1.
       -4    1    3    3    0  502 -0.26420926269E+03 -0.29024402202E+03  0.79561830975E+03  0.88716302590E+03  0.12699999809E+01 0.  1.
</event>
<event>
 5   0  0.1226021E-04  0.2190441E+04  0.7818609E-02  0.8522417E-01
       -2   -1    0    0    0  501  0.00000000000E+00  0.00000000000E+00  0.66170857081E+03  0.66170857082E+03  0.25500000920E-02 0. -1.
        2   -1    0    0  501    0  0.00000000000E+00  0.00000000000E+00 -0.18127428700E+04  0.18127428700E+04  0.25500000920E-02 0.  1.
    10030    2    1    2    0    0  0.00000000000E+00  0.00000000000E+00 -0.11510342992E+04  0.24744514408E+04  0.21904405892E+04 0.  0.
        2    1    3    3  502    0 -0.28109176801E+03 -0.76502623237E+03  0.25093476480E+03  0.85278718005E+03  0.25500000920E-02 0. -1.
       -2    1    3    3    0  502  0.28109176801E+03  0.76502623237E+03 -0.14019690640E+04  0.16216642607E+04  0.25500000920E-02 0.  1.
</event>
<event>
 5   0  0.1252124E-04  0.1920218E+04  0.7818609E-02  0.8644858E-01
        2   -1    0    0  501    0  0.00000000000E+00  0.00000000000E+00  0.16446331422E+04  0.16446331422E+04  0.25500000920E-02 0.  1.
       -2   -1    0    0    0  501  0.00000000000E+00  0.00000000000E+00 -0.56049532134E+03  0.56049532135E+03  0.25500000920E-02 0. -1.
    10030    2    1    2    0    0  0.00000000000E+00  0.00000000000E+00  0.10841378209E+04  0.22051284636E+04  0.19202178851E+04 0.  0.
        3    1    3    3  502    0 -0.19274412635E+03  0.36639458280E+03 -0.45272659556E+03  0.61347915130E+03  0.10100000352E+00 0. -1.
       -3    1    3    3    0  502  0.19274412635E+03 -0.36639458280E+03  0.15368644165E+04  0.15916493123E+04  0.10100000352E+00 0.  1.
</event>
<event>
 5   0  0.6263558E-05  0.2358648E+04  0.7818609E-02  0.8455149E-01
        1   -1    0    0  501    0  0.00000000000E+00  0.00000000000E+00  0.11139356688E+04  0.11139356688E+04  0.50400001928E-02 0.  1.
       -1   -1    0    0    0  501  0.00000000000E+00  0.00000000000E+00 -0.12485506272E+04  0.12485506272E+04  0.50400001928E-02 0. -1.
    10030    2    1    2    0    0  0.00000000000E+00  0.00000000000E+00 -0.13461495838E+03  0.23624862961E+04  0.23586479839E+04 0.  0.
        3    1    3    3  502    0  0.81334808671E+03  0.76385915341E+03 -0.44975228996E+03  0.12030349326E+04  0.10100000352E+00 0.  1.
       -3    1    3    3    0  502 -0.81334808671E+03 -0.76385915341E+03  0.31513733158E+03  0.11594513635E+04  0.10100000352E+00 0. -1.
</event>
<event>
 5   0  0.5981239E-05  0.2194456E+04  0.7818609E-02  0.8520739E-01
        1   -1    0    0  501    0  0.00000000000E+00  0.00000000000E+00  0.13392439398E+04  0.13392439398E+04  0.50400001928E-02 0.  1.
       -1   -1    0    0    0  501  0.00000000000E+00  0.00000000000E+00 -0.89894680230E+03  0.89894680232E+03  0.50400001928E-02 0. -1.
    10030    2    1    2    0    0  0.00000000000E+00  0.00000000000E+00  0.44029713748E+03  0.22381907421E+04  0.21944557933E+04 0.  0.
        4    1    3    3  502    0  0.54629617746E+03 -0.84496154942E+03 -0.22618917914E+03  0.10312917585E+04  0.12699999809E+01 0. -1.
       -4    1    3    3    0  502 -0.54629617746E+03  0.84496154942E+03  0.66648631662E+03  0.12068989836E+04  0.12699999809E+01 0.  1.
</event>
<event>
 5   0  0.1252124E-04  0.2212626E+04  0.7818609E-02  0.8513191E-01
        2   -1    0    0  501    0  0.00000000000E+00  0.00000000000E+00  0.21369198513E+04  0.21369198513E+04  0.25500000920E-02 0.  1.
       -2   -1    0    0    0  501  0.00000000000E+00  0.00000000000E+00 -0.57275355650E+03  0.57275355651E+03  0.25500000920E-02 0. -1.
    10030    2    1    2    0    0  0.00000000000E+00  0.00000000000E+00  0.15641662948E+04  0.27096734078E+04  0.22126259917E+04 0.  0.
        3    1    3    3  502    0  0.25142425959E+02 -0.13290177704E+03 -0.56258951889E+03  0.57862077468E+03  0.10100000352E+00 0. -1.
       -3    1    3    3    0  502 -0.25142425959E+02  0.13290177704E+03  0.21267558137E+04  0.21310526331E+04  0.10100000352E+00 0.  1.
</event>
<event>
 5   0  0.1226021E-04  0.2192567E+04  0.7818609E-02  0.8521528E-01
        2   -1    0    0  501    0  0.00000000000E+00  0.00000000000E+00  0.12255868559E+04  0.12255868559E+04  0.25500000920E-02 0.  1.
       -2   -1    0    0    0  501  0.00000000000E+00  0.00000000000E+00 -0.98062214250E+03  0.98062214250E+03  0.25500000920E-02 0. -1.
    10030    2    1    2    0    0  0.00000000000E+00  0.00000000000E+00  0.24496471338E+03  0.22062089984E+04  0.21925670876E+04 0.  0.
        2    1    3    3  502    0 -0.58144532786E+03  0.46823254252E+03 -0.68533099182E+03  0.10134095675E+04  0.25500000920E-02 0. -1.
       -2    1    3    3    0  502  0.58144532786E+03 -0.46823254252E+03  0.93029570520E+03  0.11927994309E+04  0.25500000920E-02 0.  1.
</event>
<event>
 5   0  0.5861816E-05  0.2173696E+04  0.7818609E-02  0.8529457E-01
       -1   -1    0    0    0  501  0.00000000000E+00  0.00000000000E+00  0.12323814942E+04  0.12323814942E+04  0.50400001928E-02 0. -1.
        1   -1    0    0  501    0  0.00000000000E+00  0.00000000000E+00 -0.95850056829E+03  0.95850056830E+03  0.50400001928E-02 0.  1.
    10030    2    1    2    0    0  0.00000000000E+00  0.00000000000E+00  0.27388092588E+03  0.21908820625E+04  0.21736958044E+04 0.  0.
        1    1    3    3  502    0 -0.11391812473E+03 -0.90995788896E+03 -0.45097032082E+03  0.10219466371E+04  0.50400001928E-02 0. -1.
       -1    1    3    3    0  502  0.11391812473E+03  0.90995788896E+03  0.72485124670E+03  0.11689354254E+04  0.50400001928E-02 0.  1.
</event>
<event>
 5   0  0.1241430E-04  0.2199394E+04  0.7818609E-02  0.8518680E-01
       -2   -1    0    0    0  501  0.00000000000E+00  0.00000000000E+00  0.71847193500E+03  0.71847193501E+03  0.25500000920E-02 0. -1.
        2   -1    0    0  501    0  0.00000000000E+00  0.00000000000E+00 -0.16832020011E+04  0.16832020011E+04  0.25500000920E-02 0.  1.
    10030    2    1    2    0    0  0.00000000000E+00  0.00000000000E+00 -0.96473006614E+03  0.24016739362E+04  0.21993939154E+04 0.  0.
        1    1    3    3  502    0 -0.63668055670E+02 -0.75362457843E+03 -0.13541173875E+04  0.15510117749E+04  0.50400001928E-02 0.  1.
       -1    1    3    3    0  502  0.63668055670E+02  0.75362457843E+03  0.38938732141E+03  0.85066216128E+03  0.50400001928E-02 0. -1.
</event>
<event>
 5   0  0.5849604E-05  0.1950124E+04  0.7818609E-02  0.8630301E-01
       -1   -1    0    0    0  501  0.00000000000E+00  0.00000000000E+00  0.13842735046E+04  0.13842735046E+04  0.50400001928E-02 0. -1.
        1   -1    0    0  501    0  0.00000000000E+00  0.00000000000E+00 -0.68681943673E+03  0.68681943675E+03  0.50400001928E-02 0.  1.
    10030    2    1    2    0    0  0.00000000000E+00  0.00000000000E+00  0.69745406789E+03  0.20710929414E+04  0.19501240461E+04 0.  0.
        2    1    3    3  502    0 -0.43950477088E+03 -0.47113728662E+01  0.12730966684E+04  0.13468339793E+04  0.25500000920E-02 0. -1.
       -2    1    3    3    0  502  0.43950477088E+03  0.47113728662E+01 -0.57564260050E+03  0.72425896210E+03  0.25500000920E-02 0.  1.
</event>
<event>
 5   0  0.1404159E-04  0.2159998E+04  0.7818609E-02  0.8535265E-01
        2   -1    0    0  501    0  0.00000000000E+00  0.00000000000E+00  0.82456786100E+03  0.82456786100E+03  0.25500000920E-02 0. -1.
       -2   -1    0    0    0  501  0.00000000000E+00  0.00000000000E+00 -0.14145570128E+04  0.14145570128E+04  0.25500000920E-02 0.  1.
    10030    2    1    2    0    0  0.00000000000E+00  0.00000000000E+00 -0.58998915184E+03  0.22391248738E+04  0.21599983799E+04 0.  0.
        5    1    3    3  502    0  0.86361391629E+03  0.60915080520E+03 -0.52558991888E+03  0.11803222241E+04  0.46999998093E+01 0. -1.
       -5    1    3    3    0  502 -0.86361391629E+03 -0.60915080520E+03 -0.64399232964E+02  0.10588026497E+04  0.46999998093E+01 0.  1.
</event>
<event>
 5   0  0.5849604E-05  0.2187475E+04  0.7818609E-02  0.8523659E-01
        1   -1    0    0  501    0  0.00000000000E+00  0.00000000000E+00  0.11652408937E+04  0.11652408937E+04  0.50400001928E-02 0. -1.
       -1   -1    0    0    0  501  0.00000000000E+00  0.00000000000E+00 -0.10266217677E+04  0.10266217677E+04  0.50400001928E-02 0.  1.
    10030    2    1    2    0    0  0.00000000000E+00  0.00000000000E+00  0.13861912597E+03  0.21918626615E+04  0.21874749518E+04 0.  0.
        2    1    3    3  502    0 -0.18306813715E+03 -0.66315312112E+03 -0.78267571100E+03  0.10420495542E+04  0.25500000920E-02 0.  1.
       -2    1    3    3    0  502  0.18306813715E+03  0.66315312112E+03  0.92129483698E+03  0.11498131072E+04  0.25500000920E-02 0. -1.
</event>
<event>
 5   0  0.6263558E-05  0.2215742E+04  0.7818609E-02  0.8511905E-01
       -1   -1    0    0    0  501  0.00000000000E+00  0.00000000000E+00  0.10307720879E+04  0.10307720880E+04  0.50400001928E-02 0.  1.
        1   -1    0    0  501    0  0.00000000000E+00  0.00000000000E+00 -0.11907362986E+04  0.11907362986E+04  0.50400001928E-02 0. -1.
    10030    2    1    2    0    0  0.00000000000E+00  0.00000000000E+00 -0.15996421063E+03  0.22215083865E+04  0.22157416282E+04 0.  0.
        3    1    3    3  502    0  0.79524011539E+03 -0.48950473400E+03  0.51768681065E+03  0.10677178325E+04  0.10100000352E+00 0.  1.
       -3    1    3    3    0  502 -0.79524011539E+03  0.48950473400E+03 -0.67765102128E+03  0.11537905540E+04  0.10100000352E+00 0. -1.
</event>
<event>
 5   0  0.5895063E-05  0.2218421E+04  0.7818609E-02  0.8510800E-01
       -1   -1    0    0    0  501  0.00000000000E+00  0.00000000000E+00  0.93452133982E+03  0.93452133983E+03  0.50400001928E-02 0. -1.
        1   -1    0    0  501    0  0.00000000000E+00  0.00000000000E+00 -0.13165536739E+04  0.13165536739E+04  0.50400001928E-02 0.  1.
    10030    2    1    2    0    0  0.00000000000E+00  0.00000000000E+00 -0.38203233410E+03  0.22510750138E+04  0.22184206123E+04 0.  0.
        5    1    3    3  502    0  0.46944733766E+03 -0.34385859349E+03  0.76718543012E+03  0.96292009499E+03  0.46999998093E+01 0. -1.
       -5    1    3    3    0  502 -0.46944733766E+03  0.34385859349E+03 -0.11492177642E+04  0.12881549188E+04  0.46999998093E+01 0.  1.
</event>
<event>
 5   0  0.1241430E-04  0.2120009E+04  0.7818609E-02  0.8552480E-01
       -2   -1    0    0    0  501  0.00000000000E+00  0.00000000000E+00  0.77410620104E+03  0.77410620105E+03  0.25500000920E-02 0. -1.
        2   -1    0    0  501    0  0.00000000000E+00  0.00000000000E+00 -0.14514922576E+04  0.14514922576E+04  0.25500000920E-02 0.  1.
    10030    2    1    2    0    0  0.00000000000E+00  0.00000000000E+00 -0.67738605654E+03  0.22255984586E+04  0.21200086390E+04 0.  0.
        1    1    3    3  502    0 -0.36902873025E+03  0.97250663537E+03 -0.55296103759E+03  0.11780141208E+04  0.50400001928E-02 0.  1.
       -1    1    3    3    0  502  0.36902873025E+03 -0.97250663537E+03 -0.12442501895E+03  0.10475843379E+04  0.50400001928E-02 0. -1.
</event>
<event>
 5   0  0.6263558E-05  0.2188880E+04  0.7818609E-02  0.8523071E-01
       -1   -1    0    0    0  501  0.00000000000E+00  0.00000000000E+00  0.63989908926E+03  0.63989908928E+03  0.50400001928E-02 0. -1.
        1   -1    0    0  501    0  0.00000000000E+00  0.00000000000E+00 -0.18718555768E+04  0.18718555768E+04  0.50400001928E-02 0.  1.
    10030    2    1    2    0    0  0.00000000000E+00  0.00000000000E+00 -0.12319564876E+04  0.25117546661E+04  0.21888797855E+04 0.  0.
        3    1    3    3  502    0 -0.39889218786E+03  0.48307368772E+03 -0.16457488574E+04  0.17609555579E+04  0.10100000352E+00 0.  1.
       -3    1    3    3    0  502  0.39889218786E+03 -0.48307368772E+03  0.41379236981E+03  0.75079910816E+03  0.10100000352E+00 0. -1.
</event>
<event>
 5   0  0.1226021E-04  0.2197225E+04  0.7818609E-02  0.8519584E-01
       -2   -1    0    0    0  501  0.00000000000E+00  0.00000000000E+00  0.50019386422E+03  0.50019386422E+03  0.25500000920E-02 0. -1.
        2   -1    0    0  501    0  0.00000000000E+00  0.00000000000E+00 -0.24129636945E+04  0.24129636945E+04  0.25500000920E-02 0.  1.
    10030    2    1    2    0    0  0.00000000000E+00  0.00000000000E+00 -0.19127698303E+04  0.29131575588E+04  0.21972251906E+04 0.  0.
        2    1    3    3  502    0 -0.82300667851E+02  0.45142975605E+03 -0.22798226712E+04  0.23255437293E+04  0.25500000920E-02 0.  1.
       -2    1    3    3    0  502  0.82300667851E+02 -0.45142975605E+03  0.36705284090E+03  0.58761382948E+03  0.25500000920E-02 0. -1.
</event>
<event>
 5   0  0.5981239E-05  0.2193560E+04  0.7818609E-02  0.8521113E-01
        1   -1    0    0  501    0  0.00000000000E+00  0.00000000000E+00  0.99796758571E+03  0.99796758572E+03  0.50400001928E-02 0. -1.
       -1   -1    0    0    0  501  0.00000000000E+00  0.00000000000E+00 -0.12053767309E+04  0.12053767309E+04  0.50400001928E-02 0.  1.
    10030    2    1    2    0    0  0.00000000000E+00  0.00000000000E+00 -0.20740914517E+03  0.22033443166E+04  0.21935604902E+04 0.  0.
        4    1    3    3  502    0  0.14367712078E+03  0.30792222316E+03  0.94376306695E+03  0.10030700624E+04  0.12699999809E+01 0. -1.
       -4    1    3    3    0  502 -0.14367712078E+03 -0.30792222316E+03 -0.11511722121E+04  0.12002742543E+04  0.12699999809E+01 0.  1.
</event>
<event>
 5   0  0.5895063E-05  0.2226189E+04  0.7818609E-02  0.8507606E-01
        1   -1    0    0  501    0  0.00000000000E+00  0.00000000000E+00  0.21259375325E+04  0.21259375326E+04  0.50400001928E-02 0.  1.
       -1   -1    0    0    0  501  0.00000000000E+00  0.00000000000E+00 -0.58279215530E+03  0.58279215533E+03  0.50400001928E-02 0. -1.
    10030    2    1    2    0    0  0.00000000000E+00  0.00000000000E+00  0.15431453772E+04  0.27087296879E+04  0.22261893151E+04 0.  0.
        5    1    3    3  502    0  0.10401727327E+04  0.12255665682E+03  0.12300463318E+04  0.16155542444E+04  0.46999998093E+01 0.  1.
       -5    1    3    3    0  502 -0.10401727327E+04 -0.12255665682E+03  0.31309904541E+03  0.10931754435E+04  0.46999998093E+01 0. -1.
</event>
<event>
 5   0  0.1404159E-04  0.2006197E+04  0.7818609E-02  0.8603729E-01
        2   -1    0    0  501    0  0.00000000000E+00  0.00000000000E+00  0.78383562844E+03  0.78383562844E+03  0.25500000920E-02 0. -1.
       -2   -1    0    0    0  501  0.00000000000E+00  0.00000000000E+00 -0.12836964047E+04  0.12836964047E+04  0.25500000920E-02 0.  1.
    10030    2    1    2    0    0  0.00000000000E+00  0.00000000000E+00 -0.49986077623E+03  0.20675320331E+04  0.20061973762E+04 0.  0.
        5    1    3    3  502    0 -0.10116575514E+03  0.89526036457E+03  0.20452672014E+03  0.92389333780E+03  0.46999998093E+01 0. -1.
       -5    1    3    3    0  502  0.10116575514E+03 -0.89526036457E+03 -0.70438749637E+03  0.11436386953E+04  0.46999998093E+01 0.  1.
</event>
<event>
 5   0  0.5895063E-05  0.2169338E+04  0.7818609E-02  0.8531300E-01
       -1   -1    0    0    0  501  0.00000000000E+00  0.00000000000E+00  0.10810631093E+04  0.10810631093E+04  0.50400001928E-02 0.  1.
        1   -1    0    0  501    0  0.00000000000E+00  0.00000000000E+00 -0.10882870196E+04  0.10882870196E+04  0.50400001928E-02 0. -1.
    10030    2    1    2    0    0  0.00000000000E+00  0.00000000000E+00 -0.72239102872E+01  0.21693501290E+04  0.21693381012E+04 0.  0.
        5    1    3    3  502    0 -0.89882170459E+03 -0.34244687610E+02  0.60255285617E+03  0.10826565428E+04  0.46999998093E+01 0.  1.
       -5    1    3    3    0  502  0.89882170459E+03  0.34244687610E+02 -0.60977676646E+03  0.10866935861E+04  0.46999998093E+01 0. -1.
</event>
<event>
 5   0  0.5849604E-05  0.2227551E+04  0.7818609E-02  0.8507048E-01
        1   -1    0    0  501    0  0.00000000000E+00  0.00000000000E+00  0.99564260101E+03  0.99564260102E+03  0.50400001928E-02 0. -1.
       -1   -1    0    0    0  501  0.00000000000E+00  0.00000000000E+00 -0.12459246831E+04  0.12459246831E+04  0.50400001928E-02 0.  1.
    10030    2    1    2    0    0  0.00000000000E+00  0.00000000000E+00 -0.25028208211E+03  0.22415672842E+04  0.22275508454E+04 0.  0.
        2    1    3    3  502    0  0.61826289117E+03 -0.92122995456E+03 -0.22364498186E+03  0.11317820946E+04  0.25500000920E-02 0. -1.
       -2    1    3    3    0  502 -0.61826289117E+03  0.92122995456E+03 -0.26637100251E+02  0.11097851895E+04  0.25500000920E-02 0.  1.
</event>
<event>
 5   0  0.1241430E-04  0.2260967E+04  0.7818609E-02  0.8493472E-01
       -2   -1    0    0    0  501  0.00000000000E+00  0.00000000000E+00  0.15247709875E+04  0.15247709875E+04  0.25500000920E-02 0. -1.
        2   -1    0    0  501    0  0.00000000000E+00  0.00000000000E+00 -0.83815432861E+03  0.83815432861E+03  0.25500000920E-02 0.  1.
    10030    2    1    2    0    0  0.00000000000E+00  0.00000000000E+00  0.68661665894E+03  0.23629253162E+04  0.22609674065E+04 0.  0.
        1    1    3    3  502    0 -0.38449378639E+02 -0.12192211438E+03 -0.83057557428E+03  0.84035655605E+03  0.50400001928E-02 0.  1.
       -1    1    3    3    0  502  0.38449378639E+02  0.12192211438E+03  0.15171922332E+04  0.15225687601E+04  0.50400001928E-02 0. -1.
</event>
<event>
 5   0  0.5981239E-05  0.2126001E+04  0.7818609E-02  0.8549875E-01
        1   -1    0    0  501    0  0.00000000000E+00  0.00000000000E+00  0.25965692050E+04  0.25965692050E+04  0.50400001928E-02 0. -1.
       -1   -1    0    0    0  501  0.00000000000E+00  0.00000000000E+00 -0.43517816353E+03  0.43517816355E+03  0.50400001928E-02 0.  1.
    10030    2    1    2    0    0  0.00000000000E+00  0.00000000000E+00  0.21613910415E+04  0.30317473686E+04  0.21260011460E+04 0.  0.
        4    1    3    3  502    0 -0.55627644825E+03 -0.45227365953E+01  0.23724204519E+04  0.24367692455E+04  0.12699999809E+01 0. -1.
       -4    1    3    3    0  502  0.55627644825E+03  0.45227365953E+01 -0.21102941043E+03  0.59497812312E+03  0.12699999809E+01 0.  1.
</event>
<event>
 5   0  0.1241430E-04  0.1953658E+04  0.7818609E-02  0.8628599E-01
        2   -1    0    0  501    0  0.00000000000E+00  0.00000000000E+00  0.16792424519E+04  0.16792424519E+04  0.25500000920E-02 0.  1.
       -2   -1    0    0    0  501  0.00000000000E+00  0.00000000000E+00 -0.56822909894E+03  0.56822909895E+03  0.25500000920E-02 0. -1.
    10030    2    1    2    0    0  0.00000000000E+00  0.00000000000E+00  0.11110133529E+04  0.22474715508E+04  0.19536575189E+04 0.  0.
        1    1    3    3  502    0  0.68487220018E+03  0.62968148252E+03  0.89801779082E+03  0.12930524555E+04  0.50400001928E-02 0.  1.
       -1    1    3    3    0  502 -0.68487220018E+03 -0.62968148252E+03  0.21299556210E+03  0.95441909532E+03  0.50400001928E-02 0. -1.
</event>
<event>
 5   0  0.1241430E-04  0.2201448E+04  0.7818609E-02  0.8517826E-01
        2   -1    0    0  501    0  0.00000000000E+00  0.00000000000E+00  0.93113231340E+03  0.93113231341E+03  0.25500000920E-02 0. -1.
       -2   -1    0    0    0  501  0.00000000000E+00  0.00000000000E+00 -0.13012047002E+04  0.13012047002E+04  0.25500000920E-02 0.  1.
    10030    2    1    2    0    0  0.00000000000E+00  0.00000000000E+00 -0.37007238680E+03  0.22323370136E+04  0.22014483802E+04 0.  0.
        1    1    3    3  502    0  0.61792543385E+03  0.84176462931E+03  0.16797801799E+03  0.10576465135E+04  0.50400001928E-02 0.  1.
       -1    1    3    3    0  502 -0.61792543385E+03 -0.84176462931E+03 -0.53805040479E+03  0.11746905001E+04  0.50400001928E-02 0. -1.
</event>
<event>
 5   0  0.5981239E-05  0.1735479E+04  0.7818609E-02  0.8741384E-01
       -1   -1    0    0    0  501  0.00000000000E+00  0.00000000000E+00  0.70411040425E+03  0.70411040427E+03  0.50400001928E-02 0. -1.
        1   -1    0    0  501    0  0.00000000000E+00  0.00000000000E+00 -0.10693945217E+04  0.10693945217E+04  0.50400001928E-02 0.  1.
    10030    2    1    2    0    0  0.00000000000E+00  0.00000000000E+00 -0.36528411746E+03  0.17735049260E+04  0.17354789644E+04 0.  0.
        4    1    3    3  502    0  0.79350202580E+03 -0.86046721553E+02  0.16528926488E+03  0.81508996879E+03  0.12699999809E+01 0. -1.
       -4    1    3    3    0  502 -0.79350202580E+03  0.86046721553E+02 -0.53057338234E+03  0.95841495720E+03  0.12699999809E+01 0.  1.
</event>
<event>
 5   0  0.6263558E-05  0.2196980E+04  0.7818609E-02  0.8519686E-01
       -1   -1    0    0    0  501  0.00000000000E+00  0.00000000000E+00  0.67283590950E+03  0.67283590952E+03  0.50400001928E-02 0. -1.
        1   -1    0    0  501    0  0.00000000000E+00  0.00000000000E+00 -0.17934237552E+04  0.17934237552E+04  0.50400001928E-02 0.  1.
    10030    2    1    2    0    0  0.00000000000E+00  0.00000000000E+00 -0.11205878457E+04  0.24662596647E+04  0.21969796571E+04 0.  0.
        3    1    3    3  502    0  0.55987402216E+03  0.35315029682E+02 -0.16204964100E+04  0.17148512172E+04  0.10100000352E+00 0.  1.
       -3    1    3    3    0  502 -0.55987402216E+03 -0.35315029682E+02  0.49990856438E+03  0.75140844748E+03  0.10100000352E+00 0. -1.
</event>
<event>
 5   0  0.1311472E-04  0.2217351E+04  0.7818609E-02  0.8511241E-01
        2   -1    0    0  501    0  0.00000000000E+00  0.00000000000E+00  0.10635148361E+04  0.10635148361E+04  0.25500000920E-02 0.  1.
       -2   -1    0    0    0  501  0.00000000000E+00  0.00000000000E+00 -0.11557535759E+04  0.11557535759E+04  0.25500000920E-02 0. -1.
    10030    2    1    2    0    0  0.00000000000E+00  0.00000000000E+00 -0.92238739785E+02  0.22192684121E+04  0.22173507390E+04 0.  0.
        4    1    3    3  502    0 -0.57892507853E+03 -0.15353272861E+03 -0.97989619199E+03  0.11484444720E+04  0.12699999809E+01 0. -1.
       -4    1    3    3    0  502  0.57892507853E+03  0.15353272861E+03  0.88765745220E+03  0.10708239401E+04  0.12699999809E+01 0.  1.
</event>
<event>
 5   0  0.5981239E-05  0.2212412E+04  0.7818609E-02  0.8513280E-01
        1   -1    0    0  501    0  0.00000000000E+00  0.00000000000E+00  0.14888176770E+04  0.14888176770E+04  0.50400001928E-02 0. -1.
       -1   -1    0    0    0  501  0.00000000000E+00  0.00000000000E+00 -0.82192204744E+03  0.82192204746E+03  0.50400001928E-02 0.  1.
    10030    2    1    2    0    0  0.00000000000E+00  0.00000000000E+00  0.66689562960E+03  0.23107397245E+04  0.22124123245E+04 0.  0.
        4    1    3    3  502    0 -0.42735179342E+03  0.64563453043E+03 -0.49173987959E+03  0.91721492808E+03  0.12699999809E+01 0.  1.
       -4    1    3    3    0  502  0.42735179342E+03 -0.64563453043E+03  0.11586355092E+04  0.13935247964E+04  0.12699999809E+01 0. -1.
</event>
<event>
 5   0  0.5861816E-05  0.2191281E+04  0.7818609E-02  0.8522066E-01
       -1   -1    0    0    0  501  0.00000000000E+00  0.00000000000E+00  0.11581003919E+04  0.11581003919E+04  0.50400001928E-02 0. -1.
        1   -1    0    0  501    0  0.00000000000E+00  0.00000000000E+00 -0.10365488285E+04  0.10365488286E+04  0.50400001928E-02 0.  1.
    10030    2    1    2    0    0  0.00000000000E+00  0.00000000000E+00  0.12155156331E+03  0.21946492204E+04  0.21912805430E+04 0.  0.
        1    1    3    3  502    0 -0.66105176653E+03 -0.37073550800E+03 -0.73163794907E+03  0.10534364449E+04  0.50400001928E-02 0.  1.
       -1    1    3    3    0  502  0.66105176653E+03  0.37073550800E+03  0.85318951238E+03  0.11412127755E+04  0.50400001928E-02 0. -1.
</event>
<event>
 5   0  0.5895063E-05  0.2167576E+04  0.7818609E-02  0.8532046E-01
        1   -1    0    0  501    0  0.00000000000E+00  0.00000000000E+00  0.70453502632E+03  0.70453502634E+03  0.50400001928E-02 0.  1.
       -1   -1    0    0    0  501  0.00000000000E+00  0.00000000000E+00 -0.16671936522E+04  0.16671936522E+04  0.50400001928E-02 0. -1.
    10030    2    1    2    0    0  0.00000000000E+00  0.00000000000E+00 -0.96265862591E+03  0.23717286786E+04  0.21675759029E+04 0.  0.
        5    1    3    3  502    0  0.14708843571E+03  0.29882477931E+03  0.64713707845E+03  0.72783222308E+03  0.46999998093E+01 0.  1.
       -5    1    3    3    0  502 -0.14708843571E+03 -0.29882477931E+03 -0.16097957044E+04  0.16438964555E+04  0.46999998093E+01 0. -1.
</event>
<event>
 5   0  0.1311472E-04  0.2167041E+04  0.7818609E-02  0.8532273E-01
        2   -1    0    0  501    0  0.00000000000E+00  0.00000000000E+00  0.13053208782E+04  0.13053208782E+04  0.25500000920E-02 0. -1.
       -2   -1    0    0    0  501  0.00000000000E+00  0.00000000000E+00 -0.89940820648E+03  0.89940820648E+03  0.25500000920E-02 0.  1.
    10030    2    1    2    0    0  0.00000000000E+00  0.00000000000E+00  0.40591267168E+03  0.22047290846E+04  0.21670406640E+04 0.  0.
        4    1    3    3  502    0 -0.10717473455E+04  0.12265465029E+03  0.99561303613E+02  0.10833284829E+04  0.12699999809E+01 0. -1.
       -4    1    3    3    0  502  0.10717473455E+04 -0.12265465029E+03  0.30635136807E+03  0.11214006017E+04  0.12699999809E+01 0.  1.
</event>
<event>
 5   0  0.1226021E-04  0.2187994E+04  0.7818609E-02  0.8523442E-01
        2   -1    0    0  501    0  0.00000000000E+00  0.00000000000E+00  0.16628379126E+04  0.16628379126E+04  0.25500000920E-02 0. -1.
       -2   -1    0    0    0  501  0.00000000000E+00  0.00000000000E+00 -0.71975107206E+03  0.71975107206E+03  0.25500000920E-02 0.  1.
    10030    2    1    2    0    0  0.00000000000E+00  0.00000000000E+00  0.94308684054E+03  0.23825889847E+04  0.21879939399E+04 0.  0.
        2    1    3    3  502    0 -0.10150041489E+04  0.23756682939E+03  0.11012445631E+03  0.10482360500E+04  0.25500000920E-02 0. -1.
       -2    1    3    3    0  502  0.10150041489E+04 -0.23756682939E+03  0.83296238423E+03  0.13343529347E+04  0.25500000920E-02 0.  1.
</event>
<event>
 5   0  0.5895063E-05  0.2194343E+04  0.7818609E-02  0.8520786E-01
       -1   -1    0    0    0  501  0.00000000000E+00  0.00000000000E+00  0.11590147924E+04  0.11590147924E+04  0.50400001928E-02 0. -1.
        1   -1    0    0  501    0  0.00000000000E+00  0.00000000000E+00 -0.10386279861E+04  0.10386279861E+04  0.50400001928E-02 0.  1.
    10030    2    1    2    0    0  0.00000000000E+00  0.00000000000E+00  0.12038680631E+03  0.21976427786E+04  0.21943429083E+04 0.  0.
        5    1    3    3  502    0 -0.23851036567E+03  0.10334466510E+04  0.34144294638E+03  0.11142282309E+04  0.46999998093E+01 0. -1.
       -5    1    3    3    0  502  0.23851036567E+03 -0.10334466510E+04 -0.22105614008E+03  0.10834145476E+04  0.46999998093E+01 0.  1.
</event>
<event>
 5   0  0.5861816E-05  0.2948516E+04  0.7818609E-02  0.8258587E-01
        1   -1    0    0  501    0  0.00000000000E+00  0.00000000000E+00  0.19273074928E+04  0.19273074928E+04  0.50400001928E-02 0. -1.
       -1   -1    0    0    0  501  0.00000000000E+00  0.00000000000E+00 -0.11277063286E+04  0.11277063286E+04  0.50400001928E-02 0.  1.
    10030    2    1    2    0    0  0.00000000000E+00  0.00000000000E+00  0.79960116416E+03  0.30550138214E+04  0.29485161399E+04 0.  0.
        1    1    3    3  502    0  0.54530562201E+03  0.82603257787E+03  0.15318519840E+04  0.18238033178E+04  0.50400001928E-02 0. -1.
       -1    1    3    3    0  502 -0.54530562201E+03 -0.82603257787E+03 -0.73225081981E+03  0.12312105036E+04  0.50400001928E-02 0.  1.
</event>
<event>
 5   0  0.1252124E-04  0.2205249E+04  0.7818609E-02  0.8516246E-01
        2   -1    0    0  501    0  0.00000000000E+00  0.00000000000E+00  0.73205961143E+03  0.73205961144E+03  0.25500000920E-02 0. -1.
       -2   -1    0    0    0  501  0.00000000000E+00  0.00000000000E+00 -0.16607680532E+04  0.16607680532E+04  0.25500000920E-02 0.  1.
    10030    2    1    2    0    0  0.00000000000E+00  0.00000000000E+00 -0.92870844174E+03  0.23928276646E+04  0.22052493879E+04 0.  0.
        3    1    3    3  502    0 -0.91718943070E+03 -0.51012427216E+03 -0.97485248603E+02  0.10540240077E+04  0.10100000352E+00 0. -1.
       -3    1    3    3    0  502  0.91718943070E+03  0.51012427216E+03 -0.83122319313E+03  0.13388036569E+04  0.10100000352E+00 0.  1.
</event>
<event>
 5   0  0.1311472E-04  0.2237880E+04  0.7818609E-02  0.8502825E-01
        2   -1    0    0  501    0  0.00000000000E+00  0.00000000000E+00  0.16005204729E+04  0.16005204729E+04  0.25500000920E-02 0. -1.
       -2   -1    0    0    0  501  0.00000000000E+00  0.00000000000E+00 -0.78226250160E+03  0.78226250160E+03  0.25500000920E-02 0.  1.
    10030    2    1    2    0    0  0.00000000000E+00  0.00000000000E+00  0.81825797132E+03  0.23827829745E+04  0.22378803802E+04 0.  0.
        4    1    3    3  502    0  0.41418975903E+03  0.37362797297E+03  0.14419224302E+04  0.15460572196E+04  0.12699999809E+01 0. -1.
       -4    1    3    3    0  502 -0.41418975903E+03 -0.37362797297E+03 -0.62366445891E+03  0.83672575489E+03  0.12699999809E+01 0.  1.
</event>
<event>
 5   0  0.1311472E-04  0.1788716E+04  0.7818609E-02  0.8712323E-01
        2   -1    0    0  501    0  0.00000000000E+00  0.00000000000E+00  0.21035303341E+04  0.21035303341E+04  0.25500000920E-02 0. -1.
       -2   -1    0    0    0  501  0.00000000000E+00  0.00000000000E+00 -0.38025437012E+03  0.38025437013E+03  0.25500000920E-02 0.  1.
    10030    2    1    2    0    0  0.00000000000E+00  0.00000000000E+00  0.17232759640E+04  0.24837847043E+04  0.17887164138E+04 0.  0.
        4    1    3    3  502    0 -0.11038403980E+03 -0.35116995507E+03 -0.27018228894E+03  0.45662353832E+03  0.12699999809E+01 0.  1.
       -4    1    3    3    0  502  0.11038403980E+03  0.35116995507E+03  0.19934582529E+04  0.20271611659E+04  0.12699999809E+01 0. -1.
</event>
<event>
 5   0  0.6263558E-05  0.2201489E+04  0.7818609E-02  0.8517809E-01
        1   -1    0    0  501    0  0.00000000000E+00  0.00000000000E+00  0.20368426953E+04  0.20368426954E+04  0.50400001928E-02 0. -1.
       -1   -1    0    0    0  501  0.00000000000E+00  0.00000000000E+00 -0.59486099862E+03  0.59486099864E+03  0.50400001928E-02 0.  1.
    10030    2    1    2    0    0  0.00000000000E+00  0.00000000000E+00  0.14419816967E+04  0.26317036940E+04  0.22014888415E+04 0.  0.
        3    1    3    3  502    0 -0.10016879630E+04 -0.44438311238E+03  0.84512554852E+03  0.13838686097E+04  0.10100000352E+00 0.  1.
       -3    1    3    3    0  502  0.10016879630E+04  0.44438311238E+03  0.59685614821E+03  0.12478350843E+04  0.10100000352E+00 0. -1.
</event>
<event>
 5   0  0.6263558E-05  0.2186049E+04  0.7818609E-02  0.8524257E-01
        1   -1    0    0  501    0  0.00000000000E+00  0.00000000000E+00  0.12639388084E+04  0.12639388084E+04  0.50400001928E-02 0.  1.
       -1   -1    0    0    0  501  0.00000000000E+00  0.00000000000E+00 -0.94522166418E+03  0.94522166419E+03  0.50400001928E-02 0. -1.
    10030    2    1    2    0    0  0.00000000000E+00  0.00000000000E+00  0.31871714418E+03  0.22091604726E+04  0.21860488045E+04 0.  0.
        3    1    3    3  502    0 -0.62936312782E+03 -0.67223993608E+02 -0.74117725313E+03  0.97465929572E+03  0.10100000352E+00 0. -1.
       -3    1    3    3    0  502  0.62936312782E+03  0.67223993608E+02  0.10598943973E+04  0.12345011768E+04  0.10100000352E+00 0.  1.
</event>
<event>
 5   0  0.5861816E-05  0.2218428E+04  0.7818609E-02  0.8510797E-01
       -1   -1    0    0    0  501  0.00000000000E+00  0.00000000000E+00  0.10576263292E+04  0.10576263292E+04  0.50400001928E-02 0. -1.
        1   -1    0    0  501    0  0.00000000000E+00  0.00000000000E+00 -0.11633181364E+04  0.11633181364E+04  0.50400001928E-02 0.  1.
    10030    2    1    2    0    0  0.00000000000E+00  0.00000000000E+00 -0.10569180721E+03  0.22209444656E+04  0.22184281735E+04 0.  0.
        1    1    3    3  502    0 -0.56004379594E+02  0.10276929171E+04  0.36122529668E+03  0.10907671325E+04  0.50400001928E-02 0.  1.
       -1    1    3    3    0  502  0.56004379594E+02 -0.10276929171E+04 -0.46691710389E+03  0.11301773331E+04  0.50400001928E-02 0. -1.
</event>
<event>
 5   0  0.5849604E-05  0.2185180E+04  0.7818609E-02  0.8524622E-01
        1   -1    0    0  501    0  0.00000000000E+00  0.00000000000E+00  0.18274395519E+04  0.18274395519E+04  0.50400001928E-02 0.  1.
       -1   -1    0    0    0  501  0.00000000000E+00  0.00000000000E+00 -0.65323815819E+03  0.65323815821E+03  0.50400001928E-02 0. -1.
    10030    2    1    2    0    0  0.00000000000E+00  0.00000000000E+00  0.11742013937E+04  0.24806777101E+04  0.21851803103E+04 0.  0.
        2    1    3    3  502    0  0.33489446129E+03 -0.62208396596E+03  0.15332370584E+04  0.16881820512E+04  0.25500000920E-02 0.  1.
       -2    1    3    3    0  502 -0.33489446129E+03  0.62208396596E+03 -0.35903566464E+03  0.79249565891E+03  0.25500000920E-02 0. -1.
</event>
<event>
 5   0  0.1252124E-04  0.2202875E+04  0.7818609E-02  0.8517232E-01
        2   -1    0    0  501    0  0.00000000000E+00  0.00000000000E+00  0.24774060275E+04  0.24774060275E+04  0.25500000920E-02 0.  1.
       -2   -1    0    0    0  501  0.00000000000E+00  0.00000000000E+00 -0.48969142508E+03  0.48969142509E+03  0.25500000920E-02 0. -1.
    10030    2    1    2    0    0  0.00000000000E+00  0.00000000000E+00  0.19877146024E+04  0.29670974526E+04  0.22028749289E+04 0.  0.
        3    1    3    3  502    0  0.27691403915E+03  0.29542231447E+03  0.23735199984E+04  0.24078108152E+04  0.10100000352E+00 0.  1.
       -3    1    3    3    0  502 -0.27691403915E+03 -0.29542231447E+03 -0.38580539597E+03  0.55928663736E+03  0.10100000352E+00 0. -1.
</event>
<event>
 5   0  0.1252124E-04  0.2104296E+04  0.7818609E-02  0.8559353E-01
        2   -1    0    0  501    0  0.00000000000E+00  0.00000000000E+00  0.13176179005E+04  0.13176179005E+04  0.25500000920E-02 0. -1.
       -2   -1    0    0    0  501  0.00000000000E+00  0.00000000000E+00 -0.84016455247E+03  0.84016455247E+03  0.25500000920E-02 0.  1.
    10030    2    1    2    0    0  0.00000000000E+00  0.00000000000E+00  0.47745334807E+03  0.21577824530E+04  0.21042964180E+04 0.  0.
        3    1    3    3  502    0 -0.58067390738E+03 -0.87729346174E+03  0.25285508258E+03  0.10820174249E+04  0.10100000352E+00 0.  1.
       -3    1    3    3    0  502  0.58067390738E+03  0.87729346174E+03  0.22459826549E+03  0.10757650281E+04  0.10100000352E+00 0. -1.
</event>
<event>
 5   0  0.6263558E-05  0.2166647E+04  0.7818609E-02  0.8532440E-01
        1   -1    0    0  501    0  0.00000000000E+00  0.00000000000E+00  0.10103733441E+04  0.10103733441E+04  0.50400001928E-02 0. -1.
       -1   -1    0    0    0  501  0.00000000000E+00  0.00000000000E+00 -0.11615403899E+04  0.11615403899E+04  0.50400001928E-02 0.  1.
    10030    2    1    2    0    0  0.00000000000E+00  0.00000000000E+00 -0.15116704573E+03  0.21719137340E+04  0.21666466699E+04 0.  0.
        3    1    3    3  502    0  0.59574040141E+03 -0.39997924202E+03  0.73799245663E+03  0.10293312859E+04  0.10100000352E+00 0. -1.
       -3    1    3    3    0  502 -0.59574040141E+03  0.39997924202E+03 -0.88915950235E+03  0.11425824481E+04  0.10100000352E+00 0.  1.
</event>
<event>
 5   0  0.1226021E-04  0.2308701E+04  0.7818609E-02  0.8474498E-01
       -2   -1    0    0    0  501  0.00000000000E+00  0.00000000000E+00  0.68676036414E+03  0.68676036414E+03  0.25500000920E-02 0. -1.
        2   -1    0    0  501    0  0.00000000000E+00  0.00000000000E+00 -0.19403059559E+04  0.19403059559E+04  0.25500000920E-02 0.  1.
    10030    2    1    2    0    0  0.00000000000E+00  0.00000000000E+00 -0.12535455918E+04  0.26270663200E+04  0.23087011282E+04 0.  0.
        2    1    3    3  502    0  0.12115913943E+03  0.63755782610E+03 -0.17130725036E+04  0.18318779767E+04  0.25500000920E-02 0.  1.
       -2    1    3    3    0  502 -0.12115913943E+03 -0.63755782610E+03  0.45952691187E+03  0.79518834337E+03  0.25500000920E-02 0. -1.
</event>
<event>
 5   0  0.1241430E-04  0.2216482E+04  0.7818609E-02  0.8511599E-01
       -2   -1    0    0    0  501  0.00000000000E+00  0.00000000000E+00  0.49086398253E+03  0.49086398253E+03  0.25500000920E-02 0. -1.
        2   -1    0    0  501    0  0.00000000000E+00  0.00000000000E+00 -0.25021155593E+04  0.25021155593E+04  0.25500000920E-02 0.  1.
    10030    2    1    2    0    0  0.00000000000E+00  0.00000000000E+00 -0.20112515768E+04  0.29929795418E+04  0.22164822654E+04 0.  0.
        1    1    3    3  502    0 -0.19851044050E+03 -0.38464926750E+02 -0.24769961401E+04  0.24852355671E+04  0.50400001928E-02 0.  1.
       -1    1    3    3    0  502  0.19851044050E+03  0.38464926750E+02  0.46574456336E+03  0.50774397476E+03  0.50400001928E-02 0. -1.
</event>
<event>
 5   0  0.1311472E-04  0.2197990E+04  0.7818609E-02  0.8519265E-01
       -2   -1    0    0    0  501  0.00000000000E+00  0.00000000000E+00  0.68289513339E+03  0.68289513340E+03  0.25500000920E-02 0.  1.
        2   -1    0    0  501    0  0.00000000000E+00  0.00000000000E+00 -0.17686325405E+04  0.17686325405E+04  0.25500000920E-02 0. -1.
    10030    2    1    2    0    0  0.00000000000E+00  0.00000000000E+00 -0.10857374071E+04  0.24515276739E+04  0.21979904956E+04 0.  0.
        4    1    3    3  502    0  0.37495405933E+03 -0.52523510752E+03 -0.15350449798E+04  0.16651808213E+04  0.12699999809E+01 0. -1.
       -4    1    3    3    0  502 -0.37495405933E+03  0.52523510752E+03  0.44930757269E+03  0.78634685258E+03  0.12699999809E+01 0.  1.
</event>
<event>
 5   0  0.5895063E-05  0.2216200E+04  0.7818609E-02  0.8511715E-01
        1   -1    0    0  501    0  0.00000000000E+00  0.00000000000E+00  0.10574069211E+04  0.10574069211E+04  0.50400001928E-02 0. -1.
       -1   -1    0    0    0  501  0.00000000000E+00  0.00000000000E+00 -0.11612237539E+04  0.11612237539E+04  0.50400001928E-02 0.  1.
    10030    2    1    2    0    0  0.00000000000E+00  0.00000000000E+00 -0.10381683289E+03  0.22186306750E+04  0.22162003829E+04 0.  0.
        5    1    3    3  502    0 -0.28652759084E+03  0.80269996707E+03 -0.76080827409E+03  0.11424870316E+04  0.46999998093E+01 0.  1.
       -5    1    3    3    0  502  0.28652759084E+03 -0.80269996707E+03  0.65699144120E+03  0.10761436434E+04  0.46999998093E+01 0. -1.
</event>
<event>
 5   0  0.1241430E-04  0.2349168E+04  0.7818609E-02  0.8458783E-01
        2   -1    0    0  501    0  0.00000000000E+00  0.00000000000E+00  0.18981776014E+04  0.18981776014E+04  0.25500000920E-02 0.  1.
       -2   -1    0    0    0  501  0.00000000000E+00  0.00000000000E+00 -0.72682723331E+03  0.72682723331E+03  0.25500000920E-02 0. -1.
    10030    2    1    2    0    0  0.00000000000E+00  0.00000000000E+00  0.11713503681E+04  0.26250048347E+04  0.23491676606E+04 0.  0.
        1    1    3    3  502    0  0.13659970318E+03 -0.47455559678E+03 -0.60519411030E+03  0.78110332512E+03  0.50400001928E-02 0. -1.
       -1    1    3    3    0  502 -0.13659970318E+03  0.47455559678E+03  0.17765444784E+04  0.18439015096E+04  0.50400001928E-02 0.  1.
</event>
<event>
 5   0  0.1252124E-04  0.2197578E+04  0.7818609E-02  0.8519437E-01
        2   -1    0    0  501    0  0.00000000000E+00  0.00000000000E+00  0.10476774472E+04  0.10476774472E+04  0.25500000920E-02 0.  1.
       -2   -1    0    0    0  501  0.00000000000E+00  0.00000000000E+00 -0.11523945530E+04  0.11523945530E+04  0.25500000920E-02 0. -1.
    10030    2    1    2    0    0  0.00000000000E+00  0.00000000000E+00 -0.10471710581E+03  0.22000720001E+04  0.21975784704E+04 0.  0.
        3    1    3    3  502    0  0.34436185049E+03 -0.12332901475E+03  0.98493613133E+03  0.10506637535E+04  0.10100000352E+00 0.  1.
       -3    1    3    3    0  502 -0.34436185049E+03  0.12332901475E+03 -0.10896532371E+04  0.11494082466E+04  0.10100000352E+00 0. -1.
</event>
<event>
 5   0  0.5981239E-05  0.2204062E+04  0.7818609E-02  0.8516739E-01
       -1   -1    0    0    0  501  0.00000000000E+00  0.00000000000E+00  0.84347531471E+03  0.84347531472E+03  0.50400001928E-02 0. -1.
        1   -1    0    0  501    0  0.00000000000E+00  0.00000000000E+00 -0.14398431245E+04  0.14398431245E+04  0.50400001928E-02 0.  1.
    10030    2    1    2    0    0  0.00000000000E+00  0.00000000000E+00 -0.59636780975E+03  0.22833184392E+04  0.22040618254E+04 0.  0.
        4    1    3    3  502    0 -0.68840881716E+03 -0.80873908416E+03  0.65095324824E+01  0.10620779598E+04  0.12699999809E+01 0.  1.
       -4    1    3    3    0  502  0.68840881716E+03  0.80873908416E+03 -0.60287734223E+03  0.12212404794E+04  0.12699999809E+01 0. -1.
</event>
<event>
 5   0  0.1404159E-04  0.2249656E+04  0.7818609E-02  0.8498040E-01
        2   -1    0    0  501    0  0.00000000000E+00  0.00000000000E+00  0.10539863765E+04  0.10539863765E+04  0.25500000920E-02 0.  1.
       -2   -1    0    0    0  501  0.00000000000E+00  0.00000000000E+00 -0.12004307877E+04  0.12004307877E+04  0.25500000920E-02 0. -1.
    10030    2    1    2    0    0  0.00000000000E+00  0.00000000000E+00 -0.14644441116E+03  0.22544171642E+04  0.22496557036E+04 0.  0.
        5    1    3    3  502    0  0.11020881253E+03  0.11190609351E+04 -0.45374048692E+02  0.11253995970E+04  0.46999998093E+01 0.  1.
       -5    1    3    3    0  502 -0.11020881253E+03 -0.11190609351E+04 -0.10107036247E+03  0.11290175671E+04  0.46999998093E+01 0. -1.
</event>
<event>
 5   0  0.1226021E-04  0.2206938E+04  0.7818609E-02  0.8515546E-01
       -2   -1    0    0    0  501  0.00000000000E+00  0.00000000000E+00  0.54894467887E+03  0.54894467887E+03  0.25500000920E-02 0.  1.
        2   -1    0    0  501    0  0.00000000000E+00  0.00000000000E+00 -0.22181545594E+04  0.22181545594E+04  0.25500000920E-02 0. -1.
    10030    2    1    2    0    0  0.00000000000E+00  0.00000000000E+00 -0.16692098806E+04  0.27670992383E+04  0.22069382794E+04 0.  0.
        2    1    3    3  502    0  0.34406808093E+03  0.47803389288E+03 -0.20045891912E+04  0.20893245493E+04  0.25500000920E-02 0. -1.
       -2    1    3    3    0  502 -0.34406808093E+03 -0.47803389288E+03  0.33537931059E+03  0.67777468899E+03  0.25500000920E-02 0.  1.
</event>
<event>
 5   0  0.1226021E-04  0.1808908E+04  0.7818609E-02  0.8701576E-01
       -2   -1    0    0    0  501  0.00000000000E+00  0.00000000000E+00  0.90910989543E+03  0.90910989544E+03  0.25500000920E-02 0. -1.
        2   -1    0    0  501    0  0.00000000000E+00  0.00000000000E+00 -0.89982244050E+03  0.89982244050E+03  0.25500000920E-02 0.  1.
    10030    2    1    2    0    0  0.00000000000E+00  0.00000000000E+00  0.92874549377E+01  0.18089323359E+04  0.18089084939E+04 0.  0.
        2    1    3    3  502    0  0.63259616097E+03  0.19892478142E+03  0.61970346869E+03  0.90762401944E+03  0.25500000920E-02 0.  1.
       -2    1    3    3    0  502 -0.63259616097E+03 -0.19892478142E+03 -0.61041601376E+03  0.90130831650E+03  0.25500000920E-02 0. -1.
</event>
<event>
 5   0  0.6263558E-05  0.2081575E+04  0.7818609E-02  0.8569403E-01
       -1   -1    0    0    0  501  0.00000000000E+00  0.00000000000E+00  0.67715498271E+03  0.67715498273E+03  0.50400001928E-02 0. -1.
        1   -1    0    0  501    0  0.00000000000E+00  0.00000000000E+00 -0.15996911144E+04  0.15996911144E+04  0.50400001928E-02 0.  1.
    10030    2    1    2    0    0  0.00000000000E+00  0.00000000000E+00 -0.92253613169E+03  0.22768460971E+04  0.20815751814E+04 0.  0.
        3    1    3    3  502    0  0.74463794168E+02 -0.96567066705E+03 -0.44507947295E+02  0.96955951928E+03  0.10100000352E+00 0. -1.
       -3    1    3    3    0  502 -0.74463794168E+02  0.96567066705E+03 -0.87802818439E+03  0.13072865779E+04  0.10100000352E+00 0.  1.
</event>
<event>
 5   0  0.5849604E-05  0.2136660E+04  0.7818609E-02  0.8545264E-01
        1   -1    0    0  501    0  0.00000000000E+00  0.00000000000E+00  0.19501319058E+04  0.19501319058E+04  0.50400001928E-02 0.  1.
       -1   -1    0    0    0  501  0.00000000000E+00  0.00000000000E+00 -0.58525758723E+03  0.58525758725E+03  0.50400001928E-02 0. -1.
    10030    2    1    2    0    0  0.00000000000E+00  0.00000000000E+00  0.13648743186E+04  0.25353894931E+04  0.21366604728E+04 0.  0.
        2    1    3    3  502    0 -0.73153850582E+03 -0.22640444132E+02  0.16059152556E+04  0.17648300155E+04  0.25500000920E-02 0.  1.
       -2    1    3    3    0  502  0.73153850582E+03  0.22640444132E+02 -0.24104093703E+03  0.77055947761E+03  0.25500000920E-02 0. -1.
</event>
<event>
 5   0  0.1241430E-04  0.2239776E+04  0.7818609E-02  0.8502052E-01
       -2   -1    0    0    0  501  0.00000000000E+00  0.00000000000E+00  0.57885988791E+03  0.57885988792E+03  0.25500000920E-02 0.  1.
        2   -1    0    0  501    0  0.00000000000E+00  0.00000000000E+00 -0.21665851353E+04  0.21665851353E+04  0.25500000920E-02 0. -1.
    10030    2    1    2    0    0  0.00000000000E+00  0.00000000000E+00 -0.15877252474E+04  0.27454450233E+04  0.22397760858E+04 0.  0.
        1    1    3    3  502    0 -0.75601085837E+01  0.64597495795E+03  0.32743569433E+03  0.72426164850E+03  0.50400001928E-02 0.  1.
       -1    1    3    3    0  502  0.75601085837E+01 -0.64597495795E+03 -0.19151609418E+04  0.20211833748E+04  0.50400001928E-02 0. -1.
</event>
<event>
 5   0  0.4586375E-05  0.1403644E+04  0.7818609E-02  0.8951185E-01
        4   -1    0    0  501    0  0.00000000000E+00  0.00000000000E+00  0.83332466377E+03  0.83332563152E+03  0.12699999809E+01 0.  1.
       -4   -1    0    0    0  501  0.00000000000E+00  0.00000000000E+00 -0.59106872770E+03  0.59107009209E+03  0.12699999809E+01 0. -1.
    10030    2    1    2    0    0  0.00000000000E+00  0.00000000000E+00  0.24225593607E+03  0.14243957236E+04  0.14036435583E+04 0.  0.
        5    1    3    3  502    0 -0.61550908171E+03 -0.21647380318E+01 -0.22101487464E+03  0.65400747746E+03  0.46999998093E+01 0. -1.
       -5    1    3    3    0  502  0.61550908171E+03  0.21647380318E+01  0.46327081071E+03  0.77038824616E+03  0.46999998093E+01 0.  1.
</event>
<event>
 5   0  0.5895063E-05  0.2194901E+04  0.7818609E-02  0.8520554E-01
       -1   -1    0    0    0  501  0.00000000000E+00  0.00000000000E+00  0.69206453354E+03  0.69206453356E+03  0.50400001928E-02 0. -1.
        1   -1    0    0  501    0  0.00000000000E+00  0.00000000000E+00 -0.17402960045E+04  0.17402960045E+04  0.50400001928E-02 0.  1.
    10030    2    1    2    0    0  0.00000000000E+00  0.00000000000E+00 -0.10482314709E+04  0.24323605381E+04  0.21949005833E+04 0.  0.
        5    1    3    3  502    0 -0.10654521328E+03  0.30730630851E+03  0.63741344734E+03  0.71561654716E+03  0.46999998093E+01 0. -1.
       -5    1    3    3    0  502  0.10654521328E+03 -0.30730630851E+03 -0.16856449183E+04  0.17167439909E+04  0.46999998093E+01 0.  1.
</event>
<event>
 5   0  0.1404159E-04  0.2176883E+04  0.7818609E-02  0.8528112E-01
        2   -1    0    0  501    0  0.00000000000E+00  0.00000000000E+00  0.12788121978E+04  0.12788121978E+04  0.25500000920E-02 0.  1.
       -2   -1    0    0    0  501  0.00000000000E+00  0.00000000000E+00 -0.92641018732E+03  0.92641018733E+03  0.25500000920E-02 0. -1.
    10030    2    1    2    0    0  0.00000000000E+00  0.00000000000E+00  0.35240201045E+03  0.22052223851E+04  0.21768827692E+04 0.  0.
        5    1    3    3  502    0  0.96390286384E+02 -0.10602815311E+04  0.40540870110E+03  0.11392393591E+04  0.46999998093E+01 0.  1.
       -5    1    3    3    0  502 -0.96390286384E+02  0.10602815311E+04 -0.53006690648E+02  0.10659830260E+04  0.46999998093E+01 0. -1.
</event>
<event>
 5   0  0.5849604E-05  0.2170486E+04  0.7818609E-02  0.8530814E-01
        1   -1    0    0  501    0  0.00000000000E+00  0.00000000000E+00  0.21951630111E+04  0.21951630111E+04  0.50400001928E-02 0.  1.
       -1   -1    0    0    0  501  0.00000000000E+00  0.00000000000E+00 -0.53652154803E+03  0.53652154806E+03  0.50400001928E-02 0. -1.
    10030    2    1    2    0    0  0.00000000000E+00  0.00000000000E+00  0.16586414631E+04  0.27316845592E+04  0.21704858967E+04 0.  0.
        2    1    3    3  502    0 -0.37336434235E+03  0.16448018216E+03  0.20949691089E+04  0.21343266455E+04  0.25500000920E-02 0.  1.
       -2    1    3    3    0  502  0.37336434235E+03 -0.16448018216E+03 -0.43632764584E+03  0.59735791365E+03  0.25500000920E-02 0. -1.
</event>
<event>
 5   0  0.6263558E-05  0.2221586E+04  0.7818609E-02  0.8509497E-01
       -1   -1    0    0    0  501  0.00000000000E+00  0.00000000000E+00  0.60888072685E+03  0.60888072687E+03  0.50400001928E-02 0. -1.
        1   -1    0    0  501    0  0.00000000000E+00  0.00000000000E+00 -0.20264406951E+04  0.20264406951E+04  0.50400001928E-02 0.  1.
    10030    2    1    2    0    0  0.00000000000E+00  0.00000000000E+00 -0.14175599682E+04  0.26353214220E+04  0.22215856350E+04 0.  0.
        3    1    3    3  502    0 -0.71223632371E+02  0.72657365864E+03 -0.17018775772E+04  0.18518556600E+04  0.10100000352E+00 0.  1.
       -3    1    3    3    0  502  0.71223632371E+02 -0.72657365864E+03  0.28431760900E+03  0.78346576200E+03  0.10100000352E+00 0. -1.
</event>
<event>
 5   0  0.5895063E-05  0.1637810E+04  0.7818609E-02  0.8797650E-01
        1   -1    0    0  501    0  0.00000000000E+00  0.00000000000E+00  0.12846862680E+04  0.12846862680E+04  0.50400001928E-02 0. -1.
       -1   -1    0    0    0  501  0.00000000000E+00  0.00000000000E+00 -0.52199963215E+03  0.52199963218E+03  0.50400001928E-02 0.  1.
    10030    2    1    2    0    0  0.00000000000E+00  0.00000000000E+00  0.76268663584E+03  0.18066859002E+04  0.16378104400E+04 0.  0.
        5    1    3    3  502    0 -0.35755545717E+03  0.20870801693E+03 -0.39803273069E+03  0.57433186050E+03  0.46999998093E+01 0.  1.
       -5    1    3    3    0  502  0.35755545717E+03 -0.20870801693E+03  0.11607193665E+04  0.12323540397E+04  0.46999998093E+01 0. -1.
</event>
<event>
 5   0  0.1226021E-04  0.2149145E+04  0.7818609E-02  0.8539898E-01
       -2   -1    0    0    0  501  0.00000000000E+00  0.00000000000E+00  0.73241093955E+03  0.73241093956E+03  0.25500000920E-02 0.  1.
        2   -1    0    0  501    0  0.00000000000E+00  0.00000000000E+00 -0.15765823749E+04  0.15765823749E+04  0.25500000920E-02 0. -1.
    10030    2    1    2    0    0  0.00000000000E+00  0.00000000000E+00 -0.84417143536E+03  0.23089933145E+04  0.21491451124E+04 0.  0.
        2    1    3    3  502    0  0.18238574740E+03 -0.10564922021E+04 -0.34412228588E+03  0.11259931091E+04  0.25500000920E-02 0.  1.
       -2    1    3    3    0  502 -0.18238574740E+03  0.10564922021E+04 -0.50004914948E+03  0.11830002054E+04  0.25500000920E-02 0. -1.
</event>
<event>
 5   0  0.1241430E-04  0.2206767E+04  0.7818609E-02  0.8515617E-01
       -2   -1    0    0    0  501  0.00000000000E+00  0.00000000000E+00  0.96176487012E+03  0.96176487012E+03  0.25500000920E-02 0.  1.
        2   -1    0    0  501    0  0.00000000000E+00  0.00000000000E+00 -0.12658551595E+04  0.12658551595E+04  0.25500000920E-02 0. -1.
    10030    2    1    2    0    0  0.00000000000E+00  0.00000000000E+00 -0.30409028934E+03  0.22276200296E+04  0.22067668867E+04 0.  0.
        1    1    3    3  502    0  0.18426698359E+03 -0.87170599968E+03 -0.80906376400E+03  0.12034990010E+04  0.50400001928E-02 0.  1.
       -1    1    3    3    0  502 -0.18426698359E+03  0.87170599968E+03  0.50497347465E+03  0.10241210286E+04  0.50400001928E-02 0. -1.
</event>
<event>
 5   0  0.5861816E-05  0.1455712E+04  0.7818609E-02  0.8914450E-01
        1   -1    0    0  501    0  0.00000000000E+00  0.00000000000E+00  0.17010609459E+04  0.17010609459E+04  0.50400001928E-02 0. -1.
       -1   -1    0    0    0  501  0.00000000000E+00  0.00000000000E+00 -0.31143750904E+03  0.31143750908E+03  0.50400001928E-02 0.  1.
    10030    2    1    2    0    0  0.00000000000E+00  0.00000000000E+00  0.13896234368E+04  0.20124984550E+04  0.14557117623E+04 0.  0.
        1    1    3    3  502    0 -0.32634957730E+02 -0.51004223411E+03  0.14112614603E+04  0.15009553726E+04  0.50400001928E-02 0. -1.
       -1    1    3    3    0  502  0.32634957730E+02  0.51004223411E+03 -0.21638023501E+02  0.51154308238E+03  0.50400001928E-02 0.  1.
</event>
<event>
 5   0  0.1241430E-04  0.2152267E+04  0.7818609E-02  0.8538562E-01
        2   -1    0    0  501    0  0.00000000000E+00  0.00000000000E+00  0.16881477717E+04  0.16881477717E+04  0.25500000920E-02 0. -1.
       -2   -1    0    0    0  501  0.00000000000E+00  0.00000000000E+00 -0.68599666734E+03  0.68599666735E+03  0.25500000920E-02 0.  1.
    10030    2    1    2    0    0  0.00000000000E+00  0.00000000000E+00  0.10021511044E+04  0.23741444391E+04  0.21522674047E+04 0.  0.
        1    1    3    3  502    0 -0.59923867432E+03 -0.76547460984E+03 -0.80519778124E+01  0.97216418442E+03  0.50400001928E-02 0.  1.
       -1    1    3    3    0  502  0.59923867432E+03  0.76547460984E+03  0.10102030822E+04  0.14019802546E+04  0.50400001928E-02 0. -1.
</event>
<event>
 5   0  0.1241430E-04  0.2169518E+04  0.7818609E-02  0.8531224E-01
       -2   -1    0    0    0  501  0.00000000000E+00  0.00000000000E+00  0.69795217587E+03  0.69795217588E+03  0.25500000920E-02 0.  1.
        2   -1    0    0  501    0  0.00000000000E+00  0.00000000000E+00 -0.16859346560E+04  0.16859346560E+04  0.25500000920E-02 0. -1.
    10030    2    1    2    0    0  0.00000000000E+00  0.00000000000E+00 -0.98798248009E+03  0.23838868318E+04  0.21695176989E+04 0.  0.
        1    1    3    3  502    0  0.77949105603E+03  0.73284936147E+03 -0.69063600411E+03  0.12734412367E+04  0.50400001928E-02 0. -1.
       -1    1    3    3    0  502 -0.77949105603E+03 -0.73284936147E+03 -0.29734647598E+03  0.11104455952E+04  0.50400001928E-02 0.  1.
</event>
<event>
 5   0  0.1404159E-04  0.2260590E+04  0.7818609E-02  0.8493624E-01
        2   -1    0    0  501    0  0.00000000000E+00  0.00000000000E+00  0.10198655079E+04  0.10198655079E+04  0.25500000920E-02 0.  1.
       -2   -1    0    0    0  501  0.00000000000E+00  0.00000000000E+00 -0.12526816211E+04  0.12526816211E+04  0.25500000920E-02 0. -1.
    10030    2    1    2    0    0  0.00000000000E+00  0.00000000000E+00 -0.23281611321E+03  0.22725471289E+04  0.22605899917E+04 0.  0.
        5    1    3    3  502    0 -0.92133554574E+02 -0.85603870745E+03 -0.85257498005E+03  0.12116918119E+04  0.46999998093E+01 0. -1.
       -5    1    3    3    0  502  0.92133554574E+02  0.85603870745E+03  0.61975886684E+03  0.10608553170E+04  0.46999998093E+01 0.  1.
</event>
<event>
 5   0  0.1241430E-04  0.2269121E+04  0.7818609E-02  0.8490197E-01
       -2   -1    0    0    0  501  0.00000000000E+00  0.00000000000E+00  0.11109067521E+04  0.11109067521E+04  0.25500000920E-02 0. -1.
        2   -1    0    0  501    0  0.00000000000E+00  0.00000000000E+00 -0.11587181682E+04  0.11587181682E+04  0.25500000920E-02 0.  1.
    10030    2    1    2    0    0  0.00000000000E+00  0.00000000000E+00 -0.47811416161E+02  0.22696249203E+04  0.22691212720E+04 0.  0.
        1    1    3    3  502    0  0.53662971688E+03  0.72598067849E+03  0.66342105683E+03  0.11203333867E+04  0.50400001928E-02 0. -1.
       -1    1    3    3    0  502 -0.53662971688E+03 -0.72598067849E+03 -0.71123247299E+03  0.11492915336E+04  0.50400001928E-02 0.  1.
</event>
<event>
 5   0  0.5861816E-05  0.2191053E+04  0.7818609E-02  0.8522161E-01
        1   -1    0    0  501    0  0.00000000000E+00  0.00000000000E+00  0.17823290609E+04  0.17823290610E+04  0.50400001928E-02 0. -1.
       -1   -1    0    0    0  501  0.00000000000E+00  0.00000000000E+00 -0.67337652356E+03  0.67337652358E+03  0.50400001928E-02 0.  1.
    10030    2    1    2    0    0  0.00000000000E+00  0.00000000000E+00  0.11089525374E+04  0.24557055845E+04  0.21910532143E+04 0.  0.
        1    1    3    3  502    0 -0.74309741637E+03 -0.78302468668E+03  0.34522451672E+03  0.11333584592E+04  0.50400001928E-02 0.  1.
       -1    1    3    3    0  502  0.74309741637E+03  0.78302468668E+03  0.76372802067E+03  0.13223471253E+04  0.50400001928E-02 0. -1.
</event>
<event>
 5   0  0.5861816E-05  0.2189910E+04  0.7818609E-02  0.8522639E-01
        1   -1    0    0  501    0  0.00000000000E+00  0.00000000000E+00  0.95061993055E+03  0.95061993056E+03  0.50400001928E-02 0.  1.
       -1   -1    0    0    0  501  0.00000000000E+00  0.00000000000E+00 -0.12612052609E+04  0.12612052609E+04  0.50400001928E-02 0. -1.
    10030    2    1    2    0    0  0.00000000000E+00  0.00000000000E+00 -0.31058533035E+03  0.22118251915E+04  0.21899103704E+04 0.  0.
        1    1    3    3  502    0  0.85088111607E+03 -0.68533753627E+03 -0.82175921763E+02  0.10956455150E+04  0.50400001928E-02 0. -1.
       -1    1    3    3    0  502 -0.85088111607E+03  0.68533753627E+03 -0.22840940858E+03  0.11161796765E+04  0.50400001928E-02 0.  1.
</event>
<event>
 5   0  0.5861816E-05  0.2023473E+04  0.7818609E-02  0.8595724E-01
       -1   -1    0    0    0  501  0.00000000000E+00  0.00000000000E+00  0.94658120830E+03  0.94658120831E+03  0.50400001928E-02 0. -1.
        1   -1    0    0  501    0  0.00000000000E+00  0.00000000000E+00 -0.10813761771E+04  0.10813761771E+04  0.50400001928E-02 0.  1.
    10030    2    1    2    0    0  0.00000000000E+00  0.00000000000E+00 -0.13479496882E+03  0.20279573854E+04  0.20234726273E+04 0.  0.
        1    1    3    3  502    0  0.37935979729E+03  0.22190553616E+03  0.84591500800E+03  0.95327232393E+03  0.50400001928E-02 0. -1.
       -1    1    3    3    0  502 -0.37935979729E+03 -0.22190553616E+03 -0.98070997682E+03  0.10746850615E+04  0.50400001928E-02 0.  1.
</event>
<event>
 5   0  0.1404159E-04  0.2199202E+04  0.7818609E-02  0.8518760E-01
        2   -1    0    0  501    0  0.00000000000E+00  0.00000000000E+00  0.91460785242E+03  0.91460785242E+03  0.25500000920E-02 0. -1.
       -2   -1    0    0    0  501  0.00000000000E+00  0.00000000000E+00 -0.13220117447E+04  0.13220117447E+04  0.25500000920E-02 0.  1.
    10030    2    1    2    0    0  0.00000000000E+00  0.00000000000E+00 -0.40740389223E+03  0.22366195971E+04  0.21992019668E+04 0.  0.
        5    1    3    3  502    0  0.76980429636E+03 -0.78341151137E+03 -0.15019518936E+03  0.11085634559E+04  0.46999998093E+01 0. -1.
       -5    1    3    3    0  502 -0.76980429636E+03  0.78341151137E+03 -0.25720870287E+03  0.11280561412E+04  0.46999998093E+01 0.  1.
</event>
<event>
 5   0  0.1241430E-04  0.2163634E+04  0.7818609E-02  0.8533719E-01
        2   -1    0    0  501    0  0.00000000000E+00  0.00000000000E+00  0.12884596214E+04  0.12884596214E+04  0.25500000920E-02 0.  1.
       -2   -1    0    0    0  501  0.00000000000E+00  0.00000000000E+00 -0.90831531409E+03  0.90831531410E+03  0.25500000920E-02 0. -1.
    10030    2    1    2    0    0  0.00000000000E+00  0.00000000000E+00  0.38014430734E+03  0.21967749355E+04  0.21636336157E+04 0.  0.
        1    1    3    3  502    0  0.47922287824E+03 -0.77531170482E+03  0.78171984727E+03  0.12007700555E+04  0.50400001928E-02 0. -1.
       -1    1    3    3    0  502 -0.47922287824E+03  0.77531170482E+03 -0.40157553993E+03  0.99600487998E+03  0.50400001928E-02 0.  1.
</event>
<event>
 5   0  0.5895063E-05  0.2045263E+04  0.7818609E-02  0.8585747E-01
        1   -1    0    0  501    0  0.00000000000E+00  0.00000000000E+00  0.25332148278E+04  0.25332148278E+04  0.50400001928E-02 0.  1.
       -1   -1    0    0    0  501  0.00000000000E+00  0.00000000000E+00 -0.41282512589E+03  0.41282512592E+03  0.50400001928E-02 0. -1.
    10030    2    1    2    0    0  0.00000000000E+00  0.00000000000E+00  0.21203897019E+04  0.29460399537E+04  0.20452625555E+04 0.  0.
        5    1    3    3  502    0  0.94719664716E+03  0.24204213532E+03  0.62810022564E+03  0.11620231784E+04  0.46999998093E+01 0. -1.
       -5    1    3    3    0  502 -0.94719664716E+03 -0.24204213532E+03  0.14922894763E+04  0.17840167753E+04  0.46999998093E+01 0.  1.
</event>
<event>
 5   0  0.6263558E-05  0.2264994E+04  0.7818609E-02  0.8491853E-01
       -1   -1    0    0    0  501  0.00000000000E+00  0.00000000000E+00  0.80401099519E+03  0.80401099520E+03  0.50400001928E-02 0. -1.
        1   -1    0    0  501    0  0.00000000000E+00  0.00000000000E+00 -0.15951887216E+04  0.15951887217E+04  0.50400001928E-02 0.  1.
    10030    2    1    2    0    0  0.00000000000E+00  0.00000000000E+00 -0.79117772646E+03  0.23991997169E+04  0.22649938381E+04 0.  0.
        3    1    3    3  502    0 -0.15293358127E+03 -0.77337589758E+03 -0.12568138682E+04  0.14836037438E+04  0.10100000352E+00 0.  1.
       -3    1    3    3    0  502  0.15293358127E+03  0.77337589758E+03  0.46563614169E+03  0.91559597306E+03  0.10100000352E+00 0. -1.
</event>
<event>
 5   0  0.1241430E-04  0.2152150E+04  0.7818609E-02  0.8538612E-01
        2   -1    0    0  501    0  0.00000000000E+00  0.00000000000E+00  0.20179728335E+04  0.20179728335E+04  0.25500000920E-02 0.  1.
       -2   -1    0    0    0  501  0.00000000000E+00  0.00000000000E+00 -0.57381240648E+03  0.57381240649E+03  0.25500000920E-02 0. -1.
    10030    2    1    2    0    0  0.00000000000E+00  0.00000000000E+00  0.14441604270E+04  0.25917852400E+04  0.21521504109E+04 0.  0.
        1    1    3    3  502    0  0.35228208746E+03  0.84056673832E+03  0.33129837973E+02  0.91200476803E+03  0.50400001928E-02 0. -1.
       -1    1    3    3    0  502 -0.35228208746E+03 -0.84056673832E+03  0.14110305890E+04  0.16797804719E+04  0.50400001928E-02 0.  1.
</event>
<event>
 5   0  0.5861816E-05  0.2169608E+04  0.7818609E-02  0.8531185E-01
       -1   -1    0    0    0  501  0.00000000000E+00  0.00000000000E+00  0.47091067370E+03  0.47091067372E+03  0.50400001928E-02 0. -1.
        1   -1    0    0  501    0  0.00000000000E+00  0.00000000000E+00 -0.24989879843E+04  0.24989879843E+04  0.50400001928E-02 0.  1.
    10030    2    1    2    0    0  0.00000000000E+00  0.00000000000E+00 -0.20280773106E+04  0.29698986580E+04  0.21696083659E+04 0.  0.
        1    1    3    3  502    0  0.62139608791E+02 -0.95661345476E+03 -0.17091054984E+04  0.19595949167E+04  0.50400001928E-02 0.  1.
       -1    1    3    3    0  502 -0.62139608791E+02  0.95661345476E+03 -0.31897181223E+03  0.10103037414E+04  0.50400001928E-02 0. -1.
</event>
<event>
 5   0  0.5849604E-05  0.2165309E+04  0.7818609E-02  0.8533007E-01
        1   -1    0    0  501    0  0.00000000000E+00  0.00000000000E+00  0.20161329925E+04  0.20161329925E+04  0.50400001928E-02 0.  1.
       -1   -1    0    0    0  501  0.00000000000E+00  0.00000000000E+00 -0.58138090198E+03  0.58138090201E+03  0.50400001928E-02 0. -1.
    10030    2    1    2    0    0  0.00000000000E+00  0.00000000000E+00  0.14347520905E+04  0.25975138945E+04  0.21653094169E+04 0.  0.
        2    1    3    3  502    0  0.58266176738E+03  0.90798994476E+03  0.82600972967E+03  0.13587614023E+04  0.25500000920E-02 0.  1.
       -2    1    3    3    0  502 -0.58266176738E+03 -0.90798994476E+03  0.60874236081E+03  0.12387524921E+04  0.25500000920E-02 0. -1.
</event>
<event>
 5   0  0.5981239E-05  0.2218912E+04  0.7818609E-02  0.8510597E-01
        1   -1    0    0  501    0  0.00000000000E+00  0.00000000000E+00  0.21014932167E+04  0.21014932167E+04  0.50400001928E-02 0. -1.
       -1   -1    0    0    0  501  0.00000000000E+00  0.00000000000E+00 -0.58572298394E+03  0.58572298396E+03  0.50400001928E-02 0.  1.
    10030    2    1    2    0    0  0.00000000000E+00  0.00000000000E+00  0.15157702327E+04  0.26872162006E+04  0.22189122359E+04 0.  0.
        4    1    3    3  502    0 -0.41416540930E+03  0.36562619558E+03 -0.40729195687E+03  0.68637005484E+03  0.12699999809E+01 0.  1.
       -4    1    3    3    0  502  0.41416540930E+03 -0.36562619558E+03  0.19230621896E+04  0.20008461458E+04  0.12699999809E+01 0. -1.
</event>
<event>
 5   0  0.5981239E-05  0.2226020E+04  0.7818609E-02  0.8507676E-01
        1   -1    0    0  501    0  0.00000000000E+00  0.00000000000E+00  0.85184061384E+03  0.85184061386E+03  0.50400001928E-02 0. -1.
       -1   -1    0    0    0  501  0.00000000000E+00  0.00000000000E+00 -0.14542521671E+04  0.14542521671E+04  0.50400001928E-02 0.  1.
    10030    2    1    2    0    0  0.00000000000E+00  0.00000000000E+00 -0.60241155329E+03  0.23060927810E+04  0.22260198191E+04 0.  0.
        4    1    3    3  502    0 -0.47599096666E+03  0.95269711008E+03  0.33831689105E+02  0.10655258702E+04  0.12699999809E+01 0.  1.
       -4    1    3    3    0  502  0.47599096666E+03 -0.95269711008E+03 -0.63624324240E+03  0.12405669108E+04  0.12699999809E+01 0. -1.
</event>
<event>
 5   0  0.5861816E-05  0.1997580E+04  0.7818609E-02  0.8607753E-01
       -1   -1    0    0    0  501  0.00000000000E+00  0.00000000000E+00  0.17400363472E+04  0.17400363472E+04  0.50400001928E-02 0.  1.
        1   -1    0    0  501    0  0.00000000000E+00  0.00000000000E+00 -0.57331058603E+03  0.57331058605E+03  0.50400001928E-02 0. -1.
    10030    2    1    2    0    0  0.00000000000E+00  0.00000000000E+00  0.11667257612E+04  0.23133469333E+04  0.19975797936E+04 0.  0.
        1    1    3    3  502    0 -0.72204159844E+03 -0.68273416035E+03  0.69981278888E+03  0.12154044360E+04  0.50400001928E-02 0.  1.
       -1    1    3    3    0  502  0.72204159844E+03  0.68273416035E+03  0.46691297233E+03  0.10979424973E+04  0.50400001928E-02 0. -1.
</event>
<event>
 5   0  0.6263558E-05  0.2186269E+04  0.7818609E-02  0.8524165E-01
       -1   -1    0    0    0  501  0.00000000000E+00  0.00000000000E+00  0.10501743399E+04  0.10501743399E+04  0.50400001928E-02 0. -1.
        1   -1    0    0  501    0  0.00000000000E+00  0.00000000000E+00 -0.11378522602E+04  0.11378522602E+04  0.50400001928E-02 0.  1.
    10030    2    1    2    0    0  0.00000000000E+00  0.00000000000E+00 -0.87677920309E+02  0.21880266001E+04  0.21862691932E+04 0.  0.
        3    1    3    3  502    0  0.23729810879E+03 -0.93463617219E+03 -0.55911987040E+03  0.11146614762E+04  0.10100000352E+00 0.  1.
       -3    1    3    3    0  502 -0.23729810879E+03  0.93463617219E+03  0.47144195009E+03  0.10733651239E+04  0.10100000352E+00 0. -1.
</event>
<event>
 5   0  0.5981239E-05  0.2190824E+04  0.7818609E-02  0.8522257E-01
        1   -1    0    0  501    0  0.00000000000E+00  0.00000000000E+00  0.14940445411E+04  0.14940445411E+04  0.50400001928E-02 0. -1.
       -1   -1    0    0    0  501  0.00000000000E+00  0.00000000000E+00 -0.80314060883E+03  0.80314060884E+03  0.50400001928E-02 0.  1.
    10030    2    1    2    0    0  0.00000000000E+00  0.00000000000E+00  0.69090393230E+03  0.22971851500E+04  0.21908243585E+04 0.  0.
        4    1    3    3  502    0  0.45472367995E+03 -0.89978478348E+03 -0.10376250793E+03  0.10134863357E+04  0.12699999809E+01 0.  1.
       -4    1    3    3    0  502 -0.45472367995E+03  0.89978478348E+03  0.79466644023E+03  0.12836988143E+04  0.12699999809E+01 0. -1.
</event>
<event>
 5   0  0.1252124E-04  0.2151777E+04  0.7818609E-02  0.8538772E-01
       -2   -1    0    0    0  501  0.00000000000E+00  0.00000000000E+00  0.41379995393E+03  0.41379995394E+03  0.25500000920E-02 0. -1.
        2   -1    0    0  501    0  0.00000000000E+00  0.00000000000E+00 -0.27973323778E+04  0.27973323778E+04  0.25500000920E-02 0.  1.
    10030    2    1    2    0    0  0.00000000000E+00  0.00000000000E+00 -0.23835324239E+04  0.32111323318E+04  0.21517769486E+04 0.  0.
        3    1    3    3  502    0 -0.62888122107E+03  0.87062740598E+03 -0.12867639536E+04  0.16760802943E+04  0.10100000352E+00 0.  1.
       -3    1    3    3    0  502  0.62888122107E+03 -0.87062740598E+03 -0.10967684703E+04  0.15350520375E+04  0.10100000352E+00 0. -1.
</event>
<event>
 5   0  0.5849604E-05  0.1770915E+04  0.7818609E-02  0.8721922E-01
        1   -1    0    0  501    0  0.00000000000E+00  0.00000000000E+00  0.83280587180E+03  0.83280587181E+03  0.50400001928E-02 0. -1.
       -1   -1    0    0    0  501  0.00000000000E+00  0.00000000000E+00 -0.94143737129E+03  0.94143737130E+03  0.50400001928E-02 0.  1.
    10030    2    1    2    0    0  0.00000000000E+00  0.00000000000E+00 -0.10863149949E+03  0.17742432431E+04  0.17709145330E+04 0.  0.
        2    1    3    3  502    0 -0.24356692316E+03  0.85005654791E+03 -0.82555373005E+01  0.88430149531E+03  0.25500000920E-02 0.  1.
       -2    1    3    3    0  502  0.24356692316E+03 -0.85005654791E+03 -0.10037596219E+03  0.88994174781E+03  0.25500000920E-02 0. -1.
</event>
<event>
 5   0  0.6263558E-05  0.2144748E+04  0.7818609E-02  0.8541784E-01
        1   -1    0    0  501    0  0.00000000000E+00  0.00000000000E+00  0.21347023676E+04  0.21347023676E+04  0.50400001928E-02 0. -1.
       -1   -1    0    0    0  501  0.00000000000E+00  0.00000000000E+00 -0.53871041473E+03  0.53871041475E+03  0.50400001928E-02 0.  1.
    10030    2    1    2    0    0  0.00000000000E+00  0.00000000000E+00  0.15959919528E+04  0.26734127823E+04  0.21447483748E+04 0.  0.
        3    1    3    3  502    0  0.42953804136E+03 -0.78457389654E+03  0.60637697897E+02  0.89651328418E+03  0.10100000352E+00 0.  1.
       -3    1    3    3    0  502 -0.42953804136E+03  0.78457389654E+03  0.15353542549E+04  0.17768994981E+04  0.10100000352E+00 0. -1.
</event>
<event>
 5   0  0.5849604E-05  0.2121132E+04  0.7818609E-02  0.8551991E-01
       -1   -1    0    0    0  501  0.00000000000E+00  0.00000000000E+00  0.97740178745E+03  0.97740178746E+03  0.50400001928E-02 0. -1.
        1   -1    0    0  501    0  0.00000000000E+00  0.00000000000E+00 -0.11508068565E+04  0.11508068565E+04  0.50400001928E-02 0.  1.
    10030    2    1    2    0    0  0.00000000000E+00  0.00000000000E+00 -0.17340506900E+03  0.21282086439E+04  0.21211324131E+04 0.  0.
        2    1    3    3  502    0  0.92095375826E+03  0.22140643096E+02 -0.61395983169E+03  0.11070649068E+04  0.25500000920E-02 0.  1.
       -2    1    3    3    0  502 -0.92095375826E+03 -0.22140643096E+02  0.44055476268E+03  0.10211437371E+04  0.25500000920E-02 0. -1.
</event>
<event>
 5   0  0.1241430E-04  0.2181595E+04  0.7818609E-02  0.8526128E-01
        2   -1    0    0  501    0  0.00000000000E+00  0.00000000000E+00  0.15558296658E+04  0.15558296658E+04  0.25500000920E-02 0. -1.
       -2   -1    0    0    0  501  0.00000000000E+00  0.00000000000E+00 -0.76476160209E+03  0.76476160210E+03  0.25500000920E-02 0.  1.
    10030    2    1    2    0    0  0.00000000000E+00  0.00000000000E+00  0.79106806371E+03  0.23205912679E+04  0.21815946350E+04 0.  0.
        1    1    3    3  502    0 -0.39780918664E+03 -0.66753375799E+03 -0.41873508839E+03  0.88271883480E+03  0.50400001928E-02 0.  1.
       -1    1    3    3    0  502  0.39780918664E+03  0.66753375799E+03  0.12098031521E+04  0.14378724331E+04  0.50400001928E-02 0. -1.
</event>
<event>
 5   0  0.5861816E-05  0.2197617E+04  0.7818609E-02  0.8519421E-01
       -1   -1    0    0    0  501  0.00000000000E+00  0.00000000000E+00  0.53803877692E+03  0.53803877695E+03  0.50400001928E-02 0. -1.
        1   -1    0    0  501    0  0.00000000000E+00  0.00000000000E+00 -0.22440384123E+04  0.22440384123E+04  0.50400001928E-02 0.  1.
    10030    2    1    2    0    0  0.00000000000E+00  0.00000000000E+00 -0.17059996354E+04  0.27820771892E+04  0.21976166024E+04 0.  0.
        1    1    3    3  502    0 -0.15679584379E+03 -0.33893326153E+02  0.52313486496E+03  0.54717801596E+03  0.50400001928E-02 0. -1.
       -1    1    3    3    0  502  0.15679584379E+03  0.33893326153E+02 -0.22291345003E+04  0.22348991733E+04  0.50400001928E-02 0.  1.
</event>
<event>
 5   0  0.1226021E-04  0.2127739E+04  0.7818609E-02  0.8549121E-01
        2   -1    0    0  501    0  0.00000000000E+00  0.00000000000E+00  0.12242849896E+04  0.12242849896E+04  0.25500000920E-02 0. -1.
       -2   -1    0    0    0  501  0.00000000000E+00  0.00000000000E+00 -0.92447318194E+03  0.92447318194E+03  0.25500000920E-02 0.  1.
    10030    2    1    2    0    0  0.00000000000E+00  0.00000000000E+00  0.29981180769E+03  0.21487581716E+04  0.21277393073E+04 0.  0.
        2    1    3    3  502    0  0.63285230136E+03 -0.36309560929E+03 -0.63200238279E+03  0.96528103093E+03  0.25500000920E-02 0.  1.
       -2    1    3    3    0  502 -0.63285230136E+03  0.36309560929E+03  0.93181419048E+03  0.11834771406E+04  0.25500000920E-02 0. -1.
</event>
<event>
 5   0  0.5895063E-05  0.2193525E+04  0.7818609E-02  0.8521128E-01
        1   -1    0    0  501    0  0.00000000000E+00  0.00000000000E+00  0.92747631212E+03  0.92747631214E+03  0.50400001928E-02 0. -1.
       -1   -1    0    0    0  501  0.00000000000E+00  0.00000000000E+00 -0.12969470105E+04  0.12969470105E+04  0.50400001928E-02 0.  1.
    10030    2    1    2    0    0  0.00000000000E+00  0.00000000000E+00 -0.36947069833E+03  0.22244233226E+04  0.21935246799E+04 0.  0.
        5    1    3    3  502    0  0.66289070518E+03  0.82709619407E+03 -0.47040066772E+03  0.11596598982E+04  0.46999998093E+01 0.  1.
       -5    1    3    3    0  502 -0.66289070518E+03 -0.82709619407E+03  0.10092996940E+03  0.10647634244E+04  0.46999998093E+01 0. -1.
</event>
<event>
 5   0  0.5981239E-05  0.2541715E+04  0.7818609E-02  0.8388273E-01
        1   -1    0    0  501    0  0.00000000000E+00  0.00000000000E+00  0.20361158017E+04  0.20361158017E+04  0.50400001928E-02 0. -1.
       -1   -1    0    0    0  501  0.00000000000E+00  0.00000000000E+00 -0.79321580600E+03  0.79321580602E+03  0.50400001928E-02 0.  1.
    10030    2    1    2    0    0  0.00000000000E+00  0.00000000000E+00  0.12428999957E+04  0.28293316077E+04  0.25417153552E+04 0.  0.
        4    1    3    3  502    0  0.98393763328E+02  0.58085646551E+03  0.18749285803E+04  0.19653077012E+04  0.12699999809E+01 0. -1.
       -4    1    3    3    0  502 -0.98393763328E+02 -0.58085646551E+03 -0.63202858468E+03  0.86402390646E+03  0.12699999809E+01 0.  1.
</event>
<event>
 5   0  0.6263558E-05  0.2289484E+04  0.7818609E-02  0.8482079E-01
        1   -1    0    0  501    0  0.00000000000E+00  0.00000000000E+00  0.94495157432E+03  0.94495157433E+03  0.50400001928E-02 0. -1.
       -1   -1    0    0    0  501  0.00000000000E+00  0.00000000000E+00 -0.13867741102E+04  0.13867741102E+04  0.50400001928E-02 0.  1.
    10030    2    1    2    0    0  0.00000000000E+00  0.00000000000E+00 -0.44182253584E+03  0.23317256845E+04  0.22894841154E+04 0.  0.
        3    1    3    3  502    0 -0.11145493944E+04  0.26117680095E+03 -0.22176009454E+03  0.11660236805E+04  0.10100000352E+00 0. -1.
       -3    1    3    3    0  502  0.11145493944E+04 -0.26117680095E+03 -0.22006244130E+03  0.11657020040E+04  0.10100000352E+00 0.  1.
</event>
<event>
 5   0  0.1252124E-04  0.2217779E+04  0.7818609E-02  0.8511064E-01
        2   -1    0    0  501    0  0.00000000000E+00  0.00000000000E+00  0.99947583384E+03  0.99947583384E+03  0.25500000920E-02 0. -1.
       -2   -1    0    0    0  501  0.00000000000E+00  0.00000000000E+00 -0.12302812362E+04  0.12302812362E+04  0.25500000920E-02 0.  1.
    10030    2    1    2    0    0  0.00000000000E+00  0.00000000000E+00 -0.23080540232E+03  0.22297570700E+04  0.22177793978E+04 0.  0.
        3    1    3    3  502    0  0.61248865407E+03  0.66857358361E+03 -0.75721022670E+03  0.11813129669E+04  0.10100000352E+00 0.  1.
       -3    1    3    3    0  502 -0.61248865407E+03 -0.66857358361E+03  0.52640482439E+03  0.10484441031E+04  0.10100000352E+00 0. -1.
</event>
<event>
 5   0  0.1311472E-04  0.2221661E+04  0.7818609E-02  0.8509466E-01
        2   -1    0    0  501    0  0.00000000000E+00  0.00000000000E+00  0.13915623199E+04  0.13915623199E+04  0.25500000920E-02 0. -1.
       -2   -1    0    0    0  501  0.00000000000E+00  0.00000000000E+00 -0.88673280581E+03  0.88673280582E+03  0.25500000920E-02 0.  1.
    10030    2    1    2    0    0  0.00000000000E+00  0.00000000000E+00  0.50482951408E+03  0.22782951257E+04  0.22216606045E+04 0.  0.
        4    1    3    3  502    0 -0.68930245264E+02 -0.10100783844E+04 -0.21632889409E+03  0.10352823406E+04  0.12699999809E+01 0.  1.
       -4    1    3    3    0  502  0.68930245264E+02  0.10100783844E+04  0.72115840816E+03  0.12430127851E+04  0.12699999809E+01 0. -1.
</event>
<event>
 5   0  0.5981239E-05  0.2101063E+04  0.7818609E-02  0.8560775E-01
       -1   -1    0    0    0  501  0.00000000000E+00  0.00000000000E+00  0.56506737240E+03  0.56506737242E+03  0.50400001928E-02 0. -1.
        1   -1    0    0  501    0  0.00000000000E+00  0.00000000000E+00 -0.19530705717E+04  0.19530705717E+04  0.50400001928E-02 0.  1.
    10030    2    1    2    0    0  0.00000000000E+00  0.00000000000E+00 -0.13880031993E+04  0.25181379442E+04  0.21010630225E+04 0.  0.
        4    1    3    3  502    0 -0.75717296855E+02 -0.65251811484E+02  0.55935439064E+03  0.56821638059E+03  0.12699999809E+01 0. -1.
       -4    1    3    3    0  502  0.75717296855E+02  0.65251811484E+02 -0.19473575900E+04  0.19499215636E+04  0.12699999809E+01 0.  1.
</event>
<event>
 5   0  0.5895063E-05  0.1631263E+04  0.7818609E-02  0.8801569E-01
        1   -1    0    0  501    0  0.00000000000E+00  0.00000000000E+00  0.15643806408E+04  0.15643806408E+04  0.50400001928E-02 0.  1.
       -1   -1    0    0    0  501  0.00000000000E+00  0.00000000000E+00 -0.42525105735E+03  0.42525105738E+03  0.50400001928E-02 0. -1.
    10030    2    1    2    0    0  0.00000000000E+00  0.00000000000E+00  0.11391295835E+04  0.19896316982E+04  0.16312627276E+04 0.  0.
        5    1    3    3  502    0  0.29924725183E+02 -0.18421789147E+03 -0.39884043615E+03  0.44037200663E+03  0.46999998093E+01 0. -1.
       -5    1    3    3    0  502 -0.29924725183E+02  0.18421789147E+03  0.15379700196E+04  0.15492596916E+04  0.46999998093E+01 0.  1.
</event>
<event>
 5   0  0.1252124E-04  0.1434298E+04  0.7818609E-02  0.8929359E-01
        2   -1    0    0  501    0  0.00000000000E+00  0.00000000000E+00  0.78534945615E+03  0.78534945615E+03  0.25500000920E-02 0.  1.
       -2   -1    0    0    0  501  0.00000000000E+00  0.00000000000E+00 -0.65487099275E+03  0.65487099276E+03  0.25500000920E-02 0. -1.
    10030    2    1    2    0    0  0.00000000000E+00  0.00000000000E+00  0.13047846339E+03  0.14402204489E+04  0.14342978464E+04 0.  0.
        3    1    3    3  502    0 -0.17550416208E+03  0.22551449204E+03  0.72571213485E+03  0.77994654297E+03  0.10100000352E+00 0.  1.
       -3    1    3    3    0  502  0.17550416208E+03 -0.22551449204E+03 -0.59523367145E+03  0.66027390594E+03  0.10100000352E+00 0. -1.
</event>
<event>
 5   0  0.5981239E-05  0.2191257E+04  0.7818609E-02  0.8522076E-01
        1   -1    0    0  501    0  0.00000000000E+00  0.00000000000E+00  0.13040286726E+04  0.13040286727E+04  0.50400001928E-02 0. -1.
       -1   -1    0    0    0  501  0.00000000000E+00  0.00000000000E+00 -0.92053301729E+03  0.92053301731E+03  0.50400001928E-02 0.  1.
    10030    2    1    2    0    0  0.00000000000E+00  0.00000000000E+00  0.38349565536E+03  0.22245616900E+04  0.21912566702E+04 0.  0.
        4    1    3    3  502    0  0.65170445780E+03 -0.76759674065E+03  0.63014032872E+03  0.11878560112E+04  0.12699999809E+01 0. -1.
       -4    1    3    3    0  502 -0.65170445780E+03  0.76759674065E+03 -0.24664467337E+03  0.10367056788E+04  0.12699999809E+01 0.  1.
</event>
<event>
 5   0  0.1252124E-04  0.2151039E+04  0.7818609E-02  0.8539087E-01
        2   -1    0    0  501    0  0.00000000000E+00  0.00000000000E+00  0.11382018508E+04  0.11382018508E+04  0.25500000920E-02 0.  1.
       -2   -1    0    0    0  501  0.00000000000E+00  0.00000000000E+00 -0.10162895985E+04  0.10162895985E+04  0.25500000920E-02 0. -1.
    10030    2    1    2    0    0  0.00000000000E+00  0.00000000000E+00  0.12191225222E+03  0.21544914493E+04  0.21510394715E+04 0.  0.
        3    1    3    3  502    0 -0.62214411736E+03  0.41382800333E+03 -0.71386515357E+03  0.10334023354E+04  0.10100000352E+00 0. -1.
       -3    1    3    3    0  502  0.62214411736E+03 -0.41382800333E+03  0.83577740579E+03  0.11210891139E+04  0.10100000352E+00 0.  1.
</event>
<event>
 5   0  0.5895063E-05  0.2188009E+04  0.7818609E-02  0.8523436E-01
        1   -1    0    0  501    0  0.00000000000E+00  0.00000000000E+00  0.21299115675E+04  0.21299115675E+04  0.50400001928E-02 0. -1.
       -1   -1    0    0    0  501  0.00000000000E+00  0.00000000000E+00 -0.56192254337E+03  0.56192254339E+03  0.50400001928E-02 0.  1.
    10030    2    1    2    0    0  0.00000000000E+00  0.00000000000E+00  0.15679890242E+04  0.26918341109E+04  0.21880085239E+04 0.  0.
        5    1    3    3  502    0 -0.10522883875E+03  0.75616639026E+03 -0.17999034451E+03  0.78439743267E+03  0.46999998093E+01 0.  1.
       -5    1    3    3    0  502  0.10522883875E+03 -0.75616639026E+03  0.17479793687E+04  0.19074366783E+04  0.46999998093E+01 0. -1.
</event>
<event>
 5   0  0.5849604E-05  0.2152588E+04  0.7818609E-02  0.8538425E-01
       -1   -1    0    0    0  501  0.00000000000E+00  0.00000000000E+00  0.50523490398E+03  0.50523490400E+03  0.50400001928E-02 0.  1.
        1   -1    0    0  501    0  0.00000000000E+00  0.00000000000E+00 -0.22928113583E+04  0.22928113583E+04  0.50400001928E-02 0. -1.
    10030    2    1    2    0    0  0.00000000000E+00  0.00000000000E+00 -0.17875764543E+04  0.27980462623E+04  0.21525875838E+04 0.  0.
        2    1    3    3  502    0  0.51250537977E+03  0.83981391181E+03 -0.32651147322E+03  0.10366093348E+04  0.25500000920E-02 0.  1.
       -2    1    3    3    0  502 -0.51250537977E+03 -0.83981391181E+03 -0.14610649811E+04  0.17614369276E+04  0.25500000920E-02 0. -1.
</event>
<event>
 5   0  0.1404159E-04  0.1945356E+04  0.7818609E-02  0.8632604E-01
       -2   -1    0    0    0  501  0.00000000000E+00  0.00000000000E+00  0.82047874848E+03  0.82047874848E+03  0.25500000920E-02 0.  1.
        2   -1    0    0  501    0  0.00000000000E+00  0.00000000000E+00 -0.11531098184E+04  0.11531098184E+04  0.25500000920E-02 0. -1.
    10030    2    1    2    0    0  0.00000000000E+00  0.00000000000E+00 -0.33263106992E+03  0.19735885669E+04  0.19453555980E+04 0.  0.
        5    1    3    3  502    0 -0.28386941682E+03 -0.35494633931E+03  0.70611331252E+03  0.83975404120E+03  0.46999998093E+01 0.  1.
       -5    1    3    3    0  502  0.28386941682E+03  0.35494633931E+03 -0.10387443824E+04  0.11338345257E+04  0.46999998093E+01 0. -1.
</event>
<event>
 5   0  0.5861816E-05  0.2208417E+04  0.7818609E-02  0.8514933E-01
        1   -1    0    0  501    0  0.00000000000E+00  0.00000000000E+00  0.16244083678E+04  0.16244083679E+04  0.50400001928E-02 0.  1.
       -1   -1    0    0    0  501  0.00000000000E+00  0.00000000000E+00 -0.75059746481E+03  0.75059746482E+03  0.50400001928E-02 0. -1.
    10030    2    1    2    0    0  0.00000000000E+00  0.00000000000E+00  0.87381090304E+03  0.23750058327E+04  0.22084173543E+04 0.  0.
        1    1    3    3  502    0 -0.82829068325E+03  0.58183401968E+03  0.91141480583E+03  0.13620841497E+04  0.50400001928E-02 0.  1.
       -1    1    3    3    0  502  0.82829068325E+03 -0.58183401968E+03 -0.37603902791E+02  0.10129216830E+04  0.50400001928E-02 0. -1.
</event>
<event>
 5   0  0.5861816E-05  0.2221090E+04  0.7818609E-02  0.8509701E-01
        1   -1    0    0  501    0  0.00000000000E+00  0.00000000000E+00  0.44315501705E+03  0.44315501708E+03  0.50400001928E-02 0.  1.
       -1   -1    0    0    0  501  0.00000000000E+00  0.00000000000E+00 -0.27830216010E+04  0.27830216010E+04  0.50400001928E-02 0. -1.
    10030    2    1    2    0    0  0.00000000000E+00  0.00000000000E+00 -0.23398665840E+04  0.32261766181E+04  0.22210898092E+04 0.  0.
        1    1    3    3  502    0 -0.14507355187E+03  0.86629040285E+02 -0.27642409057E+04  0.27694004245E+04  0.50400001928E-02 0. -1.
       -1    1    3    3    0  502  0.14507355187E+03 -0.86629040285E+02  0.42437432176E+03  0.45677619363E+03  0.50400001928E-02 0.  1.
</event>
<event>
 5   0  0.1252124E-04  0.2183173E+04  0.7818609E-02  0.8525465E-01
        2   -1    0    0  501    0  0.00000000000E+00  0.00000000000E+00  0.17408858598E+04  0.17408858598E+04  0.25500000920E-02 0.  1.
       -2   -1    0    0    0  501  0.00000000000E+00  0.00000000000E+00 -0.68445688371E+03  0.68445688371E+03  0.25500000920E-02 0. -1.
    10030    2    1    2    0    0  0.00000000000E+00  0.00000000000E+00  0.10564289761E+04  0.24253427435E+04  0.21831732047E+04 0.  0.
        3    1    3    3  502    0  0.93826840626E+03  0.31055888519E+03  0.13378877067E+02  0.98841966184E+03  0.10100000352E+00 0. -1.
       -3    1    3    3    0  502 -0.93826840626E+03 -0.31055888519E+03  0.10430500990E+04  0.14369230817E+04  0.10100000352E+00 0.  1.
</event>
<event>
 5   0  0.5981239E-05  0.2200040E+04  0.7818609E-02  0.8518411E-01
        1   -1    0    0  501    0  0.00000000000E+00  0.00000000000E+00  0.16250829059E+04  0.16250829059E+04  0.50400001928E-02 0.  1.
       -1   -1    0    0    0  501  0.00000000000E+00  0.00000000000E+00 -0.74460451328E+03  0.74460451329E+03  0.50400001928E-02 0. -1.
    10030    2    1    2    0    0  0.00000000000E+00  0.00000000000E+00  0.88047839259E+03  0.23696874192E+04  0.22000400598E+04 0.  0.
        4    1    3    3  502    0  0.66069584239E+03 -0.24413444987E+03  0.13503322596E+04  0.15229968647E+04  0.12699999809E+01 0.  1.
       -4    1    3    3    0  502 -0.66069584239E+03  0.24413444987E+03 -0.46985386699E+03  0.84669055445E+03  0.12699999809E+01 0. -1.
</event>
<event>
 5   0  0.5861816E-05  0.2204757E+04  0.7818609E-02  0.8516451E-01
        1   -1    0    0  501    0  0.00000000000E+00  0.00000000000E+00  0.11383002570E+04  0.11383002570E+04  0.50400001928E-02 0.  1.
       -1   -1    0    0    0  501  0.00000000000E+00  0.00000000000E+00 -0.10675900895E+04  0.10675900895E+04  0.50400001928E-02 0. -1.
    10030    2    1    2    0    0  0.00000000000E+00  0.00000000000E+00  0.70710167552E+02  0.22058903465E+04  0.22047567424E+04 0.  0.
        1    1    3    3  502    0  0.17256954661E+03  0.82353852362E+03  0.74793060202E+03  0.11257868954E+04  0.50400001928E-02 0.  1.
       -1    1    3    3    0  502 -0.17256954661E+03 -0.82353852362E+03 -0.67722043447E+03  0.10801034512E+04  0.50400001928E-02 0. -1.
</event>
<event>
 5   0  0.1404159E-04  0.1674197E+04  0.7818609E-02  0.8776219E-01
        2   -1    0    0  501    0  0.00000000000E+00  0.00000000000E+00  0.23098686031E+04  0.23098686031E+04  0.25500000920E-02 0.  1.
       -2   -1    0    0    0  501  0.00000000000E+00  0.00000000000E+00 -0.30336515512E+03  0.30336515513E+03  0.25500000920E-02 0. -1.
    10030    2    1    2    0    0  0.00000000000E+00  0.00000000000E+00  0.20065034480E+04  0.26132337583E+04  0.16741966994E+04 0.  0.
        5    1    3    3  502    0 -0.10303575197E+03 -0.25441323192E+03 -0.23110301048E+03  0.35884975995E+03  0.46999998093E+01 0. -1.
       -5    1    3    3    0  502  0.10303575197E+03  0.25441323192E+03  0.22376064585E+04  0.22543839983E+04  0.46999998093E+01 0.  1.
</event>
<event>
 5   0  0.5895063E-05  0.2187564E+04  0.7818609E-02  0.8523622E-01
       -1   -1    0    0    0  501  0.00000000000E+00  0.00000000000E+00  0.69093778576E+03  0.69093778578E+03  0.50400001928E-02 0.  1.
        1   -1    0    0  501    0  0.00000000000E+00  0.00000000000E+00 -0.17315006973E+04  0.17315006973E+04  0.50400001928E-02 0. -1.
    10030    2    1    2    0    0  0.00000000000E+00  0.00000000000E+00 -0.10405629116E+04  0.24224384831E+04  0.21875641777E+04 0.  0.
        5    1    3    3  502    0  0.16250694854E+03  0.26803341307E+03  0.64012538273E+03  0.71276434707E+03  0.46999998093E+01 0.  1.
       -5    1    3    3    0  502 -0.16250694854E+03 -0.26803341307E+03 -0.16806882943E+04  0.17096741360E+04  0.46999998093E+01 0. -1.
</event>
<event>
 5   0  0.1252124E-04  0.2021508E+04  0.7818609E-02  0.8596630E-01
       -2   -1    0    0    0  501  0.00000000000E+00  0.00000000000E+00  0.92285395710E+03  0.92285395711E+03  0.25500000920E-02 0. -1.
        2   -1    0    0  501    0  0.00000000000E+00  0.00000000000E+00 -0.11070268112E+04  0.11070268112E+04  0.25500000920E-02 0.  1.
    10030    2    1    2    0    0  0.00000000000E+00  0.00000000000E+00 -0.18417285409E+03  0.20298807683E+04  0.20215084203E+04 0.  0.
        3    1    3    3  502    0 -0.91054119833E+03  0.26813481847E+03 -0.44086127137E+03  0.10465850302E+04  0.10100000352E+00 0.  1.
       -3    1    3    3    0  502  0.91054119833E+03 -0.26813481847E+03  0.25668841728E+03  0.98329573806E+03  0.10100000352E+00 0. -1.
</event>
<event>
 5   0  0.5849604E-05  0.2156888E+04  0.7818609E-02  0.8536589E-01
       -1   -1    0    0    0  501  0.00000000000E+00  0.00000000000E+00  0.43333856244E+03  0.43333856247E+03  0.50400001928E-02 0.  1.
        1   -1    0    0  501    0  0.00000000000E+00  0.00000000000E+00 -0.26839102659E+04  0.26839102659E+04  0.50400001928E-02 0. -1.
    10030    2    1    2    0    0  0.00000000000E+00  0.00000000000E+00 -0.22505717034E+04  0.31172488284E+04  0.21568883294E+04 0.  0.
        2    1    3    3  502    0  0.34313148654E+03  0.53964743608E+03  0.12974226402E+03  0.65252710856E+03  0.25500000920E-02 0.  1.
       -2    1    3    3    0  502 -0.34313148654E+03 -0.53964743608E+03 -0.23803139675E+04  0.24647217198E+04  0.25500000920E-02 0. -1.
</event>
<event>
 5   0  0.5981239E-05  0.2219427E+04  0.7818609E-02  0.8510385E-01
        1   -1    0    0  501    0  0.00000000000E+00  0.00000000000E+00  0.14134341309E+04  0.14134341309E+04  0.50400001928E-02 0.  1.
       -1   -1    0    0    0  501  0.00000000000E+00  0.00000000000E+00 -0.87125676519E+03  0.87125676521E+03  0.50400001928E-02 0. -1.
    10030    2    1    2    0    0  0.00000000000E+00  0.00000000000E+00  0.54217736573E+03  0.22846908961E+04  0.22194269970E+04 0.  0.
        4    1    3    3  502    0  0.92853382139E+03  0.62396587366E+01  0.89661548712E+03  0.12907884937E+04  0.12699999809E+01 0.  1.
       -4    1    3    3    0  502 -0.92853382139E+03 -0.62396587366E+01 -0.35443812139E+03  0.99390240245E+03  0.12699999809E+01 0. -1.
</event>
<event>
 5   0  0.5861816E-05  0.2199987E+04  0.7818609E-02  0.8518434E-01
       -1   -1    0    0    0  501  0.00000000000E+00  0.00000000000E+00  0.48153635126E+03  0.48153635128E+03  0.50400001928E-02 0.  1.
        1   -1    0    0  501    0  0.00000000000E+00  0.00000000000E+00 -0.25127602590E+04  0.25127602591E+04  0.50400001928E-02 0. -1.
    10030    2    1    2    0    0  0.00000000000E+00  0.00000000000E+00 -0.20312239078E+04  0.29942966103E+04  0.21999867334E+04 0.  0.
        1    1    3    3  502    0  0.23733223293E+03  0.25619516613E+03  0.40407883912E+03  0.53408076186E+03  0.50400001928E-02 0.  1.
       -1    1    3    3    0  502 -0.23733223293E+03 -0.25619516613E+03 -0.24353027469E+04  0.24602158485E+04  0.50400001928E-02 0. -1.
</event>
<event>
 5   0  0.5981239E-05  0.1944896E+04  0.7818609E-02  0.8632826E-01
        1   -1    0    0  501    0  0.00000000000E+00  0.00000000000E+00  0.18492525191E+04  0.18492525191E+04  0.50400001928E-02 0. -1.
       -1   -1    0    0    0  501  0.00000000000E+00  0.00000000000E+00 -0.51137136941E+03  0.51137136944E+03  0.50400001928E-02 0.  1.
    10030    2    1    2    0    0  0.00000000000E+00  0.00000000000E+00  0.13378811496E+04  0.23606238885E+04  0.19448956713E+04 0.  0.
        4    1    3    3  502    0  0.13299989150E+02  0.87624762927E+02  0.18443392134E+04  0.18464679082E+04  0.12699999809E+01 0. -1.
       -4    1    3    3    0  502 -0.13299989150E+02 -0.87624762927E+02 -0.50645806381E+03  0.51415598031E+03  0.12699999809E+01 0.  1.
</event>
<event>
 5   0  0.1226021E-04  0.2148003E+04  0.7818609E-02  0.8540387E-01
       -2   -1    0    0    0  501  0.00000000000E+00  0.00000000000E+00  0.46095325602E+03  0.46095325603E+03  0.25500000920E-02 0.  1.
        2   -1    0    0  501    0  0.00000000000E+00  0.00000000000E+00 -0.25023781397E+04  0.25023781397E+04  0.25500000920E-02 0. -1.
    10030    2    1    2    0    0  0.00000000000E+00  0.00000000000E+00 -0.20414248837E+04  0.29633313957E+04  0.21480031204E+04 0.  0.
        2    1    3    3  502    0  0.46752691692E+03 -0.27332388148E+03 -0.23002204583E+04  0.23631126759E+04  0.25500000920E-02 0. -1.
       -2    1    3    3    0  502 -0.46752691692E+03  0.27332388148E+03  0.25879557459E+03  0.60021871985E+03  0.25500000920E-02 0.  1.
</event>
<event>
 5   0  0.1241430E-04  0.1455394E+04  0.7818609E-02  0.8914669E-01
        2   -1    0    0  501    0  0.00000000000E+00  0.00000000000E+00  0.42226142867E+03  0.42226142868E+03  0.25500000920E-02 0. -1.
       -2   -1    0    0    0  501  0.00000000000E+00  0.00000000000E+00 -0.12540644337E+04  0.12540644337E+04  0.25500000920E-02 0.  1.
    10030    2    1    2    0    0  0.00000000000E+00  0.00000000000E+00 -0.83180300499E+03  0.16763258623E+04  0.14553941589E+04 0.  0.
        1    1    3    3  502    0 -0.50232202638E+03  0.22035117201E+03  0.13487302948E+03  0.56486528597E+03  0.50400001928E-02 0. -1.
       -1    1    3    3    0  502  0.50232202638E+03 -0.22035117201E+03 -0.96667603446E+03  0.11114605764E+04  0.50400001928E-02 0.  1.
</event>
<event>
 5   0  0.1252124E-04  0.2186033E+04  0.7818609E-02  0.8524264E-01
       -2   -1    0    0    0  501  0.00000000000E+00  0.00000000000E+00  0.11687898110E+04  0.11687898110E+04  0.25500000920E-02 0.  1.
        2   -1    0    0  501    0  0.00000000000E+00  0.00000000000E+00 -0.10221559658E+04  0.10221559658E+04  0.25500000920E-02 0. -1.
    10030    2    1    2    0    0  0.00000000000E+00  0.00000000000E+00  0.14663384524E+03  0.21909457768E+04  0.21860333740E+04 0.  0.
        3    1    3    3  502    0  0.17993814059E+03  0.34726531251E+03  0.10962546673E+04  0.11639352376E+04  0.10100000352E+00 0.  1.
       -3    1    3    3    0  502 -0.17993814059E+03 -0.34726531251E+03 -0.94962082203E+03  0.10270105392E+04  0.10100000352E+00 0. -1.
</event>
<event>
 5   0  0.1241430E-04  0.2213146E+04  0.7818609E-02  0.8512976E-01
       -2   -1    0    0    0  501  0.00000000000E+00  0.00000000000E+00  0.80422555737E+03  0.80422555738E+03  0.25500000920E-02 0.  1.
        2   -1    0    0  501    0  0.00000000000E+00  0.00000000000E+00 -0.15225869733E+04  0.15225869733E+04  0.25500000920E-02 0. -1.
    10030    2    1    2    0    0  0.00000000000E+00  0.00000000000E+00 -0.71836141597E+03  0.23268125307E+04  0.22131455960E+04 0.  0.
        1    1    3    3  502    0  0.84723053091E+02  0.26249672208E+03  0.76750280496E+03  0.81556304506E+03  0.50400001928E-02 0.  1.
       -1    1    3    3    0  502 -0.84723053091E+02 -0.26249672208E+03 -0.14858642209E+04  0.15112494857E+04  0.50400001928E-02 0. -1.
</event>
<event>
 5   0  0.1311472E-04  0.2219444E+04  0.7818609E-02  0.8510378E-01
       -2   -1    0    0    0  501  0.00000000000E+00  0.00000000000E+00  0.89168988585E+03  0.89168988586E+03  0.25500000920E-02 0. -1.
        2   -1    0    0  501    0  0.00000000000E+00  0.00000000000E+00 -0.13810666872E+04  0.13810666872E+04  0.25500000920E-02 0.  1.
    10030    2    1    2    0    0  0.00000000000E+00  0.00000000000E+00 -0.48937680131E+03  0.22727565730E+04  0.22194442517E+04 0.  0.
        4    1    3    3  502    0  0.42631170951E+03 -0.19774875434E+03 -0.12741399747E+04  0.13580429049E+04  0.12699999809E+01 0.  1.
       -4    1    3    3    0  502 -0.42631170951E+03  0.19774875434E+03  0.78476317337E+03  0.91471366814E+03  0.12699999809E+01 0. -1.
</event>
<event>
 5   0  0.6263558E-05  0.2190900E+04  0.7818609E-02  0.8522225E-01
        1   -1    0    0  501    0  0.00000000000E+00  0.00000000000E+00  0.88503454522E+03  0.88503454523E+03  0.50400001928E-02 0. -1.
       -1   -1    0    0    0  501  0.00000000000E+00  0.00000000000E+00 -0.13558910575E+04  0.13558910575E+04  0.50400001928E-02 0.  1.
    10030    2    1    2    0    0  0.00000000000E+00  0.00000000000E+00 -0.47085651232E+03  0.22409256028E+04  0.21908997471E+04 0.  0.
        3    1    3    3  502    0  0.44971613611E+03  0.46178948479E+03 -0.11413817715E+04  0.13108190149E+04  0.10100000352E+00 0.  1.
       -3    1    3    3    0  502 -0.44971613611E+03 -0.46178948479E+03  0.67052525920E+03  0.93010658785E+03  0.10100000352E+00 0. -1.
</event>
<event>
 5   0  0.5861816E-05  0.2240787E+04  0.7818609E-02  0.8501641E-01
        1   -1    0    0  501    0  0.00000000000E+00  0.00000000000E+00  0.14419108694E+04  0.14419108694E+04  0.50400001928E-02 0.  1.
       -1   -1    0    0    0  501  0.00000000000E+00  0.00000000000E+00 -0.87056786709E+03  0.87056786710E+03  0.50400001928E-02 0. -1.
    10030    2    1    2    0    0  0.00000000000E+00  0.00000000000E+00  0.57134300229E+03  0.23124787365E+04  0.22407867102E+04 0.  0.
        1    1    3    3  502    0  0.15913046976E+02  0.32465613567E+03  0.13921821540E+04  0.14296244198E+04  0.50400001928E-02 0.  1.
       -1    1    3    3    0  502 -0.15913046976E+02 -0.32465613567E+03 -0.82083915176E+03  0.88285431673E+03  0.50400001928E-02 0. -1.
</event>
<event>
 5   0  0.5895063E-05  0.2224307E+04  0.7818609E-02  0.8508379E-01
        1   -1    0    0  501    0  0.00000000000E+00  0.00000000000E+00  0.55033275546E+03  0.55033275548E+03  0.50400001928E-02 0.  1.
       -1   -1    0    0    0  501  0.00000000000E+00  0.00000000000E+00 -0.22475231000E+04  0.22475231000E+04  0.50400001928E-02 0. -1.
    10030    2    1    2    0    0  0.00000000000E+00  0.00000000000E+00 -0.16971903445E+04  0.27978558554E+04  0.22243071556E+04 0.  0.
        5    1    3    3  502    0 -0.45224397693E+03  0.91076265324E+03 -0.14151192431E+04  0.17425836529E+04  0.46999998093E+01 0. -1.
       -5    1    3    3    0  502  0.45224397693E+03 -0.91076265324E+03 -0.28207110141E+03  0.10552722025E+04  0.46999998093E+01 0.  1.
</event>
<event>
 5   0  0.5861816E-05  0.1572987E+04  0.7818609E-02  0.8837317E-01
       -1   -1    0    0    0  501  0.00000000000E+00  0.00000000000E+00  0.62837639206E+03  0.62837639208E+03  0.50400001928E-02 0. -1.
        1   -1    0    0  501    0  0.00000000000E+00  0.00000000000E+00 -0.98439715545E+03  0.98439715546E+03  0.50400001928E-02 0.  1.
    10030    2    1    2    0    0  0.00000000000E+00  0.00000000000E+00 -0.35602076339E+03  0.16127735475E+04  0.15729868822E+04 0.  0.
        1    1    3    3  502    0 -0.25680277418E+03  0.58802152427E+03 -0.64432738885E+03  0.90932654304E+03  0.50400001928E-02 0. -1.
       -1    1    3    3    0  502  0.25680277418E+03 -0.58802152427E+03  0.28830662546E+03  0.70344700450E+03  0.50400001928E-02 0.  1.
</event>
<event>
 5   0  0.5981239E-05  0.2191415E+04  0.7818609E-02  0.8522010E-01
        1   -1    0    0  501    0  0.00000000000E+00  0.00000000000E+00  0.14555562396E+04  0.14555562396E+04  0.50400001928E-02 0.  1.
       -1   -1    0    0    0  501  0.00000000000E+00  0.00000000000E+00 -0.82482216638E+03  0.82482216639E+03  0.50400001928E-02 0. -1.
    10030    2    1    2    0    0  0.00000000000E+00  0.00000000000E+00  0.63073407326E+03  0.22803784060E+04  0.21914151144E+04 0.  0.
        4    1    3    3  502    0 -0.57487112436E+03 -0.72192269885E+03 -0.29931120607E+03  0.97017421308E+03  0.12699999809E+01 0. -1.
       -4    1    3    3    0  502  0.57487112436E+03  0.72192269885E+03  0.93004527932E+03  0.13102041930E+04  0.12699999809E+01 0.  1.
</event>
<event>
 5   0  0.6263558E-05  0.2091907E+04  0.7818609E-02  0.8564817E-01
       -1   -1    0    0    0  501  0.00000000000E+00  0.00000000000E+00  0.53801164381E+03  0.53801164383E+03  0.50400001928E-02 0. -1.
        1   -1    0    0  501    0  0.00000000000E+00  0.00000000000E+00 -0.20334472223E+04  0.20334472223E+04  0.50400001928E-02 0.  1.
    10030    2    1    2    0    0  0.00000000000E+00  0.00000000000E+00 -0.14954355785E+04  0.25714588662E+04  0.20919065779E+04 0.  0.
        3    1    3    3  502    0  0.86449229885E+03  0.45889559496E+03 -0.12011833327E+04  0.15494429679E+04  0.10100000352E+00 0. -1.
       -3    1    3    3    0  502 -0.86449229885E+03 -0.45889559496E+03 -0.29425224577E+03  0.10220158982E+04  0.10100000352E+00 0.  1.
</event>
<event>
 5   0  0.1311472E-04  0.2183118E+04  0.7818609E-02  0.8525488E-01
        2   -1    0    0  501    0  0.00000000000E+00  0.00000000000E+00  0.17385172487E+04  0.17385172487E+04  0.25500000920E-02 0. -1.
       -2   -1    0    0    0  501  0.00000000000E+00  0.00000000000E+00 -0.68535465300E+03  0.68535465301E+03  0.25500000920E-02 0.  1.
    10030    2    1    2    0    0  0.00000000000E+00  0.00000000000E+00  0.10531625957E+04  0.24238719017E+04  0.21831178491E+04 0.  0.
        4    1    3    3  502    0 -0.56232135224E+03 -0.52674932074E+03 -0.33188058706E+03  0.83893771345E+03  0.12699999809E+01 0.  1.
       -4    1    3    3    0  502  0.56232135224E+03  0.52674932074E+03  0.13850431827E+04  0.15849341882E+04  0.12699999809E+01 0. -1.
</event>
<event>
 5   0  0.5849604E-05  0.2196889E+04  0.7818609E-02  0.8519724E-01
       -1   -1    0    0    0  501  0.00000000000E+00  0.00000000000E+00  0.84112682417E+03  0.84112682418E+03  0.50400001928E-02 0. -1.
        1   -1    0    0  501    0  0.00000000000E+00  0.00000000000E+00 -0.14344812305E+04  0.14344812305E+04  0.50400001928E-02 0.  1.
    10030    2    1    2    0    0  0.00000000000E+00  0.00000000000E+00 -0.59335440635E+03  0.22756080547E+04  0.21968892933E+04 0.  0.
        2    1    3    3  502    0 -0.48435483373E+03  0.92246276695E+02  0.72006011147E+03  0.87269441654E+03  0.25500000920E-02 0. -1.
       -2    1    3    3    0  502  0.48435483373E+03 -0.92246276695E+02 -0.13134145178E+04  0.14029136382E+04  0.25500000920E-02 0.  1.
</event>
<event>
 5   0  0.6263558E-05  0.2195657E+04  0.7818609E-02  0.8520238E-01
       -1   -1    0    0    0  501  0.00000000000E+00  0.00000000000E+00  0.10555954683E+04  0.10555954683E+04  0.50400001928E-02 0.  1.
        1   -1    0    0  501    0  0.00000000000E+00  0.00000000000E+00 -0.11417516738E+04  0.11417516738E+04  0.50400001928E-02 0. -1.
    10030    2    1    2    0    0  0.00000000000E+00  0.00000000000E+00 -0.86156205491E+02  0.21973471422E+04  0.21956574349E+04 0.  0.
        3    1    3    3  502    0 -0.79143369801E+03  0.74450556618E+03 -0.19995346891E+03  0.11048245274E+04  0.10100000352E+00 0.  1.
       -3    1    3    3    0  502  0.79143369801E+03 -0.74450556618E+03  0.11379726342E+03  0.10925226148E+04  0.10100000352E+00 0. -1.
</event>
<event>
 5   0  0.1404159E-04  0.2251197E+04  0.7818609E-02  0.8497416E-01
       -2   -1    0    0    0  501  0.00000000000E+00  0.00000000000E+00  0.90774434556E+03  0.90774434557E+03  0.25500000920E-02 0.  1.
        2   -1    0    0  501    0  0.00000000000E+00  0.00000000000E+00 -0.13957365049E+04  0.13957365049E+04  0.25500000920E-02 0. -1.
    10030    2    1    2    0    0  0.00000000000E+00  0.00000000000E+00 -0.48799215938E+03  0.23034808505E+04  0.22511969441E+04 0.  0.
        5    1    3    3  502    0 -0.10536242679E+04  0.38307719388E+03 -0.14127736259E+03  0.11299794766E+04  0.46999998093E+01 0. -1.
       -5    1    3    3    0  502  0.10536242679E+04 -0.38307719388E+03 -0.34671479679E+03  0.11735013739E+04  0.46999998093E+01 0.  1.
</event>
<event>
 5   0  0.5849604E-05  0.2175155E+04  0.7818609E-02  0.8528841E-01
        1   -1    0    0  501    0  0.00000000000E+00  0.00000000000E+00  0.11219416875E+04  0.11219416875E+04  0.50400001928E-02 0. -1.
       -1   -1    0    0    0  501  0.00000000000E+00  0.00000000000E+00 -0.10542655742E+04  0.10542655742E+04  0.50400001928E-02 0.  1.
    10030    2    1    2    0    0  0.00000000000E+00  0.00000000000E+00  0.67676113250E+02  0.21762072617E+04  0.21751547048E+04 0.  0.
        2    1    3    3  502    0 -0.54840360897E+03  0.19462755639E+03 -0.88540908405E+03  0.10595167059E+04  0.25500000920E-02 0.  1.
       -2    1    3    3    0  502  0.54840360897E+03 -0.19462755639E+03  0.95308519730E+03  0.11166905558E+04  0.25500000920E-02 0. -1.
</event>
<event>
 5   0  0.5895063E-05  0.2210125E+04  0.7818609E-02  0.8514226E-01
       -1   -1    0    0    0  501  0.00000000000E+00  0.00000000000E+00  0.23897284966E+04  0.23897284966E+04  0.50400001928E-02 0.  1.
        1   -1    0    0  501    0  0.00000000000E+00  0.00000000000E+00 -0.51100484737E+03  0.51100484740E+03  0.50400001928E-02 0. -1.
    10030    2    1    2    0    0  0.00000000000E+00  0.00000000000E+00  0.18787236492E+04  0.29007333440E+04  0.22101247437E+04 0.  0.
        5    1    3    3  502    0  0.29835611351E+03  0.88334547570E+03  0.17178543816E+04  0.19545744719E+04  0.46999998093E+01 0.  1.
       -5    1    3    3    0  502 -0.29835611351E+03 -0.88334547570E+03  0.16086926760E+03  0.94615887205E+03  0.46999998093E+01 0. -1.
</event>
<event>
 5   0  0.5895063E-05  0.2209536E+04  0.7818609E-02  0.8514470E-01
        1   -1    0    0  501    0  0.00000000000E+00  0.00000000000E+00  0.10460061152E+04  0.10460061152E+04  0.50400001928E-02 0. -1.
       -1   -1    0    0    0  501  0.00000000000E+00  0.00000000000E+00 -0.11668305770E+04  0.11668305770E+04  0.50400001928E-02 0.  1.
    10030    2    1    2    0    0  0.00000000000E+00  0.00000000000E+00 -0.12082446179E+03  0.22128366923E+04  0.22095356245E+04 0.  0.
        5    1    3    3  502    0  0.50864179498E+01 -0.11566796799E+03 -0.11607278065E+04  0.11664973559E+04  0.46999998093E+01 0.  1.
       -5    1    3    3    0  502 -0.50864179498E+01  0.11566796799E+03  0.10399033447E+04  0.10463393364E+04  0.46999998093E+01 0. -1.
</event>
<event>
 5   0  0.1226021E-04  0.2239215E+04  0.7818609E-02  0.8502281E-01
        2   -1    0    0  501    0  0.00000000000E+00  0.00000000000E+00  0.13092812007E+04  0.13092812007E+04  0.25500000920E-02 0.  1.
       -2   -1    0    0    0  501  0.00000000000E+00  0.00000000000E+00 -0.95741189360E+03  0.95741189360E+03  0.25500000920E-02 0. -1.
    10030    2    1    2    0    0  0.00000000000E+00  0.00000000000E+00  0.35186930711E+03  0.22666930943E+04  0.22392153926E+04 0.  0.
        2    1    3    3  502    0 -0.37639695858E+03  0.65290220673E+03  0.10140837982E+04  0.12634563355E+04  0.25500000920E-02 0. -1.
       -2    1    3    3    0  502  0.37639695858E+03 -0.65290220673E+03 -0.66221449109E+03  0.10032367588E+04  0.25500000920E-02 0.  1.
</event>
<event>
 5   0  0.1226021E-04  0.1887341E+04  0.7818609E-02  0.8661183E-01
        2   -1    0    0  501    0  0.00000000000E+00  0.00000000000E+00  0.22776608686E+04  0.22776608686E+04  0.25500000920E-02 0.  1.
       -2   -1    0    0    0  501  0.00000000000E+00  0.00000000000E+00 -0.39097742677E+03  0.39097742678E+03  0.25500000920E-02 0. -1.
    10030    2    1    2    0    0  0.00000000000E+00  0.00000000000E+00  0.18866834418E+04  0.26686382953E+04  0.18873409713E+04 0.  0.
        2    1    3    3  502    0  0.79790610405E+03  0.43860844487E+03  0.12939442039E+04  0.15821893444E+04  0.25500000920E-02 0.  1.
       -2    1    3    3    0  502 -0.79790610405E+03 -0.43860844487E+03  0.59273923787E+03  0.10864489509E+04  0.25500000920E-02 0. -1.
</event>
<event>
 5   0  0.1252124E-04  0.2183033E+04  0.7818609E-02  0.8525524E-01
        2   -1    0    0  501    0  0.00000000000E+00  0.00000000000E+00  0.10285313139E+04  0.10285313139E+04  0.25500000920E-02 0. -1.
       -2   -1    0    0    0  501  0.00000000000E+00  0.00000000000E+00 -0.11583583599E+04  0.11583583599E+04  0.25500000920E-02 0.  1.
    10030    2    1    2    0    0  0.00000000000E+00  0.00000000000E+00 -0.12982704601E+03  0.21868896738E+04  0.21830326117E+04 0.  0.
        3    1    3    3  502    0 -0.61856275919E+03 -0.73891314964E+03  0.44862786683E+03  0.10629579027E+04  0.10100000352E+00 0. -1.
       -3    1    3    3    0  502  0.61856275919E+03  0.73891314964E+03 -0.57845491285E+03  0.11239317711E+04  0.10100000352E+00 0.  1.
</event>
<event>
 5   0  0.1311472E-04  0.2151486E+04  0.7818609E-02  0.8538896E-01
        2   -1    0    0  501    0  0.00000000000E+00  0.00000000000E+00  0.20536791526E+04  0.20536791526E+04  0.25500000920E-02 0.  1.
       -2   -1    0    0    0  501  0.00000000000E+00  0.00000000000E+00 -0.56348776468E+03  0.56348776468E+03  0.25500000920E-02 0. -1.
    10030    2    1    2    0    0  0.00000000000E+00  0.00000000000E+00  0.14901913879E+04  0.26171669173E+04  0.21514860679E+04 0.  0.
        4    1    3    3  502    0  0.40847204169E+03  0.94805930195E+03  0.37702149815E+03  0.10990053102E+04  0.12699999809E+01 0.  1.
       -4    1    3    3    0  502 -0.40847204169E+03 -0.94805930195E+03  0.11131698898E+04  0.15181616071E+04  0.12699999809E+01 0. -1.
</event>
<event>
 5   0  0.5861816E-05  0.2254000E+04  0.7818609E-02  0.8496282E-01
       -1   -1    0    0    0  501  0.00000000000E+00  0.00000000000E+00  0.60096097331E+03  0.60096097333E+03  0.50400001928E-02 0. -1.
        1   -1    0    0  501    0  0.00000000000E+00  0.00000000000E+00 -0.21134972582E+04  0.21134972582E+04  0.50400001928E-02 0.  1.
    10030    2    1    2    0    0  0.00000000000E+00  0.00000000000E+00 -0.15125362849E+04  0.27144582315E+04  0.22540003278E+04 0.  0.
        1    1    3    3  502    0  0.10953774479E+04  0.23386856095E+03 -0.60593446304E+03  0.12734609655E+04  0.50400001928E-02 0.  1.
       -1    1    3    3    0  502 -0.10953774479E+04 -0.23386856095E+03 -0.90660182185E+03  0.14409972660E+04  0.50400001928E-02 0. -1.
</event>
<event>
 5   0  0.1311472E-04  0.2143150E+04  0.7818609E-02  0.8542470E-01
        2   -1    0    0  501    0  0.00000000000E+00  0.00000000000E+00  0.12992254756E+04  0.12992254756E+04  0.25500000920E-02 0.  1.
       -2   -1    0    0    0  501  0.00000000000E+00  0.00000000000E+00 -0.88381318149E+03  0.88381318150E+03  0.25500000920E-02 0. -1.
    10030    2    1    2    0    0  0.00000000000E+00  0.00000000000E+00  0.41541229413E+03  0.21830386571E+04  0.21431496458E+04 0.  0.
        4    1    3    3  502    0  0.21283129008E+03  0.11151709076E+03 -0.85601865384E+03  0.88910222595E+03  0.12699999809E+01 0. -1.
       -4    1    3    3    0  502 -0.21283129008E+03 -0.11151709076E+03  0.12714309480E+04  0.12939364312E+04  0.12699999809E+01 0.  1.
</event>
<event>
 5   0  0.5981239E-05  0.2213346E+04  0.7818609E-02  0.8512894E-01
        1   -1    0    0  501    0  0.00000000000E+00  0.00000000000E+00  0.18810807890E+04  0.18810807891E+04  0.50400001928E-02 0. -1.
       -1   -1    0    0    0  501  0.00000000000E+00  0.00000000000E+00 -0.65107537103E+03  0.65107537105E+03  0.50400001928E-02 0.  1.
    10030    2    1    2    0    0  0.00000000000E+00  0.00000000000E+00  0.12300054180E+04  0.25321561601E+04  0.22133462203E+04 0.  0.
        4    1    3    3  502    0 -0.58299767677E+03 -0.30206849271E+03  0.16341566744E+04  0.17611363703E+04  0.12699999809E+01 0. -1.
       -4    1    3    3    0  502  0.58299767677E+03  0.30206849271E+03 -0.40415125635E+03  0.77101978983E+03  0.12699999809E+01 0.  1.
</event>
<event>
 5   0  0.1241430E-04  0.2209045E+04  0.7818609E-02  0.8514673E-01
        2   -1    0    0  501    0  0.00000000000E+00  0.00000000000E+00  0.83467183455E+03  0.83467183455E+03  0.25500000920E-02 0. -1.
       -2   -1    0    0    0  501  0.00000000000E+00  0.00000000000E+00 -0.14616168490E+04  0.14616168490E+04  0.25500000920E-02 0.  1.
    10030    2    1    2    0    0  0.00000000000E+00  0.00000000000E+00 -0.62694501441E+03  0.22962886835E+04  0.22090454198E+04 0.  0.
        1    1    3    3  502    0  0.54124500939E+03 -0.96276673407E+03 -0.32409734664E+03  0.11510451922E+04  0.50400001928E-02 0. -1.
       -1    1    3    3    0  502 -0.54124500939E+03  0.96276673407E+03 -0.30284766776E+03  0.11452434913E+04  0.50400001928E-02 0.  1.
</event>
<event>
 5   0  0.6263558E-05  0.2192134E+04  0.7818609E-02  0.8521709E-01
       -1   -1    0    0    0  501  0.00000000000E+00  0.00000000000E+00  0.75212903528E+03  0.75212903530E+03  0.50400001928E-02 0. -1.
        1   -1    0    0  501    0  0.00000000000E+00  0.00000000000E+00 -0.15972833032E+04  0.15972833033E+04  0.50400001928E-02 0.  1.
    10030    2    1    2    0    0  0.00000000000E+00  0.00000000000E+00 -0.84515426796E+03  0.23494123386E+04  0.21921342568E+04 0.  0.
        3    1    3    3  502    0 -0.59977070553E+03  0.52357507732E+03  0.38480261622E+03  0.88426739420E+03  0.10100000352E+00 0. -1.
       -3    1    3    3    0  502  0.59977070553E+03 -0.52357507732E+03 -0.12299568842E+04  0.14651449443E+04  0.10100000352E+00 0.  1.
</event>
<event>
 5   0  0.1252124E-04  0.1703700E+04  0.7818609E-02  0.8759257E-01
       -2   -1    0    0    0  501  0.00000000000E+00  0.00000000000E+00  0.52639793451E+03  0.52639793452E+03  0.25500000920E-02 0. -1.
        2   -1    0    0  501    0  0.00000000000E+00  0.00000000000E+00 -0.13785169483E+04  0.13785169483E+04  0.25500000920E-02 0.  1.
    10030    2    1    2    0    0  0.00000000000E+00  0.00000000000E+00 -0.85211901376E+03  0.19049148828E+04  0.17037000608E+04 0.  0.
        3    1    3    3  502    0 -0.83091163403E+03  0.17456265790E+03 -0.50321843827E+03  0.98697268043E+03  0.10100000352E+00 0.  1.
       -3    1    3    3    0  502  0.83091163403E+03 -0.17456265790E+03 -0.34890057549E+03  0.91794220236E+03  0.10100000352E+00 0. -1.
</event>
<event>
 5   0  0.5895063E-05  0.2175461E+04  0.7818609E-02  0.8528712E-01
        1   -1    0    0  501    0  0.00000000000E+00  0.00000000000E+00  0.86043586205E+03  0.86043586207E+03  0.50400001928E-02 0.  1.
       -1   -1    0    0    0  501  0.00000000000E+00  0.00000000000E+00 -0.13750677992E+04  0.13750677992E+04  0.50400001928E-02 0. -1.
    10030    2    1    2    0    0  0.00000000000E+00  0.00000000000E+00 -0.51463193719E+03  0.22355036613E+04  0.21754610061E+04 0.  0.
        5    1    3    3  502    0 -0.23521463440E+03  0.37229947779E+03 -0.12793532447E+04  0.13530334955E+04  0.46999998093E+01 0. -1.
       -5    1    3    3    0  502  0.23521463440E+03 -0.37229947779E+03  0.76472130747E+03  0.88247016578E+03  0.46999998093E+01 0.  1.
</event>
<event>
 5   0  0.1241430E-04  0.2113512E+04  0.7818609E-02  0.8555314E-01
        2   -1    0    0  501    0  0.00000000000E+00  0.00000000000E+00  0.15704466952E+04  0.15704466952E+04  0.25500000920E-02 0. -1.
       -2   -1    0    0    0  501  0.00000000000E+00  0.00000000000E+00 -0.71109275824E+03  0.71109275824E+03  0.25500000920E-02 0.  1.
    10030    2    1    2    0    0  0.00000000000E+00  0.00000000000E+00  0.85935393695E+03  0.22815394534E+04  0.21135120271E+04 0.  0.
        1    1    3    3  502    0 -0.95795137895E+03 -0.44457768859E+03  0.47025684357E+03  0.11560543519E+04  0.50400001928E-02 0.  1.
       -1    1    3    3    0  502  0.95795137895E+03  0.44457768859E+03  0.38909709337E+03  0.11254851015E+04  0.50400001928E-02 0. -1.
</event>
<event>
 5   0  0.1252124E-04  0.2154210E+04  0.7818609E-02  0.8537732E-01
       -2   -1    0    0    0  501  0.00000000000E+00  0.00000000000E+00  0.65257489015E+03  0.65257489015E+03  0.25500000920E-02 0. -1.
        2   -1    0    0  501    0  0.00000000000E+00  0.00000000000E+00 -0.17778114772E+04  0.17778114772E+04  0.25500000920E-02 0.  1.
    10030    2    1    2    0    0  0.00000000000E+00  0.00000000000E+00 -0.11252365870E+04  0.24303863673E+04  0.21542099521E+04 0.  0.
        3    1    3    3  502    0 -0.33811572163E+03  0.64919430541E+03  0.32886181279E+03  0.80244974266E+03  0.10100000352E+00 0. -1.
       -3    1    3    3    0  502  0.33811572163E+03 -0.64919430541E+03 -0.14540983998E+04  0.16279366247E+04  0.10100000352E+00 0.  1.
</event>
<event>
 5   0  0.5895063E-05  0.2199893E+04  0.7818609E-02  0.8518473E-01
        1   -1    0    0  501    0  0.00000000000E+00  0.00000000000E+00  0.10190185217E+04  0.10190185217E+04  0.50400001928E-02 0.  1.
       -1   -1    0    0    0  501  0.00000000000E+00  0.00000000000E+00 -0.11873018925E+04  0.11873018925E+04  0.50400001928E-02 0. -1.
    10030    2    1    2    0    0  0.00000000000E+00  0.00000000000E+00 -0.16828337084E+03  0.22063204143E+04  0.21998932877E+04 0.  0.
        5    1    3    3  502    0 -0.30544517684E+03  0.95355916543E+03  0.37247815049E+03  0.10683322988E+04  0.46999998093E+01 0.  1.
       -5    1    3    3    0  502  0.30544517684E+03 -0.95355916543E+03 -0.54076152133E+03  0.11379881155E+04  0.46999998093E+01 0. -1.
</event>
<event>
 5   0  0.5981239E-05  0.2191103E+04  0.7818609E-02  0.8522140E-01
        1   -1    0    0  501    0  0.00000000000E+00  0.00000000000E+00  0.14970594147E+04  0.14970594147E+04  0.50400001928E-02 0.  1.
       -1   -1    0    0    0  501  0.00000000000E+00  0.00000000000E+00 -0.80172729368E+03  0.80172729369E+03  0.50400001928E-02 0. -1.
    10030    2    1    2    0    0  0.00000000000E+00  0.00000000000E+00  0.69533212103E+03  0.22987867084E+04  0.21911032774E+04 0.  0.
        4    1    3    3  502    0 -0.73979328510E+03 -0.14190949374E+03  0.11822477426E+04  0.14018358488E+04  0.12699999809E+01 0.  1.
       -4    1    3    3    0  502  0.73979328510E+03  0.14190949374E+03 -0.48691562161E+03  0.89695085961E+03  0.12699999809E+01 0. -1.
</event>
<event>
 5   0  0.5849604E-05  0.2220722E+04  0.7818609E-02  0.8509852E-01
       -1   -1    0    0    0  501  0.00000000000E+00  0.00000000000E+00  0.85231715028E+03  0.85231715030E+03  0.50400001928E-02 0.  1.
        1   -1    0    0  501    0  0.00000000000E+00  0.00000000000E+00 -0.14465292709E+04  0.14465292710E+04  0.50400001928E-02 0. -1.
    10030    2    1    2    0    0  0.00000000000E+00  0.00000000000E+00 -0.59421212067E+03  0.22988464213E+04  0.22207221402E+04 0.  0.
        2    1    3    3  502    0 -0.18230169659E+03 -0.12171463053E+03 -0.14239091669E+04  0.14406823645E+04  0.25500000920E-02 0. -1.
       -2    1    3    3    0  502  0.18230169659E+03  0.12171463053E+03  0.82969704619E+03  0.85816405677E+03  0.25500000920E-02 0.  1.
</event>
<event>
 5   0  0.1311472E-04  0.2130579E+04  0.7818609E-02  0.8547891E-01
       -2   -1    0    0    0  501  0.00000000000E+00  0.00000000000E+00  0.94796426048E+03  0.94796426048E+03  0.25500000920E-02 0.  1.
        2   -1    0    0  501    0  0.00000000000E+00  0.00000000000E+00 -0.11971359899E+04  0.11971359899E+04  0.25500000920E-02 0. -1.
    10030    2    1    2    0    0  0.00000000000E+00  0.00000000000E+00 -0.24917172941E+03  0.21451002504E+04  0.21305793891E+04 0.  0.
        4    1    3    3  502    0 -0.14799485763E+03  0.36444103180E+03  0.87217199748E+03  0.95676817967E+03  0.12699999809E+01 0.  1.
       -4    1    3    3    0  502  0.14799485763E+03 -0.36444103180E+03 -0.11213437269E+04  0.11883320707E+04  0.12699999809E+01 0. -1.
</event>
<event>
 5   0  0.1241430E-04  0.2164268E+04  0.7818609E-02  0.8533450E-01
       -2   -1    0    0    0  501  0.00000000000E+00  0.00000000000E+00  0.92699245172E+03  0.92699245172E+03  0.25500000920E-02 0. -1.
        2   -1    0    0  501    0  0.00000000000E+00  0.00000000000E+00 -0.12632395310E+04  0.12632395310E+04  0.25500000920E-02 0.  1.
    10030    2    1    2    0    0  0.00000000000E+00  0.00000000000E+00 -0.33624707925E+03  0.21902319827E+04  0.21642675527E+04 0.  0.
        1    1    3    3  502    0 -0.45080653743E+03 -0.47248134966E+03 -0.10413474536E+04  0.12291743892E+04  0.50400001928E-02 0.  1.
       -1    1    3    3    0  502  0.45080653743E+03  0.47248134966E+03  0.70510037437E+03  0.96105759345E+03  0.50400001928E-02 0. -1.
</event>
<event>
 5   0  0.5861816E-05  0.2206334E+04  0.7818609E-02  0.8515797E-01
       -1   -1    0    0    0  501  0.00000000000E+00  0.00000000000E+00  0.73567935331E+03  0.73567935332E+03  0.50400001928E-02 0. -1.
        1   -1    0    0  501    0  0.00000000000E+00  0.00000000000E+00 -0.16542220395E+04  0.16542220395E+04  0.50400001928E-02 0.  1.
    10030    2    1    2    0    0  0.00000000000E+00  0.00000000000E+00 -0.91854268617E+03  0.23899013928E+04  0.22063336105E+04 0.  0.
        1    1    3    3  502    0  0.48077309631E+02 -0.22664434233E+03  0.70902838657E+03  0.74592247492E+03  0.50400001928E-02 0. -1.
       -1    1    3    3    0  502 -0.48077309631E+02  0.22664434233E+03 -0.16275710727E+04  0.16439789179E+04  0.50400001928E-02 0.  1.
</event>
<event>
 5   0  0.1404159E-04  0.2176638E+04  0.7818609E-02  0.8528215E-01
       -2   -1    0    0    0  501  0.00000000000E+00  0.00000000000E+00  0.13103292150E+04  0.13103292150E+04  0.25500000920E-02 0. -1.
        2   -1    0    0  501    0  0.00000000000E+00  0.00000000000E+00 -0.90392426116E+03  0.90392426116E+03  0.25500000920E-02 0.  1.
    10030    2    1    2    0    0  0.00000000000E+00  0.00000000000E+00  0.40640495386E+03  0.22142534762E+04  0.21766381119E+04 0.  0.
        5    1    3    3  502    0 -0.26738805705E+03  0.10482098414E+04  0.82081751333E+02  0.10848961925E+04  0.46999998093E+01 0.  1.
       -5    1    3    3    0  502  0.26738805705E+03 -0.10482098414E+04  0.32432320253E+03  0.11293572837E+04  0.46999998093E+01 0. -1.
</event>
<event>
 5   0  0.5981239E-05  0.2191549E+04  0.7818609E-02  0.8521954E-01
        1   -1    0    0  501    0  0.00000000000E+00  0.00000000000E+00  0.11269112820E+04  0.11269112820E+04  0.50400001928E-02 0. -1.
       -1   -1    0    0    0  501  0.00000000000E+00  0.00000000000E+00 -0.10654982814E+04  0.10654982814E+04  0.50400001928E-02 0.  1.
    10030    2    1    2    0    0  0.00000000000E+00  0.00000000000E+00  0.61413000610E+02  0.21924095634E+04  0.21915492550E+04 0.  0.
        4    1    3    3  502    0 -0.33671473247E+02  0.81080480295E+03  0.76732579369E+03  0.11168387006E+04  0.12699999809E+01 0. -1.
       -4    1    3    3    0  502  0.33671473247E+02 -0.81080480295E+03 -0.70591279308E+03  0.10755708628E+04  0.12699999809E+01 0.  1.
</event>
<event>
 5   0  0.6263558E-05  0.2637678E+04  0.7818609E-02  0.8355514E-01
       -1   -1    0    0    0  501  0.00000000000E+00  0.00000000000E+00  0.12897630078E+04  0.12897630078E+04  0.50400001928E-02 0. -1.
        1   -1    0    0  501    0  0.00000000000E+00  0.00000000000E+00 -0.13485702840E+04  0.13485702840E+04  0.50400001928E-02 0.  1.
    10030    2    1    2    0    0  0.00000000000E+00  0.00000000000E+00 -0.58807276144E+02  0.26383332918E+04  0.26376778164E+04 0.  0.
        3    1    3    3  502    0 -0.81475069671E+03  0.66846250031E+03 -0.82249111105E+03  0.13368442131E+04  0.10100000352E+00 0.  1.
       -3    1    3    3    0  502  0.81475069671E+03 -0.66846250031E+03  0.76368383491E+03  0.13014890787E+04  0.10100000352E+00 0. -1.
</event>
<event>
 5   0  0.5849604E-05  0.2105142E+04  0.7818609E-02  0.8558982E-01
        1   -1    0    0  501    0  0.00000000000E+00  0.00000000000E+00  0.15846161366E+04  0.15846161366E+04  0.50400001928E-02 0.  1.
       -1   -1    0    0    0  501  0.00000000000E+00  0.00000000000E+00 -0.69916322957E+03  0.69916322959E+03  0.50400001928E-02 0. -1.
    10030    2    1    2    0    0  0.00000000000E+00  0.00000000000E+00  0.88545290700E+03  0.22837793662E+04  0.21051416444E+04 0.  0.
        2    1    3    3  502    0 -0.31440633845E+03  0.82133277553E+03  0.10701330929E+04  0.13851439312E+04  0.25500000920E-02 0.  1.
       -2    1    3    3    0  502  0.31440633845E+03 -0.82133277553E+03 -0.18468018587E+03  0.89863543491E+03  0.25500000920E-02 0. -1.
</event>
<event>
 5   0  0.1311472E-04  0.2198860E+04  0.7818609E-02  0.8518903E-01
        2   -1    0    0  501    0  0.00000000000E+00  0.00000000000E+00  0.20233421106E+04  0.20233421106E+04  0.25500000920E-02 0.  1.
       -2   -1    0    0    0  501  0.00000000000E+00  0.00000000000E+00 -0.59740081414E+03  0.59740081414E+03  0.25500000920E-02 0. -1.
    10030    2    1    2    0    0  0.00000000000E+00  0.00000000000E+00  0.14259412965E+04  0.26207429247E+04  0.21988599084E+04 0.  0.
        4    1    3    3  502    0 -0.52691559270E+03 -0.12180169598E+03  0.18538463691E+04  0.19311197964E+04  0.12699999809E+01 0.  1.
       -4    1    3    3    0  502  0.52691559270E+03  0.12180169598E+03 -0.42790507267E+03  0.68962312830E+03  0.12699999809E+01 0. -1.
</event>
<event>
 5   0  0.5861816E-05  0.2524346E+04  0.7818609E-02  0.8394363E-01
       -1   -1    0    0    0  501  0.00000000000E+00  0.00000000000E+00  0.10828185834E+04  0.10828185834E+04  0.50400001928E-02 0. -1.
        1   -1    0    0  501    0  0.00000000000E+00  0.00000000000E+00 -0.14712345020E+04  0.14712345020E+04  0.50400001928E-02 0.  1.
    10030    2    1    2    0    0  0.00000000000E+00  0.00000000000E+00 -0.38841591860E+03  0.25540530854E+04  0.25243455067E+04 0.  0.
        1    1    3    3  502    0  0.37180531394E+03  0.22362081711E+01  0.10261524869E+04  0.10914362641E+04  0.50400001928E-02 0. -1.
       -1    1    3    3    0  502 -0.37180531394E+03 -0.22362081711E+01 -0.14145684055E+04  0.14626168213E+04  0.50400001928E-02 0.  1.
</event>
<event>
 5   0  0.6263558E-05  0.2278350E+04  0.7818609E-02  0.8486507E-01
       -1   -1    0    0    0  501  0.00000000000E+00  0.00000000000E+00  0.11978140415E+04  0.11978140415E+04  0.50400001928E-02 0.  1.
        1   -1    0    0  501    0  0.00000000000E+00  0.00000000000E+00 -0.10834065927E+04  0.10834065927E+04  0.50400001928E-02 0. -1.
    10030    2    1    2    0    0  0.00000000000E+00  0.00000000000E+00  0.11440744882E+03  0.22812206343E+04  0.22783499551E+04 0.  0.
        3    1    3    3  502    0 -0.26408476987E+03  0.10450505022E+04 -0.31183672035E+03  0.11221022539E+04  0.10100000352E+00 0.  1.
       -3    1    3    3    0  502  0.26408476987E+03 -0.10450505022E+04  0.42624416917E+03  0.11591183804E+04  0.10100000352E+00 0. -1.
</event>
<event>
 5   0  0.1226021E-04  0.2072458E+04  0.7818609E-02  0.8573474E-01
       -2   -1    0    0    0  501  0.00000000000E+00  0.00000000000E+00  0.54156502506E+03  0.54156502507E+03  0.25500000920E-02 0. -1.
        2   -1    0    0  501    0  0.00000000000E+00  0.00000000000E+00 -0.19827171854E+04  0.19827171854E+04  0.25500000920E-02 0.  1.
    10030    2    1    2    0    0  0.00000000000E+00  0.00000000000E+00 -0.14411521603E+04  0.25242822105E+04  0.20724577508E+04 0.  0.
        2    1    3    3  502    0  0.11697350670E+03  0.88694537110E+03 -0.13574650080E+04  0.16257509466E+04  0.25500000920E-02 0.  1.
       -2    1    3    3    0  502 -0.11697350670E+03 -0.88694537110E+03 -0.83687152344E+02  0.89853126382E+03  0.25500000920E-02 0. -1.
</event>
<event>
 5   0  0.1311472E-04  0.2058350E+04  0.7818609E-02  0.8579816E-01
        2   -1    0    0  501    0  0.00000000000E+00  0.00000000000E+00  0.12563866089E+04  0.12563866089E+04  0.25500000920E-02 0. -1.
       -2   -1    0    0    0  501  0.00000000000E+00  0.00000000000E+00 -0.84305366046E+03  0.84305366047E+03  0.25500000920E-02 0.  1.
    10030    2    1    2    0    0  0.00000000000E+00  0.00000000000E+00  0.41333294843E+03  0.20994402694E+04  0.20583501447E+04 0.  0.
        4    1    3    3  502    0 -0.15238581422E+02  0.10287714962E+04  0.18175116454E+03  0.10448148661E+04  0.12699999809E+01 0. -1.
       -4    1    3    3    0  502  0.15238581422E+02 -0.10287714962E+04  0.23158178389E+03  0.10546254033E+04  0.12699999809E+01 0.  1.
</event>
<event>
 5   0  0.5895063E-05  0.2194786E+04  0.7818609E-02  0.8520602E-01
        1   -1    0    0  501    0  0.00000000000E+00  0.00000000000E+00  0.62227651564E+03  0.62227651566E+03  0.50400001928E-02 0. -1.
       -1   -1    0    0    0  501  0.00000000000E+00  0.00000000000E+00 -0.19352666465E+04  0.19352666465E+04  0.50400001928E-02 0.  1.
    10030    2    1    2    0    0  0.00000000000E+00  0.00000000000E+00 -0.13129901308E+04  0.25575431621E+04  0.21947856257E+04 0.  0.
        5    1    3    3  502    0 -0.67200496914E+03 -0.50762170841E+02 -0.16657132523E+04  0.17968834702E+04  0.46999998093E+01 0.  1.
       -5    1    3    3    0  502  0.67200496914E+03  0.50762170841E+02  0.35272312148E+03  0.76065969195E+03  0.46999998093E+01 0. -1.
</event>
<event>
 5   0  0.1311472E-04  0.2208519E+04  0.7818609E-02  0.8514891E-01
        2   -1    0    0  501    0  0.00000000000E+00  0.00000000000E+00  0.18586273640E+04  0.18586273640E+04  0.25500000920E-02 0. -1.
       -2   -1    0    0    0  501  0.00000000000E+00  0.00000000000E+00 -0.65606963904E+03  0.65606963904E+03  0.25500000920E-02 0.  1.
    10030    2    1    2    0    0  0.00000000000E+00  0.00000000000E+00  0.12025577249E+04  0.25146970030E+04  0.22085189461E+04 0.  0.
        4    1    3    3  502    0  0.32435153124E+03 -0.36809910717E+03 -0.52515665145E+03  0.71867377160E+03  0.12699999809E+01 0.  1.
       -4    1    3    3    0  502 -0.32435153124E+03  0.36809910717E+03  0.17277143764E+04  0.17960232314E+04  0.12699999809E+01 0. -1.
</event>
<event>
 5   0  0.5849604E-05  0.2180971E+04  0.7818609E-02  0.8526390E-01
       -1   -1    0    0    0  501  0.00000000000E+00  0.00000000000E+00  0.74349385410E+03  0.74349385412E+03  0.50400001928E-02 0.  1.
        1   -1    0    0  501    0  0.00000000000E+00  0.00000000000E+00 -0.15994202859E+04  0.15994202859E+04  0.50400001928E-02 0. -1.
    10030    2    1    2    0    0  0.00000000000E+00  0.00000000000E+00 -0.85592643183E+03  0.23429141401E+04  0.21809714833E+04 0.  0.
        2    1    3    3  502    0 -0.11498041054E+03  0.70911122603E+03 -0.13093086483E+04  0.14934350880E+04  0.25500000920E-02 0. -1.
       -2    1    3    3    0  502  0.11498041054E+03 -0.70911122603E+03  0.45338221643E+03  0.84947905205E+03  0.25500000920E-02 0.  1.
</event>
<event>
 5   0  0.1404159E-04  0.2246957E+04  0.7818609E-02  0.8499134E-01
        2   -1    0    0  501    0  0.00000000000E+00  0.00000000000E+00  0.14537002673E+04  0.14537002673E+04  0.25500000920E-02 0. -1.
       -2   -1    0    0    0  501  0.00000000000E+00  0.00000000000E+00 -0.86827006849E+03  0.86827006850E+03  0.25500000920E-02 0.  1.
    10030    2    1    2    0    0  0.00000000000E+00  0.00000000000E+00  0.58543019878E+03  0.23219703358E+04  0.22469574368E+04 0.  0.
        5    1    3    3  502    0 -0.13876367735E+03 -0.14590323697E+03 -0.84946162630E+03  0.87301217475E+03  0.46999998093E+01 0.  1.
       -5    1    3    3    0  502  0.13876367735E+03  0.14590323697E+03  0.14348918251E+04  0.14489581610E+04  0.46999998093E+01 0. -1.
</event>
<event>
 5   0  0.5849604E-05  0.2185086E+04  0.7818609E-02  0.8524661E-01
        1   -1    0    0  501    0  0.00000000000E+00  0.00000000000E+00  0.15018176400E+04  0.15018176400E+04  0.50400001928E-02 0.  1.
       -1   -1    0    0    0  501  0.00000000000E+00  0.00000000000E+00 -0.79480386205E+03  0.79480386207E+03  0.50400001928E-02 0. -1.
    10030    2    1    2    0    0  0.00000000000E+00  0.00000000000E+00  0.70701377798E+03  0.22966215021E+04  0.21850862321E+04 0.  0.
        2    1    3    3  502    0 -0.60719595305E+03 -0.87920630544E+03  0.11392465364E+03  0.10745554800E+04  0.25500000920E-02 0.  1.
       -2    1    3    3    0  502  0.60719595305E+03  0.87920630544E+03  0.59308912434E+03  0.12220660221E+04  0.25500000920E-02 0. -1.
</event>
<event>
 5   0  0.1241430E-04  0.2168209E+04  0.7818609E-02  0.8531778E-01
       -2   -1    0    0    0  501  0.00000000000E+00  0.00000000000E+00  0.67528822184E+03  0.67528822184E+03  0.25500000920E-02 0.  1.
        2   -1    0    0  501    0  0.00000000000E+00  0.00000000000E+00 -0.17404159778E+04  0.17404159778E+04  0.25500000920E-02 0. -1.
    10030    2    1    2    0    0  0.00000000000E+00  0.00000000000E+00 -0.10651277560E+04  0.24157041996E+04  0.21682088561E+04 0.  0.
        1    1    3    3  502    0  0.11994346876E+03  0.87107453801E+02 -0.17290711510E+04  0.17354138381E+04  0.50400001928E-02 0. -1.
       -1    1    3    3    0  502 -0.11994346876E+03 -0.87107453801E+02  0.66394339503E+03  0.68029036156E+03  0.50400001928E-02 0.  1.
</event>
<event>
 5   0  0.4586375E-05  0.2188448E+04  0.7818609E-02  0.8523252E-01
        4   -1    0    0  501    0  0.00000000000E+00  0.00000000000E+00  0.86927997656E+03  0.86928090428E+03  0.12699999809E+01 0. -1.
       -4   -1    0    0    0  501  0.00000000000E+00  0.00000000000E+00 -0.13773748346E+04  0.13773754201E+04  0.12699999809E+01 0.  1.
    10030    2    1    2    0    0  0.00000000000E+00  0.00000000000E+00 -0.50809485807E+03  0.22466563244E+04  0.21884479101E+04 0.  0.
        2    1    3    3  502    0 -0.10172377919E+04  0.26478269422E+03  0.58084741566E+02  0.10527375920E+04  0.25500000920E-02 0. -1.
       -2    1    3    3    0  502  0.10172377919E+04 -0.26478269422E+03 -0.56617959963E+03  0.11939187324E+04  0.25500000920E-02 0.  1.
</event>
<event>
 5   0  0.1226021E-04  0.2235824E+04  0.7818609E-02  0.8503664E-01
        2   -1    0    0  501    0  0.00000000000E+00  0.00000000000E+00  0.15655545237E+04  0.15655545238E+04  0.25500000920E-02 0.  1.
       -2   -1    0    0    0  501  0.00000000000E+00  0.00000000000E+00 -0.79826477285E+03  0.79826477285E+03  0.25500000920E-02 0. -1.
    10030    2    1    2    0    0  0.00000000000E+00  0.00000000000E+00  0.76728975090E+03  0.23638192966E+04  0.22358238091E+04 0.  0.
        2    1    3    3  502    0  0.10410355441E+04 -0.11863334531E+03 -0.28407992912E+02  0.10481583319E+04  0.25500000920E-02 0. -1.
       -2    1    3    3    0  502 -0.10410355441E+04  0.11863334531E+03  0.79569774381E+03  0.13156609647E+04  0.25500000920E-02 0.  1.
</event>
<event>
 5   0  0.4586375E-05  0.2243777E+04  0.7818609E-02  0.8500425E-01
        3   -1    0    0  501    0  0.00000000000E+00  0.00000000000E+00  0.12072481378E+04  0.12072481420E+04  0.10100000352E+00 0.  1.
       -3   -1    0    0    0  501  0.00000000000E+00  0.00000000000E+00 -0.10425641015E+04  0.10425641064E+04  0.10100000352E+00 0. -1.
    10030    2    1    2    0    0  0.00000000000E+00  0.00000000000E+00  0.16468403634E+03  0.22498122484E+04  0.22437767984E+04 0.  0.
        4    1    3    3  502    0  0.18845646740E+03 -0.93510019212E+03  0.67444185011E+03  0.11682472476E+04  0.12699999809E+01 0.  1.
       -4    1    3    3    0  502 -0.18845646740E+03  0.93510019212E+03 -0.50975781377E+03  0.10815650008E+04  0.12699999809E+01 0. -1.
</event>
<event>
 5   0  0.1311472E-04  0.2182372E+04  0.7818609E-02  0.8525801E-01
       -2   -1    0    0    0  501  0.00000000000E+00  0.00000000000E+00  0.10553197991E+04  0.10553197991E+04  0.25500000920E-02 0. -1.
        2   -1    0    0  501    0  0.00000000000E+00  0.00000000000E+00 -0.11282712260E+04  0.11282712260E+04  0.25500000920E-02 0.  1.
    10030    2    1    2    0    0  0.00000000000E+00  0.00000000000E+00 -0.72951426886E+02  0.21835910252E+04  0.21823720706E+04 0.  0.
        4    1    3    3  502    0 -0.33563443825E+03 -0.28334978342E+03  0.96295545557E+03  0.10584055925E+04  0.12699999809E+01 0. -1.
       -4    1    3    3    0  502  0.33563443825E+03  0.28334978342E+03 -0.10359068825E+04  0.11251854327E+04  0.12699999809E+01 0.  1.
</event>
<event>
 5   0  0.1404159E-04  0.2194639E+04  0.7818609E-02  0.8520663E-01
        2   -1    0    0  501    0  0.00000000000E+00  0.00000000000E+00  0.11787567070E+04  0.11787567070E+04  0.25500000920E-02 0. -1.
       -2   -1    0    0    0  501  0.00000000000E+00  0.00000000000E+00 -0.10215088461E+04  0.10215088461E+04  0.25500000920E-02 0.  1.
    10030    2    1    2    0    0  0.00000000000E+00  0.00000000000E+00  0.15724786088E+03  0.22002655530E+04  0.21946392902E+04 0.  0.
        5    1    3    3  502    0 -0.91048722350E+03  0.60721836949E+03  0.15874865801E+03  0.11058591044E+04  0.46999998093E+01 0. -1.
       -5    1    3    3    0  502  0.91048722350E+03 -0.60721836949E+03 -0.15007971341E+01  0.10944064486E+04  0.46999998093E+01 0.  1.
</event>
<event>
 5   0  0.5981239E-05  0.2019082E+04  0.7818609E-02  0.8597751E-01
        1   -1    0    0  501    0  0.00000000000E+00  0.00000000000E+00  0.13492299506E+04  0.13492299506E+04  0.50400001928E-02 0. -1.
       -1   -1    0    0    0  501  0.00000000000E+00  0.00000000000E+00 -0.75537422287E+03  0.75537422289E+03  0.50400001928E-02 0.  1.
    10030    2    1    2    0    0  0.00000000000E+00  0.00000000000E+00  0.59385572777E+03  0.21046041735E+04  0.20190824901E+04 0.  0.
        4    1    3    3  502    0 -0.52453013250E+02 -0.19626736765E+03  0.13277020275E+04  0.13431554210E+04  0.12699999809E+01 0. -1.
       -4    1    3    3    0  502  0.52453013250E+02  0.19626736765E+03 -0.73384629974E+03  0.76144875254E+03  0.12699999809E+01 0.  1.
</event>
<event>
 5   0  0.4586375E-05  0.2231631E+04  0.7818609E-02  0.8505377E-01
        4   -1    0    0  501    0  0.00000000000E+00  0.00000000000E+00  0.19093892332E+04  0.19093896556E+04  0.12699999809E+01 0.  1.
       -4   -1    0    0    0  501  0.00000000000E+00  0.00000000000E+00 -0.65206315648E+03  0.65206439325E+03  0.12699999809E+01 0. -1.
    10030    2    1    2    0    0  0.00000000000E+00  0.00000000000E+00  0.12573260768E+04  0.25614540488E+04  0.22316312377E+04 0.  0.
        3    1    3    3  502    0 -0.81477406973E+03  0.16363835089E+03  0.14832961983E+04  0.17002358415E+04  0.10100000352E+00 0.  1.
       -3    1    3    3    0  502  0.81477406973E+03 -0.16363835089E+03 -0.22597012158E+03  0.86121820733E+03  0.10100000352E+00 0. -1.
</event>
<event>
 5   0  0.1404159E-04  0.2202724E+04  0.7818609E-02  0.8517295E-01
        2   -1    0    0  501    0  0.00000000000E+00  0.00000000000E+00  0.18974546118E+04  0.18974546118E+04  0.25500000920E-02 0. -1.
       -2   -1    0    0    0  501  0.00000000000E+00  0.00000000000E+00 -0.63927640225E+03  0.63927640226E+03  0.25500000920E-02 0.  1.
    10030    2    1    2    0    0  0.00000000000E+00  0.00000000000E+00  0.12581782095E+04  0.25367310140E+04  0.22027237300E+04 0.  0.
        5    1    3    3  502    0 -0.33462140234E+03 -0.37415105045E+02  0.18367156236E+04  0.18673290403E+04  0.46999998093E+01 0. -1.
       -5    1    3    3    0  502  0.33462140234E+03  0.37415105045E+02 -0.57853741403E+03  0.66940197372E+03  0.46999998093E+01 0.  1.
</event>
<event>
 5   0  0.6263558E-05  0.2142589E+04  0.7818609E-02  0.8542711E-01
        1   -1    0    0  501    0  0.00000000000E+00  0.00000000000E+00  0.13926946695E+04  0.13926946695E+04  0.50400001928E-02 0.  1.
       -1   -1    0    0    0  501  0.00000000000E+00  0.00000000000E+00 -0.82406606845E+03  0.82406606847E+03  0.50400001928E-02 0. -1.
    10030    2    1    2    0    0  0.00000000000E+00  0.00000000000E+00  0.56862860100E+03  0.22167607379E+04  0.21425894808E+04 0.  0.
        3    1    3    3  502    0 -0.78457548191E+03  0.72804892628E+03  0.33125544576E+03  0.11204213968E+04  0.10100000352E+00 0.  1.
       -3    1    3    3    0  502  0.78457548191E+03 -0.72804892628E+03  0.23737315524E+03  0.10963393411E+04  0.10100000352E+00 0. -1.
</event>
<event>
 5   0  0.1241430E-04  0.2228178E+04  0.7818609E-02  0.8506790E-01
       -2   -1    0    0    0  501  0.00000000000E+00  0.00000000000E+00  0.86306264246E+03  0.86306264246E+03  0.25500000920E-02 0. -1.
        2   -1    0    0  501    0  0.00000000000E+00  0.00000000000E+00 -0.14381280160E+04  0.14381280160E+04  0.25500000920E-02 0.  1.
    10030    2    1    2    0    0  0.00000000000E+00  0.00000000000E+00 -0.57506537353E+03  0.23011906585E+04  0.22281782385E+04 0.  0.
        1    1    3    3  502    0  0.23592928330E+03 -0.10881254232E+04 -0.24733423591E+03  0.11405497743E+04  0.50400001928E-02 0.  1.
       -1    1    3    3    0  502 -0.23592928330E+03  0.10881254232E+04 -0.32773113762E+03  0.11606408842E+04  0.50400001928E-02 0. -1.
</event>
<event>
 5   0  0.5861816E-05  0.2167778E+04  0.7818609E-02  0.8531960E-01
        1   -1    0    0  501    0  0.00000000000E+00  0.00000000000E+00  0.11054913668E+04  0.11054913669E+04  0.50400001928E-02 0.  1.
       -1   -1    0    0    0  501  0.00000000000E+00  0.00000000000E+00 -0.10627091881E+04  0.10627091881E+04  0.50400001928E-02 0. -1.
    10030    2    1    2    0    0  0.00000000000E+00  0.00000000000E+00  0.42782178786E+02  0.21682005549E+04  0.21677784323E+04 0.  0.
        1    1    3    3  502    0  0.52643850082E+03 -0.83037461244E+03  0.47772146914E+03  0.10931044297E+04  0.50400001928E-02 0.  1.
       -1    1    3    3    0  502 -0.52643850082E+03  0.83037461244E+03 -0.43493929036E+03  0.10750961252E+04  0.50400001928E-02 0. -1.
</event>
<event>
 5   0  0.1241430E-04  0.2177291E+04  0.7818609E-02  0.8527940E-01
       -2   -1    0    0    0  501  0.00000000000E+00  0.00000000000E+00  0.12784012862E+04  0.12784012862E+04  0.25500000920E-02 0. -1.
        2   -1    0    0  501    0  0.00000000000E+00  0.00000000000E+00 -0.92705587131E+03  0.92705587131E+03  0.25500000920E-02 0.  1.
    10030    2    1    2    0    0  0.00000000000E+00  0.00000000000E+00  0.35134541492E+03  0.22054571575E+04  0.21772913616E+04 0.  0.
        1    1    3    3  502    0 -0.10428491894E+04  0.14792049825E+02 -0.14044807042E+03  0.10523682326E+04  0.50400001928E-02 0.  1.
       -1    1    3    3    0  502  0.10428491894E+04 -0.14792049825E+02  0.49179348534E+03  0.11530889249E+04  0.50400001928E-02 0. -1.
</event>
<event>
 5   0  0.1241430E-04  0.2062320E+04  0.7818609E-02  0.8578026E-01
       -2   -1    0    0    0  501  0.00000000000E+00  0.00000000000E+00  0.12072986319E+04  0.12072986319E+04  0.25500000920E-02 0. -1.
        2   -1    0    0  501    0  0.00000000000E+00  0.00000000000E+00 -0.88071932763E+03  0.88071932763E+03  0.25500000920E-02 0.  1.
    10030    2    1    2    0    0  0.00000000000E+00  0.00000000000E+00  0.32657930428E+03  0.20880179595E+04  0.20623202849E+04 0.  0.
        1    1    3    3  502    0  0.66100983922E+03 -0.19756598205E+03 -0.61263103048E+03  0.92265004435E+03  0.50400001928E-02 0.  1.
       -1    1    3    3    0  502 -0.66100983922E+03  0.19756598205E+03  0.93921033476E+03  0.11653679152E+04  0.50400001928E-02 0. -1.
</event>
<event>
 5   0  0.1404159E-04  0.2148847E+04  0.7818609E-02  0.8540026E-01
       -2   -1    0    0    0  501  0.00000000000E+00  0.00000000000E+00  0.79214483214E+03  0.79214483214E+03  0.25500000920E-02 0. -1.
        2   -1    0    0  501    0  0.00000000000E+00  0.00000000000E+00 -0.14572907707E+04  0.14572907707E+04  0.25500000920E-02 0.  1.
    10030    2    1    2    0    0  0.00000000000E+00  0.00000000000E+00 -0.66514593852E+03  0.22494356028E+04  0.21488465305E+04 0.  0.
        5    1    3    3  502    0 -0.48259609186E+02  0.44355842736E+03 -0.13557147626E+04  0.14272552946E+04  0.46999998093E+01 0.  1.
       -5    1    3    3    0  502  0.48259609186E+02 -0.44355842736E+03  0.69056882411E+03  0.82218030820E+03  0.46999998093E+01 0. -1.
</event>
<event>
 5   0  0.1252124E-04  0.2156118E+04  0.7818609E-02  0.8536918E-01
       -2   -1    0    0    0  501  0.00000000000E+00  0.00000000000E+00  0.39643152064E+03  0.39643152065E+03  0.25500000920E-02 0. -1.
        2   -1    0    0  501    0  0.00000000000E+00  0.00000000000E+00 -0.29316833241E+04  0.29316833241E+04  0.25500000920E-02 0.  1.
    10030    2    1    2    0    0  0.00000000000E+00  0.00000000000E+00 -0.25352518035E+04  0.33281148448E+04  0.21561184367E+04 0.  0.
        3    1    3    3  502    0  0.25837562022E+03  0.21441698741E+03 -0.28489197464E+04  0.28686366688E+04  0.10100000352E+00 0.  1.
       -3    1    3    3    0  502 -0.25837562022E+03 -0.21441698741E+03  0.31366794293E+03  0.45947817602E+03  0.10100000352E+00 0. -1.
</event>
<event>
 5   0  0.5849604E-05  0.1880016E+04  0.7818609E-02  0.8664868E-01
       -1   -1    0    0    0  501  0.00000000000E+00  0.00000000000E+00  0.91368694819E+03  0.91368694821E+03  0.50400001928E-02 0.  1.
        1   -1    0    0  501    0  0.00000000000E+00  0.00000000000E+00 -0.96708766570E+03  0.96708766571E+03  0.50400001928E-02 0. -1.
    10030    2    1    2    0    0  0.00000000000E+00  0.00000000000E+00 -0.53400717505E+02  0.18807746139E+04  0.18800163594E+04 0.  0.
        2    1    3    3  502    0  0.65025655848E+03 -0.39828044373E+03  0.52320713827E+03  0.92477381734E+03  0.25500000920E-02 0.  1.
       -2    1    3    3    0  502 -0.65025655848E+03  0.39828044373E+03 -0.57660785578E+03  0.95600079657E+03  0.25500000920E-02 0. -1.
</event>
<event>
 5   0  0.6263558E-05  0.2107732E+04  0.7818609E-02  0.8557845E-01
       -1   -1    0    0    0  501  0.00000000000E+00  0.00000000000E+00  0.11422802950E+04  0.11422802951E+04  0.50400001928E-02 0. -1.
        1   -1    0    0  501    0  0.00000000000E+00  0.00000000000E+00 -0.97229475774E+03  0.97229475775E+03  0.50400001928E-02 0.  1.
    10030    2    1    2    0    0  0.00000000000E+00  0.00000000000E+00  0.16998553730E+03  0.21145750528E+04  0.21077316174E+04 0.  0.
        3    1    3    3  502    0  0.45625144131E+03 -0.82971967583E+03 -0.37914635503E+03  0.10199765129E+04  0.10100000352E+00 0.  1.
       -3    1    3    3    0  502 -0.45625144131E+03  0.82971967583E+03  0.54913189233E+03  0.10945985399E+04  0.10100000352E+00 0. -1.
</event>
<event>
 5   0  0.4586375E-05  0.2232182E+04  0.7818609E-02  0.8505151E-01
       -3   -1    0    0    0  501  0.00000000000E+00  0.00000000000E+00  0.10405853038E+04  0.10405853087E+04  0.10100000352E+00 0.  1.
        3   -1    0    0  501    0  0.00000000000E+00  0.00000000000E+00 -0.11970752498E+04  0.11970752540E+04  0.10100000352E+00 0. -1.
    10030    2    1    2    0    0  0.00000000000E+00  0.00000000000E+00 -0.15648994594E+03  0.22376605627E+04  0.22321818230E+04 0.  0.
        3    1    3    3  502    0  0.78932008015E+03  0.45734783773E+03  0.56634622847E+03  0.10737510393E+04  0.10100000352E+00 0.  1.
       -3    1    3    3    0  502 -0.78932008015E+03 -0.45734783773E+03 -0.72283617441E+03  0.11639095235E+04  0.10100000352E+00 0. -1.
</event>
<event>
 5   0  0.5849604E-05  0.2199224E+04  0.7818609E-02  0.8518751E-01
        1   -1    0    0  501    0  0.00000000000E+00  0.00000000000E+00  0.11829408909E+04  0.11829408909E+04  0.50400001928E-02 0.  1.
       -1   -1    0    0    0  501  0.00000000000E+00  0.00000000000E+00 -0.10221533871E+04  0.10221533871E+04  0.50400001928E-02 0. -1.
    10030    2    1    2    0    0  0.00000000000E+00  0.00000000000E+00  0.16078750378E+03  0.22050942780E+04  0.21992244436E+04 0.  0.
        2    1    3    3  502    0 -0.19101482537E+03 -0.12660731789E+03  0.11587320139E+04  0.11811756671E+04  0.25500000920E-02 0.  1.
       -2    1    3    3    0  502  0.19101482537E+03  0.12660731789E+03 -0.99794451013E+03  0.10239186109E+04  0.25500000920E-02 0. -1.
</event>
<event>
 5   0  0.5861816E-05  0.2194160E+04  0.7818609E-02  0.8520863E-01
        1   -1    0    0  501    0  0.00000000000E+00  0.00000000000E+00  0.99383419328E+03  0.99383419329E+03  0.50400001928E-02 0. -1.
       -1   -1    0    0    0  501  0.00000000000E+00  0.00000000000E+00 -0.12110518586E+04  0.12110518586E+04  0.50400001928E-02 0.  1.
    10030    2    1    2    0    0  0.00000000000E+00  0.00000000000E+00 -0.21721766532E+03  0.22048860519E+04  0.21941602010E+04 0.  0.
        1    1    3    3  502    0  0.61643745314E+03  0.90681427461E+03 -0.72692195984E+02  0.10989046445E+04  0.50400001928E-02 0. -1.
       -1    1    3    3    0  502 -0.61643745314E+03 -0.90681427461E+03 -0.14452546933E+03  0.11059814074E+04  0.50400001928E-02 0.  1.
</event>
<event>
 5   0  0.1311472E-04  0.2225675E+04  0.7818609E-02  0.8507817E-01
        2   -1    0    0  501    0  0.00000000000E+00  0.00000000000E+00  0.18689405763E+04  0.18689405763E+04  0.25500000920E-02 0. -1.
       -2   -1    0    0    0  501  0.00000000000E+00  0.00000000000E+00 -0.66262525699E+03  0.66262525700E+03  0.25500000920E-02 0.  1.
    10030    2    1    2    0    0  0.00000000000E+00  0.00000000000E+00  0.12063153194E+04  0.25315658333E+04  0.22256749356E+04 0.  0.
        4    1    3    3  502    0  0.10155852911E+04 -0.45083529603E+03  0.67271517841E+03  0.12989277393E+04  0.12699999809E+01 0.  1.
       -4    1    3    3    0  502 -0.10155852911E+04  0.45083529603E+03  0.53360014094E+03  0.12326380941E+04  0.12699999809E+01 0. -1.
</event>
<event>
 5   0  0.6263558E-05  0.2191670E+04  0.7818609E-02  0.8521903E-01
       -1   -1    0    0    0  501  0.00000000000E+00  0.00000000000E+00  0.14355853375E+04  0.14355853375E+04  0.50400001928E-02 0.  1.
        1   -1    0    0  501    0  0.00000000000E+00  0.00000000000E+00 -0.83649143048E+03  0.83649143050E+03  0.50400001928E-02 0. -1.
    10030    2    1    2    0    0  0.00000000000E+00  0.00000000000E+00  0.59909390702E+03  0.22720767680E+04  0.21916704429E+04 0.  0.
        3    1    3    3  502    0 -0.78643888614E+03 -0.53308471992E+03 -0.26655393677E+03  0.98677071889E+03  0.10100000352E+00 0. -1.
       -3    1    3    3    0  502  0.78643888614E+03  0.53308471992E+03  0.86564784378E+03  0.12853060491E+04  0.10100000352E+00 0.  1.
</event>
<event>
 5   0  0.1226021E-04  0.2163017E+04  0.7818609E-02  0.8533981E-01
       -2   -1    0    0    0  501  0.00000000000E+00  0.00000000000E+00  0.15910259457E+04  0.15910259457E+04  0.25500000920E-02 0. -1.
        2   -1    0    0  501    0  0.00000000000E+00  0.00000000000E+00 -0.73516118896E+03  0.73516118896E+03  0.25500000920E-02 0.  1.
    10030    2    1    2    0    0  0.00000000000E+00  0.00000000000E+00  0.85586475678E+03  0.23261871347E+04  0.21630168986E+04 0.  0.
        2    1    3    3  502    0 -0.14372382451E+03  0.26489080945E+03 -0.68909192604E+03  0.75211126916E+03  0.25500000920E-02 0.  1.
       -2    1    3    3    0  502  0.14372382451E+03 -0.26489080945E+03  0.15449566828E+04  0.15740758655E+04  0.25500000920E-02 0. -1.
</event>
<event>
 5   0  0.5895063E-05  0.2172900E+04  0.7818609E-02  0.8529793E-01
        1   -1    0    0  501    0  0.00000000000E+00  0.00000000000E+00  0.80581265705E+03  0.80581265706E+03  0.50400001928E-02 0. -1.
       -1   -1    0    0    0  501  0.00000000000E+00  0.00000000000E+00 -0.14648234628E+04  0.14648234629E+04  0.50400001928E-02 0.  1.
    10030    2    1    2    0    0  0.00000000000E+00  0.00000000000E+00 -0.65901080580E+03  0.22706361199E+04  0.21728997094E+04 0.  0.
        5    1    3    3  502    0  0.72567172538E+02  0.85836863402E+03 -0.10213170880E+04  0.13361038099E+04  0.46999998093E+01 0.  1.
       -5    1    3    3    0  502 -0.72567172538E+02 -0.85836863402E+03  0.36230628224E+03  0.93453231006E+03  0.46999998093E+01 0. -1.
</event>
<event>
 5   0  0.1311472E-04  0.2097175E+04  0.7818609E-02  0.8562489E-01
       -2   -1    0    0    0  501  0.00000000000E+00  0.00000000000E+00  0.11553531025E+04  0.11553531025E+04  0.25500000920E-02 0.  1.
        2   -1    0    0  501    0  0.00000000000E+00  0.00000000000E+00 -0.95168760398E+03  0.95168760398E+03  0.25500000920E-02 0. -1.
    10030    2    1    2    0    0  0.00000000000E+00  0.00000000000E+00  0.20366549847E+03  0.21070407064E+04  0.20971745047E+04 0.  0.
        4    1    3    3  502    0 -0.34413401715E+01  0.31519423620E+03  0.11066248585E+04  0.11506430548E+04  0.12699999809E+01 0.  1.
       -4    1    3    3    0  502  0.34413401715E+01 -0.31519423620E+03 -0.90295935998E+03  0.95639765162E+03  0.12699999809E+01 0. -1.
</event>
<event>
 5   0  0.1241430E-04  0.2179135E+04  0.7818609E-02  0.8527163E-01
        2   -1    0    0  501    0  0.00000000000E+00  0.00000000000E+00  0.41899912656E+03  0.41899912656E+03  0.25500000920E-02 0. -1.
       -2   -1    0    0    0  501  0.00000000000E+00  0.00000000000E+00 -0.28333161778E+04  0.28333161778E+04  0.25500000920E-02 0.  1.
    10030    2    1    2    0    0  0.00000000000E+00  0.00000000000E+00 -0.24143170513E+04  0.32523153044E+04  0.21791346941E+04 0.  0.
        1    1    3    3  502    0  0.31294135554E+03 -0.10268843015E+04 -0.92900673454E+03  0.14196750239E+04  0.50400001928E-02 0.  1.
       -1    1    3    3    0  502 -0.31294135554E+03  0.10268843015E+04 -0.14853103167E+04  0.18326402805E+04  0.50400001928E-02 0. -1.
</event>
<event>
 5   0  0.1241430E-04  0.1892949E+04  0.7818609E-02  0.8658374E-01
        2   -1    0    0  501    0  0.00000000000E+00  0.00000000000E+00  0.23971961413E+04  0.23971961413E+04  0.25500000920E-02 0. -1.
       -2   -1    0    0    0  501  0.00000000000E+00  0.00000000000E+00 -0.37369226367E+03  0.37369226368E+03  0.25500000920E-02 0.  1.
    10030    2    1    2    0    0  0.00000000000E+00  0.00000000000E+00  0.20235038777E+04  0.27708884050E+04  0.18929486549E+04 0.  0.
        1    1    3    3  502    0 -0.37545356183E+03  0.54494624992E+03  0.21246372691E+02  0.66210512819E+03  0.50400001928E-02 0.  1.
       -1    1    3    3    0  502  0.37545356183E+03 -0.54494624992E+03  0.20022575050E+04  0.21087832768E+04  0.50400001928E-02 0. -1.
</event>
<event>
 5   0  0.5981239E-05  0.2075232E+04  0.7818609E-02  0.8572233E-01
        1   -1    0    0  501    0  0.00000000000E+00  0.00000000000E+00  0.12580668883E+04  0.12580668883E+04  0.50400001928E-02 0. -1.
       -1   -1    0    0    0  501  0.00000000000E+00  0.00000000000E+00 -0.85579489839E+03  0.85579489841E+03  0.50400001928E-02 0.  1.
    10030    2    1    2    0    0  0.00000000000E+00  0.00000000000E+00  0.40227198990E+03  0.21138617867E+04  0.20752322519E+04 0.  0.
        4    1    3    3  502    0 -0.19983749000E+03  0.41643409839E+03  0.11475671920E+04  0.12370385822E+04  0.12699999809E+01 0. -1.
       -4    1    3    3    0  502  0.19983749000E+03 -0.41643409839E+03 -0.74529520215E+03  0.87682320450E+03  0.12699999809E+01 0.  1.
</event>
<event>
 5   0  0.1311472E-04  0.2221773E+04  0.7818609E-02  0.8509420E-01
       -2   -1    0    0    0  501  0.00000000000E+00  0.00000000000E+00  0.14107197128E+04  0.14107197128E+04  0.25500000920E-02 0.  1.
        2   -1    0    0  501    0  0.00000000000E+00  0.00000000000E+00 -0.87477958319E+03  0.87477958320E+03  0.25500000920E-02 0. -1.
    10030    2    1    2    0    0  0.00000000000E+00  0.00000000000E+00  0.53594012965E+03  0.22854992960E+04  0.22217729879E+04 0.  0.
        4    1    3    3  502    0  0.10082157805E+03  0.84444587048E+02 -0.86674256857E+03  0.87666422988E+03  0.12699999809E+01 0. -1.
       -4    1    3    3    0  502 -0.10082157805E+03 -0.84444587048E+02  0.14026826982E+04  0.14088350662E+04  0.12699999809E+01 0.  1.
</event>
<event>
 5   0  0.1311472E-04  0.2204223E+04  0.7818609E-02  0.8516673E-01
       -2   -1    0    0    0  501  0.00000000000E+00  0.00000000000E+00  0.64171632151E+03  0.64171632151E+03  0.25500000920E-02 0.  1.
        2   -1    0    0  501    0  0.00000000000E+00  0.00000000000E+00 -0.18928133827E+04  0.18928133827E+04  0.25500000920E-02 0. -1.
    10030    2    1    2    0    0  0.00000000000E+00  0.00000000000E+00 -0.12510970612E+04  0.25345297042E+04  0.22042225307E+04 0.  0.
        4    1    3    3  502    0  0.83943336565E+03  0.70572859078E+03 -0.49987013138E+03  0.12052273563E+04  0.12699999809E+01 0.  1.
       -4    1    3    3    0  502 -0.83943336565E+03 -0.70572859078E+03 -0.75122692980E+03  0.13293023479E+04  0.12699999809E+01 0. -1.
</event>
<event>
 5   0  0.4586375E-05  0.2277092E+04  0.7818609E-02  0.8487009E-01
        4   -1    0    0  501    0  0.00000000000E+00  0.00000000000E+00  0.16548075296E+04  0.16548080169E+04  0.12699999809E+01 0. -1.
       -4   -1    0    0    0  501  0.00000000000E+00  0.00000000000E+00 -0.78334503206E+03  0.78334606155E+03  0.12699999809E+01 0.  1.
    10030    2    1    2    0    0  0.00000000000E+00  0.00000000000E+00  0.87146249751E+03  0.24381540784E+04  0.22770920986E+04 0.  0.
        5    1    3    3  502    0  0.14904804084E+03 -0.10875823555E+04  0.11235206648E+03  0.11034925352E+04  0.46999998093E+01 0.  1.
       -5    1    3    3    0  502 -0.14904804084E+03  0.10875823555E+04  0.75911043103E+03  0.13346615432E+04  0.46999998093E+01 0. -1.
</event>
<event>
 5   0  0.1311472E-04  0.2192034E+04  0.7818609E-02  0.8521751E-01
        2   -1    0    0  501    0  0.00000000000E+00  0.00000000000E+00  0.27647206568E+04  0.27647206568E+04  0.25500000920E-02 0. -1.
       -2   -1    0    0    0  501  0.00000000000E+00  0.00000000000E+00 -0.43449364140E+03  0.43449364140E+03  0.25500000920E-02 0.  1.
    10030    2    1    2    0    0  0.00000000000E+00  0.00000000000E+00  0.23302270154E+04  0.31992142982E+04  0.21920342567E+04 0.  0.
        4    1    3    3  502    0 -0.85579232218E+03 -0.44478390990E+03  0.40529187514E+03  0.10461722335E+04  0.12699999809E+01 0.  1.
       -4    1    3    3    0  502  0.85579232218E+03  0.44478390990E+03  0.19249351402E+04  0.21530420647E+04  0.12699999809E+01 0. -1.
</event>
<event>
 5   0  0.5895063E-05  0.2180849E+04  0.7818609E-02  0.8526442E-01
        1   -1    0    0  501    0  0.00000000000E+00  0.00000000000E+00  0.18065875836E+04  0.18065875836E+04  0.50400001928E-02 0.  1.
       -1   -1    0    0    0  501  0.00000000000E+00  0.00000000000E+00 -0.65816089677E+03  0.65816089679E+03  0.50400001928E-02 0. -1.
    10030    2    1    2    0    0  0.00000000000E+00  0.00000000000E+00  0.11484266869E+04  0.24647484804E+04  0.21808487377E+04 0.  0.
        5    1    3    3  502    0  0.14477561269E+02  0.43409056643E+03  0.17045947467E+04  0.17590649675E+04  0.46999998093E+01 0.  1.
       -5    1    3    3    0  502 -0.14477561269E+02 -0.43409056643E+03 -0.55616805980E+03  0.70568351290E+03  0.46999998093E+01 0. -1.
</event>
<event>
 5   0  0.5895063E-05  0.2057767E+04  0.7818609E-02  0.8580079E-01
       -1   -1    0    0    0  501  0.00000000000E+00  0.00000000000E+00  0.70888911252E+03  0.70888911253E+03  0.50400001928E-02 0.  1.
        1   -1    0    0  501    0  0.00000000000E+00  0.00000000000E+00 -0.14933243292E+04  0.14933243292E+04  0.50400001928E-02 0. -1.
    10030    2    1    2    0    0  0.00000000000E+00  0.00000000000E+00 -0.78443521668E+03  0.22022134417E+04  0.20577670990E+04 0.  0.
        5    1    3    3  502    0  0.80598973047E+03  0.19634139207E+02  0.29184952540E+03  0.85743989907E+03  0.46999998093E+01 0.  1.
       -5    1    3    3    0  502 -0.80598973047E+03 -0.19634139207E+02 -0.10762847421E+04  0.13447735427E+04  0.46999998093E+01 0. -1.
</event>
<event>
 5   0  0.5895063E-05  0.2170089E+04  0.7818609E-02  0.8530982E-01
        1   -1    0    0  501    0  0.00000000000E+00  0.00000000000E+00  0.12320936710E+04  0.12320936711E+04  0.50400001928E-02 0.  1.
       -1   -1    0    0    0  501  0.00000000000E+00  0.00000000000E+00 -0.95554513336E+03  0.95554513337E+03  0.50400001928E-02 0. -1.
    10030    2    1    2    0    0  0.00000000000E+00  0.00000000000E+00  0.27654853768E+03  0.21876388044E+04  0.21700885800E+04 0.  0.
        5    1    3    3  502    0  0.86235397260E+03 -0.11242255856E+03  0.79237133966E+03  0.11765065387E+04  0.46999998093E+01 0.  1.
       -5    1    3    3    0  502 -0.86235397260E+03  0.11242255856E+03 -0.51582280198E+03  0.10111322657E+04  0.46999998093E+01 0. -1.
</event>
<event>
 5   0  0.5849604E-05  0.2188926E+04  0.7818609E-02  0.8523052E-01
        1   -1    0    0  501    0  0.00000000000E+00  0.00000000000E+00  0.96831618937E+03  0.96831618939E+03  0.50400001928E-02 0.  1.
       -1   -1    0    0    0  501  0.00000000000E+00  0.00000000000E+00 -0.12370430738E+04  0.12370430738E+04  0.50400001928E-02 0. -1.
    10030    2    1    2    0    0  0.00000000000E+00  0.00000000000E+00 -0.26872688442E+03  0.22053592632E+04  0.21889256135E+04 0.  0.
        2    1    3    3  502    0 -0.42615611824E+01  0.53786053065E+03 -0.10946914349E+04  0.12196972776E+04  0.25500000920E-02 0. -1.
       -2    1    3    3    0  502  0.42615611824E+01 -0.53786053065E+03  0.82596455043E+03  0.98566198563E+03  0.25500000920E-02 0.  1.
</event>
<event>
 5   0  0.1252124E-04  0.2237691E+04  0.7818609E-02  0.8502902E-01
       -2   -1    0    0    0  501  0.00000000000E+00  0.00000000000E+00  0.72527877239E+03  0.72527877240E+03  0.25500000920E-02 0.  1.
        2   -1    0    0  501    0  0.00000000000E+00  0.00000000000E+00 -0.17259773547E+04  0.17259773547E+04  0.25500000920E-02 0. -1.
    10030    2    1    2    0    0  0.00000000000E+00  0.00000000000E+00 -0.10006985823E+04  0.24512561271E+04  0.22376905389E+04 0.  0.
        3    1    3    3  502    0 -0.47728211230E+03 -0.54205686692E+02  0.60657566888E+03  0.77373801992E+03  0.10100000352E+00 0.  1.
       -3    1    3    3    0  502  0.47728211230E+03  0.54205686692E+02 -0.16072742512E+04  0.16775181072E+04  0.10100000352E+00 0. -1.
</event>
<event>
 5   0  0.1404159E-04  0.2186792E+04  0.7818609E-02  0.8523946E-01
        2   -1    0    0  501    0  0.00000000000E+00  0.00000000000E+00  0.91039357084E+03  0.91039357084E+03  0.25500000920E-02 0. -1.
       -2   -1    0    0    0  501  0.00000000000E+00  0.00000000000E+00 -0.13131844184E+04  0.13131844184E+04  0.25500000920E-02 0.  1.
    10030    2    1    2    0    0  0.00000000000E+00  0.00000000000E+00 -0.40279084756E+03  0.22235779892E+04  0.21867918528E+04 0.  0.
        5    1    3    3  502    0 -0.26610496795E+03 -0.82647840425E+03  0.47432401387E+03  0.98938555012E+03  0.46999998093E+01 0. -1.
       -5    1    3    3    0  502  0.26610496795E+03  0.82647840425E+03 -0.87711486142E+03  0.12341924391E+04  0.46999998093E+01 0.  1.
</event>
<event>
 5   0  0.1226021E-04  0.1549537E+04  0.7818609E-02  0.8852163E-01
        2   -1    0    0  501    0  0.00000000000E+00  0.00000000000E+00  0.83398214901E+03  0.83398214902E+03  0.25500000920E-02 0. -1.
       -2   -1    0    0    0  501  0.00000000000E+00  0.00000000000E+00 -0.71975913880E+03  0.71975913880E+03  0.25500000920E-02 0.  1.
    10030    2    1    2    0    0  0.00000000000E+00  0.00000000000E+00  0.11422301021E+03  0.15537412878E+04  0.15495370578E+04 0.  0.
        2    1    3    3  502    0  0.24255893289E+03  0.44998674693E+03  0.64087953597E+03  0.81978624529E+03  0.25500000920E-02 0. -1.
       -2    1    3    3    0  502 -0.24255893289E+03 -0.44998674693E+03 -0.52665652575E+03  0.73395504253E+03  0.25500000920E-02 0.  1.
</event>
<event>
 5   0  0.5849604E-05  0.2191206E+04  0.7818609E-02  0.8522097E-01
       -1   -1    0    0    0  501  0.00000000000E+00  0.00000000000E+00  0.10317158553E+04  0.10317158553E+04  0.50400001928E-02 0.  1.
        1   -1    0    0  501    0  0.00000000000E+00  0.00000000000E+00 -0.11634457921E+04  0.11634457921E+04  0.50400001928E-02 0. -1.
    10030    2    1    2    0    0  0.00000000000E+00  0.00000000000E+00 -0.13172993687E+03  0.21951616474E+04  0.21912055773E+04 0.  0.
        2    1    3    3  502    0  0.42370762181E+03 -0.99483140851E+03 -0.24261419748E+03  0.11081874070E+04  0.25500000920E-02 0.  1.
       -2    1    3    3    0  502 -0.42370762181E+03  0.99483140851E+03  0.11088426061E+03  0.10869742404E+04  0.25500000920E-02 0. -1.
</event>
<event>
 5   0  0.1241430E-04  0.2126951E+04  0.7818609E-02  0.8549463E-01
        2   -1    0    0  501    0  0.00000000000E+00  0.00000000000E+00  0.11187374685E+04  0.11187374685E+04  0.25500000920E-02 0.  1.
       -2   -1    0    0    0  501  0.00000000000E+00  0.00000000000E+00 -0.10109431895E+04  0.10109431895E+04  0.25500000920E-02 0. -1.
    10030    2    1    2    0    0  0.00000000000E+00  0.00000000000E+00  0.10779427901E+03  0.21296806581E+04  0.21269508924E+04 0.  0.
        1    1    3    3  502    0  0.89723907726E+03 -0.55221770899E+03 -0.91194544937E+02  0.10574964799E+04  0.50400001928E-02 0. -1.
       -1    1    3    3    0  502 -0.89723907726E+03  0.55221770899E+03  0.19898882394E+03  0.10721841782E+04  0.50400001928E-02 0.  1.
</event>
<event>
 5   0  0.4586375E-05  0.2188962E+04  0.7818609E-02  0.8523037E-01
        3   -1    0    0  501    0  0.00000000000E+00  0.00000000000E+00  0.13013122999E+04  0.13013123038E+04  0.10100000352E+00 0.  1.
       -3   -1    0    0    0  501  0.00000000000E+00  0.00000000000E+00 -0.92052331022E+03  0.92052331576E+03  0.10100000352E+00 0. -1.
    10030    2    1    2    0    0  0.00000000000E+00  0.00000000000E+00  0.38078898968E+03  0.22218356196E+04  0.21889616867E+04 0.  0.
        5    1    3    3  502    0 -0.33895536145E+03 -0.49310370674E+03 -0.73978757399E+03  0.95149868486E+03  0.46999998093E+01 0. -1.
       -5    1    3    3    0  502  0.33895536145E+03  0.49310370674E+03  0.11205765637E+04  0.12703369347E+04  0.46999998093E+01 0.  1.
</event>
<event>
 5   0  0.4586375E-05  0.2171770E+04  0.7818609E-02  0.8530271E-01
       -4   -1    0    0    0  501  0.00000000000E+00  0.00000000000E+00  0.15016774060E+04  0.15016779431E+04  0.12699999809E+01 0. -1.
        4   -1    0    0  501    0  0.00000000000E+00  0.00000000000E+00 -0.78521798531E+03  0.78521901235E+03  0.12699999809E+01 0.  1.
    10030    2    1    2    0    0  0.00000000000E+00  0.00000000000E+00  0.71645942072E+03  0.22868969554E+04  0.21717696892E+04 0.  0.
        1    1    3    3  502    0  0.54058064013E+03 -0.72928986143E+03 -0.26922228060E+03  0.94687473663E+03  0.50400001928E-02 0. -1.
       -1    1    3    3    0  502 -0.54058064013E+03  0.72928986143E+03  0.98568170132E+03  0.13400222188E+04  0.50400001928E-02 0.  1.
</event>
<event>
 5   0  0.5861816E-05  0.2216216E+04  0.7818609E-02  0.8511709E-01
        1   -1    0    0  501    0  0.00000000000E+00  0.00000000000E+00  0.97802117944E+03  0.97802117946E+03  0.50400001928E-02 0. -1.
       -1   -1    0    0    0  501  0.00000000000E+00  0.00000000000E+00 -0.12554979289E+04  0.12554979289E+04  0.50400001928E-02 0.  1.
    10030    2    1    2    0    0  0.00000000000E+00  0.00000000000E+00 -0.27747674946E+03  0.22335191084E+04  0.22162162036E+04 0.  0.
        1    1    3    3  502    0  0.44250283887E+02 -0.51496166913E+03  0.84909795340E+03  0.99403769687E+03  0.50400001928E-02 0. -1.
       -1    1    3    3    0  502 -0.44250283887E+02  0.51496166913E+03 -0.11265747029E+04  0.12394814115E+04  0.50400001928E-02 0.  1.
</event>
<event>
 5   0  0.6263558E-05  0.2194804E+04  0.7818609E-02  0.8520594E-01
       -1   -1    0    0    0  501  0.00000000000E+00  0.00000000000E+00  0.77959566570E+03  0.77959566571E+03  0.50400001928E-02 0.  1.
        1   -1    0    0  501    0  0.00000000000E+00  0.00000000000E+00 -0.15447641548E+04  0.15447641548E+04  0.50400001928E-02 0. -1.
    10030    2    1    2    0    0  0.00000000000E+00  0.00000000000E+00 -0.76516848908E+03  0.23243598205E+04  0.21948042643E+04 0.  0.
        3    1    3    3  502    0  0.42743652238E+03 -0.23537510076E+03  0.65838616914E+03  0.81949727067E+03  0.10100000352E+00 0.  1.
       -3    1    3    3    0  502 -0.42743652238E+03  0.23537510076E+03 -0.14235546582E+04  0.15048625498E+04  0.10100000352E+00 0. -1.
</event>
<event>
 5   0  0.5849604E-05  0.2254162E+04  0.7818609E-02  0.8496217E-01
        1   -1    0    0  501    0  0.00000000000E+00  0.00000000000E+00  0.14038772344E+04  0.14038772344E+04  0.50400001928E-02 0. -1.
       -1   -1    0    0    0  501  0.00000000000E+00  0.00000000000E+00 -0.90485908431E+03  0.90485908432E+03  0.50400001928E-02 0.  1.
    10030    2    1    2    0    0  0.00000000000E+00  0.00000000000E+00  0.49901815012E+03  0.23087363188E+04  0.22541615460E+04 0.  0.
        2    1    3    3  502    0 -0.37468989802E+03 -0.47233012232E+03 -0.72581852612E+03  0.94355752182E+03  0.25500000920E-02 0.  1.
       -2    1    3    3    0  502  0.37468989802E+03  0.47233012232E+03  0.12248366762E+04  0.13651787969E+04  0.25500000920E-02 0. -1.
</event>
<event>
 5   0  0.6263558E-05  0.2238207E+04  0.7818609E-02  0.8502692E-01
        1   -1    0    0  501    0  0.00000000000E+00  0.00000000000E+00  0.10230127885E+04  0.10230127885E+04  0.50400001928E-02 0. -1.
       -1   -1    0    0    0  501  0.00000000000E+00  0.00000000000E+00 -0.12242201313E+04  0.12242201314E+04  0.50400001928E-02 0.  1.
    10030    2    1    2    0    0  0.00000000000E+00  0.00000000000E+00 -0.20120734282E+03  0.22472329199E+04  0.22382071847E+04 0.  0.
        3    1    3    3  502    0  0.29099665800E+03  0.99226688531E+03 -0.53025478898E+03  0.11620855296E+04  0.10100000352E+00 0.  1.
       -3    1    3    3    0  502 -0.29099665800E+03 -0.99226688531E+03  0.32904744616E+03  0.10851473903E+04  0.10100000352E+00 0. -1.
</event>
<event>
 5   0  0.5981239E-05  0.2167828E+04  0.7818609E-02  0.8531939E-01
        1   -1    0    0  501    0  0.00000000000E+00  0.00000000000E+00  0.88336251022E+03  0.88336251023E+03  0.50400001928E-02 0.  1.
       -1   -1    0    0    0  501  0.00000000000E+00  0.00000000000E+00 -0.13299972383E+04  0.13299972383E+04  0.50400001928E-02 0. -1.
    10030    2    1    2    0    0  0.00000000000E+00  0.00000000000E+00 -0.44663472805E+03  0.22133597485E+04  0.21678281288E+04 0.  0.
        4    1    3    3  502    0  0.56922358006E+03  0.85985060784E+03  0.11762672182E+03  0.10378806340E+04  0.12699999809E+01 0. -1.
       -4    1    3    3    0  502 -0.56922358006E+03 -0.85985060784E+03 -0.56426144987E+03  0.11754791145E+04  0.12699999809E+01 0.  1.
</event>
<event>
 5   0  0.5849604E-05  0.1994847E+04  0.7818609E-02  0.8609034E-01
        1   -1    0    0  501    0  0.00000000000E+00  0.00000000000E+00  0.78687428877E+03  0.78687428879E+03  0.50400001928E-02 0. -1.
       -1   -1    0    0    0  501  0.00000000000E+00  0.00000000000E+00 -0.12643105966E+04  0.12643105966E+04  0.50400001928E-02 0.  1.
    10030    2    1    2    0    0  0.00000000000E+00  0.00000000000E+00 -0.47743630783E+03  0.20511848854E+04  0.19948468628E+04 0.  0.
        2    1    3    3  502    0  0.67963208434E+03 -0.72742624761E+03 -0.17529317261E+03  0.10108295663E+04  0.25500000920E-02 0. -1.
       -2    1    3    3    0  502 -0.67963208434E+03  0.72742624761E+03 -0.30214313522E+03  0.10403553191E+04  0.25500000920E-02 0.  1.
</event>
<event>
 5   0  0.1226021E-04  0.2148894E+04  0.7818609E-02  0.8540006E-01
        2   -1    0    0  501    0  0.00000000000E+00  0.00000000000E+00  0.14211990215E+04  0.14211990215E+04  0.25500000920E-02 0. -1.
       -2   -1    0    0    0  501  0.00000000000E+00  0.00000000000E+00 -0.81229716153E+03  0.81229716154E+03  0.25500000920E-02 0.  1.
    10030    2    1    2    0    0  0.00000000000E+00  0.00000000000E+00  0.60890186000E+03  0.22334961831E+04  0.21488936048E+04 0.  0.
        2    1    3    3  502    0 -0.52375609326E+02 -0.48299093627E+03  0.13005193933E+04  0.13882990100E+04  0.25500000920E-02 0. -1.
       -2    1    3    3    0  502  0.52375609326E+02  0.48299093627E+03 -0.69161753327E+03  0.84519717304E+03  0.25500000920E-02 0.  1.
</event>
<event>
 5   0  0.5849604E-05  0.2172702E+04  0.7818609E-02  0.8529877E-01
        1   -1    0    0  501    0  0.00000000000E+00  0.00000000000E+00  0.17449350318E+04  0.17449350318E+04  0.50400001928E-02 0. -1.
       -1   -1    0    0    0  501  0.00000000000E+00  0.00000000000E+00 -0.67633400082E+03  0.67633400084E+03  0.50400001928E-02 0.  1.
    10030    2    1    2    0    0  0.00000000000E+00  0.00000000000E+00  0.10686010309E+04  0.24212690326E+04  0.21727023646E+04 0.  0.
        2    1    3    3  502    0  0.57140662093E+03 -0.23350852482E+03  0.15305101763E+04  0.16503009294E+04  0.25500000920E-02 0. -1.
       -2    1    3    3    0  502 -0.57140662093E+03  0.23350852482E+03 -0.46190914539E+03  0.77096810324E+03  0.25500000920E-02 0.  1.
</event>
<event>
 5   0  0.5895063E-05  0.2183082E+04  0.7818609E-02  0.8525503E-01
        1   -1    0    0  501    0  0.00000000000E+00  0.00000000000E+00  0.10630641351E+04  0.10630641351E+04  0.50400001928E-02 0. -1.
       -1   -1    0    0    0  501  0.00000000000E+00  0.00000000000E+00 -0.11207805697E+04  0.11207805698E+04  0.50400001928E-02 0.  1.
    10030    2    1    2    0    0  0.00000000000E+00  0.00000000000E+00 -0.57716434634E+02  0.21838447049E+04  0.21830818831E+04 0.  0.
        5    1    3    3  502    0  0.68027830026E+03  0.77025306594E+03 -0.39691501475E+03  0.11016496586E+04  0.46999998093E+01 0.  1.
       -5    1    3    3    0  502 -0.68027830026E+03 -0.77025306594E+03  0.33919858012E+03  0.10821950463E+04  0.46999998093E+01 0. -1.
</event>
<event>
 5   0  0.4586375E-05  0.2229020E+04  0.7818609E-02  0.8506446E-01
       -3   -1    0    0    0  501  0.00000000000E+00  0.00000000000E+00  0.10867560900E+04  0.10867560947E+04  0.10100000352E+00 0. -1.
        3   -1    0    0  501    0  0.00000000000E+00  0.00000000000E+00 -0.11429722379E+04  0.11429722424E+04  0.10100000352E+00 0.  1.
    10030    2    1    2    0    0  0.00000000000E+00  0.00000000000E+00 -0.56216147907E+02  0.22297283371E+04  0.22290195607E+04 0.  0.
        1    1    3    3  502    0  0.88477993661E+03  0.65515266759E+03  0.14535841711E+03  0.11104907129E+04  0.50400001928E-02 0. -1.
       -1    1    3    3    0  502 -0.88477993661E+03 -0.65515266759E+03 -0.20157456502E+03  0.11192376242E+04  0.50400001928E-02 0.  1.
</event>
<event>
 5   0  0.1252124E-04  0.2197343E+04  0.7818609E-02  0.8519535E-01
       -2   -1    0    0    0  501  0.00000000000E+00  0.00000000000E+00  0.96348521958E+03  0.96348521958E+03  0.25500000920E-02 0.  1.
        2   -1    0    0  501    0  0.00000000000E+00  0.00000000000E+00 -0.12528260446E+04  0.12528260446E+04  0.25500000920E-02 0. -1.
    10030    2    1    2    0    0  0.00000000000E+00  0.00000000000E+00 -0.28934082501E+03  0.22163112642E+04  0.21973432838E+04 0.  0.
        3    1    3    3  502    0  0.10279643043E+04 -0.12830501554E+03 -0.51376170524E+03  0.11563407317E+04  0.10100000352E+00 0.  1.
       -3    1    3    3    0  502 -0.10279643043E+04  0.12830501554E+03  0.22442088023E+03  0.10599705324E+04  0.10100000352E+00 0. -1.
</event>
<event>
 5   0  0.1252124E-04  0.2086407E+04  0.7818609E-02  0.8567255E-01
        2   -1    0    0  501    0  0.00000000000E+00  0.00000000000E+00  0.74168400482E+03  0.74168400482E+03  0.25500000920E-02 0. -1.
       -2   -1    0    0    0  501  0.00000000000E+00  0.00000000000E+00 -0.14673009715E+04  0.14673009715E+04  0.25500000920E-02 0.  1.
    10030    2    1    2    0    0  0.00000000000E+00  0.00000000000E+00 -0.72561696664E+03  0.22089849763E+04  0.20864071135E+04 0.  0.
        3    1    3    3  502    0 -0.37472357778E+03 -0.43329012365E+03 -0.12858761075E+04  0.14077057452E+04  0.10100000352E+00 0.  1.
       -3    1    3    3    0  502  0.37472357778E+03  0.43329012365E+03  0.56025914088E+03  0.80127923107E+03  0.10100000352E+00 0. -1.
</event>
<event>
 5   0  0.1311472E-04  0.2112441E+04  0.7818609E-02  0.8555783E-01
        2   -1    0    0  501    0  0.00000000000E+00  0.00000000000E+00  0.66306418800E+03  0.66306418801E+03  0.25500000920E-02 0.  1.
       -2   -1    0    0    0  501  0.00000000000E+00  0.00000000000E+00 -0.16824936800E+04  0.16824936800E+04  0.25500000920E-02 0. -1.
    10030    2    1    2    0    0  0.00000000000E+00  0.00000000000E+00 -0.10194294920E+04  0.23455578680E+04  0.21124405845E+04 0.  0.
        4    1    3    3  502    0 -0.20621035655E+03  0.34185100991E+03 -0.15954886406E+04  0.16446794336E+04  0.12699999809E+01 0. -1.
       -4    1    3    3    0  502  0.20621035655E+03 -0.34185100991E+03  0.57605914864E+03  0.70087843437E+03  0.12699999809E+01 0.  1.
</event>
<event>
 5   0  0.1252124E-04  0.1817555E+04  0.7818609E-02  0.8697019E-01
        2   -1    0    0  501    0  0.00000000000E+00  0.00000000000E+00  0.12596368244E+04  0.12596368244E+04  0.25500000920E-02 0.  1.
       -2   -1    0    0    0  501  0.00000000000E+00  0.00000000000E+00 -0.65564624469E+03  0.65564624469E+03  0.25500000920E-02 0. -1.
    10030    2    1    2    0    0  0.00000000000E+00  0.00000000000E+00  0.60399057967E+03  0.19152830691E+04  0.18175545698E+04 0.  0.
        3    1    3    3  502    0  0.68973537057E+03  0.29474794212E+03  0.84267740140E+03  0.11281473502E+04  0.10100000352E+00 0.  1.
       -3    1    3    3    0  502 -0.68973537057E+03 -0.29474794212E+03 -0.23868682173E+03  0.78713571883E+03  0.10100000352E+00 0. -1.
</event>
<event>
 5   0  0.1241430E-04  0.2111593E+04  0.7818609E-02  0.8556154E-01
       -2   -1    0    0    0  501  0.00000000000E+00  0.00000000000E+00  0.45766167490E+03  0.45766167490E+03  0.25500000920E-02 0. -1.
        2   -1    0    0  501    0  0.00000000000E+00  0.00000000000E+00 -0.24356562046E+04  0.24356562046E+04  0.25500000920E-02 0.  1.
    10030    2    1    2    0    0  0.00000000000E+00  0.00000000000E+00 -0.19779945297E+04  0.28933178795E+04  0.21115932355E+04 0.  0.
        1    1    3    3  502    0  0.17107446108E+03 -0.77110341639E+03 -0.19489628470E+04  0.21029320315E+04  0.50400001928E-02 0.  1.
       -1    1    3    3    0  502 -0.17107446108E+03  0.77110341639E+03 -0.29031682607E+02  0.79038584794E+03  0.50400001928E-02 0. -1.
</event>
<event>
 5   0  0.1252124E-04  0.2073012E+04  0.7818609E-02  0.8573226E-01
        2   -1    0    0  501    0  0.00000000000E+00  0.00000000000E+00  0.10195974492E+04  0.10195974492E+04  0.25500000920E-02 0. -1.
       -2   -1    0    0    0  501  0.00000000000E+00  0.00000000000E+00 -0.10536954301E+04  0.10536954301E+04  0.25500000920E-02 0.  1.
    10030    2    1    2    0    0  0.00000000000E+00  0.00000000000E+00 -0.34097980943E+02  0.20732928793E+04  0.20730124677E+04 0.  0.
        3    1    3    3  502    0 -0.42780569133E+03 -0.27238450916E+02 -0.96088503082E+03  0.10521690432E+04  0.10100000352E+00 0.  1.
       -3    1    3    3    0  502  0.42780569133E+03  0.27238450916E+02  0.92678704988E+03  0.10211238362E+04  0.10100000352E+00 0. -1.
</event>
<event>
 5   0  0.1404159E-04  0.2164248E+04  0.7818609E-02  0.8533458E-01
        2   -1    0    0  501    0  0.00000000000E+00  0.00000000000E+00  0.15271924203E+04  0.15271924203E+04  0.25500000920E-02 0. -1.
       -2   -1    0    0    0  501  0.00000000000E+00  0.00000000000E+00 -0.76676158580E+03  0.76676158580E+03  0.25500000920E-02 0.  1.
    10030    2    1    2    0    0  0.00000000000E+00  0.00000000000E+00  0.76043083455E+03  0.22939540061E+04  0.21642481208E+04 0.  0.
        5    1    3    3  502    0  0.57619240092E+03  0.65688821582E+03 -0.29637491245E+03  0.92269170890E+03  0.46999998093E+01 0.  1.
       -5    1    3    3    0  502 -0.57619240092E+03 -0.65688821582E+03  0.10568057470E+04  0.13712622972E+04  0.46999998093E+01 0. -1.
</event>
<event>
 5   0  0.6263558E-05  0.2011010E+04  0.7818609E-02  0.8601490E-01
       -1   -1    0    0    0  501  0.00000000000E+00  0.00000000000E+00  0.93214273173E+03  0.93214273174E+03  0.50400001928E-02 0.  1.
        1   -1    0    0  501    0  0.00000000000E+00  0.00000000000E+00 -0.10846412904E+04  0.10846412904E+04  0.50400001928E-02 0. -1.
    10030    2    1    2    0    0  0.00000000000E+00  0.00000000000E+00 -0.15249855869E+03  0.20167840222E+04  0.20110101893E+04 0.  0.
        3    1    3    3  502    0 -0.63076537316E+03  0.43945233913E+03  0.57372971629E+03  0.95924403147E+03  0.10100000352E+00 0.  1.
       -3    1    3    3    0  502  0.63076537316E+03 -0.43945233913E+03 -0.72622827498E+03  0.10575399907E+04  0.10100000352E+00 0. -1.
</event>
<event>
 5   0  0.5861816E-05  0.2206765E+04  0.7818609E-02  0.8515618E-01
       -1   -1    0    0    0  501  0.00000000000E+00  0.00000000000E+00  0.10822754468E+04  0.10822754468E+04  0.50400001928E-02 0. -1.
        1   -1    0    0  501    0  0.00000000000E+00  0.00000000000E+00 -0.11249013505E+04  0.11249013505E+04  0.50400001928E-02 0.  1.
    10030    2    1    2    0    0  0.00000000000E+00  0.00000000000E+00 -0.42625903704E+02  0.22071767973E+04  0.22067651545E+04 0.  0.
        1    1    3    3  502    0  0.33135000505E+03 -0.78861942443E+03 -0.71839323620E+03  0.11170506991E+04  0.50400001928E-02 0.  1.
       -1    1    3    3    0  502 -0.33135000505E+03  0.78861942443E+03  0.67576733249E+03  0.10901260983E+04  0.50400001928E-02 0. -1.
</event>
<event>
 5   0  0.6263558E-05  0.2199232E+04  0.7818609E-02  0.8518748E-01
       -1   -1    0    0    0  501  0.00000000000E+00  0.00000000000E+00  0.11015658889E+04  0.11015658889E+04  0.50400001928E-02 0.  1.
        1   -1    0    0  501    0  0.00000000000E+00  0.00000000000E+00 -0.10976692556E+04  0.10976692556E+04  0.50400001928E-02 0. -1.
    10030    2    1    2    0    0  0.00000000000E+00  0.00000000000E+00  0.38966332385E+01  0.21992351445E+04  0.21992316924E+04 0.  0.
        3    1    3    3  502    0 -0.92765053363E+03 -0.45494083418E+03 -0.37441423279E+03  0.10989507282E+04  0.10100000352E+00 0. -1.
       -3    1    3    3    0  502  0.92765053363E+03  0.45494083418E+03  0.37831086603E+03  0.11002844163E+04  0.10100000352E+00 0.  1.
</event>
<event>
 5   0  0.5861816E-05  0.2197150E+04  0.7818609E-02  0.8519615E-01
        1   -1    0    0  501    0  0.00000000000E+00  0.00000000000E+00  0.83742741481E+03  0.83742741482E+03  0.50400001928E-02 0.  1.
       -1   -1    0    0    0  501  0.00000000000E+00  0.00000000000E+00 -0.14411596925E+04  0.14411596925E+04  0.50400001928E-02 0. -1.
    10030    2    1    2    0    0  0.00000000000E+00  0.00000000000E+00 -0.60373227770E+03  0.22785871073E+04  0.21971496405E+04 0.  0.
        1    1    3    3  502    0 -0.73127555711E+03  0.48634169462E+03  0.38257672303E+03  0.95794422248E+03  0.50400001928E-02 0.  1.
       -1    1    3    3    0  502  0.73127555711E+03 -0.48634169462E+03 -0.98630900072E+03  0.13206428848E+04  0.50400001928E-02 0. -1.
</event>
<event>
 5   0  0.5981239E-05  0.2164601E+04  0.7818609E-02  0.8533308E-01
        1   -1    0    0  501    0  0.00000000000E+00  0.00000000000E+00  0.21528093448E+04  0.21528093448E+04  0.50400001928E-02 0.  1.
       -1   -1    0    0    0  501  0.00000000000E+00  0.00000000000E+00 -0.54411449399E+03  0.54411449401E+03  0.50400001928E-02 0. -1.
    10030    2    1    2    0    0  0.00000000000E+00  0.00000000000E+00  0.16086948508E+04  0.26969238388E+04  0.21646013650E+04 0.  0.
        4    1    3    3  502    0 -0.54731564234E+03 -0.75671786697E+03  0.12284212963E+03  0.94194911978E+03  0.12699999809E+01 0. -1.
       -4    1    3    3    0  502  0.54731564234E+03  0.75671786697E+03  0.14858527212E+04  0.17549747191E+04  0.12699999809E+01 0.  1.
</event>
<event>
 5   0  0.1311472E-04  0.2196342E+04  0.7818609E-02  0.8519952E-01
        2   -1    0    0  501    0  0.00000000000E+00  0.00000000000E+00  0.61495677867E+03  0.61495677868E+03  0.25500000920E-02 0. -1.
       -2   -1    0    0    0  501  0.00000000000E+00  0.00000000000E+00 -0.19610805268E+04  0.19610805268E+04  0.25500000920E-02 0.  1.
    10030    2    1    2    0    0  0.00000000000E+00  0.00000000000E+00 -0.13461237482E+04  0.25760373055E+04  0.21963421988E+04 0.  0.
        4    1    3    3  502    0 -0.10586659887E+04 -0.15696833346E+03 -0.96170717971E+03  0.14388519889E+04  0.12699999809E+01 0.  1.
       -4    1    3    3    0  502  0.10586659887E+04  0.15696833346E+03 -0.38441656844E+03  0.11371853167E+04  0.12699999809E+01 0. -1.
</event>
<event>
 5   0  0.1252124E-04  0.2167371E+04  0.7818609E-02  0.8532133E-01
       -2   -1    0    0    0  501  0.00000000000E+00  0.00000000000E+00  0.73790642376E+03  0.73790642376E+03  0.25500000920E-02 0.  1.
        2   -1    0    0  501    0  0.00000000000E+00  0.00000000000E+00 -0.15914946899E+04  0.15914946899E+04  0.25500000920E-02 0. -1.
    10030    2    1    2    0    0  0.00000000000E+00  0.00000000000E+00 -0.85358826610E+03  0.23294011136E+04  0.21673709005E+04 0.  0.
        3    1    3    3  502    0  0.82176083006E+03  0.70134321965E+03 -0.33559166736E+03  0.11312802265E+04  0.10100000352E+00 0. -1.
       -3    1    3    3    0  502 -0.82176083006E+03 -0.70134321965E+03 -0.51799659873E+03  0.11981208871E+04  0.10100000352E+00 0.  1.
</event>
<event>
 5   0  0.5861816E-05  0.1735224E+04  0.7818609E-02  0.8741526E-01
       -1   -1    0    0    0  501  0.00000000000E+00  0.00000000000E+00  0.49694632605E+03  0.49694632608E+03  0.50400001928E-02 0.  1.
        1   -1    0    0  501    0  0.00000000000E+00  0.00000000000E+00 -0.15147521568E+04  0.15147521568E+04  0.50400001928E-02 0. -1.
    10030    2    1    2    0    0  0.00000000000E+00  0.00000000000E+00 -0.10178058307E+04  0.20116984828E+04  0.17352239270E+04 0.  0.
        1    1    3    3  502    0  0.65508172742E+03  0.17851673903E+03  0.11729693506E+03  0.68902747893E+03  0.50400001928E-02 0.  1.
       -1    1    3    3    0  502 -0.65508172742E+03 -0.17851673903E+03 -0.11351027658E+04  0.13226710039E+04  0.50400001928E-02 0. -1.
</event>
<event>
 5   0  0.1252124E-04  0.2213249E+04  0.7818609E-02  0.8512934E-01
        2   -1    0    0  501    0  0.00000000000E+00  0.00000000000E+00  0.14149722144E+04  0.14149722144E+04  0.25500000920E-02 0. -1.
       -2   -1    0    0    0  501  0.00000000000E+00  0.00000000000E+00 -0.86547112591E+03  0.86547112592E+03  0.25500000920E-02 0.  1.
    10030    2    1    2    0    0  0.00000000000E+00  0.00000000000E+00  0.54950108851E+03  0.22804433403E+04  0.22132488297E+04 0.  0.
        3    1    3    3  502    0  0.53267868894E+03  0.73234662097E+03  0.93009475946E+03  0.12981349817E+04  0.10100000352E+00 0. -1.
       -3    1    3    3    0  502 -0.53267868894E+03 -0.73234662097E+03 -0.38059367096E+03  0.98230835865E+03  0.10100000352E+00 0.  1.
</event>
<event>
 5   0  0.1241430E-04  0.1511495E+04  0.7818609E-02  0.8876844E-01
       -2   -1    0    0    0  501  0.00000000000E+00  0.00000000000E+00  0.36086982015E+03  0.36086982016E+03  0.25500000920E-02 0.  1.
        2   -1    0    0  501    0  0.00000000000E+00  0.00000000000E+00 -0.15827163850E+04  0.15827163850E+04  0.25500000920E-02 0. -1.
    10030    2    1    2    0    0  0.00000000000E+00  0.00000000000E+00 -0.12218465648E+04  0.19435862051E+04  0.15114953883E+04 0.  0.
        1    1    3    3  502    0 -0.66265419975E+03  0.61432176212E+02 -0.10714551190E+04  0.12613090710E+04  0.50400001928E-02 0.  1.
       -1    1    3    3    0  502  0.66265419975E+03 -0.61432176212E+02 -0.15039144588E+03  0.68227713411E+03  0.50400001928E-02 0. -1.
</event>
<event>
 5   0  0.1226021E-04  0.2250749E+04  0.7818609E-02  0.8497597E-01
       -2   -1    0    0    0  501  0.00000000000E+00  0.00000000000E+00  0.81000411267E+03  0.81000411268E+03  0.25500000920E-02 0. -1.
        2   -1    0    0  501    0  0.00000000000E+00  0.00000000000E+00 -0.15635330012E+04  0.15635330012E+04  0.25500000920E-02 0.  1.
    10030    2    1    2    0    0  0.00000000000E+00  0.00000000000E+00 -0.75352888854E+03  0.23735371139E+04  0.22507493519E+04 0.  0.
        2    1    3    3  502    0 -0.92826477631E+03  0.58241725609E+03 -0.64682670002E+03  0.12725054558E+04  0.25500000920E-02 0.  1.
       -2    1    3    3    0  502  0.92826477631E+03 -0.58241725609E+03 -0.10670218852E+03  0.11010316581E+04  0.25500000920E-02 0. -1.
</event>
<event>
 5   0  0.4586375E-05  0.2217953E+04  0.7818609E-02  0.8510993E-01
       -4   -1    0    0    0  501  0.00000000000E+00  0.00000000000E+00  0.11640972037E+04  0.11640978965E+04  0.12699999809E+01 0.  1.
        4   -1    0    0  501    0  0.00000000000E+00  0.00000000000E+00 -0.10564643992E+04  0.10564651626E+04  0.12699999809E+01 0. -1.
    10030    2    1    2    0    0  0.00000000000E+00  0.00000000000E+00  0.10763280450E+03  0.22205630590E+04  0.22179529929E+04 0.  0.
        5    1    3    3  502    0  0.24264019002E+03 -0.51831115704E+03 -0.89718881083E+03  0.10641854019E+04  0.46999998093E+01 0. -1.
       -5    1    3    3    0  502 -0.24264019002E+03  0.51831115704E+03  0.10048216153E+04  0.11563776571E+04  0.46999998093E+01 0.  1.
</event>
<event>
 5   0  0.5981239E-05  0.1372806E+04  0.7818609E-02  0.8973741E-01
       -1   -1    0    0    0  501  0.00000000000E+00  0.00000000000E+00  0.73090562822E+03  0.73090562824E+03  0.50400001928E-02 0. -1.
        1   -1    0    0  501    0  0.00000000000E+00  0.00000000000E+00 -0.64461030690E+03  0.64461030692E+03  0.50400001928E-02 0.  1.
    10030    2    1    2    0    0  0.00000000000E+00  0.00000000000E+00  0.86295321323E+02  0.13755159352E+04  0.13728063248E+04 0.  0.
        4    1    3    3  502    0  0.21267524256E+03  0.47453289253E+03 -0.40577177390E+03  0.65959424671E+03  0.12699999809E+01 0.  1.
       -4    1    3    3    0  502 -0.21267524256E+03 -0.47453289253E+03  0.49206709523E+03  0.71592168845E+03  0.12699999809E+01 0. -1.
</event>
<event>
 5   0  0.1404159E-04  0.1542436E+04  0.7818609E-02  0.8856714E-01
       -2   -1    0    0    0  501  0.00000000000E+00  0.00000000000E+00  0.41387345570E+03  0.41387345571E+03  0.25500000920E-02 0.  1.
        2   -1    0    0  501    0  0.00000000000E+00  0.00000000000E+00 -0.14370984343E+04  0.14370984343E+04  0.25500000920E-02 0. -1.
    10030    2    1    2    0    0  0.00000000000E+00  0.00000000000E+00 -0.10232249786E+04  0.18509718900E+04  0.15424356002E+04 0.  0.
        5    1    3    3  502    0  0.10536542513E+03 -0.73725238888E+03 -0.75195418205E+03  0.10583478349E+04  0.46999998093E+01 0. -1.
       -5    1    3    3    0  502 -0.10536542513E+03  0.73725238888E+03 -0.27127079658E+03  0.79262405515E+03  0.46999998093E+01 0.  1.
</event>
<event>
 5   0  0.4586375E-05  0.2225484E+04  0.7818609E-02  0.8507895E-01
       -4   -1    0    0    0  501  0.00000000000E+00  0.00000000000E+00  0.10948383307E+04  0.10948390672E+04  0.12699999809E+01 0. -1.
        4   -1    0    0  501    0  0.00000000000E+00  0.00000000000E+00 -0.11309367987E+04  0.11309375118E+04  0.12699999809E+01 0.  1.
    10030    2    1    2    0    0  0.00000000000E+00  0.00000000000E+00 -0.36098468041E+02  0.22257765790E+04  0.22254838306E+04 0.  0.
        2    1    3    3  502    0  0.92831111493E+03  0.48077207361E+03  0.36317180951E+03  0.11067055056E+04  0.25500000920E-02 0. -1.
       -2    1    3    3    0  502 -0.92831111493E+03 -0.48077207361E+03 -0.39927027756E+03  0.11190710734E+04  0.25500000920E-02 0.  1.
</event>
<event>
 5   0  0.5895063E-05  0.2239549E+04  0.7818609E-02  0.8502145E-01
        1   -1    0    0  501    0  0.00000000000E+00  0.00000000000E+00  0.13811974714E+04  0.13811974714E+04  0.50400001928E-02 0.  1.
       -1   -1    0    0    0  501  0.00000000000E+00  0.00000000000E+00 -0.90783164057E+03  0.90783164058E+03  0.50400001928E-02 0. -1.
    10030    2    1    2    0    0  0.00000000000E+00  0.00000000000E+00  0.47336583083E+03  0.22890291120E+04  0.22395488532E+04 0.  0.
        5    1    3    3  502    0 -0.32128227691E+03  0.97020352154E+03 -0.23098003452E+03  0.10478029591E+04  0.46999998093E+01 0. -1.
       -5    1    3    3    0  502  0.32128227691E+03 -0.97020352154E+03  0.70434586535E+03  0.12412261529E+04  0.46999998093E+01 0.  1.
</event>
<event>
 5   0  0.5981239E-05  0.2226251E+04  0.7818609E-02  0.8507581E-01
       -1   -1    0    0    0  501  0.00000000000E+00  0.00000000000E+00  0.12873525358E+04  0.12873525358E+04  0.50400001928E-02 0.  1.
        1   -1    0    0  501    0  0.00000000000E+00  0.00000000000E+00 -0.96247809186E+03  0.96247809187E+03  0.50400001928E-02 0. -1.
    10030    2    1    2    0    0  0.00000000000E+00  0.00000000000E+00  0.32487444397E+03  0.22498306277E+04  0.22262512098E+04 0.  0.
        4    1    3    3  502    0  0.75484451256E+02 -0.94498435967E+03  0.75201467532E+03  0.12100500102E+04  0.12699999809E+01 0.  1.
       -4    1    3    3    0  502 -0.75484451256E+02  0.94498435967E+03 -0.42714023135E+03  0.10397806175E+04  0.12699999809E+01 0. -1.
</event>
<event>
 5   0  0.6263558E-05  0.2643625E+04  0.7818609E-02  0.8353532E-01
       -1   -1    0    0    0  501  0.00000000000E+00  0.00000000000E+00  0.68879204482E+03  0.68879204484E+03  0.50400001928E-02 0. -1.
        1   -1    0    0  501    0  0.00000000000E+00  0.00000000000E+00 -0.25365972189E+04  0.25365972189E+04  0.50400001928E-02 0.  1.
    10030    2    1    2    0    0  0.00000000000E+00  0.00000000000E+00 -0.18478051740E+04  0.32253892637E+04  0.26436247731E+04 0.  0.
        3    1    3    3  502    0  0.26749330770E+03  0.11007442900E+04 -0.92827897436E+02  0.11365771819E+04  0.10100000352E+00 0. -1.
       -3    1    3    3    0  502 -0.26749330770E+03 -0.11007442900E+04 -0.17549772766E+04  0.20888120818E+04  0.10100000352E+00 0.  1.
</event>
<event>
 5   0  0.5895063E-05  0.1646954E+04  0.7818609E-02  0.8792211E-01
       -1   -1    0    0    0  501  0.00000000000E+00  0.00000000000E+00  0.12667452192E+04  0.12667452192E+04  0.50400001928E-02 0. -1.
        1   -1    0    0  501    0  0.00000000000E+00  0.00000000000E+00 -0.53531996821E+03  0.53531996823E+03  0.50400001928E-02 0.  1.
    10030    2    1    2    0    0  0.00000000000E+00  0.00000000000E+00  0.73142525103E+03  0.18020651875E+04  0.16469535640E+04 0.  0.
        5    1    3    3  502    0  0.15517209348E+03  0.23469661036E+03 -0.48108094981E+03  0.55733459230E+03  0.46999998093E+01 0.  1.
       -5    1    3    3    0  502 -0.15517209348E+03 -0.23469661036E+03  0.12125062008E+04  0.12447305952E+04  0.46999998093E+01 0. -1.
</event>
<event>
 5   0  0.5861816E-05  0.2174224E+04  0.7818609E-02  0.8529234E-01
        1   -1    0    0  501    0  0.00000000000E+00  0.00000000000E+00  0.96654964875E+03  0.96654964876E+03  0.50400001928E-02 0.  1.
       -1   -1    0    0    0  501  0.00000000000E+00  0.00000000000E+00 -0.12227128319E+04  0.12227128319E+04  0.50400001928E-02 0. -1.
    10030    2    1    2    0    0  0.00000000000E+00  0.00000000000E+00 -0.25616318316E+03  0.21892624807E+04  0.21742241451E+04 0.  0.
        1    1    3    3  502    0  0.10113653498E+04 -0.33361851037E+02  0.27195686730E+03  0.10478231824E+04  0.50400001928E-02 0.  1.
       -1    1    3    3    0  502 -0.10113653498E+04  0.33361851037E+02 -0.52812005047E+03  0.11414392983E+04  0.50400001928E-02 0. -1.
</event>
<event>
 5   0  0.4586375E-05  0.2154300E+04  0.7818609E-02  0.8537694E-01
       -3   -1    0    0    0  501  0.00000000000E+00  0.00000000000E+00  0.12827858566E+04  0.12827858606E+04  0.10100000352E+00 0. -1.
        3   -1    0    0  501    0  0.00000000000E+00  0.00000000000E+00 -0.90447874036E+03  0.90447874600E+03  0.10100000352E+00 0.  1.
    10030    2    1    2    0    0  0.00000000000E+00  0.00000000000E+00  0.37830711625E+03  0.21872646066E+04  0.21543003934E+04 0.  0.
        1    1    3    3  502    0  0.89739124077E+03  0.54433499629E+03 -0.56710728179E+02  0.10511078603E+04  0.50400001928E-02 0.  1.
       -1    1    3    3    0  502 -0.89739124077E+03 -0.54433499629E+03  0.43501784443E+03  0.11361567463E+04  0.50400001928E-02 0. -1.
</event>
<event>
 5   0  0.1241430E-04  0.2176562E+04  0.7818609E-02  0.8528247E-01
       -2   -1    0    0    0  501  0.00000000000E+00  0.00000000000E+00  0.50947683041E+03  0.50947683042E+03  0.25500000920E-02 0.  1.
        2   -1    0    0  501    0  0.00000000000E+00  0.00000000000E+00 -0.23246509006E+04  0.23246509006E+04  0.25500000920E-02 0. -1.
    10030    2    1    2    0    0  0.00000000000E+00  0.00000000000E+00 -0.18151740702E+04  0.28341277310E+04  0.21765622184E+04 0.  0.
        1    1    3    3  502    0 -0.72113418558E+03 -0.80028965055E+03 -0.70646348253E+03  0.12882502438E+04  0.50400001928E-02 0. -1.
       -1    1    3    3    0  502  0.72113418558E+03  0.80028965055E+03 -0.11087105877E+04  0.15458774873E+04  0.50400001928E-02 0.  1.
</event>
<event>
 5   0  0.5861816E-05  0.2193388E+04  0.7818609E-02  0.8521185E-01
       -1   -1    0    0    0  501  0.00000000000E+00  0.00000000000E+00  0.74657129735E+03  0.74657129737E+03  0.50400001928E-02 0.  1.
        1   -1    0    0  501    0  0.00000000000E+00  0.00000000000E+00 -0.16110151185E+04  0.16110151185E+04  0.50400001928E-02 0. -1.
    10030    2    1    2    0    0  0.00000000000E+00  0.00000000000E+00 -0.86444382112E+03  0.23575864158E+04  0.21933879247E+04 0.  0.
        1    1    3    3  502    0  0.24477144516E+03  0.88761026709E+03  0.20817553119E+03  0.94398204348E+03  0.50400001928E-02 0.  1.
       -1    1    3    3    0  502 -0.24477144516E+03 -0.88761026709E+03 -0.10726193523E+04  0.14136043724E+04  0.50400001928E-02 0. -1.
</event>
<event>
 5   0  0.1311472E-04  0.2291294E+04  0.7818609E-02  0.8481362E-01
        2   -1    0    0  501    0  0.00000000000E+00  0.00000000000E+00  0.88724896418E+03  0.88724896418E+03  0.25500000920E-02 0. -1.
       -2   -1    0    0    0  501  0.00000000000E+00  0.00000000000E+00 -0.14793001083E+04  0.14793001083E+04  0.25500000920E-02 0.  1.
    10030    2    1    2    0    0  0.00000000000E+00  0.00000000000E+00 -0.59205114413E+03  0.23665490725E+04  0.22912943842E+04 0.  0.
        4    1    3    3  502    0 -0.94932851487E+03 -0.92821842361E+02  0.35937490729E+03  0.10193097961E+04  0.12699999809E+01 0. -1.
       -4    1    3    3    0  502  0.94932851487E+03  0.92821842361E+02 -0.95142605143E+03  0.13472392764E+04  0.12699999809E+01 0.  1.
</event>
<event>
 5   0  0.1404159E-04  0.2235376E+04  0.7818609E-02  0.8503847E-01
       -2   -1    0    0    0  501  0.00000000000E+00  0.00000000000E+00  0.87853862193E+03  0.87853862193E+03  0.25500000920E-02 0. -1.
        2   -1    0    0  501    0  0.00000000000E+00  0.00000000000E+00 -0.14219366871E+04  0.14219366871E+04  0.25500000920E-02 0.  1.
    10030    2    1    2    0    0  0.00000000000E+00  0.00000000000E+00 -0.54339806518E+03  0.23004753090E+04  0.22353758499E+04 0.  0.
        5    1    3    3  502    0 -0.97941370824E+02 -0.77603789166E+03  0.54990994628E+03  0.95616440031E+03  0.46999998093E+01 0. -1.
       -5    1    3    3    0  502  0.97941370824E+02  0.77603789166E+03 -0.10933080115E+04  0.13443109087E+04  0.46999998093E+01 0.  1.
</event>
<event>
 5   0  0.5849604E-05  0.2194832E+04  0.7818609E-02  0.8520582E-01
       -1   -1    0    0    0  501  0.00000000000E+00  0.00000000000E+00  0.99974254085E+03  0.99974254087E+03  0.50400001928E-02 0. -1.
        1   -1    0    0  501    0  0.00000000000E+00  0.00000000000E+00 -0.12046324493E+04  0.12046324494E+04  0.50400001928E-02 0.  1.
    10030    2    1    2    0    0  0.00000000000E+00  0.00000000000E+00 -0.20488990849E+03  0.22043749902E+04  0.21948323906E+04 0.  0.
        2    1    3    3  502    0 -0.96902664806E+02  0.56243597754E+03  0.83896591287E+03  0.10146862364E+04  0.25500000920E-02 0. -1.
       -2    1    3    3    0  502  0.96902664806E+02 -0.56243597754E+03 -0.10438558214E+04  0.11896887539E+04  0.25500000920E-02 0.  1.
</event>
<event>
 5   0  0.5861816E-05  0.2209295E+04  0.7818609E-02  0.8514569E-01
        1   -1    0    0  501    0  0.00000000000E+00  0.00000000000E+00  0.11235932942E+04  0.11235932942E+04  0.50400001928E-02 0. -1.
       -1   -1    0    0    0  501  0.00000000000E+00  0.00000000000E+00 -0.10860210432E+04  0.10860210432E+04  0.50400001928E-02 0.  1.
    10030    2    1    2    0    0  0.00000000000E+00  0.00000000000E+00  0.37572251051E+02  0.22096143374E+04  0.22092948753E+04 0.  0.
        1    1    3    3  502    0 -0.85335375082E+03  0.67455540274E+03 -0.17361722576E+03  0.11015355448E+04  0.50400001928E-02 0.  1.
       -1    1    3    3    0  502  0.85335375082E+03 -0.67455540274E+03  0.21118947681E+03  0.11080787926E+04  0.50400001928E-02 0. -1.
</event>
<event>
 5   0  0.1226021E-04  0.2061689E+04  0.7818609E-02  0.8578310E-01
       -2   -1    0    0    0  501  0.00000000000E+00  0.00000000000E+00  0.74595290334E+03  0.74595290335E+03  0.25500000920E-02 0.  1.
        2   -1    0    0  501    0  0.00000000000E+00  0.00000000000E+00 -0.14245411137E+04  0.14245411137E+04  0.25500000920E-02 0. -1.
    10030    2    1    2    0    0  0.00000000000E+00  0.00000000000E+00 -0.67858821034E+03  0.21704940170E+04  0.20616891906E+04 0.  0.
        2    1    3    3  502    0  0.54317711717E+02 -0.10152341219E+04 -0.51854376292E+03  0.11412880312E+04  0.25500000920E-02 0. -1.
       -2    1    3    3    0  502 -0.54317711717E+02  0.10152341219E+04 -0.16004444742E+03  0.10292059858E+04  0.25500000920E-02 0.  1.
</event>
<event>
 5   0  0.6263558E-05  0.2227425E+04  0.7818609E-02  0.8507099E-01
       -1   -1    0    0    0  501  0.00000000000E+00  0.00000000000E+00  0.64926766397E+03  0.64926766399E+03  0.50400001928E-02 0.  1.
        1   -1    0    0  501    0  0.00000000000E+00  0.00000000000E+00 -0.19103922619E+04  0.19103922619E+04  0.50400001928E-02 0. -1.
    10030    2    1    2    0    0  0.00000000000E+00  0.00000000000E+00 -0.12611245979E+04  0.25596599259E+04  0.22274253489E+04 0.  0.
        3    1    3    3  502    0 -0.89809870698E+03  0.16358903086E+03 -0.13636963422E+04  0.16410394213E+04  0.10100000352E+00 0. -1.
       -3    1    3    3    0  502  0.89809870698E+03 -0.16358903086E+03  0.10257174424E+03  0.91862050457E+03  0.10100000352E+00 0.  1.
</event>
<event>
 5   0  0.6263558E-05  0.2275055E+04  0.7818609E-02  0.8487822E-01
       -1   -1    0    0    0  501  0.00000000000E+00  0.00000000000E+00  0.78837270841E+03  0.78837270843E+03  0.50400001928E-02 0.  1.
        1   -1    0    0  501    0  0.00000000000E+00  0.00000000000E+00 -0.16413157567E+04  0.16413157567E+04  0.50400001928E-02 0. -1.
    10030    2    1    2    0    0  0.00000000000E+00  0.00000000000E+00 -0.85294304825E+03  0.24296884651E+04  0.22750547672E+04 0.  0.
        3    1    3    3  502    0 -0.30638481607E+03  0.71444243486E+03  0.46043745969E+03  0.90349450067E+03  0.10100000352E+00 0.  1.
       -3    1    3    3    0  502  0.30638481607E+03 -0.71444243486E+03 -0.13133805079E+04  0.15261939644E+04  0.10100000352E+00 0. -1.
</event>
<event>
 5   0  0.1226021E-04  0.2192453E+04  0.7818609E-02  0.8521576E-01
       -2   -1    0    0    0  501  0.00000000000E+00  0.00000000000E+00  0.78358360804E+03  0.78358360804E+03  0.25500000920E-02 0.  1.
        2   -1    0    0  501    0  0.00000000000E+00  0.00000000000E+00 -0.15336112379E+04  0.15336112379E+04  0.25500000920E-02 0. -1.
    10030    2    1    2    0    0  0.00000000000E+00  0.00000000000E+00 -0.75002762987E+03  0.23171948459E+04  0.21924530801E+04 0.  0.
        2    1    3    3  502    0  0.59687431462E+03 -0.91611462520E+03 -0.45815111743E+03  0.11855072334E+04  0.25500000920E-02 0. -1.
       -2    1    3    3    0  502 -0.59687431462E+03  0.91611462520E+03 -0.29187651243E+03  0.11316876126E+04  0.25500000920E-02 0.  1.
</event>
<event>
 5   0  0.5895063E-05  0.2307365E+04  0.7818609E-02  0.8475023E-01
        1   -1    0    0  501    0  0.00000000000E+00  0.00000000000E+00  0.76354842113E+03  0.76354842114E+03  0.50400001928E-02 0.  1.
       -1   -1    0    0    0  501  0.00000000000E+00  0.00000000000E+00 -0.17431543296E+04  0.17431543296E+04  0.50400001928E-02 0. -1.
    10030    2    1    2    0    0  0.00000000000E+00  0.00000000000E+00 -0.97960590846E+03  0.25067027507E+04  0.23073645019E+04 0.  0.
        5    1    3    3  502    0 -0.71192796112E+03 -0.21454238604E+03 -0.14481035713E+04  0.16278500854E+04  0.46999998093E+01 0. -1.
       -5    1    3    3    0  502  0.71192796112E+03  0.21454238604E+03  0.46849766288E+03  0.87885266533E+03  0.46999998093E+01 0.  1.
</event>
<event>
 5   0  0.1252124E-04  0.2293155E+04  0.7818609E-02  0.8480625E-01
       -2   -1    0    0    0  501  0.00000000000E+00  0.00000000000E+00  0.93644386391E+03  0.93644386392E+03  0.25500000920E-02 0. -1.
        2   -1    0    0  501    0  0.00000000000E+00  0.00000000000E+00 -0.14038644746E+04  0.14038644746E+04  0.25500000920E-02 0.  1.
    10030    2    1    2    0    0  0.00000000000E+00  0.00000000000E+00 -0.46742061066E+03  0.23403083385E+04  0.22931552699E+04 0.  0.
        3    1    3    3  502    0  0.30167818230E+02 -0.46956447005E+01 -0.14034495473E+04  0.14037816028E+04  0.10100000352E+00 0.  1.
       -3    1    3    3    0  502 -0.30167818230E+02  0.46956447005E+01  0.93602893662E+03  0.93652673572E+03  0.10100000352E+00 0. -1.
</event>
<event>
 5   0  0.1252124E-04  0.2112031E+04  0.7818609E-02  0.8555962E-01
       -2   -1    0    0    0  501  0.00000000000E+00  0.00000000000E+00  0.77201946063E+03  0.77201946064E+03  0.25500000920E-02 0. -1.
        2   -1    0    0  501    0  0.00000000000E+00  0.00000000000E+00 -0.14444822246E+04  0.14444822246E+04  0.25500000920E-02 0.  1.
    10030    2    1    2    0    0  0.00000000000E+00  0.00000000000E+00 -0.67246276397E+03  0.22165016852E+04  0.21120306702E+04 0.  0.
        3    1    3    3  502    0  0.16873869138E+03  0.99066401818E+03  0.42878775117E+01  0.10049409629E+04  0.10100000352E+00 0. -1.
       -3    1    3    3    0  502 -0.16873869138E+03 -0.99066401818E+03 -0.67675064148E+03  0.12115607223E+04  0.10100000352E+00 0.  1.
</event>
<event>
 5   0  0.1226021E-04  0.1427047E+04  0.7818609E-02  0.8934470E-01
       -2   -1    0    0    0  501  0.00000000000E+00  0.00000000000E+00  0.10794353948E+04  0.10794353948E+04  0.25500000920E-02 0. -1.
        2   -1    0    0  501    0  0.00000000000E+00  0.00000000000E+00 -0.47165015183E+03  0.47165015184E+03  0.25500000920E-02 0.  1.
    10030    2    1    2    0    0  0.00000000000E+00  0.00000000000E+00  0.60778524293E+03  0.15510855466E+04  0.14270471160E+04 0.  0.
        2    1    3    3  502    0  0.29663315001E+03  0.60630660027E+03  0.52447559897E+02  0.67701526258E+03  0.25500000920E-02 0.  1.
       -2    1    3    3    0  502 -0.29663315001E+03 -0.60630660027E+03  0.55533768303E+03  0.87407028403E+03  0.25500000920E-02 0. -1.
</event>
<event>
 5   0  0.5981239E-05  0.2003674E+04  0.7818609E-02  0.8604905E-01
        1   -1    0    0  501    0  0.00000000000E+00  0.00000000000E+00  0.84520473968E+03  0.84520473969E+03  0.50400001928E-02 0. -1.
       -1   -1    0    0    0  501  0.00000000000E+00  0.00000000000E+00 -0.11874955637E+04  0.11874955637E+04  0.50400001928E-02 0.  1.
    10030    2    1    2    0    0  0.00000000000E+00  0.00000000000E+00 -0.34229082401E+03  0.20327003034E+04  0.20036735051E+04 0.  0.
        4    1    3    3  502    0 -0.99610236057E+03 -0.96845524284E+02 -0.21737193160E+03  0.10241343358E+04  0.12699999809E+01 0. -1.
       -4    1    3    3    0  502  0.99610236057E+03  0.96845524284E+02 -0.12491889241E+03  0.10085659675E+04  0.12699999809E+01 0.  1.
</event>
<event>
 5   0  0.1241430E-04  0.2199501E+04  0.7818609E-02  0.8518636E-01
        2   -1    0    0  501    0  0.00000000000E+00  0.00000000000E+00  0.27278206963E+04  0.27278206963E+04  0.25500000920E-02 0.  1.
       -2   -1    0    0    0  501  0.00000000000E+00  0.00000000000E+00 -0.44337630666E+03  0.44337630667E+03  0.25500000920E-02 0. -1.
    10030    2    1    2    0    0  0.00000000000E+00  0.00000000000E+00  0.22844443897E+04  0.31711970030E+04  0.21995009121E+04 0.  0.
        1    1    3    3  502    0  0.10430121524E+04  0.22529473957E+03  0.15259064328E+04  0.18619942296E+04  0.50400001928E-02 0. -1.
       -1    1    3    3    0  502 -0.10430121524E+04 -0.22529473957E+03  0.75853795691E+03  0.13092027734E+04  0.50400001928E-02 0.  1.
</event>
<event>
 5   0  0.1226021E-04  0.2237286E+04  0.7818609E-02  0.8503067E-01
       -2   -1    0    0    0  501  0.00000000000E+00  0.00000000000E+00  0.51870922797E+03  0.51870922797E+03  0.25500000920E-02 0.  1.
        2   -1    0    0  501    0  0.00000000000E+00  0.00000000000E+00 -0.24124533948E+04  0.24124533948E+04  0.25500000920E-02 0. -1.
    10030    2    1    2    0    0  0.00000000000E+00  0.00000000000E+00 -0.18937441668E+04  0.29311626228E+04  0.22372857108E+04 0.  0.
        2    1    3    3  502    0 -0.37543300243E+03  0.33075959216E+03 -0.22576758215E+04  0.23124558292E+04  0.25500000920E-02 0. -1.
       -2    1    3    3    0  502  0.37543300243E+03 -0.33075959216E+03  0.36393165466E+03  0.61870679356E+03  0.25500000920E-02 0.  1.
</event>
<event>
 5   0  0.1311472E-04  0.2226139E+04  0.7818609E-02  0.8507627E-01
       -2   -1    0    0    0  501  0.00000000000E+00  0.00000000000E+00  0.70264502795E+03  0.70264502795E+03  0.25500000920E-02 0.  1.
        2   -1    0    0  501    0  0.00000000000E+00  0.00000000000E+00 -0.17632287240E+04  0.17632287240E+04  0.25500000920E-02 0. -1.
    10030    2    1    2    0    0  0.00000000000E+00  0.00000000000E+00 -0.10605836960E+04  0.24658737520E+04  0.22261391655E+04 0.  0.
        4    1    3    3  502    0  0.92944040401E+03 -0.21520581464E+03 -0.11654047419E+04  0.15061018666E+04  0.12699999809E+01 0. -1.
       -4    1    3    3    0  502 -0.92944040401E+03  0.21520581464E+03  0.10482104590E+03  0.95977188531E+03  0.12699999809E+01 0.  1.
</event>
<event>
 5   0  0.1252124E-04  0.2201654E+04  0.7818609E-02  0.8517740E-01
       -2   -1    0    0    0  501  0.00000000000E+00  0.00000000000E+00  0.70509881395E+03  0.70509881395E+03  0.25500000920E-02 0.  1.
        2   -1    0    0  501    0  0.00000000000E+00  0.00000000000E+00 -0.17186531249E+04  0.17186531249E+04  0.25500000920E-02 0. -1.
    10030    2    1    2    0    0  0.00000000000E+00  0.00000000000E+00 -0.10135543110E+04  0.24237519389E+04  0.22016541781E+04 0.  0.
        3    1    3    3  502    0  0.71056243792E+03  0.47174316871E+03 -0.12729592902E+04  0.15322747665E+04  0.10100000352E+00 0. -1.
       -3    1    3    3    0  502 -0.71056243792E+03 -0.47174316871E+03  0.25940497920E+03  0.89147717236E+03  0.10100000352E+00 0.  1.
</event>
<event>
 5   0  0.5849604E-05  0.2197648E+04  0.7818609E-02  0.8519408E-01
        1   -1    0    0  501    0  0.00000000000E+00  0.00000000000E+00  0.98434877848E+03  0.98434877849E+03  0.50400001928E-02 0. -1.
       -1   -1    0    0    0  501  0.00000000000E+00  0.00000000000E+00 -0.12266125816E+04  0.12266125816E+04  0.50400001928E-02 0.  1.
    10030    2    1    2    0    0  0.00000000000E+00  0.00000000000E+00 -0.24226380310E+03  0.22109613601E+04  0.21976483762E+04 0.  0.
        2    1    3    3  502    0 -0.41488975270E+02 -0.67070773872E+03 -0.99579165489E+03  0.12013206174E+04  0.25500000920E-02 0.  1.
       -2    1    3    3    0  502  0.41488975270E+02  0.67070773872E+03  0.75352785179E+03  0.10096407427E+04  0.25500000920E-02 0. -1.
</event>
<event>
 5   0  0.1241430E-04  0.2142535E+04  0.7818609E-02  0.8542735E-01
       -2   -1    0    0    0  501  0.00000000000E+00  0.00000000000E+00  0.61285376153E+03  0.61285376154E+03  0.25500000920E-02 0.  1.
        2   -1    0    0  501    0  0.00000000000E+00  0.00000000000E+00 -0.18725734212E+04  0.18725734212E+04  0.25500000920E-02 0. -1.
    10030    2    1    2    0    0  0.00000000000E+00  0.00000000000E+00 -0.12597196596E+04  0.24854271827E+04  0.21425346344E+04 0.  0.
        1    1    3    3  502    0  0.44014076784E+03 -0.97494059208E+03 -0.69730809913E+03  0.12768992281E+04  0.50400001928E-02 0.  1.
       -1    1    3    3    0  502 -0.44014076784E+03  0.97494059208E+03 -0.56241156051E+03  0.12085279546E+04  0.50400001928E-02 0. -1.
</event>
<event>
 5   0  0.1311472E-04  0.2159488E+04  0.7818609E-02  0.8535482E-01
       -2   -1    0    0    0  501  0.00000000000E+00  0.00000000000E+00  0.11882697043E+04  0.11882697043E+04  0.25500000920E-02 0.  1.
        2   -1    0    0  501    0  0.00000000000E+00  0.00000000000E+00 -0.98112978153E+03  0.98112978154E+03  0.25500000920E-02 0. -1.
    10030    2    1    2    0    0  0.00000000000E+00  0.00000000000E+00  0.20713992276E+03  0.21693994858E+04  0.21594877128E+04 0.  0.
        4    1    3    3  502    0 -0.21786020150E+03 -0.75119512937E+03  0.85135739911E+03  0.11561004384E+04  0.12699999809E+01 0. -1.
       -4    1    3    3    0  502  0.21786020150E+03  0.75119512937E+03 -0.64421747635E+03  0.10132990474E+04  0.12699999809E+01 0.  1.
</event>
<event>
 5   0  0.5861816E-05  0.2209036E+04  0.7818609E-02  0.8514677E-01
        1   -1    0    0  501    0  0.00000000000E+00  0.00000000000E+00  0.11610921115E+04  0.11610921115E+04  0.50400001928E-02 0.  1.
       -1   -1    0    0    0  501  0.00000000000E+00  0.00000000000E+00 -0.10507000752E+04  0.10507000752E+04  0.50400001928E-02 0. -1.
    10030    2    1    2    0    0  0.00000000000E+00  0.00000000000E+00  0.11039203634E+03  0.22117921867E+04  0.22090355985E+04 0.  0.
        1    1    3    3  502    0 -0.26695958249E+03 -0.10604698157E+04 -0.10022629312E+03  0.10981388612E+04  0.50400001928E-02 0. -1.
       -1    1    3    3    0  502  0.26695958249E+03  0.10604698157E+04  0.21061832945E+03  0.11136533255E+04  0.50400001928E-02 0.  1.
</event>
<event>
 5   0  0.5849604E-05  0.2192278E+04  0.7818609E-02  0.8521649E-01
        1   -1    0    0  501    0  0.00000000000E+00  0.00000000000E+00  0.20713002473E+04  0.20713002474E+04  0.50400001928E-02 0.  1.
       -1   -1    0    0    0  501  0.00000000000E+00  0.00000000000E+00 -0.58008038895E+03  0.58008038897E+03  0.50400001928E-02 0. -1.
    10030    2    1    2    0    0  0.00000000000E+00  0.00000000000E+00  0.14912198584E+04  0.26513806363E+04  0.21922779506E+04 0.  0.
        2    1    3    3  502    0  0.53441896215E+03  0.90621976069E+03  0.11177547207E+04  0.15349962532E+04  0.25500000920E-02 0.  1.
       -2    1    3    3    0  502 -0.53441896215E+03 -0.90621976069E+03  0.37346513772E+03  0.11163843831E+04  0.25500000920E-02 0. -1.
</event>
<event>
 5   0  0.5895063E-05  0.2172279E+04  0.7818609E-02  0.8530055E-01
       -1   -1    0    0    0  501  0.00000000000E+00  0.00000000000E+00  0.10265058715E+04  0.10265058715E+04  0.50400001928E-02 0. -1.
        1   -1    0    0  501    0  0.00000000000E+00  0.00000000000E+00 -0.11492379932E+04  0.11492379932E+04  0.50400001928E-02 0.  1.
    10030    2    1    2    0    0  0.00000000000E+00  0.00000000000E+00 -0.12273212169E+03  0.21757438648E+04  0.21722794920E+04 0.  0.
        5    1    3    3  502    0  0.34169620228E+03 -0.19630440435E+03  0.95236750892E+03  0.10306879624E+04  0.46999998093E+01 0. -1.
       -5    1    3    3    0  502 -0.34169620228E+03  0.19630440435E+03 -0.10750996306E+04  0.11450559024E+04  0.46999998093E+01 0.  1.
</event>
<event>
 5   0  0.4586375E-05  0.2192350E+04  0.7818609E-02  0.8521619E-01
       -3   -1    0    0    0  501  0.00000000000E+00  0.00000000000E+00  0.13505996785E+04  0.13505996823E+04  0.10100000352E+00 0.  1.
        3   -1    0    0  501    0  0.00000000000E+00  0.00000000000E+00 -0.88967862443E+03  0.88967863017E+03  0.10100000352E+00 0. -1.
    10030    2    1    2    0    0  0.00000000000E+00  0.00000000000E+00  0.46092105405E+03  0.22402783124E+04  0.21923500403E+04 0.  0.
        4    1    3    3  502    0  0.61377329719E+03  0.79029714688E+03 -0.22688483954E+03  0.10260436560E+04  0.12699999809E+01 0. -1.
       -4    1    3    3    0  502 -0.61377329719E+03 -0.79029714688E+03  0.68780589358E+03  0.12142346564E+04  0.12699999809E+01 0.  1.
</event>
<event>
 5   0  0.6263558E-05  0.2145406E+04  0.7818609E-02  0.8541501E-01
       -1   -1    0    0    0  501  0.00000000000E+00  0.00000000000E+00  0.11204277296E+04  0.11204277296E+04  0.50400001928E-02 0.  1.
        1   -1    0    0  501    0  0.00000000000E+00  0.00000000000E+00 -0.10270108361E+04  0.10270108361E+04  0.50400001928E-02 0. -1.
    10030    2    1    2    0    0  0.00000000000E+00  0.00000000000E+00  0.93416893505E+02  0.21474385657E+04  0.21454057140E+04 0.  0.
        3    1    3    3  502    0  0.49061985143E+03  0.95391035126E+03  0.52928218990E+02  0.10739898526E+04  0.10100000352E+00 0.  1.
       -3    1    3    3    0  502 -0.49061985143E+03 -0.95391035126E+03  0.40488674515E+02  0.10734487132E+04  0.10100000352E+00 0. -1.
</event>
<event>
 5   0  0.1311472E-04  0.2220181E+04  0.7818609E-02  0.8510075E-01
        2   -1    0    0  501    0  0.00000000000E+00  0.00000000000E+00  0.13806967634E+04  0.13806967634E+04  0.25500000920E-02 0. -1.
       -2   -1    0    0    0  501  0.00000000000E+00  0.00000000000E+00 -0.89252139664E+03  0.89252139664E+03  0.25500000920E-02 0.  1.
    10030    2    1    2    0    0  0.00000000000E+00  0.00000000000E+00  0.48817536673E+03  0.22732181600E+04  0.22201814373E+04 0.  0.
        4    1    3    3  502    0  0.28719468674E+03  0.64357582778E+03 -0.63408943422E+03  0.94801986144E+03  0.12699999809E+01 0.  1.
       -4    1    3    3    0  502 -0.28719468674E+03 -0.64357582778E+03  0.11222648009E+04  0.13251982986E+04  0.12699999809E+01 0. -1.
</event>
<event>
 5   0  0.5861816E-05  0.2214841E+04  0.7818609E-02  0.8512276E-01
       -1   -1    0    0    0  501  0.00000000000E+00  0.00000000000E+00  0.99350013067E+03  0.99350013069E+03  0.50400001928E-02 0. -1.
        1   -1    0    0  501    0  0.00000000000E+00  0.00000000000E+00 -0.12344032373E+04  0.12344032373E+04  0.50400001928E-02 0.  1.
    10030    2    1    2    0    0  0.00000000000E+00  0.00000000000E+00 -0.24090310665E+03  0.22279033680E+04  0.22148406512E+04 0.  0.
        1    1    3    3  502    0  0.32592015169E+03 -0.10540497990E+04 -0.21659167329E+03  0.11243473115E+04  0.50400001928E-02 0. -1.
       -1    1    3    3    0  502 -0.32592015169E+03  0.10540497990E+04 -0.24311433356E+02  0.11035560565E+04  0.50400001928E-02 0.  1.
</event>
<event>
 5   0  0.1404159E-04  0.1449837E+04  0.7818609E-02  0.8918514E-01
       -2   -1    0    0    0  501  0.00000000000E+00  0.00000000000E+00  0.13830415847E+04  0.13830415847E+04  0.25500000920E-02 0.  1.
        2   -1    0    0  501    0  0.00000000000E+00  0.00000000000E+00 -0.37996457220E+03  0.37996457221E+03  0.25500000920E-02 0. -1.
    10030    2    1    2    0    0  0.00000000000E+00  0.00000000000E+00  0.10030770125E+04  0.17630061569E+04  0.14498369620E+04 0.  0.
        5    1    3    3  502    0 -0.51668729849E+03  0.10461226295E+03 -0.10350729572E+03  0.53725723843E+03  0.46999998093E+01 0. -1.
       -5    1    3    3    0  502  0.51668729849E+03 -0.10461226295E+03  0.11065843082E+04  0.12257489185E+04  0.46999998093E+01 0.  1.
</event>
<event>
 5   0  0.1404159E-04  0.2286038E+04  0.7818609E-02  0.8483447E-01
       -2   -1    0    0    0  501  0.00000000000E+00  0.00000000000E+00  0.52665335261E+03  0.52665335261E+03  0.25500000920E-02 0.  1.
        2   -1    0    0  501    0  0.00000000000E+00  0.00000000000E+00 -0.24807437987E+04  0.24807437987E+04  0.25500000920E-02 0. -1.
    10030    2    1    2    0    0  0.00000000000E+00  0.00000000000E+00 -0.19540904461E+04  0.30073971513E+04  0.22860376537E+04 0.  0.
        5    1    3    3  502    0  0.39261340633E+03  0.65524112540E+02  0.43251702617E+03  0.58781949957E+03  0.46999998093E+01 0.  1.
       -5    1    3    3    0  502 -0.39261340633E+03 -0.65524112540E+02 -0.23866074722E+04  0.24195776517E+04  0.46999998093E+01 0. -1.
</event>
<event>
 5   0  0.1404159E-04  0.2191031E+04  0.7818609E-02  0.8522171E-01
       -2   -1    0    0    0  501  0.00000000000E+00  0.00000000000E+00  0.91344338426E+03  0.91344338427E+03  0.25500000920E-02 0.  1.
        2   -1    0    0  501    0  0.00000000000E+00  0.00000000000E+00 -0.13138790243E+04  0.13138790243E+04  0.25500000920E-02 0. -1.
    10030    2    1    2    0    0  0.00000000000E+00  0.00000000000E+00 -0.40043564003E+03  0.22273224086E+04  0.21910309012E+04 0.  0.
        5    1    3    3  502    0 -0.75167706251E+03 -0.75351371126E+02 -0.10067288217E+04  0.12586585104E+04  0.46999998093E+01 0. -1.
       -5    1    3    3    0  502  0.75167706251E+03  0.75351371126E+02  0.60629318166E+03  0.96866389814E+03  0.46999998093E+01 0.  1.
</event>
<event>
 5   0  0.1226021E-04  0.2218732E+04  0.7818609E-02  0.8510672E-01
        2   -1    0    0  501    0  0.00000000000E+00  0.00000000000E+00  0.85892867471E+03  0.85892867471E+03  0.25500000920E-02 0. -1.
       -2   -1    0    0    0  501  0.00000000000E+00  0.00000000000E+00 -0.14328228231E+04  0.14328228231E+04  0.25500000920E-02 0.  1.
    10030    2    1    2    0    0  0.00000000000E+00  0.00000000000E+00 -0.57389414841E+03  0.22917514978E+04  0.22187317175E+04 0.  0.
        2    1    3    3  502    0  0.85005998174E+03 -0.22150696108E+03 -0.98675852538E+03  0.13211206204E+04  0.25500000920E-02 0.  1.
       -2    1    3    3    0  502 -0.85005998174E+03  0.22150696108E+03  0.41286437697E+03  0.97063087739E+03  0.25500000920E-02 0. -1.
</event>
<event>
 5   0  0.5981239E-05  0.2145821E+04  0.7818609E-02  0.8541323E-01
        1   -1    0    0  501    0  0.00000000000E+00  0.00000000000E+00  0.11491246344E+04  0.11491246344E+04  0.50400001928E-02 0.  1.
       -1   -1    0    0    0  501  0.00000000000E+00  0.00000000000E+00 -0.10017508382E+04  0.10017508382E+04  0.50400001928E-02 0. -1.
    10030    2    1    2    0    0  0.00000000000E+00  0.00000000000E+00  0.14737379617E+03  0.21508754726E+04  0.21458206502E+04 0.  0.
        4    1    3    3  502    0  0.33137690322E+03 -0.82256215106E+02 -0.94584146847E+03  0.10055816393E+04  0.12699999809E+01 0. -1.
       -4    1    3    3    0  502 -0.33137690322E+03  0.82256215106E+02  0.10932152646E+04  0.11452938333E+04  0.12699999809E+01 0.  1.
</event>
<event>
 5   0  0.1241430E-04  0.2201302E+04  0.7818609E-02  0.8517887E-01
        2   -1    0    0  501    0  0.00000000000E+00  0.00000000000E+00  0.15009040526E+04  0.15009040526E+04  0.25500000920E-02 0. -1.
       -2   -1    0    0    0  501  0.00000000000E+00  0.00000000000E+00 -0.80713501797E+03  0.80713501798E+03  0.25500000920E-02 0.  1.
    10030    2    1    2    0    0  0.00000000000E+00  0.00000000000E+00  0.69376903465E+03  0.23080390706E+04  0.22013016327E+04 0.  0.
        1    1    3    3  502    0  0.84892348106E+03 -0.57567119461E+03 -0.71676197705E+02  0.10282051733E+04  0.50400001928E-02 0.  1.
       -1    1    3    3    0  502 -0.84892348106E+03  0.57567119461E+03  0.76544523235E+03  0.12798338973E+04  0.50400001928E-02 0. -1.
</event>
<event>
 5   0  0.1404159E-04  0.2246454E+04  0.7818609E-02  0.8499338E-01
       -2   -1    0    0    0  501  0.00000000000E+00  0.00000000000E+00  0.89771364479E+03  0.89771364480E+03  0.25500000920E-02 0.  1.
        2   -1    0    0  501    0  0.00000000000E+00  0.00000000000E+00 -0.14053909087E+04  0.14053909087E+04  0.25500000920E-02 0. -1.
    10030    2    1    2    0    0  0.00000000000E+00  0.00000000000E+00 -0.50767726395E+03  0.23031045535E+04  0.22464537343E+04 0.  0.
        5    1    3    3  502    0  0.13917632640E+02 -0.46395070069E+03  0.79478064206E+03  0.92040334211E+03  0.46999998093E+01 0.  1.
       -5    1    3    3    0  502 -0.13917632640E+02  0.46395070069E+03 -0.13024579060E+04  0.13827012114E+04  0.46999998093E+01 0. -1.
</event>
<event>
 5   0  0.1311472E-04  0.2204034E+04  0.7818609E-02  0.8516751E-01
        2   -1    0    0  501    0  0.00000000000E+00  0.00000000000E+00  0.10053895016E+04  0.10053895016E+04  0.25500000920E-02 0. -1.
       -2   -1    0    0    0  501  0.00000000000E+00  0.00000000000E+00 -0.12079308142E+04  0.12079308142E+04  0.25500000920E-02 0.  1.
    10030    2    1    2    0    0  0.00000000000E+00  0.00000000000E+00 -0.20254131259E+03  0.22133203159E+04  0.22040335382E+04 0.  0.
        4    1    3    3  502    0 -0.82661166628E+03  0.54696021190E+03  0.38240911058E+03  0.10623985415E+04  0.12699999809E+01 0. -1.
       -4    1    3    3    0  502  0.82661166628E+03 -0.54696021190E+03 -0.58495042317E+03  0.11509217744E+04  0.12699999809E+01 0.  1.
</event>
<event>
 5   0  0.1252124E-04  0.2186675E+04  0.7818609E-02  0.8523995E-01
        2   -1    0    0  501    0  0.00000000000E+00  0.00000000000E+00  0.16854595752E+04  0.16854595752E+04  0.25500000920E-02 0. -1.
       -2   -1    0    0    0  501  0.00000000000E+00  0.00000000000E+00 -0.70923481797E+03  0.70923481798E+03  0.25500000920E-02 0.  1.
    10030    2    1    2    0    0  0.00000000000E+00  0.00000000000E+00  0.97622475725E+03  0.23946943932E+04  0.21866747495E+04 0.  0.
        3    1    3    3  502    0 -0.11202915235E+03 -0.10486013135E+04  0.80413177109E+03  0.13261761426E+04  0.10100000352E+00 0. -1.
       -3    1    3    3    0  502  0.11202915235E+03  0.10486013135E+04  0.17209298616E+03  0.10685182506E+04  0.10100000352E+00 0.  1.
</event>
<event>
 5   0  0.1252124E-04  0.2107507E+04  0.7818609E-02  0.8557944E-01
        2   -1    0    0  501    0  0.00000000000E+00  0.00000000000E+00  0.84362443332E+03  0.84362443333E+03  0.25500000920E-02 0.  1.
       -2   -1    0    0    0  501  0.00000000000E+00  0.00000000000E+00 -0.13162216973E+04  0.13162216973E+04  0.25500000920E-02 0. -1.
    10030    2    1    2    0    0  0.00000000000E+00  0.00000000000E+00 -0.47259726400E+03  0.21598461307E+04  0.21075073272E+04 0.  0.
        3    1    3    3  502    0  0.75585152299E+03 -0.12965468140E+03  0.50433478253E+03  0.91786461108E+03  0.10100000352E+00 0.  1.
       -3    1    3    3    0  502 -0.75585152299E+03  0.12965468140E+03 -0.97693204653E+03  0.12419815196E+04  0.10100000352E+00 0. -1.
</event>
<event>
 5   0  0.5981239E-05  0.2138868E+04  0.7818609E-02  0.8544312E-01
       -1   -1    0    0    0  501  0.00000000000E+00  0.00000000000E+00  0.46166071920E+03  0.46166071923E+03  0.50400001928E-02 0. -1.
        1   -1    0    0  501    0  0.00000000000E+00  0.00000000000E+00 -0.24773375489E+04  0.24773375489E+04  0.50400001928E-02 0.  1.
    10030    2    1    2    0    0  0.00000000000E+00  0.00000000000E+00 -0.20156768297E+04  0.29389982681E+04  0.21388683312E+04 0.  0.
        4    1    3    3  502    0 -0.63684745357E+03 -0.42418440120E+03  0.18764994141E+02  0.76541545793E+03  0.12699999809E+01 0. -1.
       -4    1    3    3    0  502  0.63684745357E+03  0.42418440120E+03 -0.20344418238E+04  0.21735828102E+04  0.12699999809E+01 0.  1.
</event>
<event>
 5   0  0.6263558E-05  0.1704136E+04  0.7818609E-02  0.8759009E-01
        1   -1    0    0  501    0  0.00000000000E+00  0.00000000000E+00  0.13097125764E+04  0.13097125764E+04  0.50400001928E-02 0.  1.
       -1   -1    0    0    0  501  0.00000000000E+00  0.00000000000E+00 -0.55433522905E+03  0.55433522907E+03  0.50400001928E-02 0. -1.
    10030    2    1    2    0    0  0.00000000000E+00  0.00000000000E+00  0.75537734738E+03  0.18640478055E+04  0.17041359348E+04 0.  0.
        3    1    3    3  502    0  0.60674363574E+03 -0.13372709333E+03  0.10154991588E+04  0.11904870124E+04  0.10100000352E+00 0.  1.
       -3    1    3    3    0  502 -0.60674363574E+03  0.13372709333E+03 -0.26012181143E+03  0.67356079309E+03  0.10100000352E+00 0. -1.
</event>
<event>
 5   0  0.5895063E-05  0.2155488E+04  0.7818609E-02  0.8537187E-01
        1   -1    0    0  501    0  0.00000000000E+00  0.00000000000E+00  0.11568493251E+04  0.11568493251E+04  0.50400001928E-02 0. -1.
       -1   -1    0    0    0  501  0.00000000000E+00  0.00000000000E+00 -0.10040475527E+04  0.10040475527E+04  0.50400001928E-02 0.  1.
    10030    2    1    2    0    0  0.00000000000E+00  0.00000000000E+00  0.15280177241E+03  0.21608968778E+04  0.21554876327E+04 0.  0.
        5    1    3    3  502    0  0.42538749408E+03 -0.80810196669E+03  0.65013624958E+03  0.11210185287E+04  0.46999998093E+01 0. -1.
       -5    1    3    3    0  502 -0.42538749408E+03  0.80810196669E+03 -0.49733447716E+03  0.10398783491E+04  0.46999998093E+01 0.  1.
</event>
<event>
 5   0  0.1241430E-04  0.1784342E+04  0.7818609E-02  0.8714671E-01
       -2   -1    0    0    0  501  0.00000000000E+00  0.00000000000E+00  0.32103439019E+03  0.32103439020E+03  0.25500000920E-02 0.  1.
        2   -1    0    0  501    0  0.00000000000E+00  0.00000000000E+00 -0.24793898714E+04  0.24793898714E+04  0.25500000920E-02 0. -1.
    10030    2    1    2    0    0  0.00000000000E+00  0.00000000000E+00 -0.21583554813E+04  0.28004242616E+04  0.17843423611E+04 0.  0.
        1    1    3    3  502    0 -0.70165447360E+03  0.34239812374E+03 -0.17567955915E+04  0.19224687841E+04  0.50400001928E-02 0. -1.
       -1    1    3    3    0  502  0.70165447360E+03 -0.34239812374E+03 -0.40155988973E+03  0.87795547753E+03  0.50400001928E-02 0.  1.
</event>
<event>
 5   0  0.1404159E-04  0.2231143E+04  0.7818609E-02  0.8505576E-01
        2   -1    0    0  501    0  0.00000000000E+00  0.00000000000E+00  0.18552120404E+04  0.18552120405E+04  0.25500000920E-02 0.  1.
       -2   -1    0    0    0  501  0.00000000000E+00  0.00000000000E+00 -0.67081286300E+03  0.67081286301E+03  0.25500000920E-02 0. -1.
    10030    2    1    2    0    0  0.00000000000E+00  0.00000000000E+00  0.11843991774E+04  0.25260249035E+04  0.22311432947E+04 0.  0.
        5    1    3    3  502    0  0.93420924530E+03  0.58971961340E+03  0.76745464372E+03  0.13451858075E+04  0.46999998093E+01 0. -1.
       -5    1    3    3    0  502 -0.93420924530E+03 -0.58971961340E+03  0.41694453373E+03  0.11808390960E+04  0.46999998093E+01 0.  1.
</event>
<event>
 5   0  0.5895063E-05  0.2195088E+04  0.7818609E-02  0.8520475E-01
        1   -1    0    0  501    0  0.00000000000E+00  0.00000000000E+00  0.70206862823E+03  0.70206862825E+03  0.50400001928E-02 0.  1.
       -1   -1    0    0    0  501  0.00000000000E+00  0.00000000000E+00 -0.17157902295E+04  0.17157902295E+04  0.50400001928E-02 0. -1.
    10030    2    1    2    0    0  0.00000000000E+00  0.00000000000E+00 -0.10137216013E+04  0.24178588578E+04  0.21950876910E+04 0.  0.
        5    1    3    3  502    0 -0.17102527467E+03  0.92470897810E+03  0.11647147543E+03  0.94758853589E+03  0.46999998093E+01 0.  1.
       -5    1    3    3    0  502  0.17102527467E+03 -0.92470897810E+03 -0.11301930767E+04  0.14702703219E+04  0.46999998093E+01 0. -1.
</event>
<event>
 5   0  0.5861816E-05  0.2207603E+04  0.7818609E-02  0.8515270E-01
       -1   -1    0    0    0  501  0.00000000000E+00  0.00000000000E+00  0.12556571222E+04  0.12556571223E+04  0.50400001928E-02 0.  1.
        1   -1    0    0  501    0  0.00000000000E+00  0.00000000000E+00 -0.97031053492E+03  0.97031053493E+03  0.50400001928E-02 0. -1.
    10030    2    1    2    0    0  0.00000000000E+00  0.00000000000E+00  0.28534658733E+03  0.22259676572E+04  0.22076026218E+04 0.  0.
        1    1    3    3  502    0 -0.86330281549E+03  0.45199436462E+03 -0.38008606659E+03  0.10459713547E+04  0.50400001928E-02 0. -1.
       -1    1    3    3    0  502  0.86330281549E+03 -0.45199436462E+03  0.66543265392E+03  0.11799963025E+04  0.50400001928E-02 0.  1.
</event>
<event>
 5   0  0.1226021E-04  0.1727830E+04  0.7818609E-02  0.8745649E-01
       -2   -1    0    0    0  501  0.00000000000E+00  0.00000000000E+00  0.38735265700E+03  0.38735265700E+03  0.25500000920E-02 0.  1.
        2   -1    0    0  501    0  0.00000000000E+00  0.00000000000E+00 -0.19267941391E+04  0.19267941391E+04  0.25500000920E-02 0. -1.
    10030    2    1    2    0    0  0.00000000000E+00  0.00000000000E+00 -0.15394414821E+04  0.23141467961E+04  0.17278296551E+04 0.  0.
        2    1    3    3  502    0 -0.15306683441E+03  0.25582674779E+03 -0.18557177475E+04  0.18795119417E+04  0.25500000920E-02 0. -1.
       -2    1    3    3    0  502  0.15306683441E+03 -0.25582674779E+03  0.31627626533E+03  0.43463485445E+03  0.25500000920E-02 0.  1.
</event>
<event>
 5   0  0.5861816E-05  0.2190830E+04  0.7818609E-02  0.8522255E-01
       -1   -1    0    0    0  501  0.00000000000E+00  0.00000000000E+00  0.59588121841E+03  0.59588121843E+03  0.50400001928E-02 0. -1.
        1   -1    0    0  501    0  0.00000000000E+00  0.00000000000E+00 -0.20137130093E+04  0.20137130093E+04  0.50400001928E-02 0.  1.
    10030    2    1    2    0    0  0.00000000000E+00  0.00000000000E+00 -0.14178317909E+04  0.26095942277E+04  0.21908297620E+04 0.  0.
        1    1    3    3  502    0  0.25705398688E+03  0.76379731589E+03  0.17483820689E+03  0.82464021885E+03  0.50400001928E-02 0. -1.
       -1    1    3    3    0  502 -0.25705398688E+03 -0.76379731589E+03 -0.15926699978E+04  0.17849540089E+04  0.50400001928E-02 0.  1.
</event>
<event>
 5   0  0.1311472E-04  0.2238616E+04  0.7818609E-02  0.8502525E-01
       -2   -1    0    0    0  501  0.00000000000E+00  0.00000000000E+00  0.47001810020E+03  0.47001810020E+03  0.25500000920E-02 0. -1.
        2   -1    0    0  501    0  0.00000000000E+00  0.00000000000E+00 -0.26655357238E+04  0.26655357238E+04  0.25500000920E-02 0.  1.
    10030    2    1    2    0    0  0.00000000000E+00  0.00000000000E+00 -0.21955176236E+04  0.31355538240E+04  0.22386156766E+04 0.  0.
        4    1    3    3  502    0  0.98372653676E+03  0.30339888771E+02 -0.18444730097E+04  0.20906268687E+04  0.12699999809E+01 0.  1.
       -4    1    3    3    0  502 -0.98372653676E+03 -0.30339888771E+02 -0.35104461394E+03  0.10449269553E+04  0.12699999809E+01 0. -1.
</event>
<event>
 5   0  0.1241430E-04  0.2137428E+04  0.7818609E-02  0.8544933E-01
       -2   -1    0    0    0  501  0.00000000000E+00  0.00000000000E+00  0.11949554751E+04  0.11949554751E+04  0.25500000920E-02 0.  1.
        2   -1    0    0  501    0  0.00000000000E+00  0.00000000000E+00 -0.95580931228E+03  0.95580931229E+03  0.25500000920E-02 0. -1.
    10030    2    1    2    0    0  0.00000000000E+00  0.00000000000E+00  0.23914616279E+03  0.21507647874E+04  0.21374279598E+04 0.  0.
        1    1    3    3  502    0  0.21487633151E+03  0.75977572711E+03 -0.60514205568E+03  0.99480043271E+03  0.50400001928E-02 0. -1.
       -1    1    3    3    0  502 -0.21487633151E+03 -0.75977572711E+03  0.84428821847E+03  0.11559643547E+04  0.50400001928E-02 0.  1.
</event>
<event>
 5   0  0.1404159E-04  0.2192988E+04  0.7818609E-02  0.8521352E-01
        2   -1    0    0  501    0  0.00000000000E+00  0.00000000000E+00  0.15461743391E+04  0.15461743391E+04  0.25500000920E-02 0.  1.
       -2   -1    0    0    0  501  0.00000000000E+00  0.00000000000E+00 -0.77759619897E+03  0.77759619897E+03  0.25500000920E-02 0. -1.
    10030    2    1    2    0    0  0.00000000000E+00  0.00000000000E+00  0.76857814018E+03  0.23237705381E+04  0.21929881797E+04 0.  0.
        5    1    3    3  502    0  0.87150958626E+03  0.38398867439E+03 -0.19153440171E+03  0.97143387734E+03  0.46999998093E+01 0. -1.
       -5    1    3    3    0  502 -0.87150958626E+03 -0.38398867439E+03  0.96011254189E+03  0.13523366608E+04  0.46999998093E+01 0.  1.
</event>
<event>
 5   0  0.5861816E-05  0.2209424E+04  0.7818609E-02  0.8514516E-01
        1   -1    0    0  501    0  0.00000000000E+00  0.00000000000E+00  0.11169924311E+04  0.11169924311E+04  0.50400001928E-02 0. -1.
       -1   -1    0    0    0  501  0.00000000000E+00  0.00000000000E+00 -0.10925667430E+04  0.10925667430E+04  0.50400001928E-02 0.  1.
    10030    2    1    2    0    0  0.00000000000E+00  0.00000000000E+00  0.24425688117E+02  0.22095591741E+04  0.22094241625E+04 0.  0.
        1    1    3    3  502    0  0.50809165723E+03 -0.91351346691E+03  0.36962074309E+03  0.11087305715E+04  0.50400001928E-02 0. -1.
       -1    1    3    3    0  502 -0.50809165723E+03  0.91351346691E+03 -0.34519505498E+03  0.11008286026E+04  0.50400001928E-02 0.  1.
</event>
<event>
 5   0  0.4586375E-05  0.2250516E+04  0.7818609E-02  0.8497692E-01
       -3   -1    0    0    0  501  0.00000000000E+00  0.00000000000E+00  0.60507214889E+03  0.60507215732E+03  0.10100000352E+00 0. -1.
        3   -1    0    0  501    0  0.00000000000E+00  0.00000000000E+00 -0.20926516931E+04  0.20926516955E+04  0.10100000352E+00 0.  1.
    10030    2    1    2    0    0  0.00000000000E+00  0.00000000000E+00 -0.14875795442E+04  0.26977238528E+04  0.22505157378E+04 0.  0.
        2    1    3    3  502    0 -0.30118680231E+03 -0.70014204194E+02  0.55314401391E+03  0.63370638217E+03  0.25500000920E-02 0. -1.
       -2    1    3    3    0  502  0.30118680231E+03  0.70014204194E+02 -0.20407235581E+04  0.20640174707E+04  0.25500000920E-02 0.  1.
</event>
<event>
 5   0  0.1311472E-04  0.2082776E+04  0.7818609E-02  0.8568869E-01
       -2   -1    0    0    0  501  0.00000000000E+00  0.00000000000E+00  0.73235657372E+03  0.73235657373E+03  0.25500000920E-02 0. -1.
        2   -1    0    0  501    0  0.00000000000E+00  0.00000000000E+00 -0.14808208293E+04  0.14808208293E+04  0.25500000920E-02 0.  1.
    10030    2    1    2    0    0  0.00000000000E+00  0.00000000000E+00 -0.74846425562E+03  0.22131774031E+04  0.20827759062E+04 0.  0.
        4    1    3    3  502    0  0.64059441616E+02 -0.89262576536E+03 -0.94011820124E+03  0.12979631020E+04  0.12699999809E+01 0.  1.
       -4    1    3    3    0  502 -0.64059441616E+02  0.89262576536E+03  0.19165394563E+03  0.91521430103E+03  0.12699999809E+01 0. -1.
</event>
<event>
 5   0  0.5981239E-05  0.1684043E+04  0.7818609E-02  0.8770518E-01
       -1   -1    0    0    0  501  0.00000000000E+00  0.00000000000E+00  0.56253208042E+03  0.56253208045E+03  0.50400001928E-02 0.  1.
        1   -1    0    0  501    0  0.00000000000E+00  0.00000000000E+00 -0.12603721836E+04  0.12603721836E+04  0.50400001928E-02 0. -1.
    10030    2    1    2    0    0  0.00000000000E+00  0.00000000000E+00 -0.69784010318E+03  0.18229042641E+04  0.16840425013E+04 0.  0.
        4    1    3    3  502    0  0.58817950093E+03 -0.56525998641E+03 -0.57474722167E+03  0.99790278047E+03  0.12699999809E+01 0.  1.
       -4    1    3    3    0  502 -0.58817950093E+03  0.56525998641E+03 -0.12309288151E+03  0.82500148359E+03  0.12699999809E+01 0. -1.
</event>
<event>
 5   0  0.1311472E-04  0.2182271E+04  0.7818609E-02  0.8525844E-01
        2   -1    0    0  501    0  0.00000000000E+00  0.00000000000E+00  0.10691737053E+04  0.10691737053E+04  0.25500000920E-02 0. -1.
       -2   -1    0    0    0  501  0.00000000000E+00  0.00000000000E+00 -0.11135479958E+04  0.11135479958E+04  0.25500000920E-02 0.  1.
    10030    2    1    2    0    0  0.00000000000E+00  0.00000000000E+00 -0.44374290536E+02  0.21827217011E+04  0.21822705943E+04 0.  0.
        4    1    3    3  502    0 -0.24413173836E+03  0.21993746968E+03  0.10185094736E+04  0.10702036988E+04  0.12699999809E+01 0. -1.
       -4    1    3    3    0  502  0.24413173836E+03 -0.21993746968E+03 -0.10628837642E+04  0.11125180022E+04  0.12699999809E+01 0.  1.
</event>
<event>
 5   0  0.5849604E-05  0.2216060E+04  0.7818609E-02  0.8511773E-01
       -1   -1    0    0    0  501  0.00000000000E+00  0.00000000000E+00  0.10851751905E+04  0.10851751905E+04  0.50400001928E-02 0.  1.
        1   -1    0    0  501    0  0.00000000000E+00  0.00000000000E+00 -0.11313663689E+04  0.11313663689E+04  0.50400001928E-02 0. -1.
    10030    2    1    2    0    0  0.00000000000E+00  0.00000000000E+00 -0.46191178386E+02  0.22165415594E+04  0.22160602112E+04 0.  0.
        2    1    3    3  502    0  0.27359005358E+03  0.73402475974E+03  0.76071156115E+03  0.10919367860E+04  0.25500000920E-02 0.  1.
       -2    1    3    3    0  502 -0.27359005358E+03 -0.73402475974E+03 -0.80690273954E+03  0.11246047734E+04  0.25500000920E-02 0. -1.
</event>
<event>
 5   0  0.1241430E-04  0.2066693E+04  0.7818609E-02  0.8576059E-01
       -2   -1    0    0    0  501  0.00000000000E+00  0.00000000000E+00  0.79991023775E+03  0.79991023776E+03  0.25500000920E-02 0. -1.
        2   -1    0    0  501    0  0.00000000000E+00  0.00000000000E+00 -0.13349063533E+04  0.13349063533E+04  0.25500000920E-02 0.  1.
    10030    2    1    2    0    0  0.00000000000E+00  0.00000000000E+00 -0.53499611550E+03  0.21348165910E+04  0.20666932607E+04 0.  0.
        1    1    3    3  502    0  0.22221851959E+03 -0.29814094091E+03  0.72840643654E+03  0.81782946138E+03  0.50400001928E-02 0. -1.
       -1    1    3    3    0  502 -0.22221851959E+03  0.29814094091E+03 -0.12634025520E+04  0.13169871296E+04  0.50400001928E-02 0.  1.
</event>
<event>
 5   0  0.5861816E-05  0.2121846E+04  0.7818609E-02  0.8551680E-01
       -1   -1    0    0    0  501  0.00000000000E+00  0.00000000000E+00  0.12722055384E+04  0.12722055384E+04  0.50400001928E-02 0.  1.
        1   -1    0    0  501    0  0.00000000000E+00  0.00000000000E+00 -0.88472976503E+03  0.88472976504E+03  0.50400001928E-02 0. -1.
    10030    2    1    2    0    0  0.00000000000E+00  0.00000000000E+00  0.38747577333E+03  0.21569353034E+04  0.21218464667E+04 0.  0.
        1    1    3    3  502    0 -0.21691601372E+03 -0.40300362722E+03 -0.77921787387E+03  0.90368411270E+03  0.50400001928E-02 0. -1.
       -1    1    3    3    0  502  0.21691601372E+03  0.40300362722E+03  0.11666936472E+04  0.12532511907E+04  0.50400001928E-02 0.  1.
</event>
<event>
 5   0  0.5861816E-05  0.2200853E+04  0.7818609E-02  0.8518073E-01
       -1   -1    0    0    0  501  0.00000000000E+00  0.00000000000E+00  0.12570810779E+04  0.12570810780E+04  0.50400001928E-02 0.  1.
        1   -1    0    0  501    0  0.00000000000E+00  0.00000000000E+00 -0.96329347122E+03  0.96329347124E+03  0.50400001928E-02 0. -1.
    10030    2    1    2    0    0  0.00000000000E+00  0.00000000000E+00  0.29378760672E+03  0.22203745492E+04  0.22008525577E+04 0.  0.
        1    1    3    3  502    0 -0.10375030677E+04 -0.30010255095E+03  0.35962871581E+03  0.11383351746E+04  0.50400001928E-02 0.  1.
       -1    1    3    3    0  502  0.10375030677E+04  0.30010255095E+03 -0.65841109085E+02  0.10820393746E+04  0.50400001928E-02 0. -1.
</event>
<event>
 5   0  0.6263558E-05  0.2110235E+04  0.7818609E-02  0.8556748E-01
       -1   -1    0    0    0  501  0.00000000000E+00  0.00000000000E+00  0.45290098230E+03  0.45290098233E+03  0.50400001928E-02 0. -1.
        1   -1    0    0  501    0  0.00000000000E+00  0.00000000000E+00 -0.24580927268E+04  0.24580927268E+04  0.50400001928E-02 0.  1.
    10030    2    1    2    0    0  0.00000000000E+00  0.00000000000E+00 -0.20051917445E+04  0.29109937091E+04  0.21102346889E+04 0.  0.
        3    1    3    3  502    0 -0.39046644885E+03  0.79036896384E+03 -0.18023586910E+04  0.20064007595E+04  0.10100000352E+00 0.  1.
       -3    1    3    3    0  502  0.39046644885E+03 -0.79036896384E+03 -0.20283305351E+03  0.90459294960E+03  0.10100000352E+00 0. -1.
</event>
<event>
 5   0  0.1252124E-04  0.1689830E+04  0.7818609E-02  0.8767186E-01
       -2   -1    0    0    0  501  0.00000000000E+00  0.00000000000E+00  0.89423037575E+03  0.89423037575E+03  0.25500000920E-02 0.  1.
        2   -1    0    0  501    0  0.00000000000E+00  0.00000000000E+00 -0.79831883640E+03  0.79831883641E+03  0.25500000920E-02 0. -1.
    10030    2    1    2    0    0  0.00000000000E+00  0.00000000000E+00  0.95911539349E+02  0.16925492122E+04  0.16898295216E+04 0.  0.
        3    1    3    3  502    0  0.76582056731E+03  0.33598285818E+03 -0.72717679785E+02  0.83943641419E+03  0.10100000352E+00 0. -1.
       -3    1    3    3    0  502 -0.76582056731E+03 -0.33598285818E+03  0.16862921913E+03  0.85311279797E+03  0.10100000352E+00 0.  1.
</event>
<event>
 5   0  0.1226021E-04  0.2185800E+04  0.7818609E-02  0.8524362E-01
       -2   -1    0    0    0  501  0.00000000000E+00  0.00000000000E+00  0.60836364309E+03  0.60836364309E+03  0.25500000920E-02 0. -1.
        2   -1    0    0  501    0  0.00000000000E+00  0.00000000000E+00 -0.19633485566E+04  0.19633485566E+04  0.25500000920E-02 0.  1.
    10030    2    1    2    0    0  0.00000000000E+00  0.00000000000E+00 -0.13549849135E+04  0.25717121997E+04  0.21857995156E+04 0.  0.
        2    1    3    3  502    0  0.27883010355E+03 -0.24531882563E+03 -0.18868292574E+04  0.19230320328E+04  0.25500000920E-02 0.  1.
       -2    1    3    3    0  502 -0.27883010355E+03  0.24531882563E+03  0.53184434382E+03  0.64868016689E+03  0.25500000920E-02 0. -1.
</event>
<event>
 5   0  0.5849604E-05  0.2208281E+04  0.7818609E-02  0.8514989E-01
       -1   -1    0    0    0  501  0.00000000000E+00  0.00000000000E+00  0.61596525771E+03  0.61596525773E+03  0.50400001928E-02 0.  1.
        1   -1    0    0  501    0  0.00000000000E+00  0.00000000000E+00 -0.19792134940E+04  0.19792134940E+04  0.50400001928E-02 0. -1.
    10030    2    1    2    0    0  0.00000000000E+00  0.00000000000E+00 -0.13632482363E+04  0.25951787518E+04  0.22082814585E+04 0.  0.
        2    1    3    3  502    0  0.43655742332E+03 -0.60895228385E+03  0.27146577486E+03  0.79693094732E+03  0.25500000920E-02 0.  1.
       -2    1    3    3    0  502 -0.43655742332E+03  0.60895228385E+03 -0.16347140112E+04  0.17982478045E+04  0.25500000920E-02 0. -1.
</event>
<event>
 5   0  0.1311472E-04  0.2039066E+04  0.7818609E-02  0.8588571E-01
       -2   -1    0    0    0  501  0.00000000000E+00  0.00000000000E+00  0.39988410650E+03  0.39988410650E+03  0.25500000920E-02 0. -1.
        2   -1    0    0  501    0  0.00000000000E+00  0.00000000000E+00 -0.25993719264E+04  0.25993719264E+04  0.25500000920E-02 0.  1.
    10030    2    1    2    0    0  0.00000000000E+00  0.00000000000E+00 -0.21994878199E+04  0.29992560329E+04  0.20390659825E+04 0.  0.
        4    1    3    3  502    0 -0.73854576312E+03  0.66795263321E+03 -0.14214480927E+04  0.17355479992E+04  0.12699999809E+01 0. -1.
       -4    1    3    3    0  502  0.73854576312E+03 -0.66795263321E+03 -0.77803972725E+03  0.12637080337E+04  0.12699999809E+01 0.  1.
</event>
<event>
 5   0  0.1404159E-04  0.2239362E+04  0.7818609E-02  0.8502221E-01
        2   -1    0    0  501    0  0.00000000000E+00  0.00000000000E+00  0.16583694460E+04  0.16583694460E+04  0.25500000920E-02 0. -1.
       -2   -1    0    0    0  501  0.00000000000E+00  0.00000000000E+00 -0.75597481256E+03  0.75597481257E+03  0.25500000920E-02 0.  1.
    10030    2    1    2    0    0  0.00000000000E+00  0.00000000000E+00  0.90239463345E+03  0.24143442586E+04  0.22393619905E+04 0.  0.
        5    1    3    3  502    0  0.12504319475E+03  0.11352131783E+03 -0.74215271955E+03  0.76114101143E+03  0.46999998093E+01 0.  1.
       -5    1    3    3    0  502 -0.12504319475E+03 -0.11352131783E+03  0.16445473530E+04  0.16532032472E+04  0.46999998093E+01 0. -1.
</event>
<event>
 5   0  0.5981239E-05  0.2206396E+04  0.7818609E-02  0.8515771E-01
       -1   -1    0    0    0  501  0.00000000000E+00  0.00000000000E+00  0.11835477018E+04  0.11835477018E+04  0.50400001928E-02 0. -1.
        1   -1    0    0  501    0  0.00000000000E+00  0.00000000000E+00 -0.10283034557E+04  0.10283034557E+04  0.50400001928E-02 0.  1.
    10030    2    1    2    0    0  0.00000000000E+00  0.00000000000E+00  0.15524424604E+03  0.22118511575E+04  0.22063963304E+04 0.  0.
        4    1    3    3  502    0 -0.45766696531E+03 -0.57482581321E+03  0.90255436984E+03  0.11638254895E+04  0.12699999809E+01 0. -1.
       -4    1    3    3    0  502  0.45766696531E+03  0.57482581321E+03 -0.74731012380E+03  0.10480256680E+04  0.12699999809E+01 0.  1.
</event>
<event>
 5   0  0.1241430E-04  0.2174178E+04  0.7818609E-02  0.8529253E-01
       -2   -1    0    0    0  501  0.00000000000E+00  0.00000000000E+00  0.11591086088E+04  0.11591086088E+04  0.25500000920E-02 0.  1.
        2   -1    0    0  501    0  0.00000000000E+00  0.00000000000E+00 -0.10195446643E+04  0.10195446643E+04  0.25500000920E-02 0. -1.
    10030    2    1    2    0    0  0.00000000000E+00  0.00000000000E+00  0.13956394448E+03  0.21786532730E+04  0.21741784631E+04 0.  0.
        1    1    3    3  502    0 -0.10565760114E+04 -0.13569232136E+03  0.28701774323E+03  0.11032427018E+04  0.50400001928E-02 0.  1.
       -1    1    3    3    0  502  0.10565760114E+04  0.13569232136E+03 -0.14745379875E+03  0.10754105713E+04  0.50400001928E-02 0. -1.
</event>
<event>
 5   0  0.5861816E-05  0.2187846E+04  0.7818609E-02  0.8523504E-01
        1   -1    0    0  501    0  0.00000000000E+00  0.00000000000E+00  0.11112355653E+04  0.11112355653E+04  0.50400001928E-02 0. -1.
       -1   -1    0    0    0  501  0.00000000000E+00  0.00000000000E+00 -0.10768802204E+04  0.10768802204E+04  0.50400001928E-02 0.  1.
    10030    2    1    2    0    0  0.00000000000E+00  0.00000000000E+00  0.34355344955E+02  0.21881157857E+04  0.21878460645E+04 0.  0.
        1    1    3    3  502    0 -0.99516975463E+03 -0.17503170194E+03  0.43635780004E+03  0.11006393900E+04  0.50400001928E-02 0.  1.
       -1    1    3    3    0  502  0.99516975463E+03  0.17503170194E+03 -0.40200245509E+03  0.10874763957E+04  0.50400001928E-02 0. -1.
</event>
<event>
 5   0  0.1241430E-04  0.2148959E+04  0.7818609E-02  0.8539978E-01
       -2   -1    0    0    0  501  0.00000000000E+00  0.00000000000E+00  0.10040240073E+04  0.10040240073E+04  0.25500000920E-02 0.  1.
        2   -1    0    0  501    0  0.00000000000E+00  0.00000000000E+00 -0.11498788257E+04  0.11498788257E+04  0.25500000920E-02 0. -1.
    10030    2    1    2    0    0  0.00000000000E+00  0.00000000000E+00 -0.14585481839E+03  0.21539028329E+04  0.21489587678E+04 0.  0.
        1    1    3    3  502    0 -0.38673077745E+03 -0.84073525873E+03 -0.62017759284E+03  0.11140092981E+04  0.50400001928E-02 0. -1.
       -1    1    3    3    0  502  0.38673077745E+03  0.84073525873E+03  0.47432277444E+03  0.10398935349E+04  0.50400001928E-02 0.  1.
</event>
<event>
 5   0  0.5981239E-05  0.2155167E+04  0.7818609E-02  0.8537324E-01
        1   -1    0    0  501    0  0.00000000000E+00  0.00000000000E+00  0.17586518022E+04  0.17586518022E+04  0.50400001928E-02 0.  1.
       -1   -1    0    0    0  501  0.00000000000E+00  0.00000000000E+00 -0.66027089434E+03  0.66027089435E+03  0.50400001928E-02 0. -1.
    10030    2    1    2    0    0  0.00000000000E+00  0.00000000000E+00  0.10983809078E+04  0.24189226965E+04  0.21551673701E+04 0.  0.
        4    1    3    3  502    0 -0.28718171899E+03 -0.37765653364E+03  0.16351137175E+04  0.17025558080E+04  0.12699999809E+01 0.  1.
       -4    1    3    3    0  502  0.28718171899E+03  0.37765653364E+03 -0.53673280969E+03  0.71636688856E+03  0.12699999809E+01 0. -1.
</event>
<event>
 5   0  0.1226021E-04  0.2222239E+04  0.7818609E-02  0.8509228E-01
       -2   -1    0    0    0  501  0.00000000000E+00  0.00000000000E+00  0.77647378845E+03  0.77647378846E+03  0.25500000920E-02 0.  1.
        2   -1    0    0  501    0  0.00000000000E+00  0.00000000000E+00 -0.15899915337E+04  0.15899915337E+04  0.25500000920E-02 0. -1.
    10030    2    1    2    0    0  0.00000000000E+00  0.00000000000E+00 -0.81351774521E+03  0.23664653221E+04  0.22222391858E+04 0.  0.
        2    1    3    3  502    0  0.55142357696E+03  0.36269959119E+03 -0.13586208528E+04  0.15104534340E+04  0.25500000920E-02 0. -1.
       -2    1    3    3    0  502 -0.55142357696E+03 -0.36269959119E+03  0.54510310758E+03  0.85601188811E+03  0.25500000920E-02 0.  1.
</event>
<event>
 5   0  0.1226021E-04  0.2280482E+04  0.7818609E-02  0.8485657E-01
       -2   -1    0    0    0  501  0.00000000000E+00  0.00000000000E+00  0.85238710302E+03  0.85238710303E+03  0.25500000920E-02 0.  1.
        2   -1    0    0  501    0  0.00000000000E+00  0.00000000000E+00 -0.15253046966E+04  0.15253046966E+04  0.25500000920E-02 0. -1.
    10030    2    1    2    0    0  0.00000000000E+00  0.00000000000E+00 -0.67291759357E+03  0.23776917996E+04  0.22804824503E+04 0.  0.
        2    1    3    3  502    0  0.10561745104E+04 -0.17645676902E+03 -0.74496155036E+03  0.13044574732E+04  0.25500000920E-02 0. -1.
       -2    1    3    3    0  502 -0.10561745104E+04  0.17645676902E+03  0.72043956792E+02  0.10732343265E+04  0.25500000920E-02 0.  1.
</event>
<event>
 5   0  0.5981239E-05  0.2196729E+04  0.7818609E-02  0.8519791E-01
        1   -1    0    0  501    0  0.00000000000E+00  0.00000000000E+00  0.12189974200E+04  0.12189974200E+04  0.50400001928E-02 0.  1.
       -1   -1    0    0    0  501  0.00000000000E+00  0.00000000000E+00 -0.98966908709E+03  0.98966908710E+03  0.50400001928E-02 0. -1.
    10030    2    1    2    0    0  0.00000000000E+00  0.00000000000E+00  0.22932833293E+03  0.22086665071E+04  0.21967285348E+04 0.  0.
        4    1    3    3  502    0 -0.86696517636E+03 -0.14522254868E+03 -0.54746173440E+03  0.10355839750E+04  0.12699999809E+01 0. -1.
       -4    1    3    3    0  502  0.86696517636E+03  0.14522254868E+03  0.77679006733E+03  0.11730825322E+04  0.12699999809E+01 0.  1.
</event>
<event>
 5   0  0.5895063E-05  0.2244026E+04  0.7818609E-02  0.8500324E-01
       -1   -1    0    0    0  501  0.00000000000E+00  0.00000000000E+00  0.12308090375E+04  0.12308090375E+04  0.50400001928E-02 0. -1.
        1   -1    0    0  501    0  0.00000000000E+00  0.00000000000E+00 -0.10228335596E+04  0.10228335596E+04  0.50400001928E-02 0.  1.
    10030    2    1    2    0    0  0.00000000000E+00  0.00000000000E+00  0.20797547785E+03  0.22536425971E+04  0.22440256585E+04 0.  0.
        5    1    3    3  502    0 -0.10548672818E+04 -0.31521006260E+03  0.32122084509E+03  0.11468684698E+04  0.46999998093E+01 0.  1.
       -5    1    3    3    0  502  0.10548672818E+04  0.31521006260E+03 -0.11324536724E+03  0.11067741273E+04  0.46999998093E+01 0. -1.
</event>
<event>
 5   0  0.5849604E-05  0.2148898E+04  0.7818609E-02  0.8540004E-01
       -1   -1    0    0    0  501  0.00000000000E+00  0.00000000000E+00  0.60471775462E+03  0.60471775464E+03  0.50400001928E-02 0.  1.
        1   -1    0    0  501    0  0.00000000000E+00  0.00000000000E+00 -0.19090568896E+04  0.19090568896E+04  0.50400001928E-02 0. -1.
    10030    2    1    2    0    0  0.00000000000E+00  0.00000000000E+00 -0.13043391350E+04  0.25137746443E+04  0.21488979462E+04 0.  0.
        2    1    3    3  502    0  0.32172173748E+03  0.54845536437E+03 -0.16653330358E+04  0.17825942565E+04  0.25500000920E-02 0. -1.
       -2    1    3    3    0  502 -0.32172173748E+03 -0.54845536437E+03  0.36099390080E+03  0.73118038780E+03  0.25500000920E-02 0.  1.
</event>
<event>
 5   0  0.1252124E-04  0.2180896E+04  0.7818609E-02  0.8526422E-01
        2   -1    0    0  501    0  0.00000000000E+00  0.00000000000E+00  0.11860461325E+04  0.11860461325E+04  0.25500000920E-02 0. -1.
       -2   -1    0    0    0  501  0.00000000000E+00  0.00000000000E+00 -0.10025551135E+04  0.10025551135E+04  0.25500000920E-02 0.  1.
    10030    2    1    2    0    0  0.00000000000E+00  0.00000000000E+00  0.18349101904E+03  0.21886012461E+04  0.21808957931E+04 0.  0.
        3    1    3    3  502    0 -0.22293912241E+03 -0.47826497064E+03 -0.86589930589E+03  0.10140122547E+04  0.10100000352E+00 0.  1.
       -3    1    3    3    0  502  0.22293912241E+03  0.47826497064E+03  0.10493903249E+04  0.11745889914E+04  0.10100000352E+00 0. -1.
</event>
<event>
 5   0  0.5849604E-05  0.2186454E+04  0.7818609E-02  0.8524088E-01
       -1   -1    0    0    0  501  0.00000000000E+00  0.00000000000E+00  0.10996981235E+04  0.10996981235E+04  0.50400001928E-02 0.  1.
        1   -1    0    0  501    0  0.00000000000E+00  0.00000000000E+00 -0.10867937840E+04  0.10867937840E+04  0.50400001928E-02 0. -1.
    10030    2    1    2    0    0  0.00000000000E+00  0.00000000000E+00  0.12904339497E+02  0.21864919075E+04  0.21864538275E+04 0.  0.
        2    1    3    3  502    0 -0.13869553177E+03 -0.27414541950E+03 -0.10427338318E+04  0.10870538191E+04  0.25500000920E-02 0. -1.
       -2    1    3    3    0  502  0.13869553177E+03  0.27414541950E+03  0.10556381713E+04  0.10994380884E+04  0.25500000920E-02 0.  1.
</event>
<event>
 5   0  0.5861816E-05  0.2201033E+04  0.7818609E-02  0.8517998E-01
        1   -1    0    0  501    0  0.00000000000E+00  0.00000000000E+00  0.95409599684E+03  0.95409599686E+03  0.50400001928E-02 0. -1.
       -1   -1    0    0    0  501  0.00000000000E+00  0.00000000000E+00 -0.12694069054E+04  0.12694069054E+04  0.50400001928E-02 0.  1.
    10030    2    1    2    0    0  0.00000000000E+00  0.00000000000E+00 -0.31531090859E+03  0.22235029023E+04  0.22010325276E+04 0.  0.
        1    1    3    3  502    0  0.69562530471E+03 -0.84342488868E+03 -0.28494154746E+03  0.11298016609E+04  0.50400001928E-02 0. -1.
       -1    1    3    3    0  502 -0.69562530471E+03  0.84342488868E+03 -0.30369361135E+02  0.10937012414E+04  0.50400001928E-02 0.  1.
</event>
<event>
 5   0  0.1241430E-04  0.2222961E+04  0.7818609E-02  0.8508932E-01
       -2   -1    0    0    0  501  0.00000000000E+00  0.00000000000E+00  0.51399124650E+03  0.51399124651E+03  0.25500000920E-02 0. -1.
        2   -1    0    0  501    0  0.00000000000E+00  0.00000000000E+00 -0.24035215202E+04  0.24035215202E+04  0.25500000920E-02 0.  1.
    10030    2    1    2    0    0  0.00000000000E+00  0.00000000000E+00 -0.18895302737E+04  0.29175127667E+04  0.22229611082E+04 0.  0.
        1    1    3    3  502    0  0.66019080066E+03 -0.22942354038E+03  0.18949508674E+03  0.72415153254E+03  0.50400001928E-02 0. -1.
       -1    1    3    3    0  502 -0.66019080066E+03  0.22942354038E+03 -0.20790253604E+04  0.21933612341E+04  0.50400001928E-02 0.  1.
</event>
<event>
 5   0  0.5895063E-05  0.2199707E+04  0.7818609E-02  0.8518550E-01
       -1   -1    0    0    0  501  0.00000000000E+00  0.00000000000E+00  0.79558378022E+03  0.79558378023E+03  0.50400001928E-02 0.  1.
        1   -1    0    0  501    0  0.00000000000E+00  0.00000000000E+00 -0.15204909994E+04  0.15204909994E+04  0.50400001928E-02 0. -1.
    10030    2    1    2    0    0  0.00000000000E+00  0.00000000000E+00 -0.72490721913E+03  0.23160747796E+04  0.21997072324E+04 0.  0.
        5    1    3    3  502    0 -0.37870120681E+03  0.22446486370E+03  0.69876276481E+03  0.82588774695E+03  0.46999998093E+01 0.  1.
       -5    1    3    3    0  502  0.37870120681E+03 -0.22446486370E+03 -0.14236699839E+04  0.14901870326E+04  0.46999998093E+01 0. -1.
</event>
<event>
 5   0  0.5895063E-05  0.2120211E+04  0.7818609E-02  0.8552392E-01
        1   -1    0    0  501    0  0.00000000000E+00  0.00000000000E+00  0.18248376197E+04  0.18248376197E+04  0.50400001928E-02 0.  1.
       -1   -1    0    0    0  501  0.00000000000E+00  0.00000000000E+00 -0.61584840522E+03  0.61584840524E+03  0.50400001928E-02 0. -1.
    10030    2    1    2    0    0  0.00000000000E+00  0.00000000000E+00  0.12089892145E+04  0.24406860250E+04  0.21202106857E+04 0.  0.
        5    1    3    3  502    0  0.63210742444E+03 -0.15903083520E+03 -0.35790658105E+03  0.74361940086E+03  0.46999998093E+01 0. -1.
       -5    1    3    3    0  502 -0.63210742444E+03  0.15903083520E+03  0.15668957956E+04  0.16970666241E+04  0.46999998093E+01 0.  1.
</event>
<event>
 5   0  0.1226021E-04  0.2175824E+04  0.7818609E-02  0.8528558E-01
       -2   -1    0    0    0  501  0.00000000000E+00  0.00000000000E+00  0.88382807738E+03  0.88382807738E+03  0.25500000920E-02 0. -1.
        2   -1    0    0  501    0  0.00000000000E+00  0.00000000000E+00 -0.13391213499E+04  0.13391213499E+04  0.25500000920E-02 0.  1.
    10030    2    1    2    0    0  0.00000000000E+00  0.00000000000E+00 -0.45529327255E+03  0.22229494273E+04  0.21758244857E+04 0.  0.
        2    1    3    3  502    0  0.52478251010E+03 -0.40927115060E+03  0.65160515072E+03  0.93139080416E+03  0.25500000920E-02 0. -1.
       -2    1    3    3    0  502 -0.52478251010E+03  0.40927115060E+03 -0.11068984233E+04  0.12915586232E+04  0.25500000920E-02 0.  1.
</event>
<event>
 5   0  0.1226021E-04  0.2179888E+04  0.7818609E-02  0.8526846E-01
       -2   -1    0    0    0  501  0.00000000000E+00  0.00000000000E+00  0.11733924552E+04  0.11733924552E+04  0.25500000920E-02 0.  1.
        2   -1    0    0  501    0  0.00000000000E+00  0.00000000000E+00 -0.10124305274E+04  0.10124305274E+04  0.25500000920E-02 0. -1.
    10030    2    1    2    0    0  0.00000000000E+00  0.00000000000E+00  0.16096192774E+03  0.21858229826E+04  0.21798883845E+04 0.  0.
        2    1    3    3  502    0  0.66730010063E+02 -0.66009736348E+03  0.94758771264E+03  0.11567644085E+04  0.25500000920E-02 0.  1.
       -2    1    3    3    0  502 -0.66730010063E+02  0.66009736348E+03 -0.78662578490E+03  0.10290585741E+04  0.25500000920E-02 0. -1.
</event>
<event>
 5   0  0.6263558E-05  0.2169461E+04  0.7818609E-02  0.8531248E-01
       -1   -1    0    0    0  501  0.00000000000E+00  0.00000000000E+00  0.15639720639E+04  0.15639720639E+04  0.50400001928E-02 0.  1.
        1   -1    0    0  501    0  0.00000000000E+00  0.00000000000E+00 -0.75234089996E+03  0.75234089998E+03  0.50400001928E-02 0. -1.
    10030    2    1    2    0    0  0.00000000000E+00  0.00000000000E+00  0.81163116391E+03  0.23163129639E+04  0.21694609008E+04 0.  0.
        3    1    3    3  502    0 -0.86733548848E+03 -0.63713658467E+03  0.55074750029E+03  0.12089403196E+04  0.10100000352E+00 0. -1.
       -3    1    3    3    0  502  0.86733548848E+03  0.63713658467E+03  0.26088366361E+03  0.11073726443E+04  0.10100000352E+00 0.  1.
</event>
<event>
 5   0  0.1404159E-04  0.2208677E+04  0.7818609E-02  0.8514825E-01
       -2   -1    0    0    0  501  0.00000000000E+00  0.00000000000E+00  0.11618527871E+04  0.11618527871E+04  0.25500000920E-02 0.  1.
        2   -1    0    0  501    0  0.00000000000E+00  0.00000000000E+00 -0.10496716415E+04  0.10496716415E+04  0.25500000920E-02 0. -1.
    10030    2    1    2    0    0  0.00000000000E+00  0.00000000000E+00  0.11218114554E+03  0.22115244286E+04  0.22086773619E+04 0.  0.
        5    1    3    3  502    0 -0.30712688867E+03  0.80890031215E+03  0.74319316810E+03  0.11406159809E+04  0.46999998093E+01 0.  1.
       -5    1    3    3    0  502  0.30712688867E+03 -0.80890031215E+03 -0.63101202256E+03  0.10709084477E+04  0.46999998093E+01 0. -1.
</event>
<event>
 5   0  0.5981239E-05  0.2113088E+04  0.7818609E-02  0.8555500E-01
       -1   -1    0    0    0  501  0.00000000000E+00  0.00000000000E+00  0.11259915478E+04  0.11259915478E+04  0.50400001928E-02 0. -1.
        1   -1    0    0  501    0  0.00000000000E+00  0.00000000000E+00 -0.99137975457E+03  0.99137975458E+03  0.50400001928E-02 0.  1.
    10030    2    1    2    0    0  0.00000000000E+00  0.00000000000E+00  0.13461179322E+03  0.21173713024E+04  0.21130880004E+04 0.  0.
        4    1    3    3  502    0  0.19972156665E+03  0.60245782152E+03 -0.77905971273E+03  0.10048779925E+04  0.12699999809E+01 0.  1.
       -4    1    3    3    0  502 -0.19972156665E+03 -0.60245782152E+03  0.91367150595E+03  0.11124933099E+04  0.12699999809E+01 0. -1.
</event>
<event>
 5   0  0.1226021E-04  0.2226104E+04  0.7818609E-02  0.8507641E-01
       -2   -1    0    0    0  501  0.00000000000E+00  0.00000000000E+00  0.11949962008E+04  0.11949962008E+04  0.25500000920E-02 0. -1.
        2   -1    0    0  501    0  0.00000000000E+00  0.00000000000E+00 -0.10367270896E+04  0.10367270896E+04  0.25500000920E-02 0.  1.
    10030    2    1    2    0    0  0.00000000000E+00  0.00000000000E+00  0.15826911115E+03  0.22317232904E+04  0.22261041605E+04 0.  0.
        2    1    3    3  502    0 -0.27559205537E+02 -0.57249158025E+03  0.10356807224E+04  0.11836978829E+04  0.25500000920E-02 0. -1.
       -2    1    3    3    0  502  0.27559205537E+02  0.57249158025E+03 -0.87741161120E+03  0.10480254075E+04  0.25500000920E-02 0.  1.
</event>
<event>
 5   0  0.6263558E-05  0.2185559E+04  0.7818609E-02  0.8524463E-01
       -1   -1    0    0    0  501  0.00000000000E+00  0.00000000000E+00  0.10523022957E+04  0.10523022957E+04  0.50400001928E-02 0.  1.
        1   -1    0    0  501    0  0.00000000000E+00  0.00000000000E+00 -0.11348136303E+04  0.11348136303E+04  0.50400001928E-02 0. -1.
    10030    2    1    2    0    0  0.00000000000E+00  0.00000000000E+00 -0.82511334594E+02  0.21871159259E+04  0.21855589567E+04 0.  0.
        3    1    3    3  502    0  0.22093584429E+03  0.87808065404E+03 -0.65351559694E+03  0.11166561368E+04  0.10100000352E+00 0. -1.
       -3    1    3    3    0  502 -0.22093584429E+03 -0.87808065404E+03  0.57100426235E+03  0.10704597891E+04  0.10100000352E+00 0.  1.
</event>
<event>
 5   0  0.5895063E-05  0.2202137E+04  0.7818609E-02  0.8517539E-01
       -1   -1    0    0    0  501  0.00000000000E+00  0.00000000000E+00  0.80892162076E+03  0.80892162077E+03  0.50400001928E-02 0. -1.
        1   -1    0    0  501    0  0.00000000000E+00  0.00000000000E+00 -0.14987261341E+04  0.14987261341E+04  0.50400001928E-02 0.  1.
    10030    2    1    2    0    0  0.00000000000E+00  0.00000000000E+00 -0.68980451334E+03  0.23076477549E+04  0.22021371197E+04 0.  0.
        5    1    3    3  502    0  0.14806815705E+03  0.10277280873E+04 -0.72875987037E+03  0.12685670023E+04  0.46999998093E+01 0.  1.
       -5    1    3    3    0  502 -0.14806815705E+03 -0.10277280873E+04  0.38955357026E+02  0.10390807526E+04  0.46999998093E+01 0. -1.
</event>
<event>
 5   0  0.5849604E-05  0.2134506E+04  0.7818609E-02  0.8546194E-01
        1   -1    0    0  501    0  0.00000000000E+00  0.00000000000E+00  0.23137851404E+04  0.23137851404E+04  0.50400001928E-02 0.  1.
       -1   -1    0    0    0  501  0.00000000000E+00  0.00000000000E+00 -0.49227944295E+03  0.49227944298E+03  0.50400001928E-02 0. -1.
    10030    2    1    2    0    0  0.00000000000E+00  0.00000000000E+00  0.18215056975E+04  0.28060645834E+04  0.21345059007E+04 0.  0.
        2    1    3    3  502    0  0.58407907053E+03 -0.49589133370E+02  0.20832152994E+04  0.21641149292E+04  0.25500000920E-02 0.  1.
       -2    1    3    3    0  502 -0.58407907053E+03  0.49589133370E+02 -0.26170960199E+03  0.64194965423E+03  0.25500000920E-02 0. -1.
</event>
<event>
 5   0  0.5895063E-05  0.2226637E+04  0.7818609E-02  0.8507422E-01
        1   -1    0    0  501    0  0.00000000000E+00  0.00000000000E+00  0.92238321368E+03  0.92238321369E+03  0.50400001928E-02 0. -1.
       -1   -1    0    0    0  501  0.00000000000E+00  0.00000000000E+00 -0.13437782232E+04  0.13437782232E+04  0.50400001928E-02 0.  1.
    10030    2    1    2    0    0  0.00000000000E+00  0.00000000000E+00 -0.42139500955E+03  0.22661614369E+04  0.22266373535E+04 0.  0.
        5    1    3    3  502    0 -0.83902557038E+03  0.69816892803E+03 -0.43379768372E+03  0.11745664222E+04  0.46999998093E+01 0. -1.
       -5    1    3    3    0  502  0.83902557038E+03 -0.69816892803E+03  0.12402674169E+02  0.10915950147E+04  0.46999998093E+01 0.  1.
</event>
<event>
 5   0  0.1226021E-04  0.2222343E+04  0.7818609E-02  0.8509186E-01
       -2   -1    0    0    0  501  0.00000000000E+00  0.00000000000E+00  0.12416660084E+04  0.12416660084E+04  0.25500000920E-02 0.  1.
        2   -1    0    0  501    0  0.00000000000E+00  0.00000000000E+00 -0.99439120430E+03  0.99439120430E+03  0.25500000920E-02 0. -1.
    10030    2    1    2    0    0  0.00000000000E+00  0.00000000000E+00  0.24727480405E+03  0.22360572127E+04  0.22223426895E+04 0.  0.
        2    1    3    3  502    0 -0.20558579853E+03 -0.21728697776E+03  0.12003922571E+04  0.12371017429E+04  0.25500000920E-02 0.  1.
       -2    1    3    3    0  502  0.20558579853E+03  0.21728697776E+03 -0.95311745307E+03  0.99895546978E+03  0.25500000920E-02 0. -1.
</event>
<event>
 5   0  0.1226021E-04  0.2146688E+04  0.7818609E-02  0.8540951E-01
        2   -1    0    0  501    0  0.00000000000E+00  0.00000000000E+00  0.10226360921E+04  0.10226360921E+04  0.25500000920E-02 0. -1.
       -2   -1    0    0    0  501  0.00000000000E+00  0.00000000000E+00 -0.11265667773E+04  0.11265667773E+04  0.25500000920E-02 0.  1.
    10030    2    1    2    0    0  0.00000000000E+00  0.00000000000E+00 -0.10393068520E+03  0.21492028694E+04  0.21466884699E+04 0.  0.
        2    1    3    3  502    0  0.98025672976E+03 -0.12398757002E+03  0.36780092680E+03  0.10543024687E+04  0.25500000920E-02 0. -1.
       -2    1    3    3    0  502 -0.98025672976E+03  0.12398757002E+03 -0.47173161200E+03  0.10949004007E+04  0.25500000920E-02 0.  1.
</event>
<event>
 5   0  0.5981239E-05  0.1840979E+04  0.7818609E-02  0.8684806E-01
       -1   -1    0    0    0  501  0.00000000000E+00  0.00000000000E+00  0.37240286161E+03  0.37240286164E+03  0.50400001928E-02 0. -1.
        1   -1    0    0  501    0  0.00000000000E+00  0.00000000000E+00 -0.22752274029E+04  0.22752274029E+04  0.50400001928E-02 0.  1.
    10030    2    1    2    0    0  0.00000000000E+00  0.00000000000E+00 -0.19028245412E+04  0.26476302645E+04  0.18409792999E+04 0.  0.
        4    1    3    3  502    0  0.58917593234E+03  0.66629541911E+03 -0.12924170671E+04  0.15688917595E+04  0.12699999809E+01 0.  1.
       -4    1    3    3    0  502 -0.58917593234E+03 -0.66629541911E+03 -0.61040747413E+03  0.10787385050E+04  0.12699999809E+01 0. -1.
</event>
<event>
 5   0  0.1311472E-04  0.2208781E+04  0.7818609E-02  0.8514782E-01
        2   -1    0    0  501    0  0.00000000000E+00  0.00000000000E+00  0.55420369929E+03  0.55420369930E+03  0.25500000920E-02 0.  1.
       -2   -1    0    0    0  501  0.00000000000E+00  0.00000000000E+00 -0.22007760564E+04  0.22007760564E+04  0.25500000920E-02 0. -1.
    10030    2    1    2    0    0  0.00000000000E+00  0.00000000000E+00 -0.16465723572E+04  0.27549797557E+04  0.22087808690E+04 0.  0.
        4    1    3    3  502    0  0.67367083436E+02  0.90783648792E+03 -0.16031848255E+04  0.18436129232E+04  0.12699999809E+01 0. -1.
       -4    1    3    3    0  502 -0.67367083436E+02 -0.90783648792E+03 -0.43387531630E+02  0.91136683259E+03  0.12699999809E+01 0.  1.
</event>
<event>
 5   0  0.4586375E-05  0.1474823E+04  0.7818609E-02  0.8901370E-01
       -3   -1    0    0    0  501  0.00000000000E+00  0.00000000000E+00  0.31563953870E+03  0.31563955486E+03  0.10100000352E+00 0.  1.
        3   -1    0    0  501    0  0.00000000000E+00  0.00000000000E+00 -0.17227733676E+04  0.17227733705E+04  0.10100000352E+00 0. -1.
    10030    2    1    2    0    0  0.00000000000E+00  0.00000000000E+00 -0.14071338289E+04  0.20384129254E+04  0.14748225798E+04 0.  0.
        4    1    3    3  502    0  0.19145829088E+03 -0.70618037643E+03 -0.83044412940E+03  0.11067908864E+04  0.12699999809E+01 0. -1.
       -4    1    3    3    0  502 -0.19145829088E+03  0.70618037643E+03 -0.57668969945E+03  0.93162203900E+03  0.12699999809E+01 0.  1.
</event>
<event>
 5   0  0.5895063E-05  0.2106321E+04  0.7818609E-02  0.8558464E-01
        1   -1    0    0  501    0  0.00000000000E+00  0.00000000000E+00  0.16168855671E+04  0.16168855671E+04  0.50400001928E-02 0.  1.
       -1   -1    0    0    0  501  0.00000000000E+00  0.00000000000E+00 -0.68597746127E+03  0.68597746129E+03  0.50400001928E-02 0. -1.
    10030    2    1    2    0    0  0.00000000000E+00  0.00000000000E+00  0.93090810582E+03  0.23028630284E+04  0.21063210168E+04 0.  0.
        5    1    3    3  502    0 -0.78305511978E+03 -0.37647265158E+03  0.11161511249E+04  0.14144689468E+04  0.46999998093E+01 0.  1.
       -5    1    3    3    0  502  0.78305511978E+03  0.37647265158E+03 -0.18524301907E+03  0.88839408154E+03  0.46999998093E+01 0. -1.
</event>
<event>
 5   0  0.6263558E-05  0.2229771E+04  0.7818609E-02  0.8506138E-01
       -1   -1    0    0    0  501  0.00000000000E+00  0.00000000000E+00  0.93599287818E+03  0.93599287820E+03  0.50400001928E-02 0.  1.
        1   -1    0    0  501    0  0.00000000000E+00  0.00000000000E+00 -0.13279686844E+04  0.13279686844E+04  0.50400001928E-02 0. -1.
    10030    2    1    2    0    0  0.00000000000E+00  0.00000000000E+00 -0.39197580619E+03  0.22639615626E+04  0.22297705990E+04 0.  0.
        3    1    3    3  502    0  0.69948660832E+03 -0.63637920479E+03  0.40358303719E+03  0.10281727898E+04  0.10100000352E+00 0.  1.
       -3    1    3    3    0  502 -0.69948660832E+03  0.63637920479E+03 -0.79555884337E+03  0.12357887728E+04  0.10100000352E+00 0. -1.
</event>
<event>
 5   0  0.1226021E-04  0.2208872E+04  0.7818609E-02  0.8514744E-01
        2   -1    0    0  501    0  0.00000000000E+00  0.00000000000E+00  0.86787008221E+03  0.86787008221E+03  0.25500000920E-02 0.  1.
       -2   -1    0    0    0  501  0.00000000000E+00  0.00000000000E+00 -0.14054854765E+04  0.14054854765E+04  0.25500000920E-02 0. -1.
    10030    2    1    2    0    0  0.00000000000E+00  0.00000000000E+00 -0.53761539432E+03  0.22733555587E+04  0.22088719257E+04 0.  0.
        2    1    3    3  502    0  0.52831149190E+03  0.78083284799E+03  0.32328323171E+03  0.99665692035E+03  0.25500000920E-02 0.  1.
       -2    1    3    3    0  502 -0.52831149190E+03 -0.78083284799E+03 -0.86089862602E+03  0.12766986384E+04  0.25500000920E-02 0. -1.
</event>
<event>
 5   0  0.5861816E-05  0.2231069E+04  0.7818609E-02  0.8505607E-01
       -1   -1    0    0    0  501  0.00000000000E+00  0.00000000000E+00  0.20784664031E+04  0.20784664031E+04  0.50400001928E-02 0. -1.
        1   -1    0    0  501    0  0.00000000000E+00  0.00000000000E+00 -0.59871877445E+03  0.59871877447E+03  0.50400001928E-02 0.  1.
    10030    2    1    2    0    0  0.00000000000E+00  0.00000000000E+00  0.14797476287E+04  0.26771851776E+04  0.22310686746E+04 0.  0.
        1    1    3    3  502    0 -0.15115818199E+03 -0.80186502221E+03  0.16526144532E+04  0.18430873123E+04  0.50400001928E-02 0. -1.
       -1    1    3    3    0  502  0.15115818199E+03  0.80186502221E+03 -0.17286682453E+03  0.83409786529E+03  0.50400001928E-02 0.  1.
</event>
<event>
 5   0  0.1226021E-04  0.2212847E+04  0.7818609E-02  0.8513100E-01
        2   -1    0    0  501    0  0.00000000000E+00  0.00000000000E+00  0.12343285876E+04  0.12343285876E+04  0.25500000920E-02 0. -1.
       -2   -1    0    0    0  501  0.00000000000E+00  0.00000000000E+00 -0.99177259045E+03  0.99177259045E+03  0.25500000920E-02 0.  1.
    10030    2    1    2    0    0  0.00000000000E+00  0.00000000000E+00  0.24255599711E+03  0.22261011780E+04  0.22128472706E+04 0.  0.
        2    1    3    3  502    0 -0.70911043024E+01  0.10174433042E+04 -0.31598863075E+03  0.10654060146E+04  0.25500000920E-02 0. -1.
       -2    1    3    3    0  502  0.70911043024E+01 -0.10174433042E+04  0.55854462787E+03  0.11606951634E+04  0.25500000920E-02 0.  1.
</event>
<event>
 5   0  0.1226021E-04  0.2080490E+04  0.7818609E-02  0.8569887E-01
        2   -1    0    0  501    0  0.00000000000E+00  0.00000000000E+00  0.10062798466E+04  0.10062798466E+04  0.25500000920E-02 0.  1.
       -2   -1    0    0    0  501  0.00000000000E+00  0.00000000000E+00 -0.10753564996E+04  0.10753564997E+04  0.25500000920E-02 0. -1.
    10030    2    1    2    0    0  0.00000000000E+00  0.00000000000E+00 -0.69076653099E+02  0.20816363462E+04  0.20804899168E+04 0.  0.
        2    1    3    3  502    0  0.18294727373E+03  0.91802049717E+03 -0.48852642257E+03  0.10558832340E+04  0.25500000920E-02 0. -1.
       -2    1    3    3    0  502 -0.18294727373E+03 -0.91802049717E+03  0.41944976947E+03  0.10257531123E+04  0.25500000920E-02 0.  1.
</event>
<event>
 5   0  0.6263558E-05  0.2188933E+04  0.7818609E-02  0.8523049E-01
        1   -1    0    0  501    0  0.00000000000E+00  0.00000000000E+00  0.10692764022E+04  0.10692764022E+04  0.50400001928E-02 0. -1.
       -1   -1    0    0    0  501  0.00000000000E+00  0.00000000000E+00 -0.11202497859E+04  0.11202497859E+04  0.50400001928E-02 0.  1.
    10030    2    1    2    0    0  0.00000000000E+00  0.00000000000E+00 -0.50973383765E+02  0.21895261881E+04  0.21889327634E+04 0.  0.
        3    1    3    3  502    0 -0.16458564883E+03  0.56245817398E+03 -0.95007976156E+03  0.11162881334E+04  0.10100000352E+00 0.  1.
       -3    1    3    3    0  502  0.16458564883E+03 -0.56245817398E+03  0.89910637780E+03  0.10732380547E+04  0.10100000352E+00 0. -1.
</event>
<event>
 5   0  0.5861816E-05  0.2193819E+04  0.7818609E-02  0.8521005E-01
        1   -1    0    0  501    0  0.00000000000E+00  0.00000000000E+00  0.16529522919E+04  0.16529522919E+04  0.50400001928E-02 0.  1.
       -1   -1    0    0    0  501  0.00000000000E+00  0.00000000000E+00 -0.72791626237E+03  0.72791626239E+03  0.50400001928E-02 0. -1.
    10030    2    1    2    0    0  0.00000000000E+00  0.00000000000E+00  0.92503602951E+03  0.23808685543E+04  0.21938193674E+04 0.  0.
        1    1    3    3  502    0 -0.84085154334E+02 -0.10147450787E+04  0.19772439369E+02  0.10184148650E+04  0.50400001928E-02 0. -1.
       -1    1    3    3    0  502  0.84085154334E+02  0.10147450787E+04  0.90526359014E+03  0.13624536893E+04  0.50400001928E-02 0.  1.
</event>
<event>
 5   0  0.6263558E-05  0.2192721E+04  0.7818609E-02  0.8521464E-01
        1   -1    0    0  501    0  0.00000000000E+00  0.00000000000E+00  0.15073183685E+04  0.15073183685E+04  0.50400001928E-02 0. -1.
       -1   -1    0    0    0  501  0.00000000000E+00  0.00000000000E+00 -0.79744665823E+03  0.79744665824E+03  0.50400001928E-02 0.  1.
    10030    2    1    2    0    0  0.00000000000E+00  0.00000000000E+00  0.70987171024E+03  0.23047650267E+04  0.21927206807E+04 0.  0.
        3    1    3    3  502    0 -0.67323754832E+03  0.41672135822E+03  0.11520402702E+04  0.13978920850E+04  0.10100000352E+00 0. -1.
       -3    1    3    3    0  502  0.67323754832E+03 -0.41672135822E+03 -0.44216855996E+03  0.90687294175E+03  0.10100000352E+00 0.  1.
</event>
<event>
 5   0  0.4586375E-05  0.2237448E+04  0.7818609E-02  0.8503001E-01
       -3   -1    0    0    0  501  0.00000000000E+00  0.00000000000E+00  0.18277104083E+04  0.18277104111E+04  0.10100000352E+00 0. -1.
        3   -1    0    0  501    0  0.00000000000E+00  0.00000000000E+00 -0.68476050098E+03  0.68476050843E+03  0.10100000352E+00 0.  1.
    10030    2    1    2    0    0  0.00000000000E+00  0.00000000000E+00  0.11429499073E+04  0.25124709195E+04  0.22374484644E+04 0.  0.
        2    1    3    3  502    0 -0.64687201827E+01  0.10693060980E+04  0.20229866937E+03  0.10882932175E+04  0.25500000920E-02 0.  1.
       -2    1    3    3    0  502  0.64687201827E+01 -0.10693060980E+04  0.94065123792E+03  0.14241777020E+04  0.25500000920E-02 0. -1.
</event>
<event>
 5   0  0.5981239E-05  0.2204380E+04  0.7818609E-02  0.8516607E-01
       -1   -1    0    0    0  501  0.00000000000E+00  0.00000000000E+00  0.69589294814E+03  0.69589294816E+03  0.50400001928E-02 0. -1.
        1   -1    0    0  501    0  0.00000000000E+00  0.00000000000E+00 -0.17457034704E+04  0.17457034704E+04  0.50400001928E-02 0.  1.
    10030    2    1    2    0    0  0.00000000000E+00  0.00000000000E+00 -0.10498105223E+04  0.24415964186E+04  0.22043799442E+04 0.  0.
        4    1    3    3  502    0 -0.43788984399E+03 -0.10020493214E+04 -0.37234907068E+03  0.11552037921E+04  0.12699999809E+01 0. -1.
       -4    1    3    3    0  502  0.43788984399E+03  0.10020493214E+04 -0.67746145160E+03  0.12863926264E+04  0.12699999809E+01 0.  1.
</event>
<event>
 5   0  0.5981239E-05  0.2199360E+04  0.7818609E-02  0.8518694E-01
       -1   -1    0    0    0  501  0.00000000000E+00  0.00000000000E+00  0.97301966810E+03  0.97301966811E+03  0.50400001928E-02 0.  1.
        1   -1    0    0  501    0  0.00000000000E+00  0.00000000000E+00 -0.12428284726E+04  0.12428284726E+04  0.50400001928E-02 0. -1.
    10030    2    1    2    0    0  0.00000000000E+00  0.00000000000E+00 -0.26980880447E+03  0.22158481407E+04  0.21993604051E+04 0.  0.
        4    1    3    3  502    0  0.55788566792E+03 -0.69383894293E+03  0.51541576063E+03  0.10287389933E+04  0.12699999809E+01 0.  1.
       -4    1    3    3    0  502 -0.55788566792E+03  0.69383894293E+03 -0.78522456510E+03  0.11871091474E+04  0.12699999809E+01 0. -1.
</event>
<event>
 5   0  0.1241430E-04  0.2188116E+04  0.7818609E-02  0.8523391E-01
       -2   -1    0    0    0  501  0.00000000000E+00  0.00000000000E+00  0.82545573143E+03  0.82545573143E+03  0.25500000920E-02 0.  1.
        2   -1    0    0  501    0  0.00000000000E+00  0.00000000000E+00 -0.14500632789E+04  0.14500632789E+04  0.25500000920E-02 0. -1.
    10030    2    1    2    0    0  0.00000000000E+00  0.00000000000E+00 -0.62460754751E+03  0.22755190104E+04  0.21881161254E+04 0.  0.
        1    1    3    3  502    0  0.10735777004E+04 -0.14462844235E+03 -0.15296278419E+03  0.10940219736E+04  0.50400001928E-02 0. -1.
       -1    1    3    3    0  502 -0.10735777004E+04  0.14462844235E+03 -0.47164476332E+03  0.11814970368E+04  0.50400001928E-02 0.  1.
</event>
<event>
 5   0  0.1252124E-04  0.2129483E+04  0.7818609E-02  0.8548366E-01
       -2   -1    0    0    0  501  0.00000000000E+00  0.00000000000E+00  0.15501950344E+04  0.15501950344E+04  0.25500000920E-02 0.  1.
        2   -1    0    0  501    0  0.00000000000E+00  0.00000000000E+00 -0.73131072688E+03  0.73131072688E+03  0.25500000920E-02 0. -1.
    10030    2    1    2    0    0  0.00000000000E+00  0.00000000000E+00  0.81888430751E+03  0.22815057613E+04  0.21294828080E+04 0.  0.
        3    1    3    3  502    0 -0.39613250143E+02  0.87308326981E+02  0.15455609428E+04  0.15485317535E+04  0.10100000352E+00 0.  1.
       -3    1    3    3    0  502  0.39613250143E+02 -0.87308326981E+02 -0.72667663530E+03  0.73297400775E+03  0.10100000352E+00 0. -1.
</event>
<event>
 5   0  0.5895063E-05  0.2218340E+04  0.7818609E-02  0.8510833E-01
        1   -1    0    0  501    0  0.00000000000E+00  0.00000000000E+00  0.14327029013E+04  0.14327029013E+04  0.50400001928E-02 0.  1.
       -1   -1    0    0    0  501  0.00000000000E+00  0.00000000000E+00 -0.85869690938E+03  0.85869690939E+03  0.50400001928E-02 0. -1.
    10030    2    1    2    0    0  0.00000000000E+00  0.00000000000E+00  0.57400599192E+03  0.22913998107E+04  0.22183395172E+04 0.  0.
        5    1    3    3  502    0  0.10316115376E+04  0.14219819156E+03 -0.10740059056E+03  0.10469000273E+04  0.46999998093E+01 0.  1.
       -5    1    3    3    0  502 -0.10316115376E+04 -0.14219819156E+03  0.68140658248E+03  0.12444997834E+04  0.46999998093E+01 0. -1.
</event>
<event>
 5   0  0.1226021E-04  0.1645632E+04  0.7818609E-02  0.8792995E-01
        2   -1    0    0  501    0  0.00000000000E+00  0.00000000000E+00  0.38489492007E+03  0.38489492007E+03  0.25500000920E-02 0.  1.
       -2   -1    0    0    0  501  0.00000000000E+00  0.00000000000E+00 -0.17589893425E+04  0.17589893425E+04  0.25500000920E-02 0. -1.
    10030    2    1    2    0    0  0.00000000000E+00  0.00000000000E+00 -0.13740944224E+04  0.21438842626E+04  0.16456318694E+04 0.  0.
        2    1    3    3  502    0  0.90791853300E+02 -0.17168692072E+03  0.35460612224E+03  0.40430812669E+03  0.25500000920E-02 0.  1.
       -2    1    3    3    0  502 -0.90791853300E+02  0.17168692072E+03 -0.17287005447E+04  0.17395761359E+04  0.25500000920E-02 0. -1.
</event>
<event>
 5   0  0.1311472E-04  0.2182516E+04  0.7818609E-02  0.8525741E-01
       -2   -1    0    0    0  501  0.00000000000E+00  0.00000000000E+00  0.10493331374E+04  0.10493331374E+04  0.25500000920E-02 0.  1.
        2   -1    0    0  501    0  0.00000000000E+00  0.00000000000E+00 -0.11348575068E+04  0.11348575068E+04  0.25500000920E-02 0. -1.
    10030    2    1    2    0    0  0.00000000000E+00  0.00000000000E+00 -0.85524369441E+02  0.21841906442E+04  0.21825156019E+04 0.  0.
        4    1    3    3  502    0 -0.98213807333E+03  0.39453322548E+03  0.22313010426E+03  0.10816840192E+04  0.12699999809E+01 0.  1.
       -4    1    3    3    0  502  0.98213807333E+03 -0.39453322548E+03 -0.30865447370E+03  0.11025066250E+04  0.12699999809E+01 0. -1.
</event>
<event>
 5   0  0.5981239E-05  0.2220436E+04  0.7818609E-02  0.8509970E-01
        1   -1    0    0  501    0  0.00000000000E+00  0.00000000000E+00  0.57454245124E+03  0.57454245126E+03  0.50400001928E-02 0.  1.
       -1   -1    0    0    0  501  0.00000000000E+00  0.00000000000E+00 -0.21453320934E+04  0.21453320934E+04  0.50400001928E-02 0. -1.
    10030    2    1    2    0    0  0.00000000000E+00  0.00000000000E+00 -0.15707896422E+04  0.27198745447E+04  0.22204363172E+04 0.  0.
        4    1    3    3  502    0  0.35869357940E+03 -0.29506045318E+03 -0.20206063720E+04  0.20733001419E+04  0.12699999809E+01 0. -1.
       -4    1    3    3    0  502 -0.35869357940E+03  0.29506045318E+03  0.44981672986E+03  0.64657440275E+03  0.12699999809E+01 0.  1.
</event>
<event>
 5   0  0.1404159E-04  0.2217195E+04  0.7818609E-02  0.8511305E-01
        2   -1    0    0  501    0  0.00000000000E+00  0.00000000000E+00  0.20227236439E+04  0.20227236439E+04  0.25500000920E-02 0. -1.
       -2   -1    0    0    0  501  0.00000000000E+00  0.00000000000E+00 -0.60759102727E+03  0.60759102728E+03  0.25500000920E-02 0.  1.
    10030    2    1    2    0    0  0.00000000000E+00  0.00000000000E+00  0.14151326166E+04  0.26303146712E+04  0.22171952884E+04 0.  0.
        5    1    3    3  502    0 -0.80509625544E+02 -0.51720977800E+03 -0.45174653355E+03  0.69143674681E+03  0.46999998093E+01 0.  1.
       -5    1    3    3    0  502  0.80509625544E+02  0.51720977800E+03  0.18668791502E+04  0.19388779244E+04  0.46999998093E+01 0. -1.
</event>
<event>
 5   0  0.1241430E-04  0.2231463E+04  0.7818609E-02  0.8505446E-01
        2   -1    0    0  501    0  0.00000000000E+00  0.00000000000E+00  0.20101573542E+04  0.20101573542E+04  0.25500000920E-02 0. -1.
       -2   -1    0    0    0  501  0.00000000000E+00  0.00000000000E+00 -0.61928308961E+03  0.61928308962E+03  0.25500000920E-02 0.  1.
    10030    2    1    2    0    0  0.00000000000E+00  0.00000000000E+00  0.13908742646E+04  0.26294404438E+04  0.22314627104E+04 0.  0.
        1    1    3    3  502    0 -0.49705003497E+03 -0.99028410535E+02  0.18666887927E+04  0.19342679267E+04  0.50400001928E-02 0. -1.
       -1    1    3    3    0  502  0.49705003497E+03  0.99028410535E+02 -0.47581452814E+03  0.69517251712E+03  0.50400001928E-02 0.  1.
</event>
<event>
 5   0  0.5981239E-05  0.2159355E+04  0.7818609E-02  0.8535538E-01
       -1   -1    0    0    0  501  0.00000000000E+00  0.00000000000E+00  0.86941294177E+03  0.86941294178E+03  0.50400001928E-02 0. -1.
        1   -1    0    0  501    0  0.00000000000E+00  0.00000000000E+00 -0.13407938291E+04  0.13407938291E+04  0.50400001928E-02 0.  1.
    10030    2    1    2    0    0  0.00000000000E+00  0.00000000000E+00 -0.47138088737E+03  0.22102067709E+04  0.21593550031E+04 0.  0.
        4    1    3    3  502    0 -0.99803241963E+03  0.37946588790E+03 -0.39958250064E+03  0.11400573926E+04  0.12699999809E+01 0. -1.
       -4    1    3    3    0  502  0.99803241963E+03 -0.37946588790E+03 -0.71798386733E+02  0.10701493783E+04  0.12699999809E+01 0.  1.
</event>
<event>
 5   0  0.5861816E-05  0.2062482E+04  0.7818609E-02  0.8577953E-01
       -1   -1    0    0    0  501  0.00000000000E+00  0.00000000000E+00  0.11088076238E+04  0.11088076239E+04  0.50400001928E-02 0. -1.
        1   -1    0    0  501    0  0.00000000000E+00  0.00000000000E+00 -0.95910066973E+03  0.95910066974E+03  0.50400001928E-02 0.  1.
    10030    2    1    2    0    0  0.00000000000E+00  0.00000000000E+00  0.14970695412E+03  0.20679082936E+04  0.20624821305E+04 0.  0.
        1    1    3    3  502    0  0.13024510178E+03  0.30518421482E+03  0.10538222691E+04  0.11048269396E+04  0.50400001928E-02 0. -1.
       -1    1    3    3    0  502 -0.13024510178E+03 -0.30518421482E+03 -0.90411531502E+03  0.96308135399E+03  0.50400001928E-02 0.  1.
</event>
<event>
 5   0  0.1311472E-04  0.2165454E+04  0.7818609E-02  0.8532946E-01
        2   -1    0    0  501    0  0.00000000000E+00  0.00000000000E+00  0.12441854173E+04  0.12441854173E+04  0.25500000920E-02 0.  1.
       -2   -1    0    0    0  501  0.00000000000E+00  0.00000000000E+00 -0.94222106045E+03  0.94222106046E+03  0.25500000920E-02 0. -1.
    10030    2    1    2    0    0  0.00000000000E+00  0.00000000000E+00  0.30196435687E+03  0.21864064778E+04  0.21654539509E+04 0.  0.
        4    1    3    3  502    0  0.51574648236E+03  0.38844017425E+03 -0.72657416492E+03  0.97200402935E+03  0.12699999809E+01 0. -1.
       -4    1    3    3    0  502 -0.51574648236E+03 -0.38844017425E+03  0.10285385218E+04  0.12144024484E+04  0.12699999809E+01 0.  1.
</event>
<event>
 5   0  0.1252124E-04  0.2121248E+04  0.7818609E-02  0.8551941E-01
       -2   -1    0    0    0  501  0.00000000000E+00  0.00000000000E+00  0.58040852110E+03  0.58040852111E+03  0.25500000920E-02 0. -1.
        2   -1    0    0  501    0  0.00000000000E+00  0.00000000000E+00 -0.19381578228E+04  0.19381578228E+04  0.25500000920E-02 0.  1.
    10030    2    1    2    0    0  0.00000000000E+00  0.00000000000E+00 -0.13577493017E+04  0.25185663439E+04  0.21212480436E+04 0.  0.
        3    1    3    3  502    0  0.68157224240E+03 -0.14284419120E+03 -0.16287016363E+04  0.17713311985E+04  0.10100000352E+00 0.  1.
       -3    1    3    3    0  502 -0.68157224240E+03  0.14284419120E+03  0.27095233465E+03  0.74723514534E+03  0.10100000352E+00 0. -1.
</event>
<event>
 5   0  0.1226021E-04  0.2258738E+04  0.7818609E-02  0.8494370E-01
        2   -1    0    0  501    0  0.00000000000E+00  0.00000000000E+00  0.15503102281E+04  0.15503102281E+04  0.25500000920E-02 0. -1.
       -2   -1    0    0    0  501  0.00000000000E+00  0.00000000000E+00 -0.82272205971E+03  0.82272205971E+03  0.25500000920E-02 0.  1.
    10030    2    1    2    0    0  0.00000000000E+00  0.00000000000E+00  0.72758816839E+03  0.23730322878E+04  0.22587380760E+04 0.  0.
        2    1    3    3  502    0  0.73385450788E+03 -0.49882774507E+03 -0.37020151037E+03  0.96146800065E+03  0.25500000920E-02 0.  1.
       -2    1    3    3    0  502 -0.73385450788E+03  0.49882774507E+03  0.10977896788E+04  0.14115642872E+04  0.25500000920E-02 0. -1.
</event>
<event>
 5   0  0.1226021E-04  0.2179883E+04  0.7818609E-02  0.8526848E-01
        2   -1    0    0  501    0  0.00000000000E+00  0.00000000000E+00  0.11315192601E+04  0.11315192601E+04  0.25500000920E-02 0.  1.
       -2   -1    0    0    0  501  0.00000000000E+00  0.00000000000E+00 -0.10498913676E+04  0.10498913676E+04  0.25500000920E-02 0. -1.
    10030    2    1    2    0    0  0.00000000000E+00  0.00000000000E+00  0.81627892522E+02  0.21814106276E+04  0.21798828440E+04 0.  0.
        2    1    3    3  502    0 -0.10773271978E+04 -0.14436295834E+03  0.12147905505E+03  0.10937237840E+04  0.25500000920E-02 0.  1.
       -2    1    3    3    0  502  0.10773271978E+04  0.14436295834E+03 -0.39851162526E+02  0.10876868437E+04  0.25500000920E-02 0. -1.
</event>
<event>
 5   0  0.1311472E-04  0.2176592E+04  0.7818609E-02  0.8528235E-01
        2   -1    0    0  501    0  0.00000000000E+00  0.00000000000E+00  0.10267812274E+04  0.10267812274E+04  0.25500000920E-02 0.  1.
       -2   -1    0    0    0  501  0.00000000000E+00  0.00000000000E+00 -0.11534960046E+04  0.11534960046E+04  0.25500000920E-02 0. -1.
    10030    2    1    2    0    0  0.00000000000E+00  0.00000000000E+00 -0.12671477722E+03  0.21802772320E+04  0.21765918711E+04 0.  0.
        4    1    3    3  502    0 -0.40823625049E+03 -0.57696110686E+03 -0.89231249686E+03  0.11383163708E+04  0.12699999809E+01 0. -1.
       -4    1    3    3    0  502  0.40823625049E+03  0.57696110686E+03  0.76559771963E+03  0.10419608612E+04  0.12699999809E+01 0.  1.
</event>
<event>
 5   0  0.1404159E-04  0.2198688E+04  0.7818609E-02  0.8518974E-01
        2   -1    0    0  501    0  0.00000000000E+00  0.00000000000E+00  0.91040445889E+03  0.91040445890E+03  0.25500000920E-02 0.  1.
       -2   -1    0    0    0  501  0.00000000000E+00  0.00000000000E+00 -0.13274954397E+04  0.13274954397E+04  0.25500000920E-02 0. -1.
    10030    2    1    2    0    0  0.00000000000E+00  0.00000000000E+00 -0.41709098085E+03  0.22378998986E+04  0.21986884886E+04 0.  0.
        5    1    3    3  502    0  0.10665205685E+03 -0.95731416663E+03  0.33072463552E+03  0.10184429043E+04  0.46999998093E+01 0.  1.
       -5    1    3    3    0  502 -0.10665205685E+03  0.95731416663E+03 -0.74781561637E+03  0.12194569943E+04  0.46999998093E+01 0. -1.
</event>
<event>
 5   0  0.1404159E-04  0.2148633E+04  0.7818609E-02  0.8540118E-01
        2   -1    0    0  501    0  0.00000000000E+00  0.00000000000E+00  0.14661305762E+04  0.14661305762E+04  0.25500000920E-02 0. -1.
       -2   -1    0    0    0  501  0.00000000000E+00  0.00000000000E+00 -0.78721209833E+03  0.78721209833E+03  0.25500000920E-02 0.  1.
    10030    2    1    2    0    0  0.00000000000E+00  0.00000000000E+00  0.67891847791E+03  0.22533426746E+04  0.21486328000E+04 0.  0.
        5    1    3    3  502    0  0.98456519657E+03  0.23973608272E+02 -0.11062975279E+03  0.99106225455E+03  0.46999998093E+01 0.  1.
       -5    1    3    3    0  502 -0.98456519657E+03 -0.23973608272E+02  0.78954823069E+03  0.12622804200E+04  0.46999998093E+01 0. -1.
</event>
<event>
 5   0  0.1252124E-04  0.2107121E+04  0.7818609E-02  0.8558113E-01
        2   -1    0    0  501    0  0.00000000000E+00  0.00000000000E+00  0.17355735066E+04  0.17355735066E+04  0.25500000920E-02 0. -1.
       -2   -1    0    0    0  501  0.00000000000E+00  0.00000000000E+00 -0.63955223549E+03  0.63955223549E+03  0.25500000920E-02 0.  1.
    10030    2    1    2    0    0  0.00000000000E+00  0.00000000000E+00  0.10960212711E+04  0.23751257421E+04  0.21071211792E+04 0.  0.
        3    1    3    3  502    0  0.46674042491E+03 -0.92217563982E+03  0.77828693037E+03  0.12938257576E+04  0.10100000352E+00 0. -1.
       -3    1    3    3    0  502 -0.46674042491E+03  0.92217563982E+03  0.31773434074E+03  0.10812999845E+04  0.10100000352E+00 0.  1.
</event>
<event>
 5   0  0.5861816E-05  0.1992589E+04  0.7818609E-02  0.8610093E-01
        1   -1    0    0  501    0  0.00000000000E+00  0.00000000000E+00  0.95261164770E+03  0.95261164771E+03  0.50400001928E-02 0. -1.
       -1   -1    0    0    0  501  0.00000000000E+00  0.00000000000E+00 -0.10419805769E+04  0.10419805769E+04  0.50400001928E-02 0.  1.
    10030    2    1    2    0    0  0.00000000000E+00  0.00000000000E+00 -0.89368929205E+02  0.19945922246E+04  0.19925891039E+04 0.  0.
        1    1    3    3  502    0 -0.11017163798E+03 -0.98766302450E+03 -0.11537269412E+03  0.10004633418E+04  0.50400001928E-02 0.  1.
       -1    1    3    3    0  502  0.11017163798E+03  0.98766302450E+03  0.26003764919E+02  0.99412888279E+03  0.50400001928E-02 0. -1.
</event>
<event>
 5   0  0.5861816E-05  0.2211697E+04  0.7818609E-02  0.8513575E-01
        1   -1    0    0  501    0  0.00000000000E+00  0.00000000000E+00  0.88209478788E+03  0.88209478790E+03  0.50400001928E-02 0.  1.
       -1   -1    0    0    0  501  0.00000000000E+00  0.00000000000E+00 -0.13863599589E+04  0.13863599589E+04  0.50400001928E-02 0. -1.
    10030    2    1    2    0    0  0.00000000000E+00  0.00000000000E+00 -0.50426517103E+03  0.22684547468E+04  0.22116969900E+04 0.  0.
        1    1    3    3  502    0  0.69876537690E+03 -0.78738506376E+03  0.95160753089E+02  0.10570259503E+04  0.50400001928E-02 0.  1.
       -1    1    3    3    0  502 -0.69876537690E+03  0.78738506376E+03 -0.59942592412E+03  0.12114287966E+04  0.50400001928E-02 0. -1.
</event>
<event>
 5   0  0.1226021E-04  0.2168328E+04  0.7818609E-02  0.8531728E-01
       -2   -1    0    0    0  501  0.00000000000E+00  0.00000000000E+00  0.93810159678E+03  0.93810159678E+03  0.25500000920E-02 0. -1.
        2   -1    0    0  501    0  0.00000000000E+00  0.00000000000E+00 -0.12529680464E+04  0.12529680464E+04  0.25500000920E-02 0.  1.
    10030    2    1    2    0    0  0.00000000000E+00  0.00000000000E+00 -0.31486644964E+03  0.21910696432E+04  0.21683277659E+04 0.  0.
        2    1    3    3  502    0 -0.28905718629E+03  0.53991602208E+03  0.74657143927E+03  0.96562533200E+03  0.25500000920E-02 0.  1.
       -2    1    3    3    0  502  0.28905718629E+03 -0.53991602208E+03 -0.10614378889E+04  0.12254443112E+04  0.25500000920E-02 0. -1.
</event>
<event>
 5   0  0.1311472E-04  0.2192893E+04  0.7818609E-02  0.8521392E-01
        2   -1    0    0  501    0  0.00000000000E+00  0.00000000000E+00  0.93855959844E+03  0.93855959844E+03  0.25500000920E-02 0. -1.
       -2   -1    0    0    0  501  0.00000000000E+00  0.00000000000E+00 -0.12808940263E+04  0.12808940263E+04  0.25500000920E-02 0.  1.
    10030    2    1    2    0    0  0.00000000000E+00  0.00000000000E+00 -0.34233442784E+03  0.22194536247E+04  0.21928934155E+04 0.  0.
        4    1    3    3  502    0  0.14028413698E+03 -0.10105872083E+04  0.23522771519E+03  0.10470433780E+04  0.12699999809E+01 0. -1.
       -4    1    3    3    0  502 -0.14028413698E+03  0.10105872083E+04 -0.57756214303E+03  0.11724102467E+04  0.12699999809E+01 0.  1.
</event>
<event>
 5   0  0.5895063E-05  0.2204157E+04  0.7818609E-02  0.8516700E-01
        1   -1    0    0  501    0  0.00000000000E+00  0.00000000000E+00  0.12386343639E+04  0.12386343640E+04  0.50400001928E-02 0. -1.
       -1   -1    0    0    0  501  0.00000000000E+00  0.00000000000E+00 -0.98057763840E+03  0.98057763842E+03  0.50400001928E-02 0.  1.
    10030    2    1    2    0    0  0.00000000000E+00  0.00000000000E+00  0.25805672554E+03  0.22192120024E+04  0.22041571264E+04 0.  0.
        5    1    3    3  502    0  0.26632711114E+03 -0.32373887746E+03 -0.89715741545E+03  0.99027799582E+03  0.46999998093E+01 0.  1.
       -5    1    3    3    0  502 -0.26632711114E+03  0.32373887746E+03  0.11552141410E+04  0.12289340066E+04  0.46999998093E+01 0. -1.
</event>
<event>
 5   0  0.4586375E-05  0.2696872E+04  0.7818609E-02  0.8336020E-01
        3   -1    0    0  501    0  0.00000000000E+00  0.00000000000E+00  0.10254139817E+04  0.10254139867E+04  0.10100000352E+00 0. -1.
       -3   -1    0    0    0  501  0.00000000000E+00  0.00000000000E+00 -0.17732156007E+04  0.17732156036E+04  0.10100000352E+00 0.  1.
    10030    2    1    2    0    0  0.00000000000E+00  0.00000000000E+00 -0.74780161898E+03  0.27986295903E+04  0.26968723222E+04 0.  0.
        5    1    3    3  502    0  0.13026400047E+04 -0.13894820474E+03 -0.70545630309E+03  0.14879073462E+04  0.46999998093E+01 0. -1.
       -5    1    3    3    0  502 -0.13026400047E+04  0.13894820474E+03 -0.42345315894E+02  0.13107222441E+04  0.46999998093E+01 0.  1.
</event>
<event>
 5   0  0.1311472E-04  0.2200780E+04  0.7818609E-02  0.8518103E-01
        2   -1    0    0  501    0  0.00000000000E+00  0.00000000000E+00  0.14418005088E+04  0.14418005088E+04  0.25500000920E-02 0. -1.
       -2   -1    0    0    0  501  0.00000000000E+00  0.00000000000E+00 -0.83982397824E+03  0.83982397824E+03  0.25500000920E-02 0.  1.
    10030    2    1    2    0    0  0.00000000000E+00  0.00000000000E+00  0.60197653057E+03  0.22816244870E+04  0.22007804426E+04 0.  0.
        4    1    3    3  502    0 -0.77700269215E+03  0.42039831581E+03 -0.37915136727E+03  0.96136637124E+03  0.12699999809E+01 0.  1.
       -4    1    3    3    0  502  0.77700269215E+03 -0.42039831581E+03  0.98112789784E+03  0.13202581158E+04  0.12699999809E+01 0. -1.
</event>
<event>
 5   0  0.5895063E-05  0.2195579E+04  0.7818609E-02  0.8520270E-01
        1   -1    0    0  501    0  0.00000000000E+00  0.00000000000E+00  0.12182115900E+04  0.12182115900E+04  0.50400001928E-02 0. -1.
       -1   -1    0    0    0  501  0.00000000000E+00  0.00000000000E+00 -0.98927146898E+03  0.98927146900E+03  0.50400001928E-02 0.  1.
    10030    2    1    2    0    0  0.00000000000E+00  0.00000000000E+00  0.22894012099E+03  0.22074830590E+04  0.21955791666E+04 0.  0.
        5    1    3    3  502    0  0.23174214400E+03 -0.52122747075E+03 -0.82855840303E+03  0.10059391705E+04  0.46999998093E+01 0.  1.
       -5    1    3    3    0  502 -0.23174214400E+03  0.52122747075E+03  0.10574985240E+04  0.12015438884E+04  0.46999998093E+01 0. -1.
</event>
<event>
 5   0  0.5981239E-05  0.2189742E+04  0.7818609E-02  0.8522710E-01
        1   -1    0    0  501    0  0.00000000000E+00  0.00000000000E+00  0.94561056450E+03  0.94561056452E+03  0.50400001928E-02 0. -1.
       -1   -1    0    0    0  501  0.00000000000E+00  0.00000000000E+00 -0.12676918657E+04  0.12676918657E+04  0.50400001928E-02 0.  1.
    10030    2    1    2    0    0  0.00000000000E+00  0.00000000000E+00 -0.32208130121E+03  0.22133024302E+04  0.21897422869E+04 0.  0.
        4    1    3    3  502    0 -0.72314161925E+02  0.33020352340E+03 -0.12136277167E+04  0.12598244133E+04  0.12699999809E+01 0.  1.
       -4    1    3    3    0  502  0.72314161925E+02 -0.33020352340E+03  0.89154641546E+03  0.95347801690E+03  0.12699999809E+01 0. -1.
</event>
<event>
 5   0  0.5861816E-05  0.2200399E+04  0.7818609E-02  0.8518262E-01
        1   -1    0    0  501    0  0.00000000000E+00  0.00000000000E+00  0.18413834134E+04  0.18413834134E+04  0.50400001928E-02 0.  1.
       -1   -1    0    0    0  501  0.00000000000E+00  0.00000000000E+00 -0.65735328135E+03  0.65735328137E+03  0.50400001928E-02 0. -1.
    10030    2    1    2    0    0  0.00000000000E+00  0.00000000000E+00  0.11840301321E+04  0.24987366948E+04  0.22003994447E+04 0.  0.
        1    1    3    3  502    0 -0.87829218043E+03 -0.27258261967E+03 -0.93806684395E+02  0.92439068191E+03  0.50400001928E-02 0. -1.
       -1    1    3    3    0  502  0.87829218043E+03  0.27258261967E+03  0.12778368165E+04  0.15743460129E+04  0.50400001928E-02 0.  1.
</event>
<event>
 5   0  0.5861816E-05  0.1516998E+04  0.7818609E-02  0.8873227E-01
        1   -1    0    0  501    0  0.00000000000E+00  0.00000000000E+00  0.94365757887E+03  0.94365757889E+03  0.50400001928E-02 0. -1.
       -1   -1    0    0    0  501  0.00000000000E+00  0.00000000000E+00 -0.60967132492E+03  0.60967132494E+03  0.50400001928E-02 0.  1.
    10030    2    1    2    0    0  0.00000000000E+00  0.00000000000E+00  0.33398625396E+03  0.15533289038E+04  0.15169983077E+04 0.  0.
        1    1    3    3  502    0 -0.31535265194E+02  0.30816703178E+03  0.87593239100E+03  0.92909576796E+03  0.50400001928E-02 0. -1.
       -1    1    3    3    0  502  0.31535265194E+02 -0.30816703178E+03 -0.54194613704E+03  0.62423313586E+03  0.50400001928E-02 0.  1.
</event>
<event>
 5   0  0.5861816E-05  0.2221612E+04  0.7818609E-02  0.8509486E-01
        1   -1    0    0  501    0  0.00000000000E+00  0.00000000000E+00  0.14948887645E+04  0.14948887645E+04  0.50400001928E-02 0.  1.
       -1   -1    0    0    0  501  0.00000000000E+00  0.00000000000E+00 -0.82540614739E+03  0.82540614740E+03  0.50400001928E-02 0. -1.
    10030    2    1    2    0    0  0.00000000000E+00  0.00000000000E+00  0.66948261708E+03  0.23202949119E+04  0.22216123657E+04 0.  0.
        1    1    3    3  502    0  0.37282165263E+03 -0.78478567264E+03  0.10575865184E+04  0.13687124536E+04  0.50400001928E-02 0.  1.
       -1    1    3    3    0  502 -0.37282165263E+03  0.78478567264E+03 -0.38810390135E+03  0.95158245828E+03  0.50400001928E-02 0. -1.
</event>
<event>
 5   0  0.5849604E-05  0.2183863E+04  0.7818609E-02  0.8525175E-01
        1   -1    0    0  501    0  0.00000000000E+00  0.00000000000E+00  0.16362623618E+04  0.16362623618E+04  0.50400001928E-02 0. -1.
       -1   -1    0    0    0  501  0.00000000000E+00  0.00000000000E+00 -0.72868140586E+03  0.72868140588E+03  0.50400001928E-02 0.  1.
    10030    2    1    2    0    0  0.00000000000E+00  0.00000000000E+00  0.90758095590E+03  0.23649437676E+04  0.21838625947E+04 0.  0.
        2    1    3    3  502    0 -0.24440170472E+03  0.33134429947E+02 -0.69812255894E+03  0.74040879994E+03  0.25500000920E-02 0.  1.
       -2    1    3    3    0  502  0.24440170472E+03 -0.33134429947E+02  0.16057035148E+04  0.16245349677E+04  0.25500000920E-02 0. -1.
</event>
<event>
 5   0  0.5895063E-05  0.2204832E+04  0.7818609E-02  0.8516420E-01
       -1   -1    0    0    0  501  0.00000000000E+00  0.00000000000E+00  0.11442875074E+04  0.11442875074E+04  0.50400001928E-02 0. -1.
        1   -1    0    0  501    0  0.00000000000E+00  0.00000000000E+00 -0.10620765557E+04  0.10620765557E+04  0.50400001928E-02 0.  1.
    10030    2    1    2    0    0  0.00000000000E+00  0.00000000000E+00  0.82210951725E+02  0.22063640631E+04  0.22048319071E+04 0.  0.
        5    1    3    3  502    0  0.89188336436E+03  0.68763619517E+02  0.68584697996E+03  0.11272056338E+04  0.46999998093E+01 0. -1.
       -5    1    3    3    0  502 -0.89188336436E+03 -0.68763619517E+02 -0.60363602824E+03  0.10791584293E+04  0.46999998093E+01 0.  1.
</event>
<event>
 5   0  0.1252124E-04  0.2226962E+04  0.7818609E-02  0.8507289E-01
       -2   -1    0    0    0  501  0.00000000000E+00  0.00000000000E+00  0.96191356045E+03  0.96191356045E+03  0.25500000920E-02 0.  1.
        2   -1    0    0  501    0  0.00000000000E+00  0.00000000000E+00 -0.12889311826E+04  0.12889311826E+04  0.25500000920E-02 0. -1.
    10030    2    1    2    0    0  0.00000000000E+00  0.00000000000E+00 -0.32701762211E+03  0.22508447430E+04  0.22269624002E+04 0.  0.
        3    1    3    3  502    0 -0.31099506084E+03 -0.62601293367E+03  0.71252161323E+03  0.99814687321E+03  0.10100000352E+00 0.  1.
       -3    1    3    3    0  502  0.31099506084E+03  0.62601293367E+03 -0.10395392353E+04  0.12526978698E+04  0.10100000352E+00 0. -1.
</event>
<event>
 5   0  0.6263558E-05  0.2044417E+04  0.7818609E-02  0.8586131E-01
        1   -1    0    0  501    0  0.00000000000E+00  0.00000000000E+00  0.16729606470E+04  0.16729606470E+04  0.50400001928E-02 0.  1.
       -1   -1    0    0    0  501  0.00000000000E+00  0.00000000000E+00 -0.62458730881E+03  0.62458730883E+03  0.50400001928E-02 0. -1.
    10030    2    1    2    0    0  0.00000000000E+00  0.00000000000E+00  0.10483733382E+04  0.22975479559E+04  0.20444167758E+04 0.  0.
        3    1    3    3  502    0 -0.63063684754E+02 -0.24166284392E+03  0.16381438701E+04  0.16570737183E+04  0.10100000352E+00 0.  1.
       -3    1    3    3    0  502  0.63063684754E+02  0.24166284392E+03 -0.58977053191E+03  0.64047423755E+03  0.10100000352E+00 0. -1.
</event>
<event>
 5   0  0.5849604E-05  0.2140808E+04  0.7818609E-02  0.8543477E-01
       -1   -1    0    0    0  501  0.00000000000E+00  0.00000000000E+00  0.49666220677E+03  0.49666220679E+03  0.50400001928E-02 0. -1.
        1   -1    0    0  501    0  0.00000000000E+00  0.00000000000E+00 -0.23069284981E+04  0.23069284981E+04  0.50400001928E-02 0.  1.
    10030    2    1    2    0    0  0.00000000000E+00  0.00000000000E+00 -0.18102662913E+04  0.28035907049E+04  0.21408075100E+04 0.  0.
        2    1    3    3  502    0 -0.52116237050E+03  0.92221685883E+03 -0.70365100451E+03  0.12716992126E+04  0.25500000920E-02 0. -1.
       -2    1    3    3    0  502  0.52116237050E+03 -0.92221685883E+03 -0.11066152868E+04  0.15318914923E+04  0.25500000920E-02 0.  1.
</event>
<event>
 5   0  0.1404159E-04  0.2063694E+04  0.7818609E-02  0.8577407E-01
        2   -1    0    0  501    0  0.00000000000E+00  0.00000000000E+00  0.14924996249E+04  0.14924996249E+04  0.25500000920E-02 0. -1.
       -2   -1    0    0    0  501  0.00000000000E+00  0.00000000000E+00 -0.71337226161E+03  0.71337226161E+03  0.25500000920E-02 0.  1.
    10030    2    1    2    0    0  0.00000000000E+00  0.00000000000E+00  0.77912736329E+03  0.22058718865E+04  0.20636936138E+04 0.  0.
        5    1    3    3  502    0 -0.85445357755E+02 -0.10582976804E+03  0.14828635302E+04  0.14890960976E+04  0.46999998093E+01 0. -1.
       -5    1    3    3    0  502  0.85445357755E+02  0.10582976804E+03 -0.70373616686E+03  0.71677578887E+03  0.46999998093E+01 0.  1.
</event>
<event>
 5   0  0.1252124E-04  0.2214088E+04  0.7818609E-02  0.8512587E-01
        2   -1    0    0  501    0  0.00000000000E+00  0.00000000000E+00  0.13552071328E+04  0.13552071328E+04  0.25500000920E-02 0.  1.
       -2   -1    0    0    0  501  0.00000000000E+00  0.00000000000E+00 -0.90432378066E+03  0.90432378067E+03  0.25500000920E-02 0. -1.
    10030    2    1    2    0    0  0.00000000000E+00  0.00000000000E+00  0.45088335211E+03  0.22595309134E+04  0.22140876567E+04 0.  0.
        3    1    3    3  502    0  0.50826020267E+03  0.83105914386E+03 -0.31124006502E+03  0.10226720503E+04  0.10100000352E+00 0. -1.
       -3    1    3    3    0  502 -0.50826020267E+03 -0.83105914386E+03  0.76212341713E+03  0.12368588631E+04  0.10100000352E+00 0.  1.
</event>
<event>
 5   0  0.5861816E-05  0.1556753E+04  0.7818609E-02  0.8847566E-01
       -1   -1    0    0    0  501  0.00000000000E+00  0.00000000000E+00  0.38792963017E+03  0.38792963020E+03  0.50400001928E-02 0.  1.
        1   -1    0    0  501    0  0.00000000000E+00  0.00000000000E+00 -0.15618029629E+04  0.15618029629E+04  0.50400001928E-02 0. -1.
    10030    2    1    2    0    0  0.00000000000E+00  0.00000000000E+00 -0.11738733328E+04  0.19497325932E+04  0.15567525762E+04 0.  0.
        1    1    3    3  502    0  0.12911985326E+03  0.14621999306E+03  0.35681952942E+03  0.40666005395E+03  0.50400001928E-02 0.  1.
       -1    1    3    3    0  502 -0.12911985326E+03 -0.14621999306E+03 -0.15306928622E+04  0.15430725392E+04  0.50400001928E-02 0. -1.
</event>
<event>
 5   0  0.1311472E-04  0.2158555E+04  0.7818609E-02  0.8535879E-01
       -2   -1    0    0    0  501  0.00000000000E+00  0.00000000000E+00  0.10718931257E+04  0.10718931257E+04  0.25500000920E-02 0.  1.
        2   -1    0    0  501    0  0.00000000000E+00  0.00000000000E+00 -0.10867124497E+04  0.10867124497E+04  0.25500000920E-02 0. -1.
    10030    2    1    2    0    0  0.00000000000E+00  0.00000000000E+00 -0.14819324035E+02  0.21586055754E+04  0.21585547057E+04 0.  0.
        4    1    3    3  502    0 -0.39453149965E+03 -0.13194227564E+03 -0.10033116999E+04  0.10861398844E+04  0.12699999809E+01 0. -1.
       -4    1    3    3    0  502  0.39453149965E+03  0.13194227564E+03  0.98849237588E+03  0.10724656910E+04  0.12699999809E+01 0.  1.
</event>
<event>
 5   0  0.1241430E-04  0.2206059E+04  0.7818609E-02  0.8515911E-01
        2   -1    0    0  501    0  0.00000000000E+00  0.00000000000E+00  0.31539815951E+04  0.31539815951E+04  0.25500000920E-02 0. -1.
       -2   -1    0    0    0  501  0.00000000000E+00  0.00000000000E+00 -0.38575799687E+03  0.38575799688E+03  0.25500000920E-02 0.  1.
    10030    2    1    2    0    0  0.00000000000E+00  0.00000000000E+00  0.27682235982E+04  0.35397395920E+04  0.22060585870E+04 0.  0.
        1    1    3    3  502    0  0.72420990854E+03 -0.77476655049E+03  0.18706129819E+04  0.21503339572E+04  0.50400001928E-02 0.  1.
       -1    1    3    3    0  502 -0.72420990854E+03  0.77476655049E+03  0.89761061627E+03  0.13894056347E+04  0.50400001928E-02 0. -1.
</event>
<event>
 5   0  0.1252124E-04  0.2210650E+04  0.7818609E-02  0.8514008E-01
        2   -1    0    0  501    0  0.00000000000E+00  0.00000000000E+00  0.18225660408E+04  0.18225660408E+04  0.25500000920E-02 0. -1.
       -2   -1    0    0    0  501  0.00000000000E+00  0.00000000000E+00 -0.67034261252E+03  0.67034261252E+03  0.25500000920E-02 0.  1.
    10030    2    1    2    0    0  0.00000000000E+00  0.00000000000E+00  0.11522234282E+04  0.24929086533E+04  0.22106502946E+04 0.  0.
        3    1    3    3  502    0  0.10625371601E+03  0.61348563681E+03  0.16060058032E+04  0.17224718079E+04  0.10100000352E+00 0. -1.
       -3    1    3    3    0  502 -0.10625371601E+03 -0.61348563681E+03 -0.45378237497E+03  0.77043684542E+03  0.10100000352E+00 0.  1.
</event>
<event>
 5   0  0.5895063E-05  0.2200317E+04  0.7818609E-02  0.8518296E-01
        1   -1    0    0  501    0  0.00000000000E+00  0.00000000000E+00  0.65322820917E+03  0.65322820919E+03  0.50400001928E-02 0.  1.
       -1   -1    0    0    0  501  0.00000000000E+00  0.00000000000E+00 -0.18528720538E+04  0.18528720538E+04  0.50400001928E-02 0. -1.
    10030    2    1    2    0    0  0.00000000000E+00  0.00000000000E+00 -0.11996438446E+04  0.25061002630E+04  0.22003166077E+04 0.  0.
        5    1    3    3  502    0  0.80004204011E+03  0.23444500991E+03  0.21777831390E+03  0.86167349537E+03  0.46999998093E+01 0.  1.
       -5    1    3    3    0  502 -0.80004204011E+03 -0.23444500991E+03 -0.14174221585E+04  0.16444267676E+04  0.46999998093E+01 0. -1.
</event>
<event>
 5   0  0.5849604E-05  0.2202368E+04  0.7818609E-02  0.8517443E-01
       -1   -1    0    0    0  501  0.00000000000E+00  0.00000000000E+00  0.16686743381E+04  0.16686743381E+04  0.50400001928E-02 0. -1.
        1   -1    0    0  501    0  0.00000000000E+00  0.00000000000E+00 -0.72668863682E+03  0.72668863683E+03  0.50400001928E-02 0.  1.
    10030    2    1    2    0    0  0.00000000000E+00  0.00000000000E+00  0.94198570125E+03  0.23953629749E+04  0.22023684343E+04 0.  0.
        2    1    3    3  502    0  0.25217077417E+03  0.19286760471E+02  0.16366590311E+04  0.16560841955E+04  0.25500000920E-02 0. -1.
       -2    1    3    3    0  502 -0.25217077417E+03 -0.19286760471E+02 -0.69467332985E+03  0.73927877941E+03  0.25500000920E-02 0.  1.
</event>
<event>
 5   0  0.5861816E-05  0.2199658E+04  0.7818609E-02  0.8518570E-01
        1   -1    0    0  501    0  0.00000000000E+00  0.00000000000E+00  0.10690480560E+04  0.10690480560E+04  0.50400001928E-02 0.  1.
       -1   -1    0    0    0  501  0.00000000000E+00  0.00000000000E+00 -0.11314963906E+04  0.11314963907E+04  0.50400001928E-02 0. -1.
    10030    2    1    2    0    0  0.00000000000E+00  0.00000000000E+00 -0.62448334626E+02  0.22005444467E+04  0.21996581706E+04 0.  0.
        1    1    3    3  502    0  0.47632939949E+03 -0.86200844502E+03  0.45853999809E+03  0.10863734100E+04  0.50400001928E-02 0.  1.
       -1    1    3    3    0  502 -0.47632939949E+03  0.86200844502E+03 -0.52098833272E+03  0.11141710367E+04  0.50400001928E-02 0. -1.
</event>
<event>
 5   0  0.1226021E-04  0.2201215E+04  0.7818609E-02  0.8517922E-01
       -2   -1    0    0    0  501  0.00000000000E+00  0.00000000000E+00  0.12980094925E+04  0.12980094925E+04  0.25500000920E-02 0.  1.
        2   -1    0    0  501    0  0.00000000000E+00  0.00000000000E+00 -0.93322681269E+03  0.93322681269E+03  0.25500000920E-02 0. -1.
    10030    2    1    2    0    0  0.00000000000E+00  0.00000000000E+00  0.36478267976E+03  0.22312363051E+04  0.22012153566E+04 0.  0.
        2    1    3    3  502    0  0.45386019868E+03  0.49142576344E+03  0.10682955443E+04  0.12604537798E+04  0.25500000920E-02 0.  1.
       -2    1    3    3    0  502 -0.45386019868E+03 -0.49142576344E+03 -0.70351286458E+03  0.97078252536E+03  0.25500000920E-02 0. -1.
</event>
<event>
 5   0  0.1311472E-04  0.1366107E+04  0.7818609E-02  0.8978724E-01
        2   -1    0    0  501    0  0.00000000000E+00  0.00000000000E+00  0.19596743249E+04  0.19596743249E+04  0.25500000920E-02 0.  1.
       -2   -1    0    0    0  501  0.00000000000E+00  0.00000000000E+00 -0.23808146893E+03  0.23808146895E+03  0.25500000920E-02 0. -1.
    10030    2    1    2    0    0  0.00000000000E+00  0.00000000000E+00  0.17215928559E+04  0.21977557938E+04  0.13661070850E+04 0.  0.
        4    1    3    3  502    0 -0.48491427094E+03 -0.19065358463E+03  0.15025433824E+03  0.54228094061E+03  0.12699999809E+01 0. -1.
       -4    1    3    3    0  502  0.48491427094E+03  0.19065358463E+03  0.15713385177E+04  0.16554748532E+04  0.12699999809E+01 0.  1.
</event>
<event>
 5   0  0.5849604E-05  0.2245203E+04  0.7818609E-02  0.8499846E-01
       -1   -1    0    0    0  501  0.00000000000E+00  0.00000000000E+00  0.82105218659E+03  0.82105218660E+03  0.50400001928E-02 0. -1.
        1   -1    0    0  501    0  0.00000000000E+00  0.00000000000E+00 -0.15349017789E+04  0.15349017790E+04  0.50400001928E-02 0.  1.
    10030    2    1    2    0    0  0.00000000000E+00  0.00000000000E+00 -0.71384959236E+03  0.23559539656E+04  0.22452032975E+04 0.  0.
        2    1    3    3  502    0 -0.51211178271E+03 -0.96428255296E+03 -0.83021845248E+02  0.10949849071E+04  0.25500000920E-02 0. -1.
       -2    1    3    3    0  502  0.51211178271E+03  0.96428255296E+03 -0.63082774711E+03  0.12609690585E+04  0.25500000920E-02 0.  1.
</event>
<event>
 5   0  0.5895063E-05  0.2106345E+04  0.7818609E-02  0.8558453E-01
       -1   -1    0    0    0  501  0.00000000000E+00  0.00000000000E+00  0.11255944017E+04  0.11255944017E+04  0.50400001928E-02 0.  1.
        1   -1    0    0  501    0  0.00000000000E+00  0.00000000000E+00 -0.98541067705E+03  0.98541067706E+03  0.50400001928E-02 0. -1.
    10030    2    1    2    0    0  0.00000000000E+00  0.00000000000E+00  0.14018372469E+03  0.21110050788E+04  0.21063454052E+04 0.  0.
        5    1    3    3  502    0 -0.30451645332E+03 -0.96004408670E+03  0.37856446507E+03  0.10759870180E+04  0.46999998093E+01 0.  1.
       -5    1    3    3    0  502  0.30451645332E+03  0.96004408670E+03 -0.23838074038E+03  0.10350180608E+04  0.46999998093E+01 0. -1.
</event>
<event>
 5   0  0.5849604E-05  0.2171886E+04  0.7818609E-02  0.8530222E-01
        1   -1    0    0  501    0  0.00000000000E+00  0.00000000000E+00  0.62649319893E+03  0.62649319895E+03  0.50400001928E-02 0. -1.
       -1   -1    0    0    0  501  0.00000000000E+00  0.00000000000E+00 -0.18823382335E+04  0.18823382336E+04  0.50400001928E-02 0.  1.
    10030    2    1    2    0    0  0.00000000000E+00  0.00000000000E+00 -0.12558450346E+04  0.25088314325E+04  0.21718859099E+04 0.  0.
        2    1    3    3  502    0 -0.23041254349E+01 -0.85982209675E+03  0.13828668922E+03  0.87087459227E+03  0.25500000920E-02 0. -1.
       -2    1    3    3    0  502  0.23041254349E+01  0.85982209675E+03 -0.13941317238E+04  0.16379568402E+04  0.25500000920E-02 0.  1.
</event>
<event>
 5   0  0.4586375E-05  0.2079884E+04  0.7818609E-02  0.8570157E-01
        3   -1    0    0  501    0  0.00000000000E+00  0.00000000000E+00  0.77846879461E+03  0.77846880116E+03  0.10100000352E+00 0. -1.
       -3   -1    0    0    0  501  0.00000000000E+00  0.00000000000E+00 -0.13892387626E+04  0.13892387663E+04  0.10100000352E+00 0.  1.
    10030    2    1    2    0    0  0.00000000000E+00  0.00000000000E+00 -0.61076996804E+03  0.21677075675E+04  0.20798836853E+04 0.  0.
        5    1    3    3  502    0  0.49213006667E+03 -0.67776564838E+03  0.33700022344E+03  0.90285631041E+03  0.46999998093E+01 0. -1.
       -5    1    3    3    0  502 -0.49213006667E+03  0.67776564838E+03 -0.94777019148E+03  0.12648512571E+04  0.46999998093E+01 0.  1.
</event>
<event>
 5   0  0.1226021E-04  0.2245688E+04  0.7818609E-02  0.8499649E-01
        2   -1    0    0  501    0  0.00000000000E+00  0.00000000000E+00  0.15948192185E+04  0.15948192185E+04  0.25500000920E-02 0. -1.
       -2   -1    0    0    0  501  0.00000000000E+00  0.00000000000E+00 -0.79054641306E+03  0.79054641306E+03  0.25500000920E-02 0.  1.
    10030    2    1    2    0    0  0.00000000000E+00  0.00000000000E+00  0.80427280540E+03  0.23853656315E+04  0.22456879682E+04 0.  0.
        2    1    3    3  502    0  0.26193220648E+02  0.95664227446E+03  0.10259715292E+04  0.14030210636E+04  0.25500000920E-02 0. -1.
       -2    1    3    3    0  502 -0.26193220648E+02 -0.95664227446E+03 -0.22169872378E+03  0.98234456797E+03  0.25500000920E-02 0.  1.
</event>
<event>
 5   0  0.1252124E-04  0.2319603E+04  0.7818609E-02  0.8470232E-01
        2   -1    0    0  501    0  0.00000000000E+00  0.00000000000E+00  0.26068515094E+04  0.26068515095E+04  0.25500000920E-02 0. -1.
       -2   -1    0    0    0  501  0.00000000000E+00  0.00000000000E+00 -0.51600142371E+03  0.51600142371E+03  0.25500000920E-02 0.  1.
    10030    2    1    2    0    0  0.00000000000E+00  0.00000000000E+00  0.20908500857E+04  0.31228529332E+04  0.23196026300E+04 0.  0.
        3    1    3    3  502    0  0.11145279998E+04  0.28551806553E+03  0.12425808585E+04  0.16934286014E+04  0.10100000352E+00 0. -1.
       -3    1    3    3    0  502 -0.11145279998E+04 -0.28551806553E+03  0.84826922728E+03  0.14294243318E+04  0.10100000352E+00 0.  1.
</event>
<event>
 5   0  0.1226021E-04  0.2128564E+04  0.7818609E-02  0.8548764E-01
       -2   -1    0    0    0  501  0.00000000000E+00  0.00000000000E+00  0.65344148304E+03  0.65344148305E+03  0.25500000920E-02 0.  1.
        2   -1    0    0  501    0  0.00000000000E+00  0.00000000000E+00 -0.17334320925E+04  0.17334320925E+04  0.25500000920E-02 0. -1.
    10030    2    1    2    0    0  0.00000000000E+00  0.00000000000E+00 -0.10799906094E+04  0.23868735755E+04  0.21285642459E+04 0.  0.
        2    1    3    3  502    0  0.36937779477E+03 -0.52961128578E+02 -0.16576715240E+04  0.16991526470E+04  0.25500000920E-02 0. -1.
       -2    1    3    3    0  502 -0.36937779477E+03  0.52961128578E+02  0.57768091457E+03  0.68772092849E+03  0.25500000920E-02 0.  1.
</event>
<event>
 5   0  0.6263558E-05  0.2196022E+04  0.7818609E-02  0.8520086E-01
       -1   -1    0    0    0  501  0.00000000000E+00  0.00000000000E+00  0.53430512646E+03  0.53430512648E+03  0.50400001928E-02 0.  1.
        1   -1    0    0  501    0  0.00000000000E+00  0.00000000000E+00 -0.22564410538E+04  0.22564410538E+04  0.50400001928E-02 0. -1.
    10030    2    1    2    0    0  0.00000000000E+00  0.00000000000E+00 -0.17221359274E+04  0.27907461803E+04  0.21960218784E+04 0.  0.
        3    1    3    3  502    0 -0.87188988392E+03  0.49935015238E+03 -0.14238061429E+04  0.17426320573E+04  0.10100000352E+00 0. -1.
       -3    1    3    3    0  502  0.87188988392E+03 -0.49935015238E+03 -0.29832978447E+03  0.10481141230E+04  0.10100000352E+00 0.  1.
</event>
<event>
 5   0  0.5895063E-05  0.2269123E+04  0.7818609E-02  0.8490196E-01
        1   -1    0    0  501    0  0.00000000000E+00  0.00000000000E+00  0.16498352769E+04  0.16498352770E+04  0.50400001928E-02 0.  1.
       -1   -1    0    0    0  501  0.00000000000E+00  0.00000000000E+00 -0.78021733858E+03  0.78021733860E+03  0.50400001928E-02 0. -1.
    10030    2    1    2    0    0  0.00000000000E+00  0.00000000000E+00  0.86961793836E+03  0.24300526156E+04  0.22691232570E+04 0.  0.
        5    1    3    3  502    0  0.64482109256E+03  0.53143393031E+03 -0.38707818073E+03  0.92090600589E+03  0.46999998093E+01 0. -1.
       -5    1    3    3    0  502 -0.64482109256E+03 -0.53143393031E+03  0.12566961191E+04  0.15091466097E+04  0.46999998093E+01 0.  1.
</event>
<event>
 5   0  0.1252124E-04  0.2214157E+04  0.7818609E-02  0.8512559E-01
       -2   -1    0    0    0  501  0.00000000000E+00  0.00000000000E+00  0.74854555285E+03  0.74854555285E+03  0.25500000920E-02 0.  1.
        2   -1    0    0  501    0  0.00000000000E+00  0.00000000000E+00 -0.16373384312E+04  0.16373384312E+04  0.25500000920E-02 0. -1.
    10030    2    1    2    0    0  0.00000000000E+00  0.00000000000E+00 -0.88879287838E+03  0.23858839841E+04  0.22141566351E+04 0.  0.
        3    1    3    3  502    0 -0.50847406277E+03  0.29424437359E+03  0.56672859703E+03  0.81627626255E+03  0.10100000352E+00 0.  1.
       -3    1    3    3    0  502  0.50847406277E+03 -0.29424437359E+03 -0.14555214754E+04  0.15696077215E+04  0.10100000352E+00 0. -1.
</event>
<event>
 5   0  0.5895063E-05  0.1920314E+04  0.7818609E-02  0.8644810E-01
       -1   -1    0    0    0  501  0.00000000000E+00  0.00000000000E+00  0.51128474798E+03  0.51128474800E+03  0.50400001928E-02 0. -1.
        1   -1    0    0  501    0  0.00000000000E+00  0.00000000000E+00 -0.18031078070E+04  0.18031078070E+04  0.50400001928E-02 0.  1.
    10030    2    1    2    0    0  0.00000000000E+00  0.00000000000E+00 -0.12918230590E+04  0.23143925550E+04  0.19203140584E+04 0.  0.
        5    1    3    3  502    0  0.42864310356E+03  0.30448029739E+03  0.32234725382E+03  0.61674387210E+03  0.46999998093E+01 0. -1.
       -5    1    3    3    0  502 -0.42864310356E+03 -0.30448029739E+03 -0.16141703128E+04  0.16976486829E+04  0.46999998093E+01 0.  1.
</event>
<event>
 5   0  0.5849604E-05  0.2165591E+04  0.7818609E-02  0.8532888E-01
        1   -1    0    0  501    0  0.00000000000E+00  0.00000000000E+00  0.11027411887E+04  0.11027411887E+04  0.50400001928E-02 0. -1.
       -1   -1    0    0    0  501  0.00000000000E+00  0.00000000000E+00 -0.10632101840E+04  0.10632101840E+04  0.50400001928E-02 0.  1.
    10030    2    1    2    0    0  0.00000000000E+00  0.00000000000E+00  0.39531004634E+02  0.21659513727E+04  0.21655906004E+04 0.  0.
        2    1    3    3  502    0 -0.41535732064E+03 -0.55111377923E+03 -0.81475804038E+03  0.10677447101E+04  0.25500000920E-02 0.  1.
       -2    1    3    3    0  502  0.41535732064E+03  0.55111377923E+03  0.85428904501E+03  0.10982066627E+04  0.25500000920E-02 0. -1.
</event>
<event>
 5   0  0.1404159E-04  0.2228069E+04  0.7818609E-02  0.8506835E-01
        2   -1    0    0  501    0  0.00000000000E+00  0.00000000000E+00  0.27002674429E+04  0.27002674429E+04  0.25500000920E-02 0. -1.
       -2   -1    0    0    0  501  0.00000000000E+00  0.00000000000E+00 -0.45961117710E+03  0.45961117711E+03  0.25500000920E-02 0.  1.
    10030    2    1    2    0    0  0.00000000000E+00  0.00000000000E+00  0.22406562658E+04  0.31598786200E+04  0.22280692071E+04 0.  0.
        5    1    3    3  502    0  0.62125354315E+03 -0.55868215159E+03  0.75296684567E+02  0.83891202881E+03  0.46999998093E+01 0.  1.
       -5    1    3    3    0  502 -0.62125354315E+03  0.55868215159E+03  0.21653595812E+04  0.23209665912E+04  0.46999998093E+01 0. -1.
</event>
<event>
 5   0  0.5861816E-05  0.2144121E+04  0.7818609E-02  0.8542053E-01
        1   -1    0    0  501    0  0.00000000000E+00  0.00000000000E+00  0.91764298388E+03  0.91764298389E+03  0.50400001928E-02 0. -1.
       -1   -1    0    0    0  501  0.00000000000E+00  0.00000000000E+00 -0.12524631294E+04  0.12524631294E+04  0.50400001928E-02 0.  1.
    10030    2    1    2    0    0  0.00000000000E+00  0.00000000000E+00 -0.33482014548E+03  0.21701061133E+04  0.21441212683E+04 0.  0.
        1    1    3    3  502    0  0.16349323608E+03  0.97701976404E+02 -0.12352021098E+04  0.12497999706E+04  0.50400001928E-02 0.  1.
       -1    1    3    3    0  502 -0.16349323608E+03 -0.97701976404E+02  0.90038196434E+03  0.92030614264E+03  0.50400001928E-02 0. -1.
</event>
<event>
 5   0  0.1252124E-04  0.2094762E+04  0.7818609E-02  0.8563554E-01
        2   -1    0    0  501    0  0.00000000000E+00  0.00000000000E+00  0.39144708525E+03  0.39144708526E+03  0.25500000920E-02 0.  1.
       -2   -1    0    0    0  501  0.00000000000E+00  0.00000000000E+00 -0.28024390125E+04  0.28024390125E+04  0.25500000920E-02 0. -1.
    10030    2    1    2    0    0  0.00000000000E+00  0.00000000000E+00 -0.24109919272E+04  0.31938860977E+04  0.20947616409E+04 0.  0.
        3    1    3    3  502    0 -0.38450119487E+03  0.51388474735E+02 -0.26888703335E+04  0.27167086013E+04  0.10100000352E+00 0. -1.
       -3    1    3    3    0  502  0.38450119487E+03 -0.51388474735E+02  0.27787840625E+03  0.47717749639E+03  0.10100000352E+00 0.  1.
</event>
<event>
 5   0  0.1311472E-04  0.2108410E+04  0.7818609E-02  0.8557548E-01
        2   -1    0    0  501    0  0.00000000000E+00  0.00000000000E+00  0.20196897431E+04  0.20196897431E+04  0.25500000920E-02 0. -1.
       -2   -1    0    0    0  501  0.00000000000E+00  0.00000000000E+00 -0.55025696187E+03  0.55025696187E+03  0.25500000920E-02 0.  1.
    10030    2    1    2    0    0  0.00000000000E+00  0.00000000000E+00  0.14694327812E+04  0.25699467049E+04  0.21084101517E+04 0.  0.
        4    1    3    3  502    0  0.25932375701E+03 -0.98782381761E+03  0.10532724009E+04  0.14671159017E+04  0.12699999809E+01 0.  1.
       -4    1    3    3    0  502 -0.25932375701E+03  0.98782381761E+03  0.41616038034E+03  0.11028308033E+04  0.12699999809E+01 0. -1.
</event>
<event>
 5   0  0.1252124E-04  0.2196806E+04  0.7818609E-02  0.8519759E-01
        2   -1    0    0  501    0  0.00000000000E+00  0.00000000000E+00  0.13477757294E+04  0.13477757294E+04  0.25500000920E-02 0. -1.
       -2   -1    0    0    0  501  0.00000000000E+00  0.00000000000E+00 -0.89517048073E+03  0.89517048073E+03  0.25500000920E-02 0.  1.
    10030    2    1    2    0    0  0.00000000000E+00  0.00000000000E+00  0.45260524868E+03  0.22429462101E+04  0.21968059064E+04 0.  0.
        3    1    3    3  502    0  0.39831799023E+03 -0.94921579352E+03  0.61752307219E+03  0.12004176769E+04  0.10100000352E+00 0. -1.
       -3    1    3    3    0  502 -0.39831799023E+03  0.94921579352E+03 -0.16491782351E+03  0.10425285333E+04  0.10100000352E+00 0.  1.
</event>
<event>
 5   0  0.5849604E-05  0.2131204E+04  0.7818609E-02  0.8547621E-01
       -1   -1    0    0    0  501  0.00000000000E+00  0.00000000000E+00  0.94421968136E+03  0.94421968137E+03  0.50400001928E-02 0. -1.
        1   -1    0    0  501    0  0.00000000000E+00  0.00000000000E+00 -0.12025883398E+04  0.12025883398E+04  0.50400001928E-02 0.  1.
    10030    2    1    2    0    0  0.00000000000E+00  0.00000000000E+00 -0.25836865846E+03  0.21468080212E+04  0.21312039593E+04 0.  0.
        2    1    3    3  502    0  0.87712938270E+03 -0.43869157496E+03  0.29064208849E+03  0.10228778400E+04  0.25500000920E-02 0. -1.
       -2    1    3    3    0  502 -0.87712938270E+03  0.43869157496E+03 -0.54901074695E+03  0.11239301812E+04  0.25500000920E-02 0.  1.
</event>
<event>
 5   0  0.1311472E-04  0.2209298E+04  0.7818609E-02  0.8514568E-01
        2   -1    0    0  501    0  0.00000000000E+00  0.00000000000E+00  0.10510877635E+04  0.10510877635E+04  0.25500000920E-02 0. -1.
       -2   -1    0    0    0  501  0.00000000000E+00  0.00000000000E+00 -0.11609396299E+04  0.11609396299E+04  0.25500000920E-02 0.  1.
    10030    2    1    2    0    0  0.00000000000E+00  0.00000000000E+00 -0.10985186635E+03  0.22120273934E+04  0.22092980235E+04 0.  0.
        4    1    3    3  502    0  0.14908300785E+03 -0.28609307493E+03  0.10028700689E+04  0.10534823106E+04  0.12699999809E+01 0. -1.
       -4    1    3    3    0  502 -0.14908300785E+03  0.28609307493E+03 -0.11127219353E+04  0.11585450828E+04  0.12699999809E+01 0.  1.
</event>
<event>
 5   0  0.5895063E-05  0.2170395E+04  0.7818609E-02  0.8530852E-01
        1   -1    0    0  501    0  0.00000000000E+00  0.00000000000E+00  0.14716425437E+04  0.14716425437E+04  0.50400001928E-02 0. -1.
       -1   -1    0    0    0  501  0.00000000000E+00  0.00000000000E+00 -0.80023085180E+03  0.80023085182E+03  0.50400001928E-02 0.  1.
    10030    2    1    2    0    0  0.00000000000E+00  0.00000000000E+00  0.67141169191E+03  0.22718733955E+04  0.21703951404E+04 0.  0.
        5    1    3    3  502    0  0.82053464163E+03 -0.35863718638E+03  0.97733713588E+03  0.13255593901E+04  0.46999998093E+01 0. -1.
       -5    1    3    3    0  502 -0.82053464163E+03  0.35863718638E+03 -0.30592544397E+03  0.94631400541E+03  0.46999998093E+01 0.  1.
</event>
<event>
 5   0  0.4586375E-05  0.2191249E+04  0.7818609E-02  0.8522079E-01
        4   -1    0    0  501    0  0.00000000000E+00  0.00000000000E+00  0.76714297906E+03  0.76714403030E+03  0.12699999809E+01 0. -1.
       -4   -1    0    0    0  501  0.00000000000E+00  0.00000000000E+00 -0.15647556653E+04  0.15647561807E+04  0.12699999809E+01 0.  1.
    10030    2    1    2    0    0  0.00000000000E+00  0.00000000000E+00 -0.79761268626E+03  0.23319002110E+04  0.21912490951E+04 0.  0.
        4    1    3    3  502    0 -0.53099356311E+03 -0.54888939970E+02  0.61938522416E+03  0.81768369716E+03  0.12699999809E+01 0. -1.
       -4    1    3    3    0  502  0.53099356311E+03  0.54888939970E+02 -0.14169979104E+04  0.15142165138E+04  0.12699999809E+01 0.  1.
</event>
<event>
 5   0  0.4586375E-05  0.2057551E+04  0.7818609E-02  0.8580177E-01
       -3   -1    0    0    0  501  0.00000000000E+00  0.00000000000E+00  0.11899828243E+04  0.11899828286E+04  0.10100000352E+00 0. -1.
        3   -1    0    0  501    0  0.00000000000E+00  0.00000000000E+00 -0.88940681345E+03  0.88940681919E+03  0.10100000352E+00 0.  1.
    10030    2    1    2    0    0  0.00000000000E+00  0.00000000000E+00  0.30057601082E+03  0.20793896477E+04  0.20575508181E+04 0.  0.
        1    1    3    3  502    0  0.82496694007E+03  0.51769517494E+03 -0.18459003273E+03  0.99128816525E+03  0.50400001928E-02 0.  1.
       -1    1    3    3    0  502 -0.82496694007E+03 -0.51769517494E+03  0.48516604355E+03  0.10881014825E+04  0.50400001928E-02 0. -1.
</event>
<event>
 5   0  0.5849604E-05  0.2219032E+04  0.7818609E-02  0.8510548E-01
        1   -1    0    0  501    0  0.00000000000E+00  0.00000000000E+00  0.12667439029E+04  0.12667439029E+04  0.50400001928E-02 0. -1.
       -1   -1    0    0    0  501  0.00000000000E+00  0.00000000000E+00 -0.97180281194E+03  0.97180281195E+03  0.50400001928E-02 0.  1.
    10030    2    1    2    0    0  0.00000000000E+00  0.00000000000E+00  0.29494109093E+03  0.22385467148E+04  0.22190315787E+04 0.  0.
        2    1    3    3  502    0  0.24586372419E+03 -0.79288920372E+03  0.89008511837E+03  0.12171169945E+04  0.25500000920E-02 0. -1.
       -2    1    3    3    0  502 -0.24586372419E+03  0.79288920372E+03 -0.59514402744E+03  0.10214297204E+04  0.25500000920E-02 0.  1.
</event>
<event>
 5   0  0.6263558E-05  0.2214521E+04  0.7818609E-02  0.8512408E-01
       -1   -1    0    0    0  501  0.00000000000E+00  0.00000000000E+00  0.96870423982E+03  0.96870423983E+03  0.50400001928E-02 0. -1.
        1   -1    0    0  501    0  0.00000000000E+00  0.00000000000E+00 -0.12656346784E+04  0.12656346784E+04  0.50400001928E-02 0.  1.
    10030    2    1    2    0    0  0.00000000000E+00  0.00000000000E+00 -0.29693043856E+03  0.22343389182E+04  0.22145208773E+04 0.  0.
        3    1    3    3  502    0 -0.24993057799E+03  0.37152451164E+03  0.87328193639E+03  0.98138530007E+03  0.10100000352E+00 0. -1.
       -3    1    3    3    0  502  0.24993057799E+03 -0.37152451164E+03 -0.11702123750E+04  0.12529536182E+04  0.10100000352E+00 0.  1.
</event>
<event>
 5   0  0.5895063E-05  0.2108190E+04  0.7818609E-02  0.8557644E-01
       -1   -1    0    0    0  501  0.00000000000E+00  0.00000000000E+00  0.14566750703E+04  0.14566750703E+04  0.50400001928E-02 0. -1.
        1   -1    0    0  501    0  0.00000000000E+00  0.00000000000E+00 -0.76277587385E+03  0.76277587387E+03  0.50400001928E-02 0.  1.
    10030    2    1    2    0    0  0.00000000000E+00  0.00000000000E+00  0.69389919643E+03  0.22194509442E+04  0.21081903137E+04 0.  0.
        5    1    3    3  502    0  0.86732872351E+03 -0.51366902878E+03  0.67140180397E+03  0.12111636793E+04  0.46999998093E+01 0. -1.
       -5    1    3    3    0  502 -0.86732872351E+03  0.51366902878E+03  0.22497392452E+02  0.10082872648E+04  0.46999998093E+01 0.  1.
</event>
<event>
 5   0  0.1404159E-04  0.2214051E+04  0.7818609E-02  0.8512602E-01
        2   -1    0    0  501    0  0.00000000000E+00  0.00000000000E+00  0.14517364189E+04  0.14517364189E+04  0.25500000920E-02 0.  1.
       -2   -1    0    0    0  501  0.00000000000E+00  0.00000000000E+00 -0.84416534844E+03  0.84416534844E+03  0.25500000920E-02 0. -1.
    10030    2    1    2    0    0  0.00000000000E+00  0.00000000000E+00  0.60757107043E+03  0.22959017673E+04  0.22140511104E+04 0.  0.
        5    1    3    3  502    0  0.82059434539E+02 -0.10135789244E+04 -0.14988976911E+03  0.10278934865E+04  0.46999998093E+01 0. -1.
       -5    1    3    3    0  502 -0.82059434539E+02  0.10135789244E+04  0.75746083954E+03  0.12680082808E+04  0.46999998093E+01 0.  1.
</event>
<event>
 5   0  0.5861816E-05  0.1900240E+04  0.7818609E-02  0.8654737E-01
       -1   -1    0    0    0  501  0.00000000000E+00  0.00000000000E+00  0.64907892649E+03  0.64907892651E+03  0.50400001928E-02 0. -1.
        1   -1    0    0  501    0  0.00000000000E+00  0.00000000000E+00 -0.13907836545E+04  0.13907836545E+04  0.50400001928E-02 0.  1.
    10030    2    1    2    0    0  0.00000000000E+00  0.00000000000E+00 -0.74170472800E+03  0.20398625810E+04  0.19002403653E+04 0.  0.
        1    1    3    3  502    0 -0.23568578850E+03 -0.33847656005E+03 -0.12896715072E+04  0.13540187477E+04  0.50400001928E-02 0.  1.
       -1    1    3    3    0  502  0.23568578850E+03  0.33847656005E+03  0.54796677918E+03  0.68584383333E+03  0.50400001928E-02 0. -1.
</event>
<event>
 5   0  0.5895063E-05  0.2195872E+04  0.7818609E-02  0.8520148E-01
       -1   -1    0    0    0  501  0.00000000000E+00  0.00000000000E+00  0.10420670833E+04  0.10420670833E+04  0.50400001928E-02 0. -1.
        1   -1    0    0  501    0  0.00000000000E+00  0.00000000000E+00 -0.11568005834E+04  0.11568005834E+04  0.50400001928E-02 0.  1.
    10030    2    1    2    0    0  0.00000000000E+00  0.00000000000E+00 -0.11473350010E+03  0.21988676666E+04  0.21958723185E+04 0.  0.
        5    1    3    3  502    0  0.51658811610E+03 -0.38503030297E+03 -0.94758454551E+03  0.11458840154E+04  0.46999998093E+01 0.  1.
       -5    1    3    3    0  502 -0.51658811610E+03  0.38503030297E+03  0.83285104541E+03  0.10529836512E+04  0.46999998093E+01 0. -1.
</event>
<event>
 5   0  0.5981239E-05  0.2203622E+04  0.7818609E-02  0.8516922E-01
       -1   -1    0    0    0  501  0.00000000000E+00  0.00000000000E+00  0.10444763697E+04  0.10444763697E+04  0.50400001928E-02 0.  1.
        1   -1    0    0  501    0  0.00000000000E+00  0.00000000000E+00 -0.11622926399E+04  0.11622926399E+04  0.50400001928E-02 0. -1.
    10030    2    1    2    0    0  0.00000000000E+00  0.00000000000E+00 -0.11781627023E+03  0.22067690096E+04  0.22036217435E+04 0.  0.
        4    1    3    3  502    0  0.53646620615E+03 -0.33597796013E+03 -0.96203228873E+03  0.11516010236E+04  0.12699999809E+01 0. -1.
       -4    1    3    3    0  502 -0.53646620615E+03  0.33597796013E+03  0.84421601851E+03  0.10551679861E+04  0.12699999809E+01 0.  1.
</event>
<event>
 5   0  0.5849604E-05  0.2214218E+04  0.7818609E-02  0.8512533E-01
       -1   -1    0    0    0  501  0.00000000000E+00  0.00000000000E+00  0.12063842002E+04  0.12063842003E+04  0.50400001928E-02 0. -1.
        1   -1    0    0  501    0  0.00000000000E+00  0.00000000000E+00 -0.10160036920E+04  0.10160036920E+04  0.50400001928E-02 0.  1.
    10030    2    1    2    0    0  0.00000000000E+00  0.00000000000E+00  0.19038050821E+03  0.22223878923E+04  0.22142184187E+04 0.  0.
        2    1    3    3  502    0  0.77862518508E+03 -0.73013646961E+03 -0.19972092541E+03  0.10859304265E+04  0.25500000920E-02 0.  1.
       -2    1    3    3    0  502 -0.77862518508E+03  0.73013646961E+03  0.39010143362E+03  0.11364574658E+04  0.25500000920E-02 0. -1.
</event>
<event>
 5   0  0.1226021E-04  0.2175638E+04  0.7818609E-02  0.8528637E-01
        2   -1    0    0  501    0  0.00000000000E+00  0.00000000000E+00  0.19137899777E+04  0.19137899777E+04  0.25500000920E-02 0.  1.
       -2   -1    0    0    0  501  0.00000000000E+00  0.00000000000E+00 -0.61832809181E+03  0.61832809181E+03  0.25500000920E-02 0. -1.
    10030    2    1    2    0    0  0.00000000000E+00  0.00000000000E+00  0.12954618859E+04  0.25321180695E+04  0.21756379341E+04 0.  0.
        2    1    3    3  502    0 -0.10717021368E+04 -0.41565414103E+02  0.43606057387E+03  0.11577659426E+04  0.25500000920E-02 0.  1.
       -2    1    3    3    0  502  0.10717021368E+04  0.41565414103E+02  0.85940131205E+03  0.13743521270E+04  0.25500000920E-02 0. -1.
</event>
<event>
 5   0  0.1252124E-04  0.2250142E+04  0.7818609E-02  0.8497843E-01
       -2   -1    0    0    0  501  0.00000000000E+00  0.00000000000E+00  0.89062819461E+03  0.89062819461E+03  0.25500000920E-02 0.  1.
        2   -1    0    0  501    0  0.00000000000E+00  0.00000000000E+00 -0.14212265806E+04  0.14212265806E+04  0.25500000920E-02 0. -1.
    10030    2    1    2    0    0  0.00000000000E+00  0.00000000000E+00 -0.53059838603E+03  0.23118547753E+04  0.22501417410E+04 0.  0.
        3    1    3    3  502    0 -0.92190841290E+03  0.60572308316E+03 -0.37940925715E+02  0.11037459397E+04  0.10100000352E+00 0.  1.
       -3    1    3    3    0  502  0.92190841290E+03 -0.60572308316E+03 -0.49265746032E+03  0.12081088356E+04  0.10100000352E+00 0. -1.
</event>
<event>
 5   0  0.1311472E-04  0.2127363E+04  0.7818609E-02  0.8549285E-01
        2   -1    0    0  501    0  0.00000000000E+00  0.00000000000E+00  0.19445226439E+04  0.19445226439E+04  0.25500000920E-02 0.  1.
       -2   -1    0    0    0  501  0.00000000000E+00  0.00000000000E+00 -0.58184863173E+03  0.58184863174E+03  0.25500000920E-02 0. -1.
    10030    2    1    2    0    0  0.00000000000E+00  0.00000000000E+00  0.13626740122E+04  0.25263712757E+04  0.21273625359E+04 0.  0.
        4    1    3    3  502    0 -0.58946668285E+03 -0.76526595349E+03  0.15248815685E+03  0.97793517200E+03  0.12699999809E+01 0.  1.
       -4    1    3    3    0  502  0.58946668285E+03  0.76526595349E+03  0.12101858553E+04  0.15484361037E+04  0.12699999809E+01 0. -1.
</event>
<event>
 5   0  0.5895063E-05  0.2167075E+04  0.7818609E-02  0.8532258E-01
       -1   -1    0    0    0  501  0.00000000000E+00  0.00000000000E+00  0.68603171796E+03  0.68603171798E+03  0.50400001928E-02 0.  1.
        1   -1    0    0  501    0  0.00000000000E+00  0.00000000000E+00 -0.17113698732E+04  0.17113698732E+04  0.50400001928E-02 0. -1.
    10030    2    1    2    0    0  0.00000000000E+00  0.00000000000E+00 -0.10253381552E+04  0.23974015912E+04  0.21670754617E+04 0.  0.
        5    1    3    3  502    0 -0.55683715287E+03 -0.31590645827E+03  0.45440783042E+03  0.78509430742E+03  0.46999998093E+01 0.  1.
       -5    1    3    3    0  502  0.55683715287E+03  0.31590645827E+03 -0.14797459856E+04  0.16123072837E+04  0.46999998093E+01 0. -1.
</event>
<event>
 5   0  0.1241430E-04  0.2182077E+04  0.7818609E-02  0.8525925E-01
       -2   -1    0    0    0  501  0.00000000000E+00  0.00000000000E+00  0.86814155666E+03  0.86814155666E+03  0.25500000920E-02 0. -1.
        2   -1    0    0  501    0  0.00000000000E+00  0.00000000000E+00 -0.13711649302E+04  0.13711649302E+04  0.25500000920E-02 0.  1.
    10030    2    1    2    0    0  0.00000000000E+00  0.00000000000E+00 -0.50302337351E+03  0.22393064868E+04  0.21820772277E+04 0.  0.
        1    1    3    3  502    0 -0.62481359760E+03  0.57796829796E+03  0.44897814319E+03  0.96229972372E+03  0.50400001928E-02 0. -1.
       -1    1    3    3    0  502  0.62481359760E+03 -0.57796829796E+03 -0.95200151670E+03  0.12770067631E+04  0.50400001928E-02 0.  1.
</event>
<event>
 5   0  0.1404159E-04  0.2199208E+04  0.7818609E-02  0.8518758E-01
       -2   -1    0    0    0  501  0.00000000000E+00  0.00000000000E+00  0.63920443574E+03  0.63920443574E+03  0.25500000920E-02 0.  1.
        2   -1    0    0  501    0  0.00000000000E+00  0.00000000000E+00 -0.18916152206E+04  0.18916152206E+04  0.25500000920E-02 0. -1.
    10030    2    1    2    0    0  0.00000000000E+00  0.00000000000E+00 -0.12524107849E+04  0.25308196563E+04  0.21992078935E+04 0.  0.
        5    1    3    3  502    0 -0.38336944516E+03 -0.84825865516E+02  0.55577052113E+03  0.68049285162E+03  0.46999998093E+01 0.  1.
       -5    1    3    3    0  502  0.38336944516E+03  0.84825865516E+02 -0.18081813060E+04  0.18503268047E+04  0.46999998093E+01 0. -1.
</event>
<event>
 5   0  0.5981239E-05  0.2245337E+04  0.7818609E-02  0.8499791E-01
       -1   -1    0    0    0  501  0.00000000000E+00  0.00000000000E+00  0.91424639709E+03  0.91424639711E+03  0.50400001928E-02 0.  1.
        1   -1    0    0  501    0  0.00000000000E+00  0.00000000000E+00 -0.13786046581E+04  0.13786046581E+04  0.50400001928E-02 0. -1.
    10030    2    1    2    0    0  0.00000000000E+00  0.00000000000E+00 -0.46435826105E+03  0.22928510553E+04  0.22453368048E+04 0.  0.
        4    1    3    3  502    0  0.55575886044E+03  0.33493180586E+03 -0.11677186661E+04  0.13358951013E+04  0.12699999809E+01 0. -1.
       -4    1    3    3    0  502 -0.55575886044E+03 -0.33493180586E+03  0.70336040506E+03  0.95695595397E+03  0.12699999809E+01 0.  1.
</event>
<event>
 5   0  0.5849604E-05  0.2129088E+04  0.7818609E-02  0.8548537E-01
       -1   -1    0    0    0  501  0.00000000000E+00  0.00000000000E+00  0.82224691632E+03  0.82224691634E+03  0.50400001928E-02 0.  1.
        1   -1    0    0  501    0  0.00000000000E+00  0.00000000000E+00 -0.13782405819E+04  0.13782405819E+04  0.50400001928E-02 0. -1.
    10030    2    1    2    0    0  0.00000000000E+00  0.00000000000E+00 -0.55599366558E+03  0.22004874982E+04  0.21290881320E+04 0.  0.
        2    1    3    3  502    0 -0.83817140465E+03 -0.18987735299E+03  0.37129803449E+03  0.93618745088E+03  0.25500000920E-02 0.  1.
       -2    1    3    3    0  502  0.83817140465E+03  0.18987735299E+03 -0.92729170007E+03  0.12643000474E+04  0.25500000920E-02 0. -1.
</event>
<event>
 5   0  0.5849604E-05  0.2188721E+04  0.7818609E-02  0.8523137E-01
       -1   -1    0    0    0  501  0.00000000000E+00  0.00000000000E+00  0.14466059556E+04  0.14466059556E+04  0.50400001928E-02 0.  1.
        1   -1    0    0  501    0  0.00000000000E+00  0.00000000000E+00 -0.82788614085E+03  0.82788614087E+03  0.50400001928E-02 0. -1.
    10030    2    1    2    0    0  0.00000000000E+00  0.00000000000E+00  0.61871981477E+03  0.22744920965E+04  0.21887211078E+04 0.  0.
        2    1    3    3  502    0  0.82829139826E+03 -0.60126002831E+03 -0.93175810434E+02  0.10277460745E+04  0.25500000920E-02 0.  1.
       -2    1    3    3    0  502 -0.82829139826E+03  0.60126002831E+03  0.71189562521E+03  0.12467460220E+04  0.25500000920E-02 0. -1.
</event>
<event>
 5   0  0.6263558E-05  0.2197977E+04  0.7818609E-02  0.8519271E-01
        1   -1    0    0  501    0  0.00000000000E+00  0.00000000000E+00  0.23117771168E+04  0.23117771168E+04  0.50400001928E-02 0. -1.
       -1   -1    0    0    0  501  0.00000000000E+00  0.00000000000E+00 -0.52244475819E+03  0.52244475821E+03  0.50400001928E-02 0.  1.
    10030    2    1    2    0    0  0.00000000000E+00  0.00000000000E+00  0.17893323586E+04  0.28342218751E+04  0.21979771035E+04 0.  0.
        3    1    3    3  502    0 -0.50638622636E+03 -0.64795428007E+03 -0.45412012243E+02  0.82361035713E+03  0.10100000352E+00 0.  1.
       -3    1    3    3    0  502  0.50638622636E+03  0.64795428007E+03  0.18347443709E+04  0.20106115179E+04  0.10100000352E+00 0. -1.
</event>
<event>
 5   0  0.5849604E-05  0.2136306E+04  0.7818609E-02  0.8545417E-01
       -1   -1    0    0    0  501  0.00000000000E+00  0.00000000000E+00  0.69119691822E+03  0.69119691824E+03  0.50400001928E-02 0. -1.
        1   -1    0    0  501    0  0.00000000000E+00  0.00000000000E+00 -0.16506887951E+04  0.16506887951E+04  0.50400001928E-02 0.  1.
    10030    2    1    2    0    0  0.00000000000E+00  0.00000000000E+00 -0.95949187689E+03  0.23418857134E+04  0.21363061655E+04 0.  0.
        2    1    3    3  502    0  0.55747581549E+03  0.39549921242E+03  0.42006707131E+03  0.80228128252E+03  0.25500000920E-02 0. -1.
       -2    1    3    3    0  502 -0.55747581549E+03 -0.39549921242E+03 -0.13795589482E+04  0.15396044308E+04  0.25500000920E-02 0.  1.
</event>
<event>
 5   0  0.1226021E-04  0.2136747E+04  0.7818609E-02  0.8545227E-01
       -2   -1    0    0    0  501  0.00000000000E+00  0.00000000000E+00  0.10175604685E+04  0.10175604685E+04  0.25500000920E-02 0.  1.
        2   -1    0    0  501    0  0.00000000000E+00  0.00000000000E+00 -0.11217234622E+04  0.11217234622E+04  0.25500000920E-02 0. -1.
    10030    2    1    2    0    0  0.00000000000E+00  0.00000000000E+00 -0.10416299371E+03  0.21392839307E+04  0.21367465472E+04 0.  0.
        2    1    3    3  502    0 -0.76373330805E+03 -0.61884213954E+02 -0.79748104089E+03  0.11059359079E+04  0.25500000920E-02 0. -1.
       -2    1    3    3    0  502  0.76373330805E+03  0.61884213954E+02  0.69331804718E+03  0.10333480228E+04  0.25500000920E-02 0.  1.
</event>
<event>
 5   0  0.1226021E-04  0.1623506E+04  0.7818609E-02  0.8806236E-01
       -2   -1    0    0    0  501  0.00000000000E+00  0.00000000000E+00  0.46115911219E+03  0.46115911220E+03  0.25500000920E-02 0.  1.
        2   -1    0    0  501    0  0.00000000000E+00  0.00000000000E+00 -0.14288834369E+04  0.14288834370E+04  0.25500000920E-02 0. -1.
    10030    2    1    2    0    0  0.00000000000E+00  0.00000000000E+00 -0.96772432476E+03  0.18900425491E+04  0.16235056110E+04 0.  0.
        2    1    3    3  502    0 -0.13157819154E+03 -0.72020480881E+03 -0.75678836523E+02  0.73602654397E+03  0.25500000920E-02 0.  1.
       -2    1    3    3    0  502  0.13157819154E+03  0.72020480881E+03 -0.89204548823E+03  0.11540160052E+04  0.25500000920E-02 0. -1.
</event>
<event>
 5   0  0.1252124E-04  0.2201723E+04  0.7818609E-02  0.8517711E-01
        2   -1    0    0  501    0  0.00000000000E+00  0.00000000000E+00  0.11089709303E+04  0.11089709303E+04  0.25500000920E-02 0. -1.
       -2   -1    0    0    0  501  0.00000000000E+00  0.00000000000E+00 -0.10928113947E+04  0.10928113947E+04  0.25500000920E-02 0.  1.
    10030    2    1    2    0    0  0.00000000000E+00  0.00000000000E+00  0.16159535534E+02  0.22017823250E+04  0.22017230244E+04 0.  0.
        3    1    3    3  502    0 -0.65108724617E+03 -0.51265654751E+02 -0.87814570857E+03  0.10943868901E+04  0.10100000352E+00 0.  1.
       -3    1    3    3    0  502  0.65108724617E+03  0.51265654751E+02  0.89430524410E+03  0.11073954349E+04  0.10100000352E+00 0. -1.
</event>
<event>
 5   0  0.5861816E-05  0.2258654E+04  0.7818609E-02  0.8494404E-01
        1   -1    0    0  501    0  0.00000000000E+00  0.00000000000E+00  0.98638217361E+03  0.98638217362E+03  0.50400001928E-02 0.  1.
       -1   -1    0    0    0  501  0.00000000000E+00  0.00000000000E+00 -0.12929872736E+04  0.12929872736E+04  0.50400001928E-02 0. -1.
    10030    2    1    2    0    0  0.00000000000E+00  0.00000000000E+00 -0.30660509996E+03  0.22793694472E+04  0.22586541102E+04 0.  0.
        1    1    3    3  502    0  0.78258012765E+03  0.14544140605E+03  0.65516588912E+03  0.10309351100E+04  0.50400001928E-02 0.  1.
       -1    1    3    3    0  502 -0.78258012765E+03 -0.14544140605E+03 -0.96177098908E+03  0.12484343372E+04  0.50400001928E-02 0. -1.
</event>
<event>
 5   0  0.5849604E-05  0.2238360E+04  0.7818609E-02  0.8502629E-01
        1   -1    0    0  501    0  0.00000000000E+00  0.00000000000E+00  0.14752717784E+04  0.14752717784E+04  0.50400001928E-02 0. -1.
       -1   -1    0    0    0  501  0.00000000000E+00  0.00000000000E+00 -0.84903929807E+03  0.84903929808E+03  0.50400001928E-02 0.  1.
    10030    2    1    2    0    0  0.00000000000E+00  0.00000000000E+00  0.62623248029E+03  0.23243110764E+04  0.22383598595E+04 0.  0.
        2    1    3    3  502    0 -0.91814829552E+03  0.44534090706E+03  0.79037212315E+03  0.12907412247E+04  0.25500000920E-02 0. -1.
       -2    1    3    3    0  502  0.91814829552E+03 -0.44534090706E+03 -0.16413964287E+03  0.10335698517E+04  0.25500000920E-02 0.  1.
</event>
<event>
 5   0  0.5849604E-05  0.2207460E+04  0.7818609E-02  0.8515330E-01
        1   -1    0    0  501    0  0.00000000000E+00  0.00000000000E+00  0.78710385153E+03  0.78710385155E+03  0.50400001928E-02 0. -1.
       -1   -1    0    0    0  501  0.00000000000E+00  0.00000000000E+00 -0.15477240217E+04  0.15477240217E+04  0.50400001928E-02 0.  1.
    10030    2    1    2    0    0  0.00000000000E+00  0.00000000000E+00 -0.76062017013E+03  0.23348278732E+04  0.22074596609E+04 0.  0.
        2    1    3    3  502    0  0.37188187505E+03 -0.24725048968E+03 -0.14479002370E+04  0.15152042865E+04  0.25500000920E-02 0.  1.
       -2    1    3    3    0  502 -0.37188187505E+03  0.24725048968E+03  0.68728006683E+03  0.81962358672E+03  0.25500000920E-02 0. -1.
</event>
<event>
 5   0  0.1252124E-04  0.2198760E+04  0.7818609E-02  0.8518944E-01
       -2   -1    0    0    0  501  0.00000000000E+00  0.00000000000E+00  0.55504918290E+03  0.55504918291E+03  0.25500000920E-02 0. -1.
        2   -1    0    0  501    0  0.00000000000E+00  0.00000000000E+00 -0.21775300760E+04  0.21775300760E+04  0.25500000920E-02 0.  1.
    10030    2    1    2    0    0  0.00000000000E+00  0.00000000000E+00 -0.16224808931E+04  0.27325792589E+04  0.21987599136E+04 0.  0.
        3    1    3    3  502    0 -0.47834457482E+03 -0.98646879801E+03 -0.91298215670E+03  0.14266992151E+04  0.10100000352E+00 0. -1.
       -3    1    3    3    0  502  0.47834457482E+03  0.98646879801E+03 -0.70949873640E+03  0.13058800438E+04  0.10100000352E+00 0.  1.
</event>
<event>
 5   0  0.1226021E-04  0.2155426E+04  0.7818609E-02  0.8537213E-01
        2   -1    0    0  501    0  0.00000000000E+00  0.00000000000E+00  0.20752897626E+04  0.20752897627E+04  0.25500000920E-02 0.  1.
       -2   -1    0    0    0  501  0.00000000000E+00  0.00000000000E+00 -0.55966429304E+03  0.55966429304E+03  0.25500000920E-02 0. -1.
    10030    2    1    2    0    0  0.00000000000E+00  0.00000000000E+00  0.15156254696E+04  0.26349540557E+04  0.21554262482E+04 0.  0.
        2    1    3    3  502    0  0.72798000056E+03  0.68410570010E+03  0.26348821225E+03  0.10331415818E+04  0.25500000920E-02 0. -1.
       -2    1    3    3    0  502 -0.72798000056E+03 -0.68410570010E+03  0.12521372574E+04  0.16018124739E+04  0.25500000920E-02 0.  1.
</event>
<event>
 5   0  0.1226021E-04  0.2180498E+04  0.7818609E-02  0.8526589E-01
       -2   -1    0    0    0  501  0.00000000000E+00  0.00000000000E+00  0.68421075176E+03  0.68421075177E+03  0.25500000920E-02 0. -1.
        2   -1    0    0  501    0  0.00000000000E+00  0.00000000000E+00 -0.17372470025E+04  0.17372470025E+04  0.25500000920E-02 0.  1.
    10030    2    1    2    0    0  0.00000000000E+00  0.00000000000E+00 -0.10530362507E+04  0.24214577543E+04  0.21804981794E+04 0.  0.
        2    1    3    3  502    0  0.71362363181E+03  0.79419832074E+03 -0.77141799869E+03  0.13172301960E+04  0.25500000920E-02 0.  1.
       -2    1    3    3    0  502 -0.71362363181E+03 -0.79419832074E+03 -0.28161825204E+03  0.11042275583E+04  0.25500000920E-02 0. -1.
</event>
<event>
 5   0  0.5981239E-05  0.2262211E+04  0.7818609E-02  0.8492972E-01
        1   -1    0    0  501    0  0.00000000000E+00  0.00000000000E+00  0.16802419624E+04  0.16802419624E+04  0.50400001928E-02 0. -1.
       -1   -1    0    0    0  501  0.00000000000E+00  0.00000000000E+00 -0.76143751145E+03  0.76143751147E+03  0.50400001928E-02 0.  1.
    10030    2    1    2    0    0  0.00000000000E+00  0.00000000000E+00  0.91880445095E+03  0.24416794739E+04  0.22622106520E+04 0.  0.
        4    1    3    3  502    0 -0.27856714904E+03  0.21944494115E+03  0.16186896402E+04  0.16570798118E+04  0.12699999809E+01 0. -1.
       -4    1    3    3    0  502  0.27856714904E+03 -0.21944494115E+03 -0.69988518921E+03  0.78459966205E+03  0.12699999809E+01 0.  1.
</event>
<event>
 5   0  0.4586375E-05  0.2207580E+04  0.7818609E-02  0.8515280E-01
        3   -1    0    0  501    0  0.00000000000E+00  0.00000000000E+00  0.50074941747E+03  0.50074942766E+03  0.10100000352E+00 0.  1.
       -3   -1    0    0    0  501  0.00000000000E+00  0.00000000000E+00 -0.24330573081E+04  0.24330573102E+04  0.10100000352E+00 0. -1.
    10030    2    1    2    0    0  0.00000000000E+00  0.00000000000E+00 -0.19323078906E+04  0.29338067379E+04  0.22075797134E+04 0.  0.
        2    1    3    3  502    0 -0.58610455290E+03 -0.55862731462E+02 -0.22069540822E+04  0.22841378051E+04  0.25500000920E-02 0. -1.
       -2    1    3    3    0  502  0.58610455290E+03  0.55862731462E+02  0.27464619154E+03  0.64966893279E+03  0.25500000920E-02 0.  1.
</event>
<event>
 5   0  0.1241430E-04  0.2108697E+04  0.7818609E-02  0.8557422E-01
       -2   -1    0    0    0  501  0.00000000000E+00  0.00000000000E+00  0.16442937230E+04  0.16442937230E+04  0.25500000920E-02 0.  1.
        2   -1    0    0  501    0  0.00000000000E+00  0.00000000000E+00 -0.67606590306E+03  0.67606590306E+03  0.25500000920E-02 0. -1.
    10030    2    1    2    0    0  0.00000000000E+00  0.00000000000E+00  0.96822781992E+03  0.23203596260E+04  0.21086971530E+04 0.  0.
        1    1    3    3  502    0 -0.29372224607E+03 -0.32147600737E+03 -0.57249417605E+03  0.71928378460E+03  0.50400001928E-02 0. -1.
       -1    1    3    3    0  502  0.29372224607E+03  0.32147600737E+03  0.15407219960E+04  0.16010758414E+04  0.50400001928E-02 0.  1.
</event>
<event>
 5   0  0.1252124E-04  0.2206768E+04  0.7818609E-02  0.8515617E-01
       -2   -1    0    0    0  501  0.00000000000E+00  0.00000000000E+00  0.68301585831E+03  0.68301585832E+03  0.25500000920E-02 0. -1.
        2   -1    0    0  501    0  0.00000000000E+00  0.00000000000E+00 -0.17824709702E+04  0.17824709702E+04  0.25500000920E-02 0.  1.
    10030    2    1    2    0    0  0.00000000000E+00  0.00000000000E+00 -0.10994551119E+04  0.24654868285E+04  0.22067677174E+04 0.  0.
        3    1    3    3  502    0  0.48093759637E+03  0.86116231407E+03 -0.11022295233E+04  0.14791252263E+04  0.10100000352E+00 0.  1.
       -3    1    3    3    0  502 -0.48093759637E+03 -0.86116231407E+03  0.27744114325E+01  0.98636160223E+03  0.10100000352E+00 0. -1.
</event>
<event>
 5   0  0.4586375E-05  0.2184758E+04  0.7818609E-02  0.8524799E-01
        4   -1    0    0  501    0  0.00000000000E+00  0.00000000000E+00  0.76291925249E+03  0.76292030954E+03  0.12699999809E+01 0. -1.
       -4   -1    0    0    0  501  0.00000000000E+00  0.00000000000E+00 -0.15641099978E+04  0.15641105134E+04  0.12699999809E+01 0.  1.
    10030    2    1    2    0    0  0.00000000000E+00  0.00000000000E+00 -0.80119074529E+03  0.23270308229E+04  0.21847576160E+04 0.  0.
        5    1    3    3  502    0  0.16761763560E+03  0.91378210632E+03 -0.10126238059E+04  0.13742352317E+04  0.46999998093E+01 0.  1.
       -5    1    3    3    0  502 -0.16761763560E+03 -0.91378210632E+03  0.21143306065E+03  0.95279559126E+03  0.46999998093E+01 0. -1.
</event>
<event>
 5   0  0.1252124E-04  0.2194052E+04  0.7818609E-02  0.8520908E-01
        2   -1    0    0  501    0  0.00000000000E+00  0.00000000000E+00  0.24241188395E+04  0.24241188395E+04  0.25500000920E-02 0. -1.
       -2   -1    0    0    0  501  0.00000000000E+00  0.00000000000E+00 -0.49645506139E+03  0.49645506140E+03  0.25500000920E-02 0.  1.
    10030    2    1    2    0    0  0.00000000000E+00  0.00000000000E+00  0.19276637781E+04  0.29205739009E+04  0.21940520206E+04 0.  0.
        3    1    3    3  502    0  0.41400089165E+02 -0.87100575668E+03  0.77752418161E+02  0.87544871025E+03  0.10100000352E+00 0.  1.
       -3    1    3    3    0  502 -0.41400089165E+02  0.87100575668E+03  0.18499113599E+04  0.20451251906E+04  0.10100000352E+00 0. -1.
</event>
<event>
 5   0  0.1226021E-04  0.2125246E+04  0.7818609E-02  0.8550203E-01
        2   -1    0    0  501    0  0.00000000000E+00  0.00000000000E+00  0.11327050930E+04  0.11327050930E+04  0.25500000920E-02 0. -1.
       -2   -1    0    0    0  501  0.00000000000E+00  0.00000000000E+00 -0.99687736225E+03  0.99687736225E+03  0.25500000920E-02 0.  1.
    10030    2    1    2    0    0  0.00000000000E+00  0.00000000000E+00  0.13582773074E+03  0.21295824552E+04  0.21252464001E+04 0.  0.
        2    1    3    3  502    0  0.23424243671E+03  0.87449979890E+02  0.11028090186E+04  0.11307982798E+04  0.25500000920E-02 0. -1.
       -2    1    3    3    0  502 -0.23424243671E+03 -0.87449979890E+02 -0.96698128782E+03  0.99878417546E+03  0.25500000920E-02 0.  1.
</event>
<event>
 5   0  0.1252124E-04  0.2197311E+04  0.7818609E-02  0.8519548E-01
        2   -1    0    0  501    0  0.00000000000E+00  0.00000000000E+00  0.16420940952E+04  0.16420940952E+04  0.25500000920E-02 0.  1.
       -2   -1    0    0    0  501  0.00000000000E+00  0.00000000000E+00 -0.73506348137E+03  0.73506348137E+03  0.25500000920E-02 0. -1.
    10030    2    1    2    0    0  0.00000000000E+00  0.00000000000E+00  0.90703061384E+03  0.23771575766E+04  0.21973105401E+04 0.  0.
        3    1    3    3  502    0 -0.54627725870E+02 -0.43030832917E+03 -0.63850577573E+03  0.77190613576E+03  0.10100000352E+00 0. -1.
       -3    1    3    3    0  502  0.54627725870E+02  0.43030832917E+03  0.15455363896E+04  0.16052514408E+04  0.10100000352E+00 0.  1.
</event>
<event>
 5   0  0.5895063E-05  0.2185880E+04  0.7818609E-02  0.8524328E-01
        1   -1    0    0  501    0  0.00000000000E+00  0.00000000000E+00  0.15719160300E+04  0.15719160300E+04  0.50400001928E-02 0.  1.
       -1   -1    0    0    0  501  0.00000000000E+00  0.00000000000E+00 -0.75991203032E+03  0.75991203034E+03  0.50400001928E-02 0. -1.
    10030    2    1    2    0    0  0.00000000000E+00  0.00000000000E+00  0.81200399970E+03  0.23318280604E+04  0.21858800533E+04 0.  0.
        5    1    3    3  502    0 -0.38323111421E+03 -0.61104471073E+03  0.12819573927E+04  0.14709447889E+04  0.46999998093E+01 0.  1.
       -5    1    3    3    0  502  0.38323111421E+03  0.61104471073E+03 -0.46995339301E+03  0.86088327142E+03  0.46999998093E+01 0. -1.
</event>
<event>
 5   0  0.5895063E-05  0.2128821E+04  0.7818609E-02  0.8548653E-01
        1   -1    0    0  501    0  0.00000000000E+00  0.00000000000E+00  0.13164878352E+04  0.13164878352E+04  0.50400001928E-02 0.  1.
       -1   -1    0    0    0  501  0.00000000000E+00  0.00000000000E+00 -0.86060000253E+03  0.86060000254E+03  0.50400001928E-02 0. -1.
    10030    2    1    2    0    0  0.00000000000E+00  0.00000000000E+00  0.45588783271E+03  0.21770878378E+04  0.21288207387E+04 0.  0.
        5    1    3    3  502    0  0.62005543414E+03 -0.83962723957E+03  0.14636990904E+02  0.10438768962E+04  0.46999998093E+01 0. -1.
       -5    1    3    3    0  502 -0.62005543414E+03  0.83962723957E+03  0.44125084180E+03  0.11332109416E+04  0.46999998093E+01 0.  1.
</event>
<event>
 5   0  0.1241430E-04  0.2471556E+04  0.7818609E-02  0.8413190E-01
        2   -1    0    0  501    0  0.00000000000E+00  0.00000000000E+00  0.21234252685E+04  0.21234252685E+04  0.25500000920E-02 0. -1.
       -2   -1    0    0    0  501  0.00000000000E+00  0.00000000000E+00 -0.71919030221E+03  0.71919030221E+03  0.25500000920E-02 0.  1.
    10030    2    1    2    0    0  0.00000000000E+00  0.00000000000E+00  0.14042349663E+04  0.28426155707E+04  0.24715556725E+04 0.  0.
        1    1    3    3  502    0  0.56995572509E+03  0.93695415778E+03  0.47032435965E+02  0.10976997187E+04  0.50400001928E-02 0.  1.
       -1    1    3    3    0  502 -0.56995572509E+03 -0.93695415778E+03  0.13572025303E+04  0.17449158520E+04  0.50400001928E-02 0. -1.
</event>
<event>
 5   0  0.5849604E-05  0.2119177E+04  0.7818609E-02  0.8552843E-01
        1   -1    0    0  501    0  0.00000000000E+00  0.00000000000E+00  0.80296874583E+03  0.80296874585E+03  0.50400001928E-02 0. -1.
       -1   -1    0    0    0  501  0.00000000000E+00  0.00000000000E+00 -0.13982204420E+04  0.13982204420E+04  0.50400001928E-02 0.  1.
    10030    2    1    2    0    0  0.00000000000E+00  0.00000000000E+00 -0.59525169617E+03  0.22011891879E+04  0.21191765521E+04 0.  0.
        2    1    3    3  502    0 -0.23688990076E+03  0.69323678338E+03  0.49752835754E+03  0.88556678431E+03  0.25500000920E-02 0. -1.
       -2    1    3    3    0  502  0.23688990076E+03 -0.69323678338E+03 -0.10927800537E+04  0.13156224035E+04  0.25500000920E-02 0.  1.
</event>
<event>
 5   0  0.1226021E-04  0.2190252E+04  0.7818609E-02  0.8522497E-01
       -2   -1    0    0    0  501  0.00000000000E+00  0.00000000000E+00  0.61593402308E+03  0.61593402309E+03  0.25500000920E-02 0. -1.
        2   -1    0    0  501    0  0.00000000000E+00  0.00000000000E+00 -0.19471252713E+04  0.19471252713E+04  0.25500000920E-02 0.  1.
    10030    2    1    2    0    0  0.00000000000E+00  0.00000000000E+00 -0.13311912482E+04  0.25630592944E+04  0.21902517680E+04 0.  0.
        2    1    3    3  502    0  0.78043040272E+03  0.69913244321E+03 -0.29288182309E+03  0.10879510784E+04  0.25500000920E-02 0. -1.
       -2    1    3    3    0  502 -0.78043040272E+03 -0.69913244321E+03 -0.10383094251E+04  0.14751082160E+04  0.25500000920E-02 0.  1.
</event>
<event>
 5   0  0.5861816E-05  0.2200124E+04  0.7818609E-02  0.8518377E-01
       -1   -1    0    0    0  501  0.00000000000E+00  0.00000000000E+00  0.69698254129E+03  0.69698254130E+03  0.50400001928E-02 0. -1.
        1   -1    0    0  501    0  0.00000000000E+00  0.00000000000E+00 -0.17362504881E+04  0.17362504881E+04  0.50400001928E-02 0.  1.
    10030    2    1    2    0    0  0.00000000000E+00  0.00000000000E+00 -0.10392679468E+04  0.24332330294E+04  0.22001238852E+04 0.  0.
        1    1    3    3  502    0 -0.64340968950E+03  0.34241246030E+03 -0.14308973895E+04  0.16058298979E+04  0.50400001928E-02 0.  1.
       -1    1    3    3    0  502  0.64340968950E+03 -0.34241246030E+03  0.39162944277E+03  0.82740313148E+03  0.50400001928E-02 0. -1.
</event>
<event>
 5   0  0.1311472E-04  0.2182423E+04  0.7818609E-02  0.8525780E-01
       -2   -1    0    0    0  501  0.00000000000E+00  0.00000000000E+00  0.68612507830E+03  0.68612507830E+03  0.25500000920E-02 0.  1.
        2   -1    0    0  501    0  0.00000000000E+00  0.00000000000E+00 -0.17354594720E+04  0.17354594720E+04  0.25500000920E-02 0. -1.
    10030    2    1    2    0    0  0.00000000000E+00  0.00000000000E+00 -0.10493343937E+04  0.24215845503E+04  0.21824227511E+04 0.  0.
        4    1    3    3  502    0 -0.67040268793E+03  0.69977421582E+03 -0.10812511635E+04  0.14519743140E+04  0.12699999809E+01 0. -1.
       -4    1    3    3    0  502  0.67040268793E+03 -0.69977421582E+03  0.31916769844E+02  0.96961023624E+03  0.12699999809E+01 0.  1.
</event>
<event>
 5   0  0.5981239E-05  0.2167110E+04  0.7818609E-02  0.8532243E-01
       -1   -1    0    0    0  501  0.00000000000E+00  0.00000000000E+00  0.72939626042E+03  0.72939626044E+03  0.50400001928E-02 0.  1.
        1   -1    0    0  501    0  0.00000000000E+00  0.00000000000E+00 -0.16096763458E+04  0.16096763458E+04  0.50400001928E-02 0. -1.
    10030    2    1    2    0    0  0.00000000000E+00  0.00000000000E+00 -0.88028008542E+03  0.23390726063E+04  0.21671104330E+04 0.  0.
        4    1    3    3  502    0  0.17806535244E+03  0.63938563860E+03  0.48430937603E+03  0.82163157753E+03  0.12699999809E+01 0.  1.
       -4    1    3    3    0  502 -0.17806535244E+03 -0.63938563860E+03 -0.13645894614E+04  0.15174410288E+04  0.12699999809E+01 0. -1.
</event>
<event>
 5   0  0.1404159E-04  0.2191597E+04  0.7818609E-02  0.8521934E-01
       -2   -1    0    0    0  501  0.00000000000E+00  0.00000000000E+00  0.22697984120E+04  0.22697984121E+04  0.25500000920E-02 0. -1.
        2   -1    0    0  501    0  0.00000000000E+00  0.00000000000E+00 -0.52902267600E+03  0.52902267601E+03  0.25500000920E-02 0.  1.
    10030    2    1    2    0    0  0.00000000000E+00  0.00000000000E+00  0.17407757360E+04  0.27988210881E+04  0.21915974356E+04 0.  0.
        5    1    3    3  502    0 -0.55628879609E+03 -0.87829891613E+03  0.42820740762E+03  0.11243886715E+04  0.46999998093E+01 0.  1.
       -5    1    3    3    0  502  0.55628879609E+03  0.87829891613E+03  0.13125683284E+04  0.16744324165E+04  0.46999998093E+01 0. -1.
</event>
<event>
 5   0  0.5849604E-05  0.2205130E+04  0.7818609E-02  0.8516296E-01
        1   -1    0    0  501    0  0.00000000000E+00  0.00000000000E+00  0.13486046574E+04  0.13486046574E+04  0.50400001928E-02 0. -1.
       -1   -1    0    0    0  501  0.00000000000E+00  0.00000000000E+00 -0.90141298310E+03  0.90141298311E+03  0.50400001928E-02 0.  1.
    10030    2    1    2    0    0  0.00000000000E+00  0.00000000000E+00  0.44719167430E+03  0.22500176405E+04  0.22051301524E+04 0.  0.
        2    1    3    3  502    0 -0.94060228063E+03 -0.18377212325E+03 -0.33261037917E+03  0.10144626696E+04  0.25500000920E-02 0.  1.
       -2    1    3    3    0  502  0.94060228063E+03  0.18377212325E+03  0.77980205347E+03  0.12355549709E+04  0.25500000920E-02 0. -1.
</event>
<event>
 5   0  0.5895063E-05  0.2282027E+04  0.7818609E-02  0.8485042E-01
        1   -1    0    0  501    0  0.00000000000E+00  0.00000000000E+00  0.20820627692E+04  0.20820627692E+04  0.50400001928E-02 0. -1.
       -1   -1    0    0    0  501  0.00000000000E+00  0.00000000000E+00 -0.62529880279E+03  0.62529880281E+03  0.50400001928E-02 0.  1.
    10030    2    1    2    0    0  0.00000000000E+00  0.00000000000E+00  0.14567639664E+04  0.27073615720E+04  0.22820266054E+04 0.  0.
        5    1    3    3  502    0  0.74981736977E+03 -0.45482091760E+02 -0.29052469531E+03  0.80543242874E+03  0.46999998093E+01 0.  1.
       -5    1    3    3    0  502 -0.74981736977E+03  0.45482091760E+02  0.17472886617E+04  0.19019291433E+04  0.46999998093E+01 0. -1.
</event>
<event>
 5   0  0.1241430E-04  0.1583100E+04  0.7818609E-02  0.8830998E-01
        2   -1    0    0  501    0  0.00000000000E+00  0.00000000000E+00  0.13330234540E+04  0.13330234540E+04  0.25500000920E-02 0.  1.
       -2   -1    0    0    0  501  0.00000000000E+00  0.00000000000E+00 -0.47002264929E+03  0.47002264930E+03  0.25500000920E-02 0. -1.
    10030    2    1    2    0    0  0.00000000000E+00  0.00000000000E+00  0.86300080471E+03  0.18030461033E+04  0.15830997637E+04 0.  0.
        1    1    3    3  502    0 -0.30660823583E+03 -0.71241192626E+03  0.61162435830E+03  0.98773666463E+03  0.50400001928E-02 0.  1.
       -1    1    3    3    0  502  0.30660823583E+03  0.71241192626E+03  0.25137644641E+03  0.81530943868E+03  0.50400001928E-02 0. -1.
</event>
<event>
 5   0  0.6263558E-05  0.2206336E+04  0.7818609E-02  0.8515796E-01
        1   -1    0    0  501    0  0.00000000000E+00  0.00000000000E+00  0.15832138795E+04  0.15832138795E+04  0.50400001928E-02 0. -1.
       -1   -1    0    0    0  501  0.00000000000E+00  0.00000000000E+00 -0.76867672687E+03  0.76867672688E+03  0.50400001928E-02 0.  1.
    10030    2    1    2    0    0  0.00000000000E+00  0.00000000000E+00  0.81453715261E+03  0.23518906064E+04  0.22063360241E+04 0.  0.
        3    1    3    3  502    0 -0.25084878835E+03 -0.95840799293E+03  0.92457622473E+03  0.13551059741E+04  0.10100000352E+00 0. -1.
       -3    1    3    3    0  502  0.25084878835E+03  0.95840799293E+03 -0.11003907211E+03  0.99678463226E+03  0.10100000352E+00 0.  1.
</event>
<event>
 5   0  0.1241430E-04  0.2206588E+04  0.7818609E-02  0.8515691E-01
       -2   -1    0    0    0  501  0.00000000000E+00  0.00000000000E+00  0.50997829599E+03  0.50997829600E+03  0.25500000920E-02 0.  1.
        2   -1    0    0  501    0  0.00000000000E+00  0.00000000000E+00 -0.23868811476E+04  0.23868811476E+04  0.25500000920E-02 0. -1.
    10030    2    1    2    0    0  0.00000000000E+00  0.00000000000E+00 -0.18769028516E+04  0.28968594436E+04  0.22065879365E+04 0.  0.
        1    1    3    3  502    0 -0.56459656319E+02 -0.98128285463E+03 -0.15963759898E+04  0.18747053193E+04  0.50400001928E-02 0. -1.
       -1    1    3    3    0  502  0.56459656319E+02  0.98128285463E+03 -0.28052686186E+03  0.10221541243E+04  0.50400001928E-02 0.  1.
</event>
<event>
 5   0  0.6263558E-05  0.2252402E+04  0.7818609E-02  0.8496928E-01
        1   -1    0    0  501    0  0.00000000000E+00  0.00000000000E+00  0.19720232824E+04  0.19720232824E+04  0.50400001928E-02 0.  1.
       -1   -1    0    0    0  501  0.00000000000E+00  0.00000000000E+00 -0.64316129985E+03  0.64316129987E+03  0.50400001928E-02 0. -1.
    10030    2    1    2    0    0  0.00000000000E+00  0.00000000000E+00  0.13288619825E+04  0.26151845822E+04  0.22524023243E+04 0.  0.
        3    1    3    3  502    0 -0.76293406160E+02 -0.10222575744E+04  0.12059127486E+04  0.15827371228E+04  0.10100000352E+00 0.  1.
       -3    1    3    3    0  502  0.76293406160E+02  0.10222575744E+04  0.12294923387E+03  0.10324474595E+04  0.10100000352E+00 0. -1.
</event>
<event>
 5   0  0.5895063E-05  0.2197257E+04  0.7818609E-02  0.8519571E-01
       -1   -1    0    0    0  501  0.00000000000E+00  0.00000000000E+00  0.13214965989E+04  0.13214965989E+04  0.50400001928E-02 0. -1.
        1   -1    0    0  501    0  0.00000000000E+00  0.00000000000E+00 -0.91334657896E+03  0.91334657897E+03  0.50400001928E-02 0.  1.
    10030    2    1    2    0    0  0.00000000000E+00  0.00000000000E+00  0.40815001995E+03  0.22348431779E+04  0.21972568332E+04 0.  0.
        5    1    3    3  502    0 -0.60032957911E+03 -0.51366816644E+03  0.98048855958E+03  0.12592182076E+04  0.46999998093E+01 0. -1.
       -5    1    3    3    0  502  0.60032957911E+03  0.51366816644E+03 -0.57233853964E+03  0.97562497033E+03  0.46999998093E+01 0.  1.
</event>
<event>
 5   0  0.1311472E-04  0.2100232E+04  0.7818609E-02  0.8561141E-01
       -2   -1    0    0    0  501  0.00000000000E+00  0.00000000000E+00  0.93078083403E+03  0.93078083404E+03  0.25500000920E-02 0.  1.
        2   -1    0    0  501    0  0.00000000000E+00  0.00000000000E+00 -0.11847507331E+04  0.11847507331E+04  0.25500000920E-02 0. -1.
    10030    2    1    2    0    0  0.00000000000E+00  0.00000000000E+00 -0.25396989911E+03  0.21155315672E+04  0.21002316782E+04 0.  0.
        4    1    3    3  502    0 -0.54809890613E+03  0.82812483054E+03 -0.47084921695E+03  0.10990467433E+04  0.12699999809E+01 0. -1.
       -4    1    3    3    0  502  0.54809890613E+03 -0.82812483054E+03  0.21687931784E+03  0.10164848239E+04  0.12699999809E+01 0.  1.
</event>
<event>
 5   0  0.1226021E-04  0.2210846E+04  0.7818609E-02  0.8513927E-01
        2   -1    0    0  501    0  0.00000000000E+00  0.00000000000E+00  0.13767318972E+04  0.13767318972E+04  0.25500000920E-02 0.  1.
       -2   -1    0    0    0  501  0.00000000000E+00  0.00000000000E+00 -0.88758041285E+03  0.88758041285E+03  0.25500000920E-02 0. -1.
    10030    2    1    2    0    0  0.00000000000E+00  0.00000000000E+00  0.48915148436E+03  0.22643123101E+04  0.22108462323E+04 0.  0.
        2    1    3    3  502    0  0.57114483370E+03 -0.32732819836E+03 -0.66493735209E+03  0.93567721609E+03  0.25500000920E-02 0. -1.
       -2    1    3    3    0  502 -0.57114483370E+03  0.32732819836E+03  0.11540888365E+04  0.13286350940E+04  0.25500000920E-02 0.  1.
</event>
<event>
 5   0  0.5981239E-05  0.2225209E+04  0.7818609E-02  0.8508008E-01
        1   -1    0    0  501    0  0.00000000000E+00  0.00000000000E+00  0.14366335876E+04  0.14366335876E+04  0.50400001928E-02 0.  1.
       -1   -1    0    0    0  501  0.00000000000E+00  0.00000000000E+00 -0.86165921752E+03  0.86165921754E+03  0.50400001928E-02 0. -1.
    10030    2    1    2    0    0  0.00000000000E+00  0.00000000000E+00  0.57497437004E+03  0.22982928051E+04  0.22252088198E+04 0.  0.
        4    1    3    3  502    0  0.54544717856E+03  0.11485180617E+03  0.12820160859E+04  0.13979522235E+04  0.12699999809E+01 0.  1.
       -4    1    3    3    0  502 -0.54544717856E+03 -0.11485180617E+03 -0.70704171584E+03  0.90034058156E+03  0.12699999809E+01 0. -1.
</event>
<event>
 5   0  0.1404159E-04  0.2203245E+04  0.7818609E-02  0.8517079E-01
       -2   -1    0    0    0  501  0.00000000000E+00  0.00000000000E+00  0.79113542884E+03  0.79113542884E+03  0.25500000920E-02 0. -1.
        2   -1    0    0  501    0  0.00000000000E+00  0.00000000000E+00 -0.15339623837E+04  0.15339623837E+04  0.25500000920E-02 0.  1.
    10030    2    1    2    0    0  0.00000000000E+00  0.00000000000E+00 -0.74282695490E+03  0.23250978126E+04  0.22032448691E+04 0.  0.
        5    1    3    3  502    0 -0.77531111099E+03 -0.75425789440E+03 -0.59161014576E+03  0.12328977835E+04  0.46999998093E+01 0.  1.
       -5    1    3    3    0  502  0.77531111099E+03  0.75425789440E+03 -0.15121680914E+03  0.10922000290E+04  0.46999998093E+01 0. -1.
</event>
<event>
 5   0  0.5861816E-05  0.2202513E+04  0.7818609E-02  0.8517383E-01
       -1   -1    0    0    0  501  0.00000000000E+00  0.00000000000E+00  0.14085057158E+04  0.14085057158E+04  0.50400001928E-02 0. -1.
        1   -1    0    0  501    0  0.00000000000E+00  0.00000000000E+00 -0.86103036147E+03  0.86103036148E+03  0.50400001928E-02 0.  1.
    10030    2    1    2    0    0  0.00000000000E+00  0.00000000000E+00  0.54747535435E+03  0.22695360773E+04  0.22025132786E+04 0.  0.
        1    1    3    3  502    0 -0.68003111401E+03 -0.30744831567E+03 -0.56071951819E+03  0.93347370661E+03  0.50400001928E-02 0.  1.
       -1    1    3    3    0  502  0.68003111401E+03  0.30744831567E+03  0.11081948725E+04  0.13360623707E+04  0.50400001928E-02 0. -1.
</event>
<event>
 5   0  0.1311472E-04  0.2192095E+04  0.7818609E-02  0.8521725E-01
       -2   -1    0    0    0  501  0.00000000000E+00  0.00000000000E+00  0.73381960741E+03  0.73381960742E+03  0.25500000920E-02 0.  1.
        2   -1    0    0  501    0  0.00000000000E+00  0.00000000000E+00 -0.16370787678E+04  0.16370787678E+04  0.25500000920E-02 0. -1.
    10030    2    1    2    0    0  0.00000000000E+00  0.00000000000E+00 -0.90325916039E+03  0.23708983752E+04  0.21920953434E+04 0.  0.
        4    1    3    3  502    0 -0.20877086132E+03 -0.77264705853E+03  0.35828309057E+03  0.87689060634E+03  0.12699999809E+01 0.  1.
       -4    1    3    3    0  502  0.20877086132E+03  0.77264705853E+03 -0.12615422510E+04  0.14940077689E+04  0.12699999809E+01 0. -1.
</event>
<event>
 5   0  0.5849604E-05  0.2217417E+04  0.7818609E-02  0.8511214E-01
        1   -1    0    0  501    0  0.00000000000E+00  0.00000000000E+00  0.91761871919E+03  0.91761871920E+03  0.50400001928E-02 0. -1.
       -1   -1    0    0    0  501  0.00000000000E+00  0.00000000000E+00 -0.13395916400E+04  0.13395916400E+04  0.50400001928E-02 0.  1.
    10030    2    1    2    0    0  0.00000000000E+00  0.00000000000E+00 -0.42197292077E+03  0.22572103592E+04  0.22174168439E+04 0.  0.
        2    1    3    3  502    0 -0.36609982230E+03  0.49930957399E+03  0.72524446307E+03  0.95358201629E+03  0.25500000920E-02 0. -1.
       -2    1    3    3    0  502  0.36609982230E+03 -0.49930957399E+03 -0.11472173838E+04  0.13036283429E+04  0.25500000920E-02 0.  1.
</event>
<event>
 5   0  0.5849604E-05  0.2210151E+04  0.7818609E-02  0.8514215E-01
       -1   -1    0    0    0  501  0.00000000000E+00  0.00000000000E+00  0.55730930421E+03  0.55730930424E+03  0.50400001928E-02 0.  1.
        1   -1    0    0  501    0  0.00000000000E+00  0.00000000000E+00 -0.21912288286E+04  0.21912288286E+04  0.50400001928E-02 0. -1.
    10030    2    1    2    0    0  0.00000000000E+00  0.00000000000E+00 -0.16339195244E+04  0.27485381328E+04  0.22101513196E+04 0.  0.
        2    1    3    3  502    0 -0.37757725851E+03 -0.88753503149E+03 -0.14621315831E+03  0.97553129418E+03  0.25500000920E-02 0.  1.
       -2    1    3    3    0  502  0.37757725851E+03  0.88753503149E+03 -0.14877063661E+04  0.17730068387E+04  0.25500000920E-02 0. -1.
</event>
<event>
 5   0  0.1226021E-04  0.2223359E+04  0.7818609E-02  0.8508768E-01
        2   -1    0    0  501    0  0.00000000000E+00  0.00000000000E+00  0.11690511112E+04  0.11690511112E+04  0.25500000920E-02 0. -1.
       -2   -1    0    0    0  501  0.00000000000E+00  0.00000000000E+00 -0.10571234673E+04  0.10571234673E+04  0.25500000920E-02 0.  1.
    10030    2    1    2    0    0  0.00000000000E+00  0.00000000000E+00  0.11192764395E+03  0.22261745785E+04  0.22233590480E+04 0.  0.
        2    1    3    3  502    0 -0.40759050859E+03 -0.36144150926E+03  0.10262427645E+04  0.11618709907E+04  0.25500000920E-02 0. -1.
       -2    1    3    3    0  502  0.40759050859E+03  0.36144150926E+03 -0.91431512055E+03  0.10643035878E+04  0.25500000920E-02 0.  1.
</event>
<event>
 5   0  0.5895063E-05  0.2206662E+04  0.7818609E-02  0.8515660E-01
        1   -1    0    0  501    0  0.00000000000E+00  0.00000000000E+00  0.20684873359E+04  0.20684873359E+04  0.50400001928E-02 0.  1.
       -1   -1    0    0    0  501  0.00000000000E+00  0.00000000000E+00 -0.58851672209E+03  0.58851672211E+03  0.50400001928E-02 0. -1.
    10030    2    1    2    0    0  0.00000000000E+00  0.00000000000E+00  0.14799706138E+04  0.26570040580E+04  0.22066620826E+04 0.  0.
        5    1    3    3  502    0 -0.89995138442E+02  0.12399662896E+03 -0.57563326403E+03  0.59569290209E+03  0.46999998093E+01 0. -1.
       -5    1    3    3    0  502  0.89995138442E+02 -0.12399662896E+03  0.20556038779E+04  0.20613111559E+04  0.46999998093E+01 0.  1.
</event>
<event>
 5   0  0.5981239E-05  0.2211750E+04  0.7818609E-02  0.8513553E-01
        1   -1    0    0  501    0  0.00000000000E+00  0.00000000000E+00  0.12539919938E+04  0.12539919939E+04  0.50400001928E-02 0.  1.
       -1   -1    0    0    0  501  0.00000000000E+00  0.00000000000E+00 -0.97525335421E+03  0.97525335423E+03  0.50400001928E-02 0. -1.
    10030    2    1    2    0    0  0.00000000000E+00  0.00000000000E+00  0.27873863964E+03  0.22292453481E+04  0.22117503459E+04 0.  0.
        4    1    3    3  502    0 -0.85366823012E+03  0.54435812664E+03 -0.30898987737E+03  0.10585610867E+04  0.12699999809E+01 0.  1.
       -4    1    3    3    0  502  0.85366823012E+03 -0.54435812664E+03  0.58772851701E+03  0.11706842613E+04  0.12699999809E+01 0. -1.
</event>
<event>
 5   0  0.5895063E-05  0.2040628E+04  0.7818609E-02  0.8587858E-01
       -1   -1    0    0    0  501  0.00000000000E+00  0.00000000000E+00  0.17686845975E+04  0.17686845975E+04  0.50400001928E-02 0.  1.
        1   -1    0    0  501    0  0.00000000000E+00  0.00000000000E+00 -0.58859616976E+03  0.58859616978E+03  0.50400001928E-02 0. -1.
    10030    2    1    2    0    0  0.00000000000E+00  0.00000000000E+00  0.11800884278E+04  0.23572807673E+04  0.20406283147E+04 0.  0.
        5    1    3    3  502    0 -0.95315086894E+03 -0.20170143434E+03  0.23996961153E+03  0.10033880366E+04  0.46999998093E+01 0. -1.
       -5    1    3    3    0  502  0.95315086894E+03  0.20170143434E+03  0.94011881623E+03  0.13538927307E+04  0.46999998093E+01 0.  1.
</event>
<event>
 5   0  0.1226021E-04  0.2139079E+04  0.7818609E-02  0.8544221E-01
        2   -1    0    0  501    0  0.00000000000E+00  0.00000000000E+00  0.77522028820E+03  0.77522028820E+03  0.25500000920E-02 0.  1.
       -2   -1    0    0    0  501  0.00000000000E+00  0.00000000000E+00 -0.14756002337E+04  0.14756002337E+04  0.25500000920E-02 0. -1.
    10030    2    1    2    0    0  0.00000000000E+00  0.00000000000E+00 -0.70037994552E+03  0.22508205219E+04  0.21390794641E+04 0.  0.
        2    1    3    3  502    0  0.46197332516E+03  0.81330044684E+03  0.19559425032E+03  0.95558049413E+03  0.25500000920E-02 0. -1.
       -2    1    3    3    0  502 -0.46197332516E+03 -0.81330044684E+03 -0.89597419583E+03  0.12952400278E+04  0.25500000920E-02 0.  1.
</event>
<event>
 5   0  0.1226021E-04  0.2118880E+04  0.7818609E-02  0.8552972E-01
       -2   -1    0    0    0  501  0.00000000000E+00  0.00000000000E+00  0.98217545741E+03  0.98217545741E+03  0.25500000920E-02 0. -1.
        2   -1    0    0  501    0  0.00000000000E+00  0.00000000000E+00 -0.11427822748E+04  0.11427822748E+04  0.25500000920E-02 0.  1.
    10030    2    1    2    0    0  0.00000000000E+00  0.00000000000E+00 -0.16060681738E+03  0.21249577322E+04  0.21188796129E+04 0.  0.
        2    1    3    3  502    0  0.20179678347E+03 -0.89651161543E+02 -0.11194482157E+04  0.11410186590E+04  0.25500000920E-02 0.  1.
       -2    1    3    3    0  502 -0.20179678347E+03  0.89651161543E+02  0.95884139832E+03  0.98393907318E+03  0.25500000920E-02 0. -1.
</event>
<event>
 5   0  0.5861816E-05  0.2245805E+04  0.7818609E-02  0.8499601E-01
       -1   -1    0    0    0  501  0.00000000000E+00  0.00000000000E+00  0.11191057098E+04  0.11191057098E+04  0.50400001928E-02 0. -1.
        1   -1    0    0  501    0  0.00000000000E+00  0.00000000000E+00 -0.11267119255E+04  0.11267119255E+04  0.50400001928E-02 0.  1.
    10030    2    1    2    0    0  0.00000000000E+00  0.00000000000E+00 -0.76062156967E+01  0.22458176353E+04  0.22458047548E+04 0.  0.
        1    1    3    3  502    0  0.91665718208E+03  0.47979584582E+03 -0.44020600719E+03  0.11243868426E+04  0.50400001928E-02 0. -1.
       -1    1    3    3    0  502 -0.91665718208E+03 -0.47979584582E+03  0.43259979149E+03  0.11214307927E+04  0.50400001928E-02 0.  1.
</event>
<event>
 5   0  0.1252124E-04  0.2271620E+04  0.7818609E-02  0.8489196E-01
        2   -1    0    0  501    0  0.00000000000E+00  0.00000000000E+00  0.13259028774E+04  0.13259028774E+04  0.25500000920E-02 0. -1.
       -2   -1    0    0    0  501  0.00000000000E+00  0.00000000000E+00 -0.97297079802E+03  0.97297079802E+03  0.25500000920E-02 0.  1.
    10030    2    1    2    0    0  0.00000000000E+00  0.00000000000E+00  0.35293207937E+03  0.22988736754E+04  0.22716203739E+04 0.  0.
        3    1    3    3  502    0  0.17396721951E+03  0.83757624187E+03 -0.57967015180E+03  0.10333518517E+04  0.10100000352E+00 0.  1.
       -3    1    3    3    0  502 -0.17396721951E+03 -0.83757624187E+03  0.93260223118E+03  0.12655218237E+04  0.10100000352E+00 0. -1.
</event>
<event>
 5   0  0.1252124E-04  0.2274320E+04  0.7818609E-02  0.8488116E-01
       -2   -1    0    0    0  501  0.00000000000E+00  0.00000000000E+00  0.11705107467E+04  0.11705107467E+04  0.25500000920E-02 0.  1.
        2   -1    0    0  501    0  0.00000000000E+00  0.00000000000E+00 -0.11047595477E+04  0.11047595477E+04  0.25500000920E-02 0. -1.
    10030    2    1    2    0    0  0.00000000000E+00  0.00000000000E+00  0.65751199010E+02  0.22752702944E+04  0.22743200506E+04 0.  0.
        3    1    3    3  502    0  0.11190597323E+04 -0.14473578890E+03 -0.10821445610E+03  0.11335578996E+04  0.10100000352E+00 0.  1.
       -3    1    3    3    0  502 -0.11190597323E+04  0.14473578890E+03  0.17396565511E+03  0.11417123948E+04  0.10100000352E+00 0. -1.
</event>
<event>
 5   0  0.1311472E-04  0.2195641E+04  0.7818609E-02  0.8520245E-01
        2   -1    0    0  501    0  0.00000000000E+00  0.00000000000E+00  0.12931218230E+04  0.12931218230E+04  0.25500000920E-02 0. -1.
       -2   -1    0    0    0  501  0.00000000000E+00  0.00000000000E+00 -0.93201584584E+03  0.93201584584E+03  0.25500000920E-02 0.  1.
    10030    2    1    2    0    0  0.00000000000E+00  0.00000000000E+00  0.36110597719E+03  0.22251376689E+04  0.21956411635E+04 0.  0.
        4    1    3    3  502    0 -0.24530254932E+03  0.50169077104E+03 -0.77731192036E+03  0.95712193836E+03  0.12699999809E+01 0.  1.
       -4    1    3    3    0  502  0.24530254932E+03 -0.50169077104E+03  0.11384178976E+04  0.12680157305E+04  0.12699999809E+01 0. -1.
</event>
<event>
 5   0  0.5981239E-05  0.2249774E+04  0.7818609E-02  0.8497992E-01
       -1   -1    0    0    0  501  0.00000000000E+00  0.00000000000E+00  0.10143014037E+04  0.10143014037E+04  0.50400001928E-02 0. -1.
        1   -1    0    0  501    0  0.00000000000E+00  0.00000000000E+00 -0.12475293933E+04  0.12475293933E+04  0.50400001928E-02 0.  1.
    10030    2    1    2    0    0  0.00000000000E+00  0.00000000000E+00 -0.23322798957E+03  0.22618307970E+04  0.22497740463E+04 0.  0.
        4    1    3    3  502    0  0.42228032896E+03  0.76881129652E+03 -0.82464502724E+03  0.12039238015E+04  0.12699999809E+01 0.  1.
       -4    1    3    3    0  502 -0.42228032896E+03 -0.76881129652E+03  0.59141703767E+03  0.10579069956E+04  0.12699999809E+01 0. -1.
</event>
<event>
 5   0  0.5981239E-05  0.1665841E+04  0.7818609E-02  0.8781090E-01
        1   -1    0    0  501    0  0.00000000000E+00  0.00000000000E+00  0.15627055039E+04  0.15627055039E+04  0.50400001928E-02 0.  1.
       -1   -1    0    0    0  501  0.00000000000E+00  0.00000000000E+00 -0.44394567279E+03  0.44394567282E+03  0.50400001928E-02 0. -1.
    10030    2    1    2    0    0  0.00000000000E+00  0.00000000000E+00  0.11187598311E+04  0.20066511768E+04  0.16658407443E+04 0.  0.
        4    1    3    3  502    0 -0.45914462252E+03  0.55080693010E+03  0.48952087653E+02  0.71874889803E+03  0.12699999809E+01 0. -1.
       -4    1    3    3    0  502  0.45914462252E+03 -0.55080693010E+03  0.10698077435E+04  0.12879022787E+04  0.12699999809E+01 0.  1.
</event>
<event>
 5   0  0.1252124E-04  0.2197780E+04  0.7818609E-02  0.8519353E-01
        2   -1    0    0  501    0  0.00000000000E+00  0.00000000000E+00  0.95004230016E+03  0.95004230016E+03  0.25500000920E-02 0. -1.
       -2   -1    0    0    0  501  0.00000000000E+00  0.00000000000E+00 -0.12710582445E+04  0.12710582445E+04  0.25500000920E-02 0.  1.
    10030    2    1    2    0    0  0.00000000000E+00  0.00000000000E+00 -0.32101594438E+03  0.22211005447E+04  0.21977798782E+04 0.  0.
        3    1    3    3  502    0 -0.10173789025E+04  0.37298173965E+03 -0.34515929470E+03  0.11372379515E+04  0.10100000352E+00 0. -1.
       -3    1    3    3    0  502  0.10173789025E+04 -0.37298173965E+03  0.24143350319E+02  0.10838625932E+04  0.10100000352E+00 0.  1.
</event>
<event>
 5   0  0.5981239E-05  0.2167025E+04  0.7818609E-02  0.8532280E-01
       -1   -1    0    0    0  501  0.00000000000E+00  0.00000000000E+00  0.12325598810E+04  0.12325598810E+04  0.50400001928E-02 0. -1.
        1   -1    0    0  501    0  0.00000000000E+00  0.00000000000E+00 -0.95248845302E+03  0.95248845303E+03  0.50400001928E-02 0.  1.
    10030    2    1    2    0    0  0.00000000000E+00  0.00000000000E+00  0.28007142794E+03  0.21850483340E+04  0.21670247385E+04 0.  0.
        4    1    3    3  502    0  0.10273269068E+04  0.27683199176E+03  0.34658307976E+03  0.11189986457E+04  0.12699999809E+01 0.  1.
       -4    1    3    3    0  502 -0.10273269068E+04 -0.27683199176E+03 -0.66511651822E+02  0.10660496883E+04  0.12699999809E+01 0. -1.
</event>
<event>
 5   0  0.1252124E-04  0.2214686E+04  0.7818609E-02  0.8512340E-01
        2   -1    0    0  501    0  0.00000000000E+00  0.00000000000E+00  0.12752050508E+04  0.12752050508E+04  0.25500000920E-02 0. -1.
       -2   -1    0    0    0  501  0.00000000000E+00  0.00000000000E+00 -0.96157744707E+03  0.96157744707E+03  0.25500000920E-02 0.  1.
    10030    2    1    2    0    0  0.00000000000E+00  0.00000000000E+00  0.31362760376E+03  0.22367824979E+04  0.22146859076E+04 0.  0.
        3    1    3    3  502    0  0.43844444259E+03 -0.75755819623E+03 -0.52824603493E+03  0.10223364581E+04  0.10100000352E+00 0.  1.
       -3    1    3    3    0  502 -0.43844444259E+03  0.75755819623E+03  0.84187363869E+03  0.12144460398E+04  0.10100000352E+00 0. -1.
</event>
<event>
 5   0  0.1252124E-04  0.2197890E+04  0.7818609E-02  0.8519307E-01
        2   -1    0    0  501    0  0.00000000000E+00  0.00000000000E+00  0.14574401122E+04  0.14574401122E+04  0.25500000920E-02 0.  1.
       -2   -1    0    0    0  501  0.00000000000E+00  0.00000000000E+00 -0.82863098358E+03  0.82863098358E+03  0.25500000920E-02 0. -1.
    10030    2    1    2    0    0  0.00000000000E+00  0.00000000000E+00  0.62880912865E+03  0.22860710958E+04  0.21978899278E+04 0.  0.
        3    1    3    3  502    0 -0.20360196627E+03 -0.65658661364E+03 -0.57738625328E+03  0.89773862430E+03  0.10100000352E+00 0. -1.
       -3    1    3    3    0  502  0.20360196627E+03  0.65658661364E+03  0.12061953819E+04  0.13883324715E+04  0.10100000352E+00 0.  1.
</event>
<event>
 5   0  0.5981239E-05  0.2191842E+04  0.7818609E-02  0.8521832E-01
        1   -1    0    0  501    0  0.00000000000E+00  0.00000000000E+00  0.10491622917E+04  0.10491622918E+04  0.50400001928E-02 0.  1.
       -1   -1    0    0    0  501  0.00000000000E+00  0.00000000000E+00 -0.11447631248E+04  0.11447631249E+04  0.50400001928E-02 0. -1.
    10030    2    1    2    0    0  0.00000000000E+00  0.00000000000E+00 -0.95600833101E+02  0.21939254166E+04  0.21918415121E+04 0.  0.
        4    1    3    3  502    0 -0.99804929732E+03 -0.42249973848E+03 -0.21053500691E+03  0.11040539076E+04  0.12699999809E+01 0. -1.
       -4    1    3    3    0  502  0.99804929732E+03  0.42249973848E+03  0.11493417381E+03  0.10898715090E+04  0.12699999809E+01 0.  1.
</event>
<event>
 5   0  0.6263558E-05  0.2187398E+04  0.7818609E-02  0.8523692E-01
        1   -1    0    0  501    0  0.00000000000E+00  0.00000000000E+00  0.15253633762E+04  0.15253633762E+04  0.50400001928E-02 0. -1.
       -1   -1    0    0    0  501  0.00000000000E+00  0.00000000000E+00 -0.78419176761E+03  0.78419176763E+03  0.50400001928E-02 0.  1.
    10030    2    1    2    0    0  0.00000000000E+00  0.00000000000E+00  0.74117160854E+03  0.23095551438E+04  0.21873979082E+04 0.  0.
        3    1    3    3  502    0  0.82427118829E+03 -0.69330296289E+03  0.17001564634E+03  0.10904115372E+04  0.10100000352E+00 0.  1.
       -3    1    3    3    0  502 -0.82427118829E+03  0.69330296289E+03  0.57115596220E+03  0.12191436066E+04  0.10100000352E+00 0. -1.
</event>
<event>
 5   0  0.5981239E-05  0.2200664E+04  0.7818609E-02  0.8518152E-01
       -1   -1    0    0    0  501  0.00000000000E+00  0.00000000000E+00  0.69355642257E+03  0.69355642258E+03  0.50400001928E-02 0. -1.
        1   -1    0    0  501    0  0.00000000000E+00  0.00000000000E+00 -0.17456846584E+04  0.17456846584E+04  0.50400001928E-02 0.  1.
    10030    2    1    2    0    0  0.00000000000E+00  0.00000000000E+00 -0.10521282358E+04  0.24392410810E+04  0.22006642694E+04 0.  0.
        4    1    3    3  502    0  0.10887115685E+04  0.11215308391E+03 -0.40037790322E+03  0.11654077706E+04  0.12699999809E+01 0.  1.
       -4    1    3    3    0  502 -0.10887115685E+04 -0.11215308391E+03 -0.65175033260E+03  0.12738333103E+04  0.12699999809E+01 0. -1.
</event>
<event>
 5   0  0.1404159E-04  0.2206245E+04  0.7818609E-02  0.8515833E-01
        2   -1    0    0  501    0  0.00000000000E+00  0.00000000000E+00  0.15856814456E+04  0.15856814456E+04  0.25500000920E-02 0. -1.
       -2   -1    0    0    0  501  0.00000000000E+00  0.00000000000E+00 -0.76741751164E+03  0.76741751165E+03  0.25500000920E-02 0.  1.
    10030    2    1    2    0    0  0.00000000000E+00  0.00000000000E+00  0.81826393399E+03  0.23530989573E+04  0.22062454163E+04 0.  0.
        5    1    3    3  502    0 -0.37394140125E+03 -0.59665623890E+03 -0.49652153065E+03  0.86161856954E+03  0.46999998093E+01 0.  1.
       -5    1    3    3    0  502  0.37394140125E+03  0.59665623890E+03  0.13147854646E+04  0.14914803877E+04  0.46999998093E+01 0. -1.
</event>
<event>
 5   0  0.5981239E-05  0.2196212E+04  0.7818609E-02  0.8520006E-01
       -1   -1    0    0    0  501  0.00000000000E+00  0.00000000000E+00  0.54551820576E+03  0.54551820579E+03  0.50400001928E-02 0. -1.
        1   -1    0    0  501    0  0.00000000000E+00  0.00000000000E+00 -0.22104425292E+04  0.22104425292E+04  0.50400001928E-02 0.  1.
    10030    2    1    2    0    0  0.00000000000E+00  0.00000000000E+00 -0.16649243234E+04  0.27559607349E+04  0.21962118682E+04 0.  0.
        4    1    3    3  502    0 -0.83499236909E+02 -0.48298169552E+03  0.40062997592E+03  0.63304773223E+03  0.12699999809E+01 0. -1.
       -4    1    3    3    0  502  0.83499236909E+02  0.48298169552E+03 -0.20655542993E+04  0.21229130027E+04  0.12699999809E+01 0.  1.
</event>
<event>
 5   0  0.4586375E-05  0.1405554E+04  0.7818609E-02  0.8949808E-01
       -3   -1    0    0    0  501  0.00000000000E+00  0.00000000000E+00  0.14273363008E+04  0.14273363044E+04  0.10100000352E+00 0.  1.
        3   -1    0    0  501    0  0.00000000000E+00  0.00000000000E+00 -0.34602607135E+03  0.34602608609E+03  0.10100000352E+00 0. -1.
    10030    2    1    2    0    0  0.00000000000E+00  0.00000000000E+00  0.10813102294E+04  0.17733623904E+04  0.14055541098E+04 0.  0.
        5    1    3    3  502    0 -0.80826525267E+02 -0.41628331887E+03  0.12477024223E+04  0.13178042925E+04  0.46999998093E+01 0.  1.
       -5    1    3    3    0  502  0.80826525267E+02  0.41628331887E+03 -0.16639219286E+03  0.45555809794E+03  0.46999998093E+01 0. -1.
</event>
<event>
 5   0  0.5849604E-05  0.2198151E+04  0.7818609E-02  0.8519198E-01
       -1   -1    0    0    0  501  0.00000000000E+00  0.00000000000E+00  0.46768162195E+03  0.46768162197E+03  0.50400001928E-02 0.  1.
        1   -1    0    0  501    0  0.00000000000E+00  0.00000000000E+00 -0.25828823493E+04  0.25828823493E+04  0.50400001928E-02 0. -1.
    10030    2    1    2    0    0  0.00000000000E+00  0.00000000000E+00 -0.21152007273E+04  0.30505639712E+04  0.21981506831E+04 0.  0.
        2    1    3    3  502    0  0.96913175914E+02  0.10935446772E+04 -0.11301708766E+04  0.15756009441E+04  0.25500000920E-02 0.  1.
       -2    1    3    3    0  502 -0.96913175914E+02 -0.10935446772E+04 -0.98502985071E+03  0.14749630272E+04  0.25500000920E-02 0. -1.
</event>
<event>
 5   0  0.5895063E-05  0.2228854E+04  0.7818609E-02  0.8506513E-01
       -1   -1    0    0    0  501  0.00000000000E+00  0.00000000000E+00  0.74608970105E+03  0.74608970106E+03  0.50400001928E-02 0.  1.
        1   -1    0    0  501    0  0.00000000000E+00  0.00000000000E+00 -0.16646092916E+04  0.16646092916E+04  0.50400001928E-02 0. -1.
    10030    2    1    2    0    0  0.00000000000E+00  0.00000000000E+00 -0.91851959052E+03  0.24106989926E+04  0.22288542785E+04 0.  0.
        5    1    3    3  502    0  0.14354086825E+02 -0.93211031147E+03  0.20120812698E+03  0.95369936192E+03  0.46999998093E+01 0.  1.
       -5    1    3    3    0  502 -0.14354086825E+02  0.93211031147E+03 -0.11197277175E+04  0.14569996307E+04  0.46999998093E+01 0. -1.
</event>
<event>
 5   0  0.1226021E-04  0.2200315E+04  0.7818609E-02  0.8518297E-01
       -2   -1    0    0    0  501  0.00000000000E+00  0.00000000000E+00  0.50101026573E+03  0.50101026574E+03  0.25500000920E-02 0.  1.
        2   -1    0    0  501    0  0.00000000000E+00  0.00000000000E+00 -0.24158113116E+04  0.24158113116E+04  0.25500000920E-02 0. -1.
    10030    2    1    2    0    0  0.00000000000E+00  0.00000000000E+00 -0.19148010458E+04  0.29168215773E+04  0.22003147658E+04 0.  0.
        2    1    3    3  502    0 -0.16837685766E+03 -0.25761542531E+03  0.44278345165E+03  0.53923432626E+03  0.25500000920E-02 0.  1.
       -2    1    3    3    0  502  0.16837685766E+03  0.25761542531E+03 -0.23575844975E+04  0.23775872511E+04  0.25500000920E-02 0. -1.
</event>
<event>
 5   0  0.1311472E-04  0.1776770E+04  0.7818609E-02  0.8718751E-01
        2   -1    0    0  501    0  0.00000000000E+00  0.00000000000E+00  0.64397710331E+03  0.64397710331E+03  0.25500000920E-02 0. -1.
       -2   -1    0    0    0  501  0.00000000000E+00  0.00000000000E+00 -0.12255531625E+04  0.12255531625E+04  0.25500000920E-02 0.  1.
    10030    2    1    2    0    0  0.00000000000E+00  0.00000000000E+00 -0.58157605916E+03  0.18695302658E+04  0.17767703009E+04 0.  0.
        4    1    3    3  502    0 -0.21896899845E+03 -0.30351795006E+03 -0.11385535511E+04  0.11984892031E+04  0.12699999809E+01 0.  1.
       -4    1    3    3    0  502  0.21896899845E+03  0.30351795006E+03  0.55697749198E+03  0.67104106265E+03  0.12699999809E+01 0. -1.
</event>
<event>
 5   0  0.1252124E-04  0.2204485E+04  0.7818609E-02  0.8516564E-01
       -2   -1    0    0    0  501  0.00000000000E+00  0.00000000000E+00  0.11317420470E+04  0.11317420471E+04  0.25500000920E-02 0.  1.
        2   -1    0    0  501    0  0.00000000000E+00  0.00000000000E+00 -0.10735118520E+04  0.10735118520E+04  0.25500000920E-02 0. -1.
    10030    2    1    2    0    0  0.00000000000E+00  0.00000000000E+00  0.58230195029E+02  0.22052538991E+04  0.22044849747E+04 0.  0.
        3    1    3    3  502    0 -0.10806258925E+04  0.11924635124E+03 -0.15251496680E+03  0.10978309693E+04  0.10100000352E+00 0. -1.
       -3    1    3    3    0  502  0.10806258925E+04 -0.11924635124E+03  0.21074516182E+03  0.11074229298E+04  0.10100000352E+00 0.  1.
</event>
<event>
 5   0  0.5981239E-05  0.2331588E+04  0.7818609E-02  0.8465570E-01
        1   -1    0    0  501    0  0.00000000000E+00  0.00000000000E+00  0.14369513917E+04  0.14369513917E+04  0.50400001928E-02 0.  1.
       -1   -1    0    0    0  501  0.00000000000E+00  0.00000000000E+00 -0.94580490362E+03  0.94580490364E+03  0.50400001928E-02 0. -1.
    10030    2    1    2    0    0  0.00000000000E+00  0.00000000000E+00  0.49114648805E+03  0.23827562953E+04  0.23315880190E+04 0.  0.
        4    1    3    3  502    0  0.65493435466E+02 -0.42449259558E+03  0.13531430066E+04  0.14196763585E+04  0.12699999809E+01 0.  1.
       -4    1    3    3    0  502 -0.65493435466E+02  0.42449259558E+03 -0.86199651853E+03  0.96307993679E+03  0.12699999809E+01 0. -1.
</event>
<event>
 5   0  0.6263558E-05  0.2033176E+04  0.7818609E-02  0.8591265E-01
        1   -1    0    0  501    0  0.00000000000E+00  0.00000000000E+00  0.56923784751E+03  0.56923784753E+03  0.50400001928E-02 0. -1.
       -1   -1    0    0    0  501  0.00000000000E+00  0.00000000000E+00 -0.18154993763E+04  0.18154993763E+04  0.50400001928E-02 0.  1.
    10030    2    1    2    0    0  0.00000000000E+00  0.00000000000E+00 -0.12462615288E+04  0.23847372238E+04  0.20331757987E+04 0.  0.
        3    1    3    3  502    0  0.56839160628E+02  0.10124531087E+04 -0.70737625408E+03  0.12363952291E+04  0.10100000352E+00 0. -1.
       -3    1    3    3    0  502 -0.56839160628E+02 -0.10124531087E+04 -0.53888527468E+03  0.11483419947E+04  0.10100000352E+00 0.  1.
</event>
<event>
 5   0  0.5895063E-05  0.2405458E+04  0.7818609E-02  0.8437463E-01
        1   -1    0    0  501    0  0.00000000000E+00  0.00000000000E+00  0.11709048786E+04  0.11709048787E+04  0.50400001928E-02 0. -1.
       -1   -1    0    0    0  501  0.00000000000E+00  0.00000000000E+00 -0.12354181390E+04  0.12354181390E+04  0.50400001928E-02 0.  1.
    10030    2    1    2    0    0  0.00000000000E+00  0.00000000000E+00 -0.64513260337E+02  0.24063230176E+04  0.24054580654E+04 0.  0.
        5    1    3    3  502    0  0.42713573969E+03 -0.10650380408E+04  0.32812846892E+03  0.11934996232E+04  0.46999998093E+01 0. -1.
       -5    1    3    3    0  502 -0.42713573969E+03  0.10650380408E+04 -0.39264172926E+03  0.12128233944E+04  0.46999998093E+01 0.  1.
</event>
<event>
 5   0  0.5895063E-05  0.1774365E+04  0.7818609E-02  0.8720052E-01
       -1   -1    0    0    0  501  0.00000000000E+00  0.00000000000E+00  0.64762587530E+03  0.64762587532E+03  0.50400001928E-02 0.  1.
        1   -1    0    0  501    0  0.00000000000E+00  0.00000000000E+00 -0.12153514753E+04  0.12153514753E+04  0.50400001928E-02 0. -1.
    10030    2    1    2    0    0  0.00000000000E+00  0.00000000000E+00 -0.56772559996E+03  0.18629773506E+04  0.17743653096E+04 0.  0.
        5    1    3    3  502    0  0.34617099307E+03 -0.23631258434E+03  0.53710242331E+03  0.68130690374E+03  0.46999998093E+01 0.  1.
       -5    1    3    3    0  502 -0.34617099307E+03  0.23631258434E+03 -0.11048280233E+04  0.11816704469E+04  0.46999998093E+01 0. -1.
</event>
<event>
 5   0  0.1226021E-04  0.2065031E+04  0.7818609E-02  0.8576806E-01
       -2   -1    0    0    0  501  0.00000000000E+00  0.00000000000E+00  0.12218044667E+04  0.12218044667E+04  0.25500000920E-02 0.  1.
        2   -1    0    0  501    0  0.00000000000E+00  0.00000000000E+00 -0.87255239265E+03  0.87255239265E+03  0.25500000920E-02 0. -1.
    10030    2    1    2    0    0  0.00000000000E+00  0.00000000000E+00  0.34925207401E+03  0.20943568593E+04  0.20650311482E+04 0.  0.
        2    1    3    3  502    0 -0.73670145742E+02  0.89598424289E+03  0.68964985437E+03  0.11330630942E+04  0.25500000920E-02 0.  1.
       -2    1    3    3    0  502  0.73670145742E+02 -0.89598424289E+03 -0.34039778036E+03  0.96129376507E+03  0.25500000920E-02 0. -1.
</event>
<event>
 5   0  0.1226021E-04  0.1427580E+04  0.7818609E-02  0.8934093E-01
       -2   -1    0    0    0  501  0.00000000000E+00  0.00000000000E+00  0.26660620555E+03  0.26660620556E+03  0.25500000920E-02 0. -1.
        2   -1    0    0  501    0  0.00000000000E+00  0.00000000000E+00 -0.19110438537E+04  0.19110438537E+04  0.25500000920E-02 0.  1.
    10030    2    1    2    0    0  0.00000000000E+00  0.00000000000E+00 -0.16444376482E+04  0.21776500593E+04  0.14275799809E+04 0.  0.
        2    1    3    3  502    0 -0.21011323377E+03  0.70951755926E+02 -0.18571582601E+04  0.18703525138E+04  0.25500000920E-02 0.  1.
       -2    1    3    3    0  502  0.21011323377E+03 -0.70951755926E+02  0.21272061198E+03  0.30729754546E+03  0.25500000920E-02 0. -1.
</event>
<event>
 5   0  0.6263558E-05  0.2208268E+04  0.7818609E-02  0.8514995E-01
        1   -1    0    0  501    0  0.00000000000E+00  0.00000000000E+00  0.71116833489E+03  0.71116833491E+03  0.50400001928E-02 0.  1.
       -1   -1    0    0    0  501  0.00000000000E+00  0.00000000000E+00 -0.17142385632E+04  0.17142385633E+04  0.50400001928E-02 0. -1.
    10030    2    1    2    0    0  0.00000000000E+00  0.00000000000E+00 -0.10030702284E+04  0.24254068982E+04  0.22082682669E+04 0.  0.
        3    1    3    3  502    0  0.66564438474E+03  0.22545776613E+03 -0.14368572922E+04  0.15995225974E+04  0.10100000352E+00 0. -1.
       -3    1    3    3    0  502 -0.66564438474E+03 -0.22545776613E+03  0.43378706386E+03  0.82588430075E+03  0.10100000352E+00 0.  1.
</event>
<event>
 5   0  0.5861816E-05  0.1520127E+04  0.7818609E-02  0.8871178E-01
        1   -1    0    0  501    0  0.00000000000E+00  0.00000000000E+00  0.57076331953E+03  0.57076331955E+03  0.50400001928E-02 0.  1.
       -1   -1    0    0    0  501  0.00000000000E+00  0.00000000000E+00 -0.10121471070E+04  0.10121471070E+04  0.50400001928E-02 0. -1.
    10030    2    1    2    0    0  0.00000000000E+00  0.00000000000E+00 -0.44138378744E+03  0.15829104265E+04  0.15201268929E+04 0.  0.
        1    1    3    3  502    0  0.43357503452E+02 -0.75838676923E+03 -0.19381748191E+03  0.78396146664E+03  0.50400001928E-02 0.  1.
       -1    1    3    3    0  502 -0.43357503452E+02  0.75838676923E+03 -0.24756630553E+03  0.79894895989E+03  0.50400001928E-02 0. -1.
</event>
<event>
 5   0  0.1241430E-04  0.2131743E+04  0.7818609E-02  0.8547388E-01
        2   -1    0    0  501    0  0.00000000000E+00  0.00000000000E+00  0.15387044374E+04  0.15387044375E+04  0.25500000920E-02 0.  1.
       -2   -1    0    0    0  501  0.00000000000E+00  0.00000000000E+00 -0.73833646907E+03  0.73833646907E+03  0.25500000920E-02 0. -1.
    10030    2    1    2    0    0  0.00000000000E+00  0.00000000000E+00  0.80036796838E+03  0.22770409065E+04  0.21317425748E+04 0.  0.
        1    1    3    3  502    0  0.97368160457E+03  0.41920344060E+03  0.51862070646E+03  0.11801503416E+04  0.50400001928E-02 0.  1.
       -1    1    3    3    0  502 -0.97368160457E+03 -0.41920344060E+03  0.28174726192E+03  0.10968905649E+04  0.50400001928E-02 0. -1.
</event>
<event>
 5   0  0.1404159E-04  0.2171369E+04  0.7818609E-02  0.8530440E-01
        2   -1    0    0  501    0  0.00000000000E+00  0.00000000000E+00  0.15275432520E+04  0.15275432520E+04  0.25500000920E-02 0.  1.
       -2   -1    0    0    0  501  0.00000000000E+00  0.00000000000E+00 -0.77163828537E+03  0.77163828537E+03  0.25500000920E-02 0. -1.
    10030    2    1    2    0    0  0.00000000000E+00  0.00000000000E+00  0.75590496659E+03  0.22991815373E+04  0.21713690205E+04 0.  0.
        5    1    3    3  502    0 -0.10733663021E+04  0.11687674646E+03  0.25762648288E+03  0.11100310298E+04  0.46999998093E+01 0.  1.
       -5    1    3    3    0  502  0.10733663021E+04 -0.11687674646E+03  0.49827848370E+03  0.11891505076E+04  0.46999998093E+01 0. -1.
</event>
<event>
 5   0  0.5849604E-05  0.2209444E+04  0.7818609E-02  0.8514508E-01
       -1   -1    0    0    0  501  0.00000000000E+00  0.00000000000E+00  0.63264016208E+03  0.63264016210E+03  0.50400001928E-02 0.  1.
        1   -1    0    0  501    0  0.00000000000E+00  0.00000000000E+00 -0.19290747349E+04  0.19290747349E+04  0.50400001928E-02 0. -1.
    10030    2    1    2    0    0  0.00000000000E+00  0.00000000000E+00 -0.12964345728E+04  0.25617148970E+04  0.22094435073E+04 0.  0.
        2    1    3    3  502    0  0.24269481333E+03  0.10479679588E+04 -0.35657162572E+03  0.11332611965E+04  0.25500000920E-02 0.  1.
       -2    1    3    3    0  502 -0.24269481333E+03 -0.10479679588E+04 -0.93986294711E+03  0.14284537005E+04  0.25500000920E-02 0. -1.
</event>
<event>
 5   0  0.5849604E-05  0.2225017E+04  0.7818609E-02  0.8508087E-01
        1   -1    0    0  501    0  0.00000000000E+00  0.00000000000E+00  0.10652329173E+04  0.10652329173E+04  0.50400001928E-02 0.  1.
       -1   -1    0    0    0  501  0.00000000000E+00  0.00000000000E+00 -0.11618825981E+04  0.11618825981E+04  0.50400001928E-02 0. -1.
    10030    2    1    2    0    0  0.00000000000E+00  0.00000000000E+00 -0.96649680826E+02  0.22271155154E+04  0.22250173838E+04 0.  0.
        2    1    3    3  502    0  0.44171724675E+03 -0.48979150800E+03  0.84843613128E+03  0.10746412035E+04  0.25500000920E-02 0.  1.
       -2    1    3    3    0  502 -0.44171724675E+03  0.48979150800E+03 -0.94508581210E+03  0.11524743119E+04  0.25500000920E-02 0. -1.
</event>
<event>
 5   0  0.6263558E-05  0.2094515E+04  0.7818609E-02  0.8563664E-01
        1   -1    0    0  501    0  0.00000000000E+00  0.00000000000E+00  0.14634800711E+04  0.14634800711E+04  0.50400001928E-02 0. -1.
       -1   -1    0    0    0  501  0.00000000000E+00  0.00000000000E+00 -0.74941084385E+03  0.74941084387E+03  0.50400001928E-02 0.  1.
    10030    2    1    2    0    0  0.00000000000E+00  0.00000000000E+00  0.71406922726E+03  0.22128909150E+04  0.20945145835E+04 0.  0.
        3    1    3    3  502    0  0.31320704553E+03 -0.97335401937E+03  0.11789938405E+03  0.10292798334E+04  0.10100000352E+00 0.  1.
       -3    1    3    3    0  502 -0.31320704553E+03  0.97335401937E+03  0.59616984321E+03  0.11836110816E+04  0.10100000352E+00 0. -1.
</event>
<event>
 5   0  0.1252124E-04  0.2181885E+04  0.7818609E-02  0.8526006E-01
        2   -1    0    0  501    0  0.00000000000E+00  0.00000000000E+00  0.21336043239E+04  0.21336043239E+04  0.25500000920E-02 0. -1.
       -2   -1    0    0    0  501  0.00000000000E+00  0.00000000000E+00 -0.55781459572E+03  0.55781459573E+03  0.25500000920E-02 0.  1.
    10030    2    1    2    0    0  0.00000000000E+00  0.00000000000E+00  0.15757897281E+04  0.26914189196E+04  0.21818850871E+04 0.  0.
        3    1    3    3  502    0  0.98663339811E+03  0.21875594753E+03  0.12947777997E+04  0.16424826294E+04  0.10100000352E+00 0. -1.
       -3    1    3    3    0  502 -0.98663339811E+03 -0.21875594753E+03  0.28101192840E+03  0.10489362902E+04  0.10100000352E+00 0.  1.
</event>
<event>
 5   0  0.5895063E-05  0.2176828E+04  0.7818609E-02  0.8528135E-01
       -1   -1    0    0    0  501  0.00000000000E+00  0.00000000000E+00  0.10309100484E+04  0.10309100484E+04  0.50400001928E-02 0. -1.
        1   -1    0    0  501    0  0.00000000000E+00  0.00000000000E+00 -0.11491251867E+04  0.11491251867E+04  0.50400001928E-02 0.  1.
    10030    2    1    2    0    0  0.00000000000E+00  0.00000000000E+00 -0.11821513824E+03  0.21800352351E+04  0.21768276936E+04 0.  0.
        5    1    3    3  502    0 -0.85159616446E+03  0.15734948052E+03 -0.71935719651E+03  0.11258204797E+04  0.46999998093E+01 0.  1.
       -5    1    3    3    0  502  0.85159616446E+03 -0.15734948052E+03  0.60114205827E+03  0.10542147554E+04  0.46999998093E+01 0. -1.
</event>
<event>
 5   0  0.5849604E-05  0.2106859E+04  0.7818609E-02  0.8558228E-01
       -1   -1    0    0    0  501  0.00000000000E+00  0.00000000000E+00  0.13331052538E+04  0.13331052538E+04  0.50400001928E-02 0. -1.
        1   -1    0    0  501    0  0.00000000000E+00  0.00000000000E+00 -0.83242781255E+03  0.83242781257E+03  0.50400001928E-02 0.  1.
    10030    2    1    2    0    0  0.00000000000E+00  0.00000000000E+00  0.50067744128E+03  0.21655330664E+04  0.21068591698E+04 0.  0.
        2    1    3    3  502    0 -0.65175630620E+03 -0.42914351488E+03  0.97769237438E+03  0.12509327792E+04  0.25500000920E-02 0. -1.
       -2    1    3    3    0  502  0.65175630620E+03  0.42914351488E+03 -0.47701493310E+03  0.91460028725E+03  0.25500000920E-02 0.  1.
</event>
<event>
 5   0  0.1241430E-04  0.2135453E+04  0.7818609E-02  0.8545785E-01
        2   -1    0    0  501    0  0.00000000000E+00  0.00000000000E+00  0.19036453796E+04  0.19036453796E+04  0.25500000920E-02 0. -1.
       -2   -1    0    0    0  501  0.00000000000E+00  0.00000000000E+00 -0.59887216234E+03  0.59887216235E+03  0.25500000920E-02 0.  1.
    10030    2    1    2    0    0  0.00000000000E+00  0.00000000000E+00  0.13047732172E+04  0.25025175419E+04  0.21354533241E+04 0.  0.
        1    1    3    3  502    0  0.90875793110E+03 -0.54071964852E+03  0.47927370587E+03  0.11610004310E+04  0.50400001928E-02 0.  1.
       -1    1    3    3    0  502 -0.90875793110E+03  0.54071964852E+03  0.82549951136E+03  0.13415171109E+04  0.50400001928E-02 0. -1.
</event>
<event>
 5   0  0.1404159E-04  0.2323404E+04  0.7818609E-02  0.8468750E-01
        2   -1    0    0  501    0  0.00000000000E+00  0.00000000000E+00  0.10688415399E+04  0.10688415399E+04  0.25500000920E-02 0.  1.
       -2   -1    0    0    0  501  0.00000000000E+00  0.00000000000E+00 -0.12626295996E+04  0.12626295996E+04  0.25500000920E-02 0. -1.
    10030    2    1    2    0    0  0.00000000000E+00  0.00000000000E+00 -0.19378805971E+03  0.23314711394E+04  0.23234035082E+04 0.  0.
        5    1    3    3  502    0 -0.32252458730E+03  0.23105554435E+03  0.99873973720E+03  0.10746682868E+04  0.46999998093E+01 0.  1.
       -5    1    3    3    0  502  0.32252458730E+03 -0.23105554435E+03 -0.11925277969E+04  0.12568028526E+04  0.46999998093E+01 0. -1.
</event>
<event>
 5   0  0.1404159E-04  0.2223462E+04  0.7818609E-02  0.8508726E-01
       -2   -1    0    0    0  501  0.00000000000E+00  0.00000000000E+00  0.72431532322E+03  0.72431532322E+03  0.25500000920E-02 0. -1.
        2   -1    0    0  501    0  0.00000000000E+00  0.00000000000E+00 -0.17063635992E+04  0.17063635992E+04  0.25500000920E-02 0.  1.
    10030    2    1    2    0    0  0.00000000000E+00  0.00000000000E+00 -0.98204827602E+03  0.24306789225E+04  0.22234615373E+04 0.  0.
        5    1    3    3  502    0 -0.87334898278E+03  0.67624873195E+03 -0.35329699772E+03  0.11596946373E+04  0.46999998093E+01 0.  1.
       -5    1    3    3    0  502  0.87334898278E+03 -0.67624873195E+03 -0.62875127830E+03  0.12709842852E+04  0.46999998093E+01 0. -1.
</event>
<event>
 5   0  0.1404159E-04  0.2226378E+04  0.7818609E-02  0.8507529E-01
       -2   -1    0    0    0  501  0.00000000000E+00  0.00000000000E+00  0.10957073179E+04  0.10957073179E+04  0.25500000920E-02 0. -1.
        2   -1    0    0  501    0  0.00000000000E+00  0.00000000000E+00 -0.11309495824E+04  0.11309495824E+04  0.25500000920E-02 0.  1.
    10030    2    1    2    0    0  0.00000000000E+00  0.00000000000E+00 -0.35242264509E+02  0.22266569002E+04  0.22263779854E+04 0.  0.
        5    1    3    3  502    0 -0.46168053180E+03  0.42987923761E+02 -0.10297611401E+04  0.11293480290E+04  0.46999998093E+01 0.  1.
       -5    1    3    3    0  502  0.46168053180E+03 -0.42987923761E+02  0.99451887555E+03  0.10973088712E+04  0.46999998093E+01 0. -1.
</event>
<event>
 5   0  0.1226021E-04  0.1913160E+04  0.7818609E-02  0.8648333E-01
       -2   -1    0    0    0  501  0.00000000000E+00  0.00000000000E+00  0.71209271450E+03  0.71209271450E+03  0.25500000920E-02 0.  1.
        2   -1    0    0  501    0  0.00000000000E+00  0.00000000000E+00 -0.12850084695E+04  0.12850084695E+04  0.25500000920E-02 0. -1.
    10030    2    1    2    0    0  0.00000000000E+00  0.00000000000E+00 -0.57291575501E+03  0.19971011840E+04  0.19131598670E+04 0.  0.
        2    1    3    3  502    0  0.50399161626E+02  0.57835635939E+03  0.50716853546E+03  0.77088006674E+03  0.25500000920E-02 0.  1.
       -2    1    3    3    0  502 -0.50399161626E+02 -0.57835635939E+03 -0.10800842905E+04  0.12262211173E+04  0.25500000920E-02 0. -1.
</event>
<event>
 5   0  0.1311472E-04  0.2206020E+04  0.7818609E-02  0.8515927E-01
       -2   -1    0    0    0  501  0.00000000000E+00  0.00000000000E+00  0.10135699034E+04  0.10135699034E+04  0.25500000920E-02 0.  1.
        2   -1    0    0  501    0  0.00000000000E+00  0.00000000000E+00 -0.12003423212E+04  0.12003423212E+04  0.25500000920E-02 0. -1.
    10030    2    1    2    0    0  0.00000000000E+00  0.00000000000E+00 -0.18677241785E+03  0.22139122246E+04  0.22060198100E+04 0.  0.
        4    1    3    3  502    0 -0.33005831281E+03  0.90123503910E+02 -0.11457408859E+04  0.11957359769E+04  0.12699999809E+01 0. -1.
       -4    1    3    3    0  502  0.33005831281E+03 -0.90123503910E+02  0.95896846805E+03  0.10181762477E+04  0.12699999809E+01 0.  1.
</event>
<event>
 5   0  0.1252124E-04  0.2177751E+04  0.7818609E-02  0.8527746E-01
       -2   -1    0    0    0  501  0.00000000000E+00  0.00000000000E+00  0.38696721078E+03  0.38696721079E+03  0.25500000920E-02 0. -1.
        2   -1    0    0  501    0  0.00000000000E+00  0.00000000000E+00 -0.30639551854E+04  0.30639551854E+04  0.25500000920E-02 0.  1.
    10030    2    1    2    0    0  0.00000000000E+00  0.00000000000E+00 -0.26769879746E+04  0.34509223962E+04  0.21777513100E+04 0.  0.
        3    1    3    3  502    0  0.63222865185E+03 -0.85682287140E+03 -0.16991198850E+04  0.20052099379E+04  0.10100000352E+00 0. -1.
       -3    1    3    3    0  502 -0.63222865185E+03  0.85682287140E+03 -0.97786808956E+03  0.14457124583E+04  0.10100000352E+00 0.  1.
</event>
<event>
 5   0  0.1404159E-04  0.2199925E+04  0.7818609E-02  0.8518459E-01
       -2   -1    0    0    0  501  0.00000000000E+00  0.00000000000E+00  0.10900767766E+04  0.10900767766E+04  0.25500000920E-02 0.  1.
        2   -1    0    0  501    0  0.00000000000E+00  0.00000000000E+00 -0.11099377043E+04  0.11099377043E+04  0.25500000920E-02 0. -1.
    10030    2    1    2    0    0  0.00000000000E+00  0.00000000000E+00 -0.19860927686E+02  0.22000144809E+04  0.21999248305E+04 0.  0.
        5    1    3    3  502    0 -0.12442873315E+03  0.10548224646E+04  0.27602223785E+03  0.10974257639E+04  0.46999998093E+01 0.  1.
       -5    1    3    3    0  502  0.12442873315E+03 -0.10548224646E+04 -0.29588316554E+03  0.11025887171E+04  0.46999998093E+01 0. -1.
</event>
<event>
 5   0  0.1311472E-04  0.2324086E+04  0.7818609E-02  0.8468484E-01
        2   -1    0    0  501    0  0.00000000000E+00  0.00000000000E+00  0.11812150531E+04  0.11812150531E+04  0.25500000920E-02 0.  1.
       -2   -1    0    0    0  501  0.00000000000E+00  0.00000000000E+00 -0.11431825405E+04  0.11431825405E+04  0.25500000920E-02 0. -1.
    10030    2    1    2    0    0  0.00000000000E+00  0.00000000000E+00  0.38032512586E+02  0.23243975936E+04  0.23240864229E+04 0.  0.
        4    1    3    3  502    0 -0.51250696006E+03  0.86676876025E+03 -0.56105393688E+03  0.11527075088E+04  0.12699999809E+01 0. -1.
       -4    1    3    3    0  502  0.51250696006E+03 -0.86676876025E+03  0.59908644947E+03  0.11716900847E+04  0.12699999809E+01 0.  1.
</event>
<event>
 5   0  0.4586375E-05  0.2229562E+04  0.7818609E-02  0.8506224E-01
        3   -1    0    0  501    0  0.00000000000E+00  0.00000000000E+00  0.68338973529E+03  0.68338974276E+03  0.10100000352E+00 0. -1.
       -3   -1    0    0    0  501  0.00000000000E+00  0.00000000000E+00 -0.18184890934E+04  0.18184890962E+04  0.10100000352E+00 0.  1.
    10030    2    1    2    0    0  0.00000000000E+00  0.00000000000E+00 -0.11350993581E+04  0.25018788390E+04  0.22295621032E+04 0.  0.
        1    1    3    3  502    0 -0.35269191788E+03 -0.94729334103E+03 -0.10950511870E+04  0.14902662061E+04  0.50400001928E-02 0.  1.
       -1    1    3    3    0  502  0.35269191788E+03  0.94729334103E+03 -0.40048171093E+02  0.10116126328E+04  0.50400001928E-02 0. -1.
</event>
<event>
 5   0  0.1241430E-04  0.2116164E+04  0.7818609E-02  0.8554156E-01
        2   -1    0    0  501    0  0.00000000000E+00  0.00000000000E+00  0.19784808741E+04  0.19784808741E+04  0.25500000920E-02 0.  1.
       -2   -1    0    0    0  501  0.00000000000E+00  0.00000000000E+00 -0.56585713181E+03  0.56585713181E+03  0.25500000920E-02 0. -1.
    10030    2    1    2    0    0  0.00000000000E+00  0.00000000000E+00  0.14126237423E+04  0.25443380059E+04  0.21161639944E+04 0.  0.
        1    1    3    3  502    0  0.83811829013E+03 -0.19007624179E+03 -0.35798917860E+02  0.86014696912E+03  0.50400001928E-02 0. -1.
       -1    1    3    3    0  502 -0.83811829013E+03  0.19007624179E+03  0.14484226602E+04  0.16841910368E+04  0.50400001928E-02 0.  1.
</event>
<event>
 5   0  0.5849604E-05  0.2162358E+04  0.7818609E-02  0.8534261E-01
        1   -1    0    0  501    0  0.00000000000E+00  0.00000000000E+00  0.18422502623E+04  0.18422502623E+04  0.50400001928E-02 0. -1.
       -1   -1    0    0    0  501  0.00000000000E+00  0.00000000000E+00 -0.63452181691E+03  0.63452181693E+03  0.50400001928E-02 0.  1.
    10030    2    1    2    0    0  0.00000000000E+00  0.00000000000E+00  0.12077284454E+04  0.24767720792E+04  0.21623579571E+04 0.  0.
        2    1    3    3  502    0  0.86854390456E+03  0.62335672282E+03  0.41915264768E+03  0.11483166201E+04  0.25500000920E-02 0.  1.
       -2    1    3    3    0  502 -0.86854390456E+03 -0.62335672282E+03  0.78857579771E+03  0.13284554591E+04  0.25500000920E-02 0. -1.
</event>
<event>
 5   0  0.1252124E-04  0.2213418E+04  0.7818609E-02  0.8512864E-01
       -2   -1    0    0    0  501  0.00000000000E+00  0.00000000000E+00  0.89052057774E+03  0.89052057774E+03  0.25500000920E-02 0. -1.
        2   -1    0    0  501    0  0.00000000000E+00  0.00000000000E+00 -0.13753803210E+04  0.13753803210E+04  0.25500000920E-02 0.  1.
    10030    2    1    2    0    0  0.00000000000E+00  0.00000000000E+00 -0.48485974323E+03  0.22659008987E+04  0.22134176994E+04 0.  0.
        3    1    3    3  502    0 -0.60273934088E+03 -0.77653782467E+02  0.70442272276E+03  0.93034198310E+03  0.10100000352E+00 0. -1.
       -3    1    3    3    0  502  0.60273934088E+03  0.77653782467E+02 -0.11892824660E+04  0.13355589156E+04  0.10100000352E+00 0.  1.
</event>
<event>
 5   0  0.5981239E-05  0.2199628E+04  0.7818609E-02  0.8518583E-01
       -1   -1    0    0    0  501  0.00000000000E+00  0.00000000000E+00  0.98207155126E+03  0.98207155127E+03  0.50400001928E-02 0.  1.
        1   -1    0    0  501    0  0.00000000000E+00  0.00000000000E+00 -0.12316726527E+04  0.12316726527E+04  0.50400001928E-02 0. -1.
    10030    2    1    2    0    0  0.00000000000E+00  0.00000000000E+00 -0.24960110140E+03  0.22137442039E+04  0.21996278528E+04 0.  0.
        4    1    3    3  502    0 -0.92467920965E+02 -0.93868272180E+02 -0.12236995875E+04  0.12307736844E+04  0.12699999809E+01 0. -1.
       -4    1    3    3    0  502  0.92467920965E+02  0.93868272180E+02  0.97409848605E+03  0.98297051957E+03  0.12699999809E+01 0.  1.
</event>
<event>
 5   0  0.5861816E-05  0.1871747E+04  0.7818609E-02  0.8669049E-01
        1   -1    0    0  501    0  0.00000000000E+00  0.00000000000E+00  0.78658974572E+03  0.78658974573E+03  0.50400001928E-02 0. -1.
       -1   -1    0    0    0  501  0.00000000000E+00  0.00000000000E+00 -0.11134888799E+04  0.11134888799E+04  0.50400001928E-02 0.  1.
    10030    2    1    2    0    0  0.00000000000E+00  0.00000000000E+00 -0.32689913419E+03  0.19000786256E+04  0.18717467082E+04 0.  0.
        1    1    3    3  502    0  0.84394489299E+03  0.27304896290E+03  0.13949723148E+03  0.89791881380E+03  0.50400001928E-02 0. -1.
       -1    1    3    3    0  502 -0.84394489299E+03 -0.27304896290E+03 -0.46639636567E+03  0.10021598119E+04  0.50400001928E-02 0.  1.
</event>
<event>
 5   0  0.5895063E-05  0.2255348E+04  0.7818609E-02  0.8495738E-01
        1   -1    0    0  501    0  0.00000000000E+00  0.00000000000E+00  0.15372603844E+04  0.15372603844E+04  0.50400001928E-02 0. -1.
       -1   -1    0    0    0  501  0.00000000000E+00  0.00000000000E+00 -0.82721744434E+03  0.82721744436E+03  0.50400001928E-02 0.  1.
    10030    2    1    2    0    0  0.00000000000E+00  0.00000000000E+00  0.71004294008E+03  0.23644778288E+04  0.22553479612E+04 0.  0.
        5    1    3    3  502    0  0.19843993714E+03  0.11475465780E+02  0.15187389652E+04  0.15316984786E+04  0.46999998093E+01 0. -1.
       -5    1    3    3    0  502 -0.19843993714E+03 -0.11475465780E+02 -0.80869602514E+03  0.83277935016E+03  0.46999998093E+01 0.  1.
</event>
<event>
 5   0  0.1311472E-04  0.2190971E+04  0.7818609E-02  0.8522196E-01
       -2   -1    0    0    0  501  0.00000000000E+00  0.00000000000E+00  0.10118837943E+04  0.10118837943E+04  0.25500000920E-02 0.  1.
        2   -1    0    0  501    0  0.00000000000E+00  0.00000000000E+00 -0.11859942630E+04  0.11859942630E+04  0.25500000920E-02 0. -1.
    10030    2    1    2    0    0  0.00000000000E+00  0.00000000000E+00 -0.17411046870E+03  0.21978780573E+04  0.21909709034E+04 0.  0.
        4    1    3    3  502    0 -0.27822920484E+03  0.60051717906E+03  0.78865407703E+03  0.10295675009E+04  0.12699999809E+01 0.  1.
       -4    1    3    3    0  502  0.27822920484E+03 -0.60051717906E+03 -0.96276454573E+03  0.11683105564E+04  0.12699999809E+01 0. -1.
</event>
<event>
 5   0  0.5849604E-05  0.2208956E+04  0.7818609E-02  0.8514710E-01
       -1   -1    0    0    0  501  0.00000000000E+00  0.00000000000E+00  0.10858709609E+04  0.10858709609E+04  0.50400001928E-02 0. -1.
        1   -1    0    0  501    0  0.00000000000E+00  0.00000000000E+00 -0.11234037266E+04  0.11234037266E+04  0.50400001928E-02 0.  1.
    10030    2    1    2    0    0  0.00000000000E+00  0.00000000000E+00 -0.37532765704E+02  0.22092746874E+04  0.22089558475E+04 0.  0.
        2    1    3    3  502    0 -0.63485612589E+03  0.23540256559E+03  0.85395043040E+03  0.10898109956E+04  0.25500000920E-02 0. -1.
       -2    1    3    3    0  502  0.63485612589E+03 -0.23540256559E+03 -0.89148319610E+03  0.11194636919E+04  0.25500000920E-02 0.  1.
</event>
<event>
 5   0  0.1226021E-04  0.2172902E+04  0.7818609E-02  0.8529792E-01
        2   -1    0    0  501    0  0.00000000000E+00  0.00000000000E+00  0.14814408429E+04  0.14814408429E+04  0.25500000920E-02 0.  1.
       -2   -1    0    0    0  501  0.00000000000E+00  0.00000000000E+00 -0.79677548026E+03  0.79677548026E+03  0.25500000920E-02 0. -1.
    10030    2    1    2    0    0  0.00000000000E+00  0.00000000000E+00  0.68466536263E+03  0.22782163232E+04  0.21729019666E+04 0.  0.
        2    1    3    3  502    0  0.58273587452E+03 -0.68989478103E+03 -0.29096215800E+03  0.94878600630E+03  0.25500000920E-02 0. -1.
       -2    1    3    3    0  502 -0.58273587452E+03  0.68989478103E+03  0.97562752064E+03  0.13294303169E+04  0.25500000920E-02 0.  1.
</event>
<event>
 5   0  0.1241430E-04  0.2095861E+04  0.7818609E-02  0.8563069E-01
        2   -1    0    0  501    0  0.00000000000E+00  0.00000000000E+00  0.14739359339E+04  0.14739359339E+04  0.25500000920E-02 0. -1.
       -2   -1    0    0    0  501  0.00000000000E+00  0.00000000000E+00 -0.74505138536E+03  0.74505138537E+03  0.25500000920E-02 0.  1.
    10030    2    1    2    0    0  0.00000000000E+00  0.00000000000E+00  0.72888454855E+03  0.22189873193E+04  0.20958606915E+04 0.  0.
        1    1    3    3  502    0  0.42922206744E+03 -0.86472685613E+03 -0.67150139160E+02  0.96772581866E+03  0.50400001928E-02 0.  1.
       -1    1    3    3    0  502 -0.42922206744E+03  0.86472685613E+03  0.79603468771E+03  0.12512615006E+04  0.50400001928E-02 0. -1.
</event>
<event>
 5   0  0.1404159E-04  0.2200492E+04  0.7818609E-02  0.8518223E-01
       -2   -1    0    0    0  501  0.00000000000E+00  0.00000000000E+00  0.72735290792E+03  0.72735290792E+03  0.25500000920E-02 0.  1.
        2   -1    0    0  501    0  0.00000000000E+00  0.00000000000E+00 -0.16643110595E+04  0.16643110595E+04  0.25500000920E-02 0. -1.
    10030    2    1    2    0    0  0.00000000000E+00  0.00000000000E+00 -0.93695815156E+03  0.23916639674E+04  0.22004922075E+04 0.  0.
        5    1    3    3  502    0  0.41316104560E+03  0.42215064368E+03  0.54038981181E+03  0.80059756074E+03  0.46999998093E+01 0.  1.
       -5    1    3    3    0  502 -0.41316104560E+03 -0.42215064368E+03 -0.14773479634E+04  0.15910664067E+04  0.46999998093E+01 0. -1.
</event>
<event>
 5   0  0.5849604E-05  0.2195897E+04  0.7818609E-02  0.8520138E-01
       -1   -1    0    0    0  501  0.00000000000E+00  0.00000000000E+00  0.78784029772E+03  0.78784029774E+03  0.50400001928E-02 0. -1.
        1   -1    0    0  501    0  0.00000000000E+00  0.00000000000E+00 -0.15301208310E+04  0.15301208310E+04  0.50400001928E-02 0.  1.
    10030    2    1    2    0    0  0.00000000000E+00  0.00000000000E+00 -0.74228053324E+03  0.23179611287E+04  0.21958969475E+04 0.  0.
        2    1    3    3  502    0 -0.80185944677E+02  0.10125462251E+04  0.68941202633E+02  0.10180533056E+04  0.25500000920E-02 0.  1.
       -2    1    3    3    0  502  0.80185944677E+02 -0.10125462251E+04 -0.81122173587E+03  0.12999078231E+04  0.25500000920E-02 0. -1.
</event>
<event>
 5   0  0.5981239E-05  0.2211086E+04  0.7818609E-02  0.8513828E-01
       -1   -1    0    0    0  501  0.00000000000E+00  0.00000000000E+00  0.13580415393E+04  0.13580415393E+04  0.50400001928E-02 0. -1.
        1   -1    0    0  501    0  0.00000000000E+00  0.00000000000E+00 -0.89999104050E+03  0.89999104051E+03  0.50400001928E-02 0.  1.
    10030    2    1    2    0    0  0.00000000000E+00  0.00000000000E+00  0.45805049876E+03  0.22580325798E+04  0.22110859033E+04 0.  0.
        4    1    3    3  502    0 -0.85133687629E+03  0.62874743653E+03 -0.97331276143E+02  0.10628136272E+04  0.12699999809E+01 0.  1.
       -4    1    3    3    0  502  0.85133687629E+03 -0.62874743653E+03  0.55538177490E+03  0.11952189526E+04  0.12699999809E+01 0. -1.
</event>
<event>
 5   0  0.1311472E-04  0.2135287E+04  0.7818609E-02  0.8545856E-01
        2   -1    0    0  501    0  0.00000000000E+00  0.00000000000E+00  0.11361849345E+04  0.11361849345E+04  0.25500000920E-02 0. -1.
       -2   -1    0    0    0  501  0.00000000000E+00  0.00000000000E+00 -0.10032371042E+04  0.10032371042E+04  0.25500000920E-02 0.  1.
    10030    2    1    2    0    0  0.00000000000E+00  0.00000000000E+00  0.13294783031E+03  0.21394220387E+04  0.21352872252E+04 0.  0.
        4    1    3    3  502    0  0.54111889798E+03  0.90415342113E+03 -0.10578398719E+03  0.10590065796E+04  0.12699999809E+01 0.  1.
       -4    1    3    3    0  502 -0.54111889798E+03 -0.90415342113E+03  0.23873181749E+03  0.10804154591E+04  0.12699999809E+01 0. -1.
</event>
<event>
 5   0  0.1252124E-04  0.2137051E+04  0.7818609E-02  0.8545095E-01
       -2   -1    0    0    0  501  0.00000000000E+00  0.00000000000E+00  0.14156905223E+04  0.14156905223E+04  0.25500000920E-02 0.  1.
        2   -1    0    0  501    0  0.00000000000E+00  0.00000000000E+00 -0.80649489696E+03  0.80649489696E+03  0.25500000920E-02 0. -1.
    10030    2    1    2    0    0  0.00000000000E+00  0.00000000000E+00  0.60919562535E+03  0.22221854193E+04  0.21370514097E+04 0.  0.
        3    1    3    3  502    0 -0.15584728832E+01 -0.68344781873E+03  0.11586857687E+04  0.13452345782E+04  0.10100000352E+00 0.  1.
       -3    1    3    3    0  502  0.15584728832E+01  0.68344781873E+03 -0.54949014332E+03  0.87695084103E+03  0.10100000352E+00 0. -1.
</event>
<event>
 5   0  0.5861816E-05  0.2076755E+04  0.7818609E-02  0.8571553E-01
       -1   -1    0    0    0  501  0.00000000000E+00  0.00000000000E+00  0.62036555692E+03  0.62036555694E+03  0.50400001928E-02 0.  1.
        1   -1    0    0  501    0  0.00000000000E+00  0.00000000000E+00 -0.17380515873E+04  0.17380515873E+04  0.50400001928E-02 0. -1.
    10030    2    1    2    0    0  0.00000000000E+00  0.00000000000E+00 -0.11176860304E+04  0.23584171442E+04  0.20767545266E+04 0.  0.
        1    1    3    3  502    0  0.27819087459E+03  0.46506582086E+03  0.44703666886E+03  0.70250847950E+03  0.50400001928E-02 0.  1.
       -1    1    3    3    0  502 -0.27819087459E+03 -0.46506582086E+03 -0.15647226992E+04  0.16559086647E+04  0.50400001928E-02 0. -1.
</event>
<event>
 5   0  0.5861816E-05  0.2172606E+04  0.7818609E-02  0.8529917E-01
        1   -1    0    0  501    0  0.00000000000E+00  0.00000000000E+00  0.89269407051E+03  0.89269407053E+03  0.50400001928E-02 0. -1.
       -1   -1    0    0    0  501  0.00000000000E+00  0.00000000000E+00 -0.13219017598E+04  0.13219017598E+04  0.50400001928E-02 0.  1.
    10030    2    1    2    0    0  0.00000000000E+00  0.00000000000E+00 -0.42920768924E+03  0.22145958303E+04  0.21726056824E+04 0.  0.
        1    1    3    3  502    0  0.16753643793E+03 -0.99706398787E+02 -0.13039226282E+04  0.13184172497E+04  0.50400001928E-02 0.  1.
       -1    1    3    3    0  502 -0.16753643793E+03  0.99706398787E+02  0.87471493891E+03  0.89617858062E+03  0.50400001928E-02 0. -1.
</event>
<event>
 5   0  0.5849604E-05  0.2177650E+04  0.7818609E-02  0.8527788E-01
        1   -1    0    0  501    0  0.00000000000E+00  0.00000000000E+00  0.21471347848E+04  0.21471347848E+04  0.50400001928E-02 0. -1.
       -1   -1    0    0    0  501  0.00000000000E+00  0.00000000000E+00 -0.55214993414E+03  0.55214993416E+03  0.50400001928E-02 0.  1.
    10030    2    1    2    0    0  0.00000000000E+00  0.00000000000E+00  0.15949848506E+04  0.26992847189E+04  0.21776504127E+04 0.  0.
        2    1    3    3  502    0  0.20393700037E+03  0.43293597025E+02 -0.52717842194E+03  0.56690539266E+03  0.25500000920E-02 0.  1.
       -2    1    3    3    0  502 -0.20393700037E+03 -0.43293597025E+02  0.21221632726E+04  0.21323793263E+04  0.25500000920E-02 0. -1.
</event>
<event>
 5   0  0.5849604E-05  0.2195112E+04  0.7818609E-02  0.8520465E-01
        1   -1    0    0  501    0  0.00000000000E+00  0.00000000000E+00  0.77475508222E+03  0.77475508224E+03  0.50400001928E-02 0. -1.
       -1   -1    0    0    0  501  0.00000000000E+00  0.00000000000E+00 -0.15548518756E+04  0.15548518756E+04  0.50400001928E-02 0.  1.
    10030    2    1    2    0    0  0.00000000000E+00  0.00000000000E+00 -0.78009679334E+03  0.23296069578E+04  0.21951122001E+04 0.  0.
        2    1    3    3  502    0 -0.83221798027E+03  0.67040223462E+03 -0.12451134198E+03  0.10758852156E+04  0.25500000920E-02 0. -1.
       -2    1    3    3    0  502  0.83221798027E+03 -0.67040223462E+03 -0.65558545137E+03  0.12537217422E+04  0.25500000920E-02 0.  1.
</event>
<event>
 5   0  0.1404159E-04  0.2184311E+04  0.7818609E-02  0.8524987E-01
       -2   -1    0    0    0  501  0.00000000000E+00  0.00000000000E+00  0.76616222660E+03  0.76616222661E+03  0.25500000920E-02 0. -1.
        2   -1    0    0  501    0  0.00000000000E+00  0.00000000000E+00 -0.15568554749E+04  0.15568554749E+04  0.25500000920E-02 0.  1.
    10030    2    1    2    0    0  0.00000000000E+00  0.00000000000E+00 -0.79069324833E+03  0.23230177015E+04  0.21843112024E+04 0.  0.
        5    1    3    3  502    0  0.76974825009E+03 -0.57178733441E+03 -0.95135403297E+03  0.13507589387E+04  0.46999998093E+01 0.  1.
       -5    1    3    3    0  502 -0.76974825009E+03  0.57178733441E+03  0.16066078463E+03  0.97225876289E+03  0.46999998093E+01 0. -1.
</event>
<event>
 5   0  0.5895063E-05  0.2194197E+04  0.7818609E-02  0.8520847E-01
        1   -1    0    0  501    0  0.00000000000E+00  0.00000000000E+00  0.11619343410E+04  0.11619343410E+04  0.50400001928E-02 0.  1.
       -1   -1    0    0    0  501  0.00000000000E+00  0.00000000000E+00 -0.10358802953E+04  0.10358802953E+04  0.50400001928E-02 0. -1.
    10030    2    1    2    0    0  0.00000000000E+00  0.00000000000E+00  0.12605404574E+03  0.21978146363E+04  0.21941967900E+04 0.  0.
        5    1    3    3  502    0  0.48388741990E+03 -0.81323868775E+03 -0.49295448652E+03  0.10670194067E+04  0.46999998093E+01 0. -1.
       -5    1    3    3    0  502 -0.48388741990E+03  0.81323868775E+03  0.61900853226E+03  0.11307952296E+04  0.46999998093E+01 0.  1.
</event>
<event>
 5   0  0.6263558E-05  0.2202813E+04  0.7818609E-02  0.8517258E-01
       -1   -1    0    0    0  501  0.00000000000E+00  0.00000000000E+00  0.62704655976E+03  0.62704655978E+03  0.50400001928E-02 0. -1.
        1   -1    0    0  501    0  0.00000000000E+00  0.00000000000E+00 -0.19346187088E+04  0.19346187088E+04  0.50400001928E-02 0.  1.
    10030    2    1    2    0    0  0.00000000000E+00  0.00000000000E+00 -0.13075721490E+04  0.25616652686E+04  0.22028127527E+04 0.  0.
        3    1    3    3  502    0 -0.79373328713E+03 -0.76143800293E+03 -0.72054574250E+03  0.13149093279E+04  0.10100000352E+00 0.  1.
       -3    1    3    3    0  502  0.79373328713E+03  0.76143800293E+03 -0.58702640651E+03  0.12467559406E+04  0.10100000352E+00 0. -1.
</event>
<event>
 5   0  0.5895063E-05  0.2249527E+04  0.7818609E-02  0.8498092E-01
       -1   -1    0    0    0  501  0.00000000000E+00  0.00000000000E+00  0.11524669536E+04  0.11524669536E+04  0.50400001928E-02 0. -1.
        1   -1    0    0  501    0  0.00000000000E+00  0.00000000000E+00 -0.10977261325E+04  0.10977261325E+04  0.50400001928E-02 0.  1.
    10030    2    1    2    0    0  0.00000000000E+00  0.00000000000E+00  0.54740821070E+02  0.22501930861E+04  0.22495271430E+04 0.  0.
        5    1    3    3  502    0 -0.37554012945E+03 -0.76960789007E+03  0.75679428389E+03  0.11428413588E+04  0.46999998093E+01 0. -1.
       -5    1    3    3    0  502  0.37554012945E+03  0.76960789007E+03 -0.70205346282E+03  0.11073517273E+04  0.46999998093E+01 0.  1.
</event>
<event>
 5   0  0.5981239E-05  0.2139636E+04  0.7818609E-02  0.8543982E-01
       -1   -1    0    0    0  501  0.00000000000E+00  0.00000000000E+00  0.19809532685E+04  0.19809532685E+04  0.50400001928E-02 0. -1.
        1   -1    0    0  501    0  0.00000000000E+00  0.00000000000E+00 -0.57775759718E+03  0.57775759720E+03  0.50400001928E-02 0.  1.
    10030    2    1    2    0    0  0.00000000000E+00  0.00000000000E+00  0.14031956713E+04  0.25587108657E+04  0.21396362313E+04 0.  0.
        4    1    3    3  502    0  0.68965081866E+03 -0.66845328482E+03  0.13806716940E+03  0.97031551664E+03  0.12699999809E+01 0.  1.
       -4    1    3    3    0  502 -0.68965081866E+03  0.66845328482E+03  0.12651285019E+04  0.15883953491E+04  0.12699999809E+01 0. -1.
</event>
<event>
 5   0  0.1226021E-04  0.2148002E+04  0.7818609E-02  0.8540388E-01
       -2   -1    0    0    0  501  0.00000000000E+00  0.00000000000E+00  0.77142413931E+03  0.77142413932E+03  0.25500000920E-02 0.  1.
        2   -1    0    0  501    0  0.00000000000E+00  0.00000000000E+00 -0.14952577490E+04  0.14952577490E+04  0.25500000920E-02 0. -1.
    10030    2    1    2    0    0  0.00000000000E+00  0.00000000000E+00 -0.72383360971E+03  0.22666818883E+04  0.21480017897E+04 0.  0.
        2    1    3    3  502    0  0.43185712411E+03  0.49851675874E+02  0.67443041280E+03  0.80239774860E+03  0.25500000920E-02 0.  1.
       -2    1    3    3    0  502 -0.43185712411E+03 -0.49851675874E+02 -0.13982640225E+04  0.14642841397E+04  0.25500000920E-02 0. -1.
</event>
<event>
 5   0  0.1241430E-04  0.2206338E+04  0.7818609E-02  0.8515795E-01
        2   -1    0    0  501    0  0.00000000000E+00  0.00000000000E+00  0.95069216353E+03  0.95069216353E+03  0.25500000920E-02 0.  1.
       -2   -1    0    0    0  501  0.00000000000E+00  0.00000000000E+00 -0.12801011746E+04  0.12801011746E+04  0.25500000920E-02 0. -1.
    10030    2    1    2    0    0  0.00000000000E+00  0.00000000000E+00 -0.32940901106E+03  0.22307933381E+04  0.22063382834E+04 0.  0.
        1    1    3    3  502    0 -0.86079410287E+03  0.47357176479E+03 -0.67200823397E+03  0.11903074269E+04  0.50400001928E-02 0. -1.
       -1    1    3    3    0  502  0.86079410287E+03 -0.47357176479E+03  0.34259922290E+03  0.10404859112E+04  0.50400001928E-02 0.  1.
</event>
<event>
 5   0  0.5895063E-05  0.2201671E+04  0.7818609E-02  0.8517733E-01
        1   -1    0    0  501    0  0.00000000000E+00  0.00000000000E+00  0.15137314255E+04  0.15137314255E+04  0.50400001928E-02 0. -1.
       -1   -1    0    0    0  501  0.00000000000E+00  0.00000000000E+00 -0.80056414166E+03  0.80056414167E+03  0.50400001928E-02 0.  1.
    10030    2    1    2    0    0  0.00000000000E+00  0.00000000000E+00  0.71316728388E+03  0.23142955672E+04  0.22016712737E+04 0.  0.
        5    1    3    3  502    0  0.37690812144E+03 -0.92615909262E+03  0.84055600813E+03  0.13062874453E+04  0.46999998093E+01 0. -1.
       -5    1    3    3    0  502 -0.37690812144E+03  0.92615909262E+03 -0.12738872426E+03  0.10080081219E+04  0.46999998093E+01 0.  1.
</event>
<event>
 5   0  0.5849604E-05  0.2004287E+04  0.7818609E-02  0.8604619E-01
        1   -1    0    0  501    0  0.00000000000E+00  0.00000000000E+00  0.10164207987E+04  0.10164207987E+04  0.50400001928E-02 0. -1.
       -1   -1    0    0    0  501  0.00000000000E+00  0.00000000000E+00 -0.98806670686E+03  0.98806670687E+03  0.50400001928E-02 0.  1.
    10030    2    1    2    0    0  0.00000000000E+00  0.00000000000E+00  0.28354091850E+02  0.20044875056E+04  0.20042869569E+04 0.  0.
        2    1    3    3  502    0 -0.21150041922E+03 -0.27202231686E+03  0.95531476736E+03  0.10155564351E+04  0.25500000920E-02 0. -1.
       -2    1    3    3    0  502  0.21150041922E+03  0.27202231686E+03 -0.92696067551E+03  0.98893107047E+03  0.25500000920E-02 0.  1.
</event>
<event>
 5   0  0.6263558E-05  0.2491962E+04  0.7818609E-02  0.8405855E-01
       -1   -1    0    0    0  501  0.00000000000E+00  0.00000000000E+00  0.16536237141E+04  0.16536237141E+04  0.50400001928E-02 0. -1.
        1   -1    0    0  501    0  0.00000000000E+00  0.00000000000E+00 -0.93882798088E+03  0.93882798090E+03  0.50400001928E-02 0.  1.
    10030    2    1    2    0    0  0.00000000000E+00  0.00000000000E+00  0.71479573323E+03  0.25924516950E+04  0.24919616471E+04 0.  0.
        3    1    3    3  502    0 -0.16151664826E+03 -0.12354652178E+04  0.36000291154E+03  0.12969441155E+04  0.10100000352E+00 0. -1.
       -3    1    3    3    0  502  0.16151664826E+03  0.12354652178E+04  0.35479282168E+03  0.12955075795E+04  0.10100000352E+00 0.  1.
</event>
<event>
 5   0  0.1226021E-04  0.1520976E+04  0.7818609E-02  0.8870623E-01
        2   -1    0    0  501    0  0.00000000000E+00  0.00000000000E+00  0.10465907515E+04  0.10465907515E+04  0.25500000920E-02 0.  1.
       -2   -1    0    0    0  501  0.00000000000E+00  0.00000000000E+00 -0.55259635232E+03  0.55259635233E+03  0.25500000920E-02 0. -1.
    10030    2    1    2    0    0  0.00000000000E+00  0.00000000000E+00  0.49399439917E+03  0.15991871038E+04  0.15209763071E+04 0.  0.
        2    1    3    3  502    0 -0.50999907486E+03  0.55113056783E+03  0.37359756496E+03  0.83870084041E+03  0.25500000920E-02 0.  1.
       -2    1    3    3    0  502  0.50999907486E+03 -0.55113056783E+03  0.12039683421E+03  0.76048626342E+03  0.25500000920E-02 0. -1.
</event>
<event>
 5   0  0.1241430E-04  0.1374562E+04  0.7818609E-02  0.8972440E-01
        2   -1    0    0  501    0  0.00000000000E+00  0.00000000000E+00  0.96996532817E+03  0.96996532818E+03  0.25500000920E-02 0.  1.
       -2   -1    0    0    0  501  0.00000000000E+00  0.00000000000E+00 -0.48698160005E+03  0.48698160006E+03  0.25500000920E-02 0. -1.
    10030    2    1    2    0    0  0.00000000000E+00  0.00000000000E+00  0.48298372812E+03  0.14569469282E+04  0.13745621376E+04 0.  0.
        1    1    3    3  502    0  0.84202196275E+02 -0.36471106492E+02  0.96344328948E+03  0.96780324629E+03  0.50400001928E-02 0.  1.
       -1    1    3    3    0  502 -0.84202196275E+02  0.36471106492E+02 -0.48045956136E+03  0.48914368195E+03  0.50400001928E-02 0. -1.
</event>
<event>
 5   0  0.5861816E-05  0.1905765E+04  0.7818609E-02  0.8651992E-01
        1   -1    0    0  501    0  0.00000000000E+00  0.00000000000E+00  0.63774440663E+03  0.63774440665E+03  0.50400001928E-02 0.  1.
       -1   -1    0    0    0  501  0.00000000000E+00  0.00000000000E+00 -0.14237443074E+04  0.14237443074E+04  0.50400001928E-02 0. -1.
    10030    2    1    2    0    0  0.00000000000E+00  0.00000000000E+00 -0.78599990074E+03  0.20614887140E+04  0.19057649053E+04 0.  0.
        1    1    3    3  502    0 -0.68077016482E+03 -0.50774422766E+02 -0.11121219630E+04  0.13049296226E+04  0.50400001928E-02 0. -1.
       -1    1    3    3    0  502  0.68077016482E+03  0.50774422766E+02  0.32612206226E+03  0.75655909144E+03  0.50400001928E-02 0.  1.
</event>
<event>
 5   0  0.1226021E-04  0.2203304E+04  0.7818609E-02  0.8517054E-01
        2   -1    0    0  501    0  0.00000000000E+00  0.00000000000E+00  0.22177532921E+04  0.22177532921E+04  0.25500000920E-02 0.  1.
       -2   -1    0    0    0  501  0.00000000000E+00  0.00000000000E+00 -0.54723703224E+03  0.54723703224E+03  0.25500000920E-02 0. -1.
    10030    2    1    2    0    0  0.00000000000E+00  0.00000000000E+00  0.16705162598E+04  0.27649903243E+04  0.22033036375E+04 0.  0.
        2    1    3    3  502    0 -0.27680629755E+03 -0.81502856225E+03  0.16981016120E+04  0.19037968296E+04  0.25500000920E-02 0.  1.
       -2    1    3    3    0  502  0.27680629755E+03  0.81502856225E+03 -0.27585352206E+02  0.86119349470E+03  0.25500000920E-02 0. -1.
</event>
<event>
 5   0  0.5981239E-05  0.2180327E+04  0.7818609E-02  0.8526661E-01
        1   -1    0    0  501    0  0.00000000000E+00  0.00000000000E+00  0.14525698886E+04  0.14525698886E+04  0.50400001928E-02 0.  1.
       -1   -1    0    0    0  501  0.00000000000E+00  0.00000000000E+00 -0.81817527625E+03  0.81817527626E+03  0.50400001928E-02 0. -1.
    10030    2    1    2    0    0  0.00000000000E+00  0.00000000000E+00  0.63439461233E+03  0.22707451649E+04  0.21803272873E+04 0.  0.
        4    1    3    3  502    0 -0.81179619654E+03 -0.68008941817E+03  0.58661506385E+03  0.12106417833E+04  0.12699999809E+01 0.  1.
       -4    1    3    3    0  502  0.81179619654E+03  0.68008941817E+03  0.47779548488E+02  0.10601033816E+04  0.12699999809E+01 0. -1.
</event>
<event>
 5   0  0.6263558E-05  0.2269265E+04  0.7818609E-02  0.8490139E-01
       -1   -1    0    0    0  501  0.00000000000E+00  0.00000000000E+00  0.99987381394E+03  0.99987381395E+03  0.50400001928E-02 0. -1.
        1   -1    0    0  501    0  0.00000000000E+00  0.00000000000E+00 -0.12875533391E+04  0.12875533392E+04  0.50400001928E-02 0.  1.
    10030    2    1    2    0    0  0.00000000000E+00  0.00000000000E+00 -0.28767952521E+03  0.22874271531E+04  0.22692649628E+04 0.  0.
        3    1    3    3  502    0  0.11221357349E+04  0.14296680044E+03 -0.55028161499E+02  0.11325441370E+04  0.10100000352E+00 0. -1.
       -3    1    3    3    0  502 -0.11221357349E+04 -0.14296680044E+03 -0.23265136371E+03  0.11548830161E+04  0.10100000352E+00 0.  1.
</event>
<event>
 5   0  0.1404159E-04  0.2229904E+04  0.7818609E-02  0.8506084E-01
        2   -1    0    0  501    0  0.00000000000E+00  0.00000000000E+00  0.17143793725E+04  0.17143793725E+04  0.25500000920E-02 0.  1.
       -2   -1    0    0    0  501  0.00000000000E+00  0.00000000000E+00 -0.72511241083E+03  0.72511241083E+03  0.25500000920E-02 0. -1.
    10030    2    1    2    0    0  0.00000000000E+00  0.00000000000E+00  0.98926696170E+03  0.24394917834E+04  0.22299038185E+04 0.  0.
        5    1    3    3  502    0 -0.72391490925E+03  0.11489287872E+03 -0.42447575630E+03  0.84702711119E+03  0.46999998093E+01 0. -1.
       -5    1    3    3    0  502  0.72391490925E+03 -0.11489287872E+03  0.14137427180E+04  0.15924646722E+04  0.46999998093E+01 0.  1.
</event>
<event>
 5   0  0.1226021E-04  0.2025196E+04  0.7818609E-02  0.8594931E-01
       -2   -1    0    0    0  501  0.00000000000E+00  0.00000000000E+00  0.10064103495E+04  0.10064103495E+04  0.25500000920E-02 0.  1.
        2   -1    0    0  501    0  0.00000000000E+00  0.00000000000E+00 -0.10188233726E+04  0.10188233726E+04  0.25500000920E-02 0. -1.
    10030    2    1    2    0    0  0.00000000000E+00  0.00000000000E+00 -0.12413023086E+02  0.20252337221E+04  0.20251956809E+04 0.  0.
        2    1    3    3  502    0 -0.10114668902E+04  0.20660792164E+02  0.36948073693E+02  0.10123523588E+04  0.25500000920E-02 0.  1.
       -2    1    3    3    0  502  0.10114668902E+04 -0.20660792164E+02 -0.49361096779E+02  0.10128813633E+04  0.25500000920E-02 0. -1.
</event>
<event>
 5   0  0.4586375E-05  0.1983153E+04  0.7818609E-02  0.8614538E-01
        3   -1    0    0  501    0  0.00000000000E+00  0.00000000000E+00  0.18926841866E+04  0.18926841893E+04  0.10100000352E+00 0. -1.
       -3   -1    0    0    0  501  0.00000000000E+00  0.00000000000E+00 -0.51948628141E+03  0.51948629123E+03  0.10100000352E+00 0.  1.
    10030    2    1    2    0    0  0.00000000000E+00  0.00000000000E+00  0.13731979052E+04  0.24121704805E+04  0.19831525257E+04 0.  0.
        4    1    3    3  502    0  0.35026785598E+03 -0.19935997840E+03 -0.41536625545E+03  0.57875963144E+03  0.12699999809E+01 0.  1.
       -4    1    3    3    0  502 -0.35026785598E+03  0.19935997840E+03  0.17885641606E+04  0.18334108491E+04  0.12699999809E+01 0. -1.
</event>
<event>
 5   0  0.5895063E-05  0.1559525E+04  0.7818609E-02  0.8845806E-01
       -1   -1    0    0    0  501  0.00000000000E+00  0.00000000000E+00  0.13797764541E+04  0.13797764541E+04  0.50400001928E-02 0. -1.
        1   -1    0    0  501    0  0.00000000000E+00  0.00000000000E+00 -0.44067278931E+03  0.44067278934E+03  0.50400001928E-02 0.  1.
    10030    2    1    2    0    0  0.00000000000E+00  0.00000000000E+00  0.93910366476E+03  0.18204492434E+04  0.15595254902E+04 0.  0.
        5    1    3    3  502    0 -0.31805086799E+03  0.40229254941E+03 -0.21609949722E+03  0.55652199654E+03  0.46999998093E+01 0.  1.
       -5    1    3    3    0  502  0.31805086799E+03 -0.40229254941E+03  0.11552031620E+04  0.12639272469E+04  0.46999998093E+01 0. -1.
</event>
<event>
 5   0  0.5849604E-05  0.2216633E+04  0.7818609E-02  0.8511537E-01
       -1   -1    0    0    0  501  0.00000000000E+00  0.00000000000E+00  0.87633582610E+03  0.87633582612E+03  0.50400001928E-02 0. -1.
        1   -1    0    0  501    0  0.00000000000E+00  0.00000000000E+00 -0.14017056888E+04  0.14017056888E+04  0.50400001928E-02 0.  1.
    10030    2    1    2    0    0  0.00000000000E+00  0.00000000000E+00 -0.52536986271E+03  0.22780415149E+04  0.22166325025E+04 0.  0.
        2    1    3    3  502    0 -0.98697921326E+03 -0.50401074524E+03 -0.27758181779E+03  0.11424563293E+04  0.25500000920E-02 0.  1.
       -2    1    3    3    0  502  0.98697921326E+03  0.50401074524E+03 -0.24778804493E+03  0.11355851857E+04  0.25500000920E-02 0. -1.
</event>
<event>
 5   0  0.5861816E-05  0.2174200E+04  0.7818609E-02  0.8529244E-01
        1   -1    0    0  501    0  0.00000000000E+00  0.00000000000E+00  0.90193633897E+03  0.90193633898E+03  0.50400001928E-02 0. -1.
       -1   -1    0    0    0  501  0.00000000000E+00  0.00000000000E+00 -0.13102772861E+04  0.13102772861E+04  0.50400001928E-02 0.  1.
    10030    2    1    2    0    0  0.00000000000E+00  0.00000000000E+00 -0.40834094710E+03  0.22122136251E+04  0.21742002653E+04 0.  0.
        1    1    3    3  502    0  0.54482564491E+03  0.30782598056E+03 -0.11086414270E+04  0.12730583771E+04  0.50400001928E-02 0.  1.
       -1    1    3    3    0  502 -0.54482564491E+03 -0.30782598056E+03  0.70030047992E+03  0.93915524801E+03  0.50400001928E-02 0. -1.
</event>
<event>
 5   0  0.1226021E-04  0.2234455E+04  0.7818609E-02  0.8504223E-01
        2   -1    0    0  501    0  0.00000000000E+00  0.00000000000E+00  0.18785158523E+04  0.18785158523E+04  0.25500000920E-02 0.  1.
       -2   -1    0    0    0  501  0.00000000000E+00  0.00000000000E+00 -0.66445916462E+03  0.66445916462E+03  0.25500000920E-02 0. -1.
    10030    2    1    2    0    0  0.00000000000E+00  0.00000000000E+00  0.12140566877E+04  0.25429750170E+04  0.22344548095E+04 0.  0.
        2    1    3    3  502    0  0.24857117148E+02  0.18689425313E+03 -0.64622307810E+03  0.67316536215E+03  0.25500000920E-02 0. -1.
       -2    1    3    3    0  502 -0.24857117148E+02 -0.18689425313E+03  0.18602797658E+04  0.18698096548E+04  0.25500000920E-02 0.  1.
</event>
<event>
 5   0  0.5861816E-05  0.2185919E+04  0.7818609E-02  0.8524312E-01
        1   -1    0    0  501    0  0.00000000000E+00  0.00000000000E+00  0.18232226192E+04  0.18232226192E+04  0.50400001928E-02 0.  1.
       -1   -1    0    0    0  501  0.00000000000E+00  0.00000000000E+00 -0.65519174923E+03  0.65519174925E+03  0.50400001928E-02 0. -1.
    10030    2    1    2    0    0  0.00000000000E+00  0.00000000000E+00  0.11680308700E+04  0.24784143685E+04  0.21859189529E+04 0.  0.
        1    1    3    3  502    0  0.32609623052E+03 -0.72265978466E+03  0.14370018843E+04  0.16412039275E+04  0.50400001928E-02 0.  1.
       -1    1    3    3    0  502 -0.32609623052E+03  0.72265978466E+03 -0.26897101436E+03  0.83721044099E+03  0.50400001928E-02 0. -1.
</event>
<event>
 5   0  0.1404159E-04  0.2140895E+04  0.7818609E-02  0.8543440E-01
       -2   -1    0    0    0  501  0.00000000000E+00  0.00000000000E+00  0.13134571779E+04  0.13134571779E+04  0.25500000920E-02 0.  1.
        2   -1    0    0  501    0  0.00000000000E+00  0.00000000000E+00 -0.87239827377E+03  0.87239827377E+03  0.25500000920E-02 0. -1.
    10030    2    1    2    0    0  0.00000000000E+00  0.00000000000E+00  0.44105890413E+03  0.21858554517E+04  0.21408949294E+04 0.  0.
        5    1    3    3  502    0 -0.49897394485E+03 -0.73537468092E+03  0.82978961520E+03  0.12158634029E+04  0.46999998093E+01 0.  1.
       -5    1    3    3    0  502  0.49897394485E+03  0.73537468092E+03 -0.38873071107E+03  0.96999204878E+03  0.46999998093E+01 0. -1.
</event>
<event>
 5   0  0.6263558E-05  0.2281129E+04  0.7818609E-02  0.8485399E-01
        1   -1    0    0  501    0  0.00000000000E+00  0.00000000000E+00  0.10821533819E+04  0.10821533819E+04  0.50400001928E-02 0. -1.
       -1   -1    0    0    0  501  0.00000000000E+00  0.00000000000E+00 -0.12021280985E+04  0.12021280985E+04  0.50400001928E-02 0.  1.
    10030    2    1    2    0    0  0.00000000000E+00  0.00000000000E+00 -0.11997471661E+03  0.22842814805E+04  0.22811286569E+04 0.  0.
        3    1    3    3  502    0  0.69839977807E+03 -0.36453509366E+03 -0.88589325703E+03  0.11855188558E+04  0.10100000352E+00 0.  1.
       -3    1    3    3    0  502 -0.69839977807E+03  0.36453509366E+03  0.76591854042E+03  0.10987626246E+04  0.10100000352E+00 0. -1.
</event>
<event>
 5   0  0.4586375E-05  0.1919087E+04  0.7818609E-02  0.8645413E-01
        3   -1    0    0  501    0  0.00000000000E+00  0.00000000000E+00  0.14038052157E+04  0.14038052194E+04  0.10100000352E+00 0. -1.
       -3   -1    0    0    0  501  0.00000000000E+00  0.00000000000E+00 -0.65587719156E+03  0.65587719934E+03  0.10100000352E+00 0.  1.
    10030    2    1    2    0    0  0.00000000000E+00  0.00000000000E+00  0.74792802418E+03  0.20596824187E+04  0.19190871102E+04 0.  0.
        2    1    3    3  502    0  0.36415199873E+03 -0.45285231746E+03  0.11934762992E+04  0.13274289346E+04  0.25500000920E-02 0. -1.
       -2    1    3    3    0  502 -0.36415199873E+03  0.45285231746E+03 -0.44554827503E+03  0.73225348412E+03  0.25500000920E-02 0.  1.
</event>
<event>
 5   0  0.5895063E-05  0.2193050E+04  0.7818609E-02  0.8521326E-01
        1   -1    0    0  501    0  0.00000000000E+00  0.00000000000E+00  0.17952172617E+04  0.17952172617E+04  0.50400001928E-02 0. -1.
       -1   -1    0    0    0  501  0.00000000000E+00  0.00000000000E+00 -0.66976132659E+03  0.66976132661E+03  0.50400001928E-02 0.  1.
    10030    2    1    2    0    0  0.00000000000E+00  0.00000000000E+00  0.11254559351E+04  0.24649785883E+04  0.21930500174E+04 0.  0.
        5    1    3    3  502    0 -0.15522790270E+03 -0.73538608353E+03 -0.33468001669E+03  0.82275220887E+03  0.46999998093E+01 0.  1.
       -5    1    3    3    0  502  0.15522790270E+03  0.73538608353E+03  0.14601359518E+04  0.16422263794E+04  0.46999998093E+01 0. -1.
</event>
<event>
 5   0  0.1226021E-04  0.2233521E+04  0.7818609E-02  0.8504604E-01
        2   -1    0    0  501    0  0.00000000000E+00  0.00000000000E+00  0.14463215540E+04  0.14463215540E+04  0.25500000920E-02 0. -1.
       -2   -1    0    0    0  501  0.00000000000E+00  0.00000000000E+00 -0.86229410550E+03  0.86229410550E+03  0.25500000920E-02 0.  1.
    10030    2    1    2    0    0  0.00000000000E+00  0.00000000000E+00  0.58402744851E+03  0.23086156595E+04  0.22335214802E+04 0.  0.
        2    1    3    3  502    0 -0.13372780394E+03  0.41185332301E+03 -0.77198809233E+03  0.88513948049E+03  0.25500000920E-02 0.  1.
       -2    1    3    3    0  502  0.13372780394E+03 -0.41185332301E+03  0.13560155408E+04  0.14234761790E+04  0.25500000920E-02 0. -1.
</event>
<event>
 5   0  0.4586375E-05  0.2317232E+04  0.7818609E-02  0.8471158E-01
       -3   -1    0    0    0  501  0.00000000000E+00  0.00000000000E+00  0.60947687417E+03  0.60947688254E+03  0.10100000352E+00 0.  1.
        3   -1    0    0  501    0  0.00000000000E+00  0.00000000000E+00 -0.22025302205E+04  0.22025302228E+04  0.10100000352E+00 0. -1.
    10030    2    1    2    0    0  0.00000000000E+00  0.00000000000E+00 -0.15930533463E+04  0.28120071053E+04  0.23172321844E+04 0.  0.
        2    1    3    3  502    0 -0.10125014705E+03  0.49064782161E+03  0.47124109620E+03  0.68778997367E+03  0.25500000920E-02 0.  1.
       -2    1    3    3    0  502  0.10125014705E+03 -0.49064782161E+03 -0.20642944425E+04  0.21242171317E+04  0.25500000920E-02 0. -1.
</event>
<event>
 5   0  0.5861816E-05  0.2165872E+04  0.7818609E-02  0.8532769E-01
        1   -1    0    0  501    0  0.00000000000E+00  0.00000000000E+00  0.12159787015E+04  0.12159787015E+04  0.50400001928E-02 0. -1.
       -1   -1    0    0    0  501  0.00000000000E+00  0.00000000000E+00 -0.96444983883E+03  0.96444983885E+03  0.50400001928E-02 0.  1.
    10030    2    1    2    0    0  0.00000000000E+00  0.00000000000E+00  0.25152886270E+03  0.21804285404E+04  0.21658720763E+04 0.  0.
        1    1    3    3  502    0 -0.66511616254E+03 -0.70376012982E+03  0.61388663769E+03  0.11465228449E+04  0.50400001928E-02 0. -1.
       -1    1    3    3    0  502  0.66511616254E+03  0.70376012982E+03 -0.36235777499E+03  0.10339056955E+04  0.50400001928E-02 0.  1.
</event>
<event>
 5   0  0.1226021E-04  0.2249116E+04  0.7818609E-02  0.8498258E-01
       -2   -1    0    0    0  501  0.00000000000E+00  0.00000000000E+00  0.49609687190E+03  0.49609687190E+03  0.25500000920E-02 0.  1.
        2   -1    0    0  501    0  0.00000000000E+00  0.00000000000E+00 -0.25491613829E+04  0.25491613829E+04  0.25500000920E-02 0. -1.
    10030    2    1    2    0    0  0.00000000000E+00  0.00000000000E+00 -0.20530645110E+04  0.30452582548E+04  0.22491162602E+04 0.  0.
        2    1    3    3  502    0  0.65429465893E+03 -0.48063574115E+03 -0.20801329042E+04  0.22329498686E+04  0.25500000920E-02 0. -1.
       -2    1    3    3    0  502 -0.65429465893E+03  0.48063574115E+03  0.27068393234E+02  0.81230838620E+03  0.25500000920E-02 0.  1.
</event>
<event>
 5   0  0.5849604E-05  0.2159941E+04  0.7818609E-02  0.8535289E-01
        1   -1    0    0  501    0  0.00000000000E+00  0.00000000000E+00  0.17022999973E+04  0.17022999973E+04  0.50400001928E-02 0.  1.
       -1   -1    0    0    0  501  0.00000000000E+00  0.00000000000E+00 -0.68515319693E+03  0.68515319695E+03  0.50400001928E-02 0. -1.
    10030    2    1    2    0    0  0.00000000000E+00  0.00000000000E+00  0.10171468003E+04  0.23874531942E+04  0.21599410041E+04 0.  0.
        2    1    3    3  502    0  0.14806864991E+03  0.13996689826E+03  0.16808625052E+04  0.16931668019E+04  0.25500000920E-02 0.  1.
       -2    1    3    3    0  502 -0.14806864991E+03 -0.13996689826E+03 -0.66371570485E+03  0.69428639233E+03  0.25500000920E-02 0. -1.
</event>
<event>
 5   0  0.5849604E-05  0.2225827E+04  0.7818609E-02  0.8507755E-01
        1   -1    0    0  501    0  0.00000000000E+00  0.00000000000E+00  0.16999712931E+04  0.16999712931E+04  0.50400001928E-02 0. -1.
       -1   -1    0    0    0  501  0.00000000000E+00  0.00000000000E+00 -0.72858637674E+03  0.72858637676E+03  0.50400001928E-02 0.  1.
    10030    2    1    2    0    0  0.00000000000E+00  0.00000000000E+00  0.97138491634E+03  0.24285576698E+04  0.22258265207E+04 0.  0.
        2    1    3    3  502    0  0.48490599638E+03  0.10004237800E+04  0.43011838469E+03  0.11920500786E+04  0.25500000920E-02 0. -1.
       -2    1    3    3    0  502 -0.48490599638E+03 -0.10004237800E+04  0.54126653165E+03  0.12365075913E+04  0.25500000920E-02 0.  1.
</event>
<event>
 5   0  0.5981239E-05  0.2403627E+04  0.7818609E-02  0.8438147E-01
        1   -1    0    0  501    0  0.00000000000E+00  0.00000000000E+00  0.19911676449E+04  0.19911676449E+04  0.50400001928E-02 0. -1.
       -1   -1    0    0    0  501  0.00000000000E+00  0.00000000000E+00 -0.72538127211E+03  0.72538127213E+03  0.50400001928E-02 0.  1.
    10030    2    1    2    0    0  0.00000000000E+00  0.00000000000E+00  0.12657863728E+04  0.27165489170E+04  0.24036270254E+04 0.  0.
        4    1    3    3  502    0  0.94364901739E+03 -0.33362585242E+03 -0.11897829146E+03  0.10079370636E+04  0.12699999809E+01 0.  1.
       -4    1    3    3    0  502 -0.94364901739E+03  0.33362585242E+03  0.13847646642E+04  0.17086118534E+04  0.12699999809E+01 0. -1.
</event>
<event>
 5   0  0.5981239E-05  0.2187447E+04  0.7818609E-02  0.8523671E-01
       -1   -1    0    0    0  501  0.00000000000E+00  0.00000000000E+00  0.16066747009E+04  0.16066747009E+04  0.50400001928E-02 0.  1.
        1   -1    0    0  501    0  0.00000000000E+00  0.00000000000E+00 -0.74453861621E+03  0.74453861623E+03  0.50400001928E-02 0. -1.
    10030    2    1    2    0    0  0.00000000000E+00  0.00000000000E+00  0.86213608472E+03  0.23512133172E+04  0.21874472415E+04 0.  0.
        4    1    3    3  502    0 -0.61123391244E+02 -0.87404988400E+03  0.11346995898E+04  0.14336122351E+04  0.12699999809E+01 0.  1.
       -4    1    3    3    0  502  0.61123391244E+02  0.87404988400E+03 -0.27256350503E+03  0.91760108209E+03  0.12699999809E+01 0. -1.
</event>
<event>
 5   0  0.5895063E-05  0.2216834E+04  0.7818609E-02  0.8511454E-01
        1   -1    0    0  501    0  0.00000000000E+00  0.00000000000E+00  0.78563032113E+03  0.78563032115E+03  0.50400001928E-02 0.  1.
       -1   -1    0    0    0  501  0.00000000000E+00  0.00000000000E+00 -0.15638242078E+04  0.15638242078E+04  0.50400001928E-02 0. -1.
    10030    2    1    2    0    0  0.00000000000E+00  0.00000000000E+00 -0.77819388662E+03  0.23494545289E+04  0.22168335206E+04 0.  0.
        5    1    3    3  502    0  0.37458115075E+03  0.67888168559E+03 -0.12285517239E+04  0.14527741772E+04  0.46999998093E+01 0. -1.
       -5    1    3    3    0  502 -0.37458115075E+03 -0.67888168559E+03  0.45035783732E+03  0.89668035172E+03  0.46999998093E+01 0.  1.
</event>
<event>
 5   0  0.6263558E-05  0.2114624E+04  0.7818609E-02  0.8554829E-01
       -1   -1    0    0    0  501  0.00000000000E+00  0.00000000000E+00  0.89580852385E+03  0.89580852387E+03  0.50400001928E-02 0. -1.
        1   -1    0    0  501    0  0.00000000000E+00  0.00000000000E+00 -0.12479324229E+04  0.12479324229E+04  0.50400001928E-02 0.  1.
    10030    2    1    2    0    0  0.00000000000E+00  0.00000000000E+00 -0.35212389906E+03  0.21437409468E+04  0.21146238452E+04 0.  0.
        3    1    3    3  502    0 -0.85652318293E+03  0.36022376243E+02  0.45131218781E+03  0.96882004291E+03  0.10100000352E+00 0. -1.
       -3    1    3    3    0  502  0.85652318293E+03 -0.36022376243E+02 -0.80343608687E+03  0.11749209039E+04  0.10100000352E+00 0.  1.
</event>
<event>
 5   0  0.1252124E-04  0.1947501E+04  0.7818609E-02  0.8631567E-01
        2   -1    0    0  501    0  0.00000000000E+00  0.00000000000E+00  0.60817277759E+03  0.60817277760E+03  0.25500000920E-02 0.  1.
       -2   -1    0    0    0  501  0.00000000000E+00  0.00000000000E+00 -0.15590799959E+04  0.15590799959E+04  0.25500000920E-02 0. -1.
    10030    2    1    2    0    0  0.00000000000E+00  0.00000000000E+00 -0.95090721830E+03  0.21672527735E+04  0.19475009747E+04 0.  0.
        3    1    3    3  502    0 -0.54474327902E+03 -0.77515426220E+03 -0.72573237562E+03  0.11934390900E+04  0.10100000352E+00 0. -1.
       -3    1    3    3    0  502  0.54474327902E+03  0.77515426220E+03 -0.22517484269E+03  0.97381368353E+03  0.10100000352E+00 0.  1.
</event>
<event>
 5   0  0.5895063E-05  0.2195380E+04  0.7818609E-02  0.8520353E-01
        1   -1    0    0  501    0  0.00000000000E+00  0.00000000000E+00  0.14991881838E+04  0.14991881838E+04  0.50400001928E-02 0. -1.
       -1   -1    0    0    0  501  0.00000000000E+00  0.00000000000E+00 -0.80371740896E+03  0.80371740898E+03  0.50400001928E-02 0.  1.
    10030    2    1    2    0    0  0.00000000000E+00  0.00000000000E+00  0.69547077486E+03  0.23029055928E+04  0.21953802793E+04 0.  0.
        5    1    3    3  502    0  0.10621829337E+04 -0.19385360323E+03  0.55513016379E+03  0.12140854142E+04  0.46999998093E+01 0.  1.
       -5    1    3    3    0  502 -0.10621829337E+04  0.19385360323E+03  0.14034061107E+03  0.10888201786E+04  0.46999998093E+01 0. -1.
</event>
<event>
 5   0  0.1241430E-04  0.2152059E+04  0.7818609E-02  0.8538652E-01
        2   -1    0    0  501    0  0.00000000000E+00  0.00000000000E+00  0.12299310978E+04  0.12299310978E+04  0.25500000920E-02 0. -1.
       -2   -1    0    0    0  501  0.00000000000E+00  0.00000000000E+00 -0.94138527317E+03  0.94138527317E+03  0.25500000920E-02 0.  1.
    10030    2    1    2    0    0  0.00000000000E+00  0.00000000000E+00  0.28854582458E+03  0.21713163709E+04  0.21520585702E+04 0.  0.
        1    1    3    3  502    0 -0.45608933839E+03  0.97227132564E+03  0.76515371470E+02  0.10766538986E+04  0.50400001928E-02 0.  1.
       -1    1    3    3    0  502  0.45608933839E+03 -0.97227132564E+03  0.21203045311E+03  0.10946624723E+04  0.50400001928E-02 0. -1.
</event>
<event>
 5   0  0.6263558E-05  0.2168739E+04  0.7818609E-02  0.8531554E-01
       -1   -1    0    0    0  501  0.00000000000E+00  0.00000000000E+00  0.88678951972E+03  0.88678951974E+03  0.50400001928E-02 0. -1.
        1   -1    0    0  501    0  0.00000000000E+00  0.00000000000E+00 -0.13259706286E+04  0.13259706286E+04  0.50400001928E-02 0.  1.
    10030    2    1    2    0    0  0.00000000000E+00  0.00000000000E+00 -0.43918110890E+03  0.22127601484E+04  0.21687386721E+04 0.  0.
        3    1    3    3  502    0 -0.79019632278E+03 -0.58977162923E+03  0.24080711312E+03  0.10150019109E+04  0.10100000352E+00 0. -1.
       -3    1    3    3    0  502  0.79019632278E+03  0.58977162923E+03 -0.67998822202E+03  0.11977582375E+04  0.10100000352E+00 0.  1.
</event>
<event>
 5   0  0.5849604E-05  0.2228832E+04  0.7818609E-02  0.8506523E-01
        1   -1    0    0  501    0  0.00000000000E+00  0.00000000000E+00  0.99201498008E+03  0.99201498010E+03  0.50400001928E-02 0. -1.
       -1   -1    0    0    0  501  0.00000000000E+00  0.00000000000E+00 -0.12519190806E+04  0.12519190806E+04  0.50400001928E-02 0.  1.
    10030    2    1    2    0    0  0.00000000000E+00  0.00000000000E+00 -0.25990410051E+03  0.22439340607E+04  0.22288315161E+04 0.  0.
        2    1    3    3  502    0  0.37496438319E+03  0.76417775859E+03  0.59419676596E+03  0.10380923524E+04  0.25500000920E-02 0. -1.
       -2    1    3    3    0  502 -0.37496438319E+03 -0.76417775859E+03 -0.85410086648E+03  0.12058417083E+04  0.25500000920E-02 0.  1.
</event>
<event>
 5   0  0.1241430E-04  0.2209766E+04  0.7818609E-02  0.8514374E-01
        2   -1    0    0  501    0  0.00000000000E+00  0.00000000000E+00  0.15616009743E+04  0.15616009743E+04  0.25500000920E-02 0.  1.
       -2   -1    0    0    0  501  0.00000000000E+00  0.00000000000E+00 -0.78174067025E+03  0.78174067025E+03  0.25500000920E-02 0. -1.
    10030    2    1    2    0    0  0.00000000000E+00  0.00000000000E+00  0.77986030405E+03  0.23433416445E+04  0.22097664965E+04 0.  0.
        1    1    3    3  502    0  0.60856383700E+03 -0.24287123160E+03 -0.55346936278E+03  0.85770899167E+03  0.50400001928E-02 0. -1.
       -1    1    3    3    0  502 -0.60856383700E+03  0.24287123160E+03  0.13333296668E+04  0.14856326529E+04  0.50400001928E-02 0.  1.
</event>
<event>
 5   0  0.1252124E-04  0.2186545E+04  0.7818609E-02  0.8524049E-01
       -2   -1    0    0    0  501  0.00000000000E+00  0.00000000000E+00  0.35776906423E+04  0.35776906423E+04  0.25500000920E-02 0.  1.
        2   -1    0    0  501    0  0.00000000000E+00  0.00000000000E+00 -0.33408268714E+03  0.33408268715E+03  0.25500000920E-02 0. -1.
    10030    2    1    2    0    0  0.00000000000E+00  0.00000000000E+00  0.32436079552E+04  0.39117733294E+04  0.21865447661E+04 0.  0.
        3    1    3    3  502    0  0.89907087522E+03 -0.34131878934E+03  0.25521247881E+04  0.27273004783E+04  0.10100000352E+00 0.  1.
       -3    1    3    3    0  502 -0.89907087522E+03  0.34131878934E+03  0.69148316707E+03  0.11844728512E+04  0.10100000352E+00 0. -1.
</event>
<event>
 5   0  0.1241430E-04  0.2343591E+04  0.7818609E-02  0.8460930E-01
        2   -1    0    0  501    0  0.00000000000E+00  0.00000000000E+00  0.20721871592E+04  0.20721871592E+04  0.25500000920E-02 0.  1.
       -2   -1    0    0    0  501  0.00000000000E+00  0.00000000000E+00 -0.66263519070E+03  0.66263519070E+03  0.25500000920E-02 0. -1.
    10030    2    1    2    0    0  0.00000000000E+00  0.00000000000E+00  0.14095519685E+04  0.27348223499E+04  0.23435905217E+04 0.  0.
        1    1    3    3  502    0  0.71497637853E+03 -0.56885117073E+03  0.15609620436E+04  0.18086971493E+04  0.50400001928E-02 0.  1.
       -1    1    3    3    0  502 -0.71497637853E+03  0.56885117073E+03 -0.15141007511E+03  0.92612520059E+03  0.50400001928E-02 0. -1.
</event>
<event>
 5   0  0.1252124E-04  0.2173885E+04  0.7818609E-02  0.8529377E-01
        2   -1    0    0  501    0  0.00000000000E+00  0.00000000000E+00  0.18237162666E+04  0.18237162666E+04  0.25500000920E-02 0.  1.
       -2   -1    0    0    0  501  0.00000000000E+00  0.00000000000E+00 -0.64782241260E+03  0.64782241261E+03  0.25500000920E-02 0. -1.
    10030    2    1    2    0    0  0.00000000000E+00  0.00000000000E+00  0.11758938540E+04  0.24715386792E+04  0.21738852516E+04 0.  0.
        3    1    3    3  502    0 -0.62892808489E+02  0.51292636661E+03 -0.49922389375E+03  0.71852172494E+03  0.10100000352E+00 0. -1.
       -3    1    3    3    0  502  0.62892808489E+02 -0.51292636661E+03  0.16751177478E+04  0.17530169543E+04  0.10100000352E+00 0.  1.
</event>
<event>
 5   0  0.1226021E-04  0.2142731E+04  0.7818609E-02  0.8542650E-01
       -2   -1    0    0    0  501  0.00000000000E+00  0.00000000000E+00  0.10152740747E+04  0.10152740747E+04  0.25500000920E-02 0. -1.
        2   -1    0    0  501    0  0.00000000000E+00  0.00000000000E+00 -0.11305557933E+04  0.11305557933E+04  0.25500000920E-02 0.  1.
    10030    2    1    2    0    0  0.00000000000E+00  0.00000000000E+00 -0.11528171862E+03  0.21458298680E+04  0.21427309556E+04 0.  0.
        2    1    3    3  502    0  0.64486860337E+03 -0.25010150191E+03  0.76172193786E+03  0.10288958098E+04  0.25500000920E-02 0. -1.
       -2    1    3    3    0  502 -0.64486860337E+03  0.25010150191E+03 -0.87700365648E+03  0.11169340582E+04  0.25500000920E-02 0.  1.
</event>
<event>
 5   0  0.1241430E-04  0.2313670E+04  0.7818609E-02  0.8472551E-01
       -2   -1    0    0    0  501  0.00000000000E+00  0.00000000000E+00  0.91028575431E+03  0.91028575432E+03  0.25500000920E-02 0. -1.
        2   -1    0    0  501    0  0.00000000000E+00  0.00000000000E+00 -0.14701621518E+04  0.14701621518E+04  0.25500000920E-02 0.  1.
    10030    2    1    2    0    0  0.00000000000E+00  0.00000000000E+00 -0.55987639753E+03  0.23804479062E+04  0.23136703857E+04 0.  0.
        1    1    3    3  502    0  0.51726955452E+03 -0.44660165321E+03 -0.12402843510E+04  0.14160953711E+04  0.50400001928E-02 0. -1.
       -1    1    3    3    0  502 -0.51726955452E+03  0.44660165321E+03  0.68040795348E+03  0.96435253506E+03  0.50400001928E-02 0.  1.
</event>
<event>
 5   0  0.5895063E-05  0.1894744E+04  0.7818609E-02  0.8657477E-01
        1   -1    0    0  501    0  0.00000000000E+00  0.00000000000E+00  0.24023233844E+04  0.24023233844E+04  0.50400001928E-02 0.  1.
       -1   -1    0    0    0  501  0.00000000000E+00  0.00000000000E+00 -0.37360223678E+03  0.37360223682E+03  0.50400001928E-02 0. -1.
    10030    2    1    2    0    0  0.00000000000E+00  0.00000000000E+00  0.20287211476E+04  0.27759256212E+04  0.18947436660E+04 0.  0.
        5    1    3    3  502    0 -0.43071935095E+03  0.76274309941E+03  0.48572706389E+03  0.10016232154E+04  0.46999998093E+01 0. -1.
       -5    1    3    3    0  502  0.43071935095E+03 -0.76274309941E+03  0.15429940837E+04  0.17743024058E+04  0.46999998093E+01 0.  1.
</event>
<event>
 5   0  0.5895063E-05  0.2217748E+04  0.7818609E-02  0.8511077E-01
        1   -1    0    0  501    0  0.00000000000E+00  0.00000000000E+00  0.84949679109E+03  0.84949679111E+03  0.50400001928E-02 0. -1.
       -1   -1    0    0    0  501  0.00000000000E+00  0.00000000000E+00 -0.14474475348E+04  0.14474475349E+04  0.50400001928E-02 0.  1.
    10030    2    1    2    0    0  0.00000000000E+00  0.00000000000E+00 -0.59795074375E+03  0.22969443260E+04  0.22177484403E+04 0.  0.
        5    1    3    3  502    0  0.10902167962E+04  0.20131252240E+03 -0.27627106390E+03  0.11425616767E+04  0.46999998093E+01 0.  1.
       -5    1    3    3    0  502 -0.10902167962E+04 -0.20131252240E+03 -0.32167967985E+03  0.11543826492E+04  0.46999998093E+01 0. -1.
</event>
<event>
 5   0  0.1226021E-04  0.1379639E+04  0.7818609E-02  0.8968690E-01
       -2   -1    0    0    0  501  0.00000000000E+00  0.00000000000E+00  0.61935806061E+03  0.61935806061E+03  0.25500000920E-02 0.  1.
        2   -1    0    0  501    0  0.00000000000E+00  0.00000000000E+00 -0.76829648905E+03  0.76829648905E+03  0.25500000920E-02 0. -1.
    10030    2    1    2    0    0  0.00000000000E+00  0.00000000000E+00 -0.14893842844E+03  0.13876545497E+04  0.13796385374E+04 0.  0.
        2    1    3    3  502    0  0.45573130274E+01  0.23020621414E+03 -0.72850496349E+03  0.76402562259E+03  0.25500000920E-02 0. -1.
       -2    1    3    3    0  502 -0.45573130274E+01 -0.23020621414E+03  0.57956653505E+03  0.62362892708E+03  0.25500000920E-02 0.  1.
</event>
<event>
 5   0  0.6263558E-05  0.1379738E+04  0.7818609E-02  0.8968617E-01
       -1   -1    0    0    0  501  0.00000000000E+00  0.00000000000E+00  0.20274533681E+03  0.20274533687E+03  0.50400001928E-02 0. -1.
        1   -1    0    0  501    0  0.00000000000E+00  0.00000000000E+00 -0.23473759373E+04  0.23473759373E+04  0.50400001928E-02 0.  1.
    10030    2    1    2    0    0  0.00000000000E+00  0.00000000000E+00 -0.21446306005E+04  0.25501212742E+04  0.13797384174E+04 0.  0.
        3    1    3    3  502    0 -0.28868151673E+03 -0.61569689525E+03 -0.85756774560E+03  0.10944597450E+04  0.10100000352E+00 0. -1.
       -3    1    3    3    0  502  0.28868151673E+03  0.61569689525E+03 -0.12870628549E+04  0.14556615292E+04  0.10100000352E+00 0.  1.
</event>
<event>
 5   0  0.5895063E-05  0.2206234E+04  0.7818609E-02  0.8515838E-01
        1   -1    0    0  501    0  0.00000000000E+00  0.00000000000E+00  0.10593256576E+04  0.10593256576E+04  0.50400001928E-02 0.  1.
       -1   -1    0    0    0  501  0.00000000000E+00  0.00000000000E+00 -0.11487186004E+04  0.11487186004E+04  0.50400001928E-02 0. -1.
    10030    2    1    2    0    0  0.00000000000E+00  0.00000000000E+00 -0.89392942786E+02  0.22080442580E+04  0.22062339738E+04 0.  0.
        5    1    3    3  502    0  0.18684105713E+03  0.10595363578E+04 -0.28844943507E+03  0.11138904977E+04  0.46999998093E+01 0.  1.
       -5    1    3    3    0  502 -0.18684105713E+03 -0.10595363578E+04  0.19905649228E+03  0.10941537604E+04  0.46999998093E+01 0. -1.
</event>
<event>
 5   0  0.1404159E-04  0.1598429E+04  0.7818609E-02  0.8821514E-01
       -2   -1    0    0    0  501  0.00000000000E+00  0.00000000000E+00  0.42040296254E+03  0.42040296255E+03  0.25500000920E-02 0.  1.
        2   -1    0    0  501    0  0.00000000000E+00  0.00000000000E+00 -0.15193612760E+04  0.15193612760E+04  0.25500000920E-02 0. -1.
    10030    2    1    2    0    0  0.00000000000E+00  0.00000000000E+00 -0.10989583134E+04  0.19397642385E+04  0.15984292059E+04 0.  0.
        5    1    3    3  502    0  0.24039247651E+03  0.41169675516E+03 -0.13278890357E+04  0.14108841703E+04  0.46999998093E+01 0. -1.
       -5    1    3    3    0  502 -0.24039247651E+03 -0.41169675516E+03  0.22893072224E+03  0.52888006821E+03  0.46999998093E+01 0.  1.
</event>
<event>
 5   0  0.1252124E-04  0.2113147E+04  0.7818609E-02  0.8555474E-01
        2   -1    0    0  501    0  0.00000000000E+00  0.00000000000E+00  0.10179406307E+04  0.10179406307E+04  0.25500000920E-02 0.  1.
       -2   -1    0    0    0  501  0.00000000000E+00  0.00000000000E+00 -0.10966722035E+04  0.10966722035E+04  0.25500000920E-02 0. -1.
    10030    2    1    2    0    0  0.00000000000E+00  0.00000000000E+00 -0.78731572856E+02  0.21146128342E+04  0.21131466532E+04 0.  0.
        3    1    3    3  502    0 -0.83112500861E+02 -0.66793785508E+03  0.77563070479E+03  0.10269623491E+04  0.10100000352E+00 0.  1.
       -3    1    3    3    0  502  0.83112500861E+02  0.66793785508E+03 -0.85436227764E+03  0.10876504851E+04  0.10100000352E+00 0. -1.
</event>
<event>
 5   0  0.5895063E-05  0.1460529E+04  0.7818609E-02  0.8911133E-01
        1   -1    0    0  501    0  0.00000000000E+00  0.00000000000E+00  0.16002565092E+04  0.16002565092E+04  0.50400001928E-02 0.  1.
       -1   -1    0    0    0  501  0.00000000000E+00  0.00000000000E+00 -0.33325062341E+03  0.33325062345E+03  0.50400001928E-02 0. -1.
    10030    2    1    2    0    0  0.00000000000E+00  0.00000000000E+00  0.12670058858E+04  0.19335071327E+04  0.14605293278E+04 0.  0.
        5    1    3    3  502    0  0.24206541000E+03 -0.83319627285E+02  0.15388842329E+04  0.15600399338E+04  0.46999998093E+01 0.  1.
       -5    1    3    3    0  502 -0.24206541000E+03  0.83319627285E+02 -0.27187834706E+03  0.37346719884E+03  0.46999998093E+01 0. -1.
</event>
<event>
 5   0  0.1226021E-04  0.2200068E+04  0.7818609E-02  0.8518400E-01
       -2   -1    0    0    0  501  0.00000000000E+00  0.00000000000E+00  0.15592306884E+04  0.15592306884E+04  0.25500000920E-02 0.  1.
        2   -1    0    0  501    0  0.00000000000E+00  0.00000000000E+00 -0.77607155445E+03  0.77607155445E+03  0.25500000920E-02 0. -1.
    10030    2    1    2    0    0  0.00000000000E+00  0.00000000000E+00  0.78315913393E+03  0.23353022428E+04  0.22000678027E+04 0.  0.
        2    1    3    3  502    0 -0.17115994669E+03 -0.94523148685E+03 -0.17738753815E+03  0.97684421981E+03  0.25500000920E-02 0. -1.
       -2    1    3    3    0  502  0.17115994669E+03  0.94523148685E+03  0.96054667208E+03  0.13584580230E+04  0.25500000920E-02 0.  1.
</event>
<event>
 5   0  0.5861816E-05  0.2165480E+04  0.7818609E-02  0.8532935E-01
        1   -1    0    0  501    0  0.00000000000E+00  0.00000000000E+00  0.14176451403E+04  0.14176451404E+04  0.50400001928E-02 0.  1.
       -1   -1    0    0    0  501  0.00000000000E+00  0.00000000000E+00 -0.82695267004E+03  0.82695267005E+03  0.50400001928E-02 0. -1.
    10030    2    1    2    0    0  0.00000000000E+00  0.00000000000E+00  0.59069247031E+03  0.22445978104E+04  0.21654795626E+04 0.  0.
        1    1    3    3  502    0  0.72522399176E+03 -0.16757231655E+02 -0.53782173427E+03  0.90304089659E+03  0.50400001928E-02 0. -1.
       -1    1    3    3    0  502 -0.72522399176E+03  0.16757231655E+02  0.11285142046E+04  0.13415569138E+04  0.50400001928E-02 0.  1.
</event>
<event>
 5   0  0.4586375E-05  0.2241118E+04  0.7818609E-02  0.8501506E-01
       -3   -1    0    0    0  501  0.00000000000E+00  0.00000000000E+00  0.43926235444E+03  0.43926236605E+03  0.10100000352E+00 0.  1.
        3   -1    0    0  501    0  0.00000000000E+00  0.00000000000E+00 -0.28585475711E+04  0.28585475729E+04  0.10100000352E+00 0. -1.
    10030    2    1    2    0    0  0.00000000000E+00  0.00000000000E+00 -0.24192852167E+04  0.32978099389E+04  0.22411178982E+04 0.  0.
        5    1    3    3  502    0 -0.25560411906E+03 -0.89621314576E+03 -0.29411418662E+03  0.97727003080E+03  0.46999998093E+01 0.  1.
       -5    1    3    3    0  502  0.25560411906E+03  0.89621314576E+03 -0.21251710300E+04  0.23205399081E+04  0.46999998093E+01 0. -1.
</event>
<event>
 5   0  0.1241430E-04  0.2200042E+04  0.7818609E-02  0.8518411E-01
        2   -1    0    0  501    0  0.00000000000E+00  0.00000000000E+00  0.20309035880E+04  0.20309035880E+04  0.25500000920E-02 0. -1.
       -2   -1    0    0    0  501  0.00000000000E+00  0.00000000000E+00 -0.59581642315E+03  0.59581642316E+03  0.25500000920E-02 0.  1.
    10030    2    1    2    0    0  0.00000000000E+00  0.00000000000E+00  0.14350871649E+04  0.26267200112E+04  0.22000415556E+04 0.  0.
        1    1    3    3  502    0  0.69648332448E+03  0.84215948010E+03  0.56782841435E+03  0.12315643383E+04  0.50400001928E-02 0.  1.
       -1    1    3    3    0  502 -0.69648332448E+03 -0.84215948010E+03  0.86725875052E+03  0.13951556729E+04  0.50400001928E-02 0. -1.
</event>
<event>
 5   0  0.5849604E-05  0.2095856E+04  0.7818609E-02  0.8563071E-01
        1   -1    0    0  501    0  0.00000000000E+00  0.00000000000E+00  0.72680890321E+03  0.72680890323E+03  0.50400001928E-02 0.  1.
       -1   -1    0    0    0  501  0.00000000000E+00  0.00000000000E+00 -0.15109244809E+04  0.15109244809E+04  0.50400001928E-02 0. -1.
    10030    2    1    2    0    0  0.00000000000E+00  0.00000000000E+00 -0.78411557767E+03  0.22377333841E+04  0.20958562592E+04 0.  0.
        2    1    3    3  502    0 -0.73514867724E+03  0.43448596180E+02  0.40394523214E+03  0.83994232464E+03  0.25500000920E-02 0.  1.
       -2    1    3    3    0  502  0.73514867724E+03 -0.43448596180E+02 -0.11880608098E+04  0.13977910595E+04  0.25500000920E-02 0. -1.
</event>
<event>
 5   0  0.6263558E-05  0.2204065E+04  0.7818609E-02  0.8516738E-01
       -1   -1    0    0    0  501  0.00000000000E+00  0.00000000000E+00  0.14393752805E+04  0.14393752805E+04  0.50400001928E-02 0.  1.
        1   -1    0    0  501    0  0.00000000000E+00  0.00000000000E+00 -0.84375215433E+03  0.84375215434E+03  0.50400001928E-02 0. -1.
    10030    2    1    2    0    0  0.00000000000E+00  0.00000000000E+00  0.59562312613E+03  0.22831274348E+04  0.22040653292E+04 0.  0.
        3    1    3    3  502    0 -0.44884076635E+03 -0.94335599372E+02 -0.74019052456E+03  0.87076935046E+03  0.10100000352E+00 0. -1.
       -3    1    3    3    0  502  0.44884076635E+03  0.94335599372E+02  0.13358136507E+04  0.14123580843E+04  0.10100000352E+00 0.  1.
</event>
<event>
 5   0  0.5895063E-05  0.2093280E+04  0.7818609E-02  0.8564209E-01
       -1   -1    0    0    0  501  0.00000000000E+00  0.00000000000E+00  0.72537168012E+03  0.72537168013E+03  0.50400001928E-02 0.  1.
        1   -1    0    0  501    0  0.00000000000E+00  0.00000000000E+00 -0.15101982218E+04  0.15101982218E+04  0.50400001928E-02 0. -1.
    10030    2    1    2    0    0  0.00000000000E+00  0.00000000000E+00 -0.78482654169E+03  0.22355699019E+04  0.20932797438E+04 0.  0.
        5    1    3    3  502    0  0.15049004752E+03  0.10199495039E+04 -0.19991489927E+03  0.10502058379E+04  0.46999998093E+01 0. -1.
       -5    1    3    3    0  502 -0.15049004752E+03 -0.10199495039E+04 -0.58491164242E+03  0.11853640641E+04  0.46999998093E+01 0.  1.
</event>
<event>
 5   0  0.5849604E-05  0.1365028E+04  0.7818609E-02  0.8979530E-01
       -1   -1    0    0    0  501  0.00000000000E+00  0.00000000000E+00  0.48772825492E+03  0.48772825495E+03  0.50400001928E-02 0. -1.
        1   -1    0    0  501    0  0.00000000000E+00  0.00000000000E+00 -0.95509154967E+03  0.95509154969E+03  0.50400001928E-02 0.  1.
    10030    2    1    2    0    0  0.00000000000E+00  0.00000000000E+00 -0.46736329475E+03  0.14428198046E+04  0.13650276698E+04 0.  0.
        2    1    3    3  502    0 -0.15453430324E+03 -0.77690934522E+02  0.46417827924E+03  0.49535664638E+03  0.25500000920E-02 0. -1.
       -2    1    3    3    0  502  0.15453430324E+03  0.77690934522E+02 -0.93154157399E+03  0.94746315826E+03  0.25500000920E-02 0.  1.
</event>
<event>
 5   0  0.1311472E-04  0.2220026E+04  0.7818609E-02  0.8510139E-01
        2   -1    0    0  501    0  0.00000000000E+00  0.00000000000E+00  0.14499913300E+04  0.14499913300E+04  0.25500000920E-02 0. -1.
       -2   -1    0    0    0  501  0.00000000000E+00  0.00000000000E+00 -0.84974916366E+03  0.84974916367E+03  0.25500000920E-02 0.  1.
    10030    2    1    2    0    0  0.00000000000E+00  0.00000000000E+00  0.60024216638E+03  0.22997404937E+04  0.22200260539E+04 0.  0.
        4    1    3    3  502    0  0.33450617436E+03  0.10581516076E+04  0.32437329722E+03  0.11562001791E+04  0.12699999809E+01 0. -1.
       -4    1    3    3    0  502 -0.33450617436E+03 -0.10581516076E+04  0.27586886917E+03  0.11435403146E+04  0.12699999809E+01 0.  1.
</event>
<event>
 5   0  0.5981239E-05  0.2206323E+04  0.7818609E-02  0.8515801E-01
       -1   -1    0    0    0  501  0.00000000000E+00  0.00000000000E+00  0.82921487789E+03  0.82921487791E+03  0.50400001928E-02 0.  1.
        1   -1    0    0  501    0  0.00000000000E+00  0.00000000000E+00 -0.14676108560E+04  0.14676108561E+04  0.50400001928E-02 0. -1.
    10030    2    1    2    0    0  0.00000000000E+00  0.00000000000E+00 -0.63839597815E+03  0.22968257340E+04  0.22063225121E+04 0.  0.
        4    1    3    3  502    0 -0.13456994505E+03 -0.10901416252E+03 -0.14533699798E+04  0.14636526463E+04  0.12699999809E+01 0. -1.
       -4    1    3    3    0  502  0.13456994505E+03  0.10901416252E+03  0.81497400168E+03  0.83317308769E+03  0.12699999809E+01 0.  1.
</event>
<event>
 5   0  0.5895063E-05  0.2204492E+04  0.7818609E-02  0.8516561E-01
       -1   -1    0    0    0  501  0.00000000000E+00  0.00000000000E+00  0.98591483787E+03  0.98591483788E+03  0.50400001928E-02 0. -1.
        1   -1    0    0  501    0  0.00000000000E+00  0.00000000000E+00 -0.12323039359E+04  0.12323039359E+04  0.50400001928E-02 0.  1.
    10030    2    1    2    0    0  0.00000000000E+00  0.00000000000E+00 -0.24638909799E+03  0.22182187738E+04  0.22044924451E+04 0.  0.
        5    1    3    3  502    0 -0.10127303945E+04 -0.43233821124E+03 -0.74049222993E+02  0.11036505599E+04  0.46999998093E+01 0. -1.
       -5    1    3    3    0  502  0.10127303945E+04  0.43233821124E+03 -0.17233987500E+03  0.11145682139E+04  0.46999998093E+01 0.  1.
</event>
<event>
 5   0  0.4586375E-05  0.2158346E+04  0.7818609E-02  0.8535968E-01
       -4   -1    0    0    0  501  0.00000000000E+00  0.00000000000E+00  0.13110413155E+04  0.13110419306E+04  0.12699999809E+01 0. -1.
        4   -1    0    0  501    0  0.00000000000E+00  0.00000000000E+00 -0.88831141167E+03  0.88831231952E+03  0.12699999809E+01 0.  1.
    10030    2    1    2    0    0  0.00000000000E+00  0.00000000000E+00  0.42272990384E+03  0.21993542502E+04  0.21583462526E+04 0.  0.
        4    1    3    3  502    0  0.89932139100E+03  0.24169662855E+03 -0.34435605871E+03  0.99286400510E+03  0.12699999809E+01 0.  1.
       -4    1    3    3    0  502 -0.89932139100E+03 -0.24169662855E+03  0.76708596255E+03  0.12064902450E+04  0.12699999809E+01 0. -1.
</event>
<event>
 5   0  0.1241430E-04  0.2188765E+04  0.7818609E-02  0.8523119E-01
        2   -1    0    0  501    0  0.00000000000E+00  0.00000000000E+00  0.90661723491E+03  0.90661723492E+03  0.25500000920E-02 0.  1.
       -2   -1    0    0    0  501  0.00000000000E+00  0.00000000000E+00 -0.13210353010E+04  0.13210353010E+04  0.25500000920E-02 0. -1.
    10030    2    1    2    0    0  0.00000000000E+00  0.00000000000E+00 -0.41441806612E+03  0.22276525360E+04  0.21887652883E+04 0.  0.
        1    1    3    3  502    0 -0.27246139156E+03 -0.81785723974E+03  0.47897086326E+03  0.98617379927E+03  0.50400001928E-02 0.  1.
       -1    1    3    3    0  502  0.27246139156E+03  0.81785723974E+03 -0.89338892938E+03  0.12414787367E+04  0.50400001928E-02 0. -1.
</event>
<event>
 5   0  0.1252124E-04  0.2237794E+04  0.7818609E-02  0.8502860E-01
        2   -1    0    0  501    0  0.00000000000E+00  0.00000000000E+00  0.19119804226E+04  0.19119804226E+04  0.25500000920E-02 0. -1.
       -2   -1    0    0    0  501  0.00000000000E+00  0.00000000000E+00 -0.65478220547E+03  0.65478220547E+03  0.25500000920E-02 0.  1.
    10030    2    1    2    0    0  0.00000000000E+00  0.00000000000E+00  0.12571982171E+04  0.25667626281E+04  0.22377942335E+04 0.  0.
        3    1    3    3  502    0 -0.54896408870E+03  0.69679254364E+03 -0.15359594927E+03  0.90026282018E+03  0.10100000352E+00 0.  1.
       -3    1    3    3    0  502  0.54896408870E+03 -0.69679254364E+03  0.14107941664E+04  0.16664998079E+04  0.10100000352E+00 0. -1.
</event>
<event>
 5   0  0.1252124E-04  0.2225041E+04  0.7818609E-02  0.8508077E-01
       -2   -1    0    0    0  501  0.00000000000E+00  0.00000000000E+00  0.87179637121E+03  0.87179637121E+03  0.25500000920E-02 0. -1.
        2   -1    0    0  501    0  0.00000000000E+00  0.00000000000E+00 -0.14197141877E+04  0.14197141877E+04  0.25500000920E-02 0.  1.
    10030    2    1    2    0    0  0.00000000000E+00  0.00000000000E+00 -0.54791781649E+03  0.22915105589E+04  0.22250408329E+04 0.  0.
        3    1    3    3  502    0  0.62251598295E+03 -0.49854071781E+03 -0.10727801103E+04  0.13367595788E+04  0.10100000352E+00 0.  1.
       -3    1    3    3    0  502 -0.62251598295E+03  0.49854071781E+03  0.52486229379E+03  0.95475098010E+03  0.10100000352E+00 0. -1.
</event>
<event>
 5   0  0.5981239E-05  0.2219675E+04  0.7818609E-02  0.8510283E-01
        1   -1    0    0  501    0  0.00000000000E+00  0.00000000000E+00  0.20050880314E+04  0.20050880314E+04  0.50400001928E-02 0.  1.
       -1   -1    0    0    0  501  0.00000000000E+00  0.00000000000E+00 -0.61430669874E+03  0.61430669876E+03  0.50400001928E-02 0. -1.
    10030    2    1    2    0    0  0.00000000000E+00  0.00000000000E+00  0.13907813326E+04  0.26193947302E+04  0.22196747593E+04 0.  0.
        4    1    3    3  502    0 -0.21436516896E+03  0.91956027080E+03  0.70952877862E+01  0.94424333373E+03  0.12699999809E+01 0. -1.
       -4    1    3    3    0  502  0.21436516896E+03 -0.91956027080E+03  0.13836860449E+04  0.16751513964E+04  0.12699999809E+01 0.  1.
</event>
<event>
 5   0  0.1241430E-04  0.2185377E+04  0.7818609E-02  0.8524539E-01
        2   -1    0    0  501    0  0.00000000000E+00  0.00000000000E+00  0.12339395824E+04  0.12339395824E+04  0.25500000920E-02 0. -1.
       -2   -1    0    0    0  501  0.00000000000E+00  0.00000000000E+00 -0.96760658973E+03  0.96760658973E+03  0.25500000920E-02 0.  1.
    10030    2    1    2    0    0  0.00000000000E+00  0.00000000000E+00  0.26633299266E+03  0.22015461721E+04  0.21853769206E+04 0.  0.
        1    1    3    3  502    0  0.87075178399E+03 -0.44323851667E+03 -0.35963487227E+03  0.10411562291E+04  0.50400001928E-02 0.  1.
       -1    1    3    3    0  502 -0.87075178399E+03  0.44323851667E+03  0.62596786493E+03  0.11603899430E+04  0.50400001928E-02 0. -1.
</event>
<event>
 5   0  0.5849604E-05  0.2194226E+04  0.7818609E-02  0.8520835E-01
       -1   -1    0    0    0  501  0.00000000000E+00  0.00000000000E+00  0.10104923213E+04  0.10104923213E+04  0.50400001928E-02 0. -1.
        1   -1    0    0  501    0  0.00000000000E+00  0.00000000000E+00 -0.11911591633E+04  0.11911591634E+04  0.50400001928E-02 0.  1.
    10030    2    1    2    0    0  0.00000000000E+00  0.00000000000E+00 -0.18066684204E+03  0.22016514847E+04  0.21942262308E+04 0.  0.
        2    1    3    3  502    0 -0.10171281837E+04  0.75817010207E+02  0.31521153544E+03  0.10675468482E+04  0.25500000920E-02 0. -1.
       -2    1    3    3    0  502  0.10171281837E+04 -0.75817010207E+02 -0.49587837748E+03  0.11341046364E+04  0.25500000920E-02 0.  1.
</event>
<event>
 5   0  0.5861816E-05  0.2433720E+04  0.7818609E-02  0.8426986E-01
       -1   -1    0    0    0  501  0.00000000000E+00  0.00000000000E+00  0.86739399114E+03  0.86739399115E+03  0.50400001928E-02 0.  1.
        1   -1    0    0  501    0  0.00000000000E+00  0.00000000000E+00 -0.17071226698E+04  0.17071226698E+04  0.50400001928E-02 0. -1.
    10030    2    1    2    0    0  0.00000000000E+00  0.00000000000E+00 -0.83972867865E+03  0.25745166609E+04  0.24337197422E+04 0.  0.
        1    1    3    3  502    0 -0.57363948946E+03  0.10731226336E+04 -0.43009302693E+03  0.12905946159E+04  0.50400001928E-02 0.  1.
       -1    1    3    3    0  502  0.57363948946E+03 -0.10731226336E+04 -0.40963565172E+03  0.12839220451E+04  0.50400001928E-02 0. -1.
</event>
<event>
 5   0  0.5895063E-05  0.2186624E+04  0.7818609E-02  0.8524016E-01
        1   -1    0    0  501    0  0.00000000000E+00  0.00000000000E+00  0.12820237469E+04  0.12820237469E+04  0.50400001928E-02 0.  1.
       -1   -1    0    0    0  501  0.00000000000E+00  0.00000000000E+00 -0.93237792190E+03  0.93237792191E+03  0.50400001928E-02 0. -1.
    10030    2    1    2    0    0  0.00000000000E+00  0.00000000000E+00  0.34964582504E+03  0.22144016689E+04  0.21866235497E+04 0.  0.
        5    1    3    3  502    0  0.14175224575E+03  0.67592431582E+03 -0.68349417172E+03  0.97167574461E+03  0.46999998093E+01 0. -1.
       -5    1    3    3    0  502 -0.14175224575E+03 -0.67592431582E+03  0.10331399968E+04  0.12427259242E+04  0.46999998093E+01 0.  1.
</event>
<event>
 5   0  0.1226021E-04  0.2168368E+04  0.7818609E-02  0.8531710E-01
        2   -1    0    0  501    0  0.00000000000E+00  0.00000000000E+00  0.19995727807E+04  0.19995727807E+04  0.25500000920E-02 0. -1.
       -2   -1    0    0    0  501  0.00000000000E+00  0.00000000000E+00 -0.58785324214E+03  0.58785324215E+03  0.25500000920E-02 0.  1.
    10030    2    1    2    0    0  0.00000000000E+00  0.00000000000E+00  0.14117195385E+04  0.25874260228E+04  0.21683683654E+04 0.  0.
        2    1    3    3  502    0 -0.97768599627E+03 -0.11877247573E+03  0.12467611724E+04  0.15888329771E+04  0.25500000920E-02 0. -1.
       -2    1    3    3    0  502  0.97768599627E+03  0.11877247573E+03  0.16495836615E+03  0.99859304567E+03  0.25500000920E-02 0.  1.
</event>
<event>
 5   0  0.1241430E-04  0.2136587E+04  0.7818609E-02  0.8545296E-01
       -2   -1    0    0    0  501  0.00000000000E+00  0.00000000000E+00  0.11054666818E+04  0.11054666818E+04  0.25500000920E-02 0. -1.
        2   -1    0    0  501    0  0.00000000000E+00  0.00000000000E+00 -0.10323700831E+04  0.10323700831E+04  0.25500000920E-02 0.  1.
    10030    2    1    2    0    0  0.00000000000E+00  0.00000000000E+00  0.73096598738E+02  0.21378367649E+04  0.21365867454E+04 0.  0.
        1    1    3    3  502    0 -0.46560859898E+02  0.89742694689E+02 -0.10275724078E+04  0.10325341245E+04  0.50400001928E-02 0.  1.
       -1    1    3    3    0  502  0.46560859898E+02 -0.89742694689E+02  0.11006690065E+04  0.11053026404E+04  0.50400001928E-02 0. -1.
</event>
<event>
 5   0  0.1252124E-04  0.2233689E+04  0.7818609E-02  0.8504535E-01
       -2   -1    0    0    0  501  0.00000000000E+00  0.00000000000E+00  0.10204994451E+04  0.10204994452E+04  0.25500000920E-02 0.  1.
        2   -1    0    0  501    0  0.00000000000E+00  0.00000000000E+00 -0.12222857141E+04  0.12222857141E+04  0.25500000920E-02 0. -1.
    10030    2    1    2    0    0  0.00000000000E+00  0.00000000000E+00 -0.20178626892E+03  0.22427851592E+04  0.22336892291E+04 0.  0.
        3    1    3    3  502    0  0.10700617599E+04  0.29239581368E+03 -0.23109152710E+03  0.11331066967E+04  0.10100000352E+00 0. -1.
       -3    1    3    3    0  502 -0.10700617599E+04 -0.29239581368E+03  0.29305258176E+02  0.11096784626E+04  0.10100000352E+00 0.  1.
</event>
<event>
 5   0  0.4586375E-05  0.2241065E+04  0.7818609E-02  0.8501528E-01
        3   -1    0    0  501    0  0.00000000000E+00  0.00000000000E+00  0.55300140348E+03  0.55300141270E+03  0.10100000352E+00 0. -1.
       -3   -1    0    0    0  501  0.00000000000E+00  0.00000000000E+00 -0.22705064506E+04  0.22705064528E+04  0.10100000352E+00 0.  1.
    10030    2    1    2    0    0  0.00000000000E+00  0.00000000000E+00 -0.17175050471E+04  0.28235078655E+04  0.22410651664E+04 0.  0.
        1    1    3    3  502    0  0.85242686706E+03 -0.68986328172E+03 -0.11489400091E+04  0.15882714049E+04  0.50400001928E-02 0.  1.
       -1    1    3    3    0  502 -0.85242686706E+03  0.68986328172E+03 -0.56856503799E+03  0.12352364606E+04  0.50400001928E-02 0. -1.
</event>
<event>
 5   0  0.4586375E-05  0.2202422E+04  0.7818609E-02  0.8517421E-01
       -4   -1    0    0    0  501  0.00000000000E+00  0.00000000000E+00  0.85199445459E+03  0.85199540114E+03  0.12699999809E+01 0.  1.
        4   -1    0    0  501    0  0.00000000000E+00  0.00000000000E+00 -0.14233239384E+04  0.14233245050E+04  0.12699999809E+01 0. -1.
    10030    2    1    2    0    0  0.00000000000E+00  0.00000000000E+00 -0.57132948380E+03  0.22753199061E+04  0.22024221430E+04 0.  0.
        2    1    3    3  502    0 -0.29495796366E+03  0.99296922673E+03 -0.67176980702E+03  0.12346103674E+04  0.25500000920E-02 0. -1.
       -2    1    3    3    0  502  0.29495796366E+03 -0.99296922673E+03  0.10044032322E+03  0.10407095388E+04  0.25500000920E-02 0.  1.
</event>
<event>
 5   0  0.1311472E-04  0.2171793E+04  0.7818609E-02  0.8530261E-01
       -2   -1    0    0    0  501  0.00000000000E+00  0.00000000000E+00  0.58780310930E+03  0.58780310930E+03  0.25500000920E-02 0.  1.
        2   -1    0    0  501    0  0.00000000000E+00  0.00000000000E+00 -0.20060654767E+04  0.20060654767E+04  0.25500000920E-02 0. -1.
    10030    2    1    2    0    0  0.00000000000E+00  0.00000000000E+00 -0.14182623674E+04  0.25938685860E+04  0.21717932910E+04 0.  0.
        4    1    3    3  502    0  0.31973223763E+03  0.53238044379E+03  0.35478228254E+03  0.71521306029E+03  0.12699999809E+01 0.  1.
       -4    1    3    3    0  502 -0.31973223763E+03 -0.53238044379E+03 -0.17730446500E+04  0.18786555257E+04  0.12699999809E+01 0. -1.
</event>
<event>
 5   0  0.1241430E-04  0.2227082E+04  0.7818609E-02  0.8507240E-01
        2   -1    0    0  501    0  0.00000000000E+00  0.00000000000E+00  0.15594936855E+04  0.15594936855E+04  0.25500000920E-02 0. -1.
       -2   -1    0    0    0  501  0.00000000000E+00  0.00000000000E+00 -0.79511303786E+03  0.79511303787E+03  0.25500000920E-02 0.  1.
    10030    2    1    2    0    0  0.00000000000E+00  0.00000000000E+00  0.76438064760E+03  0.23546067233E+04  0.22270821824E+04 0.  0.
        1    1    3    3  502    0  0.26577150164E+03  0.12241311817E+03 -0.75374001437E+03  0.80854404449E+03  0.50400001928E-02 0.  1.
       -1    1    3    3    0  502 -0.26577150164E+03 -0.12241311817E+03  0.15181206620E+04  0.15460626788E+04  0.50400001928E-02 0. -1.
</event>
<event>
 5   0  0.5861816E-05  0.2196815E+04  0.7818609E-02  0.8519755E-01
        1   -1    0    0  501    0  0.00000000000E+00  0.00000000000E+00  0.13224348930E+04  0.13224348930E+04  0.50400001928E-02 0. -1.
       -1   -1    0    0    0  501  0.00000000000E+00  0.00000000000E+00 -0.91233139799E+03  0.91233139800E+03  0.50400001928E-02 0.  1.
    10030    2    1    2    0    0  0.00000000000E+00  0.00000000000E+00  0.41010349503E+03  0.22347662910E+04  0.21968148531E+04 0.  0.
        1    1    3    3  502    0  0.83827515181E+03  0.70132880158E+03  0.93933032907E+02  0.10969916740E+04  0.50400001928E-02 0.  1.
       -1    1    3    3    0  502 -0.83827515181E+03 -0.70132880158E+03  0.31617046212E+03  0.11377746171E+04  0.50400001928E-02 0. -1.
</event>
<event>
 5   0  0.5895063E-05  0.2193961E+04  0.7818609E-02  0.8520946E-01
       -1   -1    0    0    0  501  0.00000000000E+00  0.00000000000E+00  0.10295667532E+04  0.10295667532E+04  0.50400001928E-02 0. -1.
        1   -1    0    0  501    0  0.00000000000E+00  0.00000000000E+00 -0.11688084706E+04  0.11688084706E+04  0.50400001928E-02 0.  1.
    10030    2    1    2    0    0  0.00000000000E+00  0.00000000000E+00 -0.13924171737E+03  0.21983752238E+04  0.21939611137E+04 0.  0.
        5    1    3    3  502    0  0.92259654221E+03 -0.49593252237E+02  0.52292360979E+03  0.10616567534E+04  0.46999998093E+01 0. -1.
       -5    1    3    3    0  502 -0.92259654221E+03  0.49593252237E+02 -0.66216532716E+03  0.11367184704E+04  0.46999998093E+01 0.  1.
</event>
<event>
 5   0  0.1404159E-04  0.2212851E+04  0.7818609E-02  0.8513098E-01
        2   -1    0    0  501    0  0.00000000000E+00  0.00000000000E+00  0.10778900315E+04  0.10778900315E+04  0.25500000920E-02 0.  1.
       -2   -1    0    0    0  501  0.00000000000E+00  0.00000000000E+00 -0.11357161444E+04  0.11357161444E+04  0.25500000920E-02 0. -1.
    10030    2    1    2    0    0  0.00000000000E+00  0.00000000000E+00 -0.57826112886E+02  0.22136061758E+04  0.22128507501E+04 0.  0.
        5    1    3    3  502    0 -0.89609207930E+03 -0.24228355448E+03  0.57334951935E+03  0.10910701612E+04  0.46999998093E+01 0.  1.
       -5    1    3    3    0  502  0.89609207930E+03  0.24228355448E+03 -0.63117563224E+03  0.11225360146E+04  0.46999998093E+01 0. -1.
</event>
<event>
 5   0  0.1404159E-04  0.2207097E+04  0.7818609E-02  0.8515480E-01
        2   -1    0    0  501    0  0.00000000000E+00  0.00000000000E+00  0.23605344602E+04  0.23605344602E+04  0.25500000920E-02 0.  1.
       -2   -1    0    0    0  501  0.00000000000E+00  0.00000000000E+00 -0.51590818332E+03  0.51590818332E+03  0.25500000920E-02 0. -1.
    10030    2    1    2    0    0  0.00000000000E+00  0.00000000000E+00  0.18446262768E+04  0.28764426435E+04  0.22070967763E+04 0.  0.
        5    1    3    3  502    0 -0.51184093751E+03  0.18020123357E+01  0.21964635806E+04  0.22553178808E+04  0.46999998093E+01 0.  1.
       -5    1    3    3    0  502  0.51184093751E+03 -0.18020123357E+01 -0.35183730373E+03  0.62112476271E+03  0.46999998093E+01 0. -1.
</event>
<event>
 5   0  0.1404159E-04  0.2187319E+04  0.7818609E-02  0.8523725E-01
       -2   -1    0    0    0  501  0.00000000000E+00  0.00000000000E+00  0.92560893498E+03  0.92560893498E+03  0.25500000920E-02 0.  1.
        2   -1    0    0  501    0  0.00000000000E+00  0.00000000000E+00 -0.12922207319E+04  0.12922207319E+04  0.25500000920E-02 0. -1.
    10030    2    1    2    0    0  0.00000000000E+00  0.00000000000E+00 -0.36661179690E+03  0.22178296669E+04  0.21873189574E+04 0.  0.
        5    1    3    3  502    0 -0.53704492048E+03  0.94957578049E+03 -0.26156775291E+03  0.11218516786E+04  0.46999998093E+01 0.  1.
       -5    1    3    3    0  502  0.53704492048E+03 -0.94957578049E+03 -0.10504404399E+03  0.10959779882E+04  0.46999998093E+01 0. -1.
</event>
<event>
 5   0  0.1311472E-04  0.2216599E+04  0.7818609E-02  0.8511551E-01
       -2   -1    0    0    0  501  0.00000000000E+00  0.00000000000E+00  0.97130952962E+03  0.97130952963E+03  0.25500000920E-02 0.  1.
        2   -1    0    0  501    0  0.00000000000E+00  0.00000000000E+00 -0.12646102273E+04  0.12646102273E+04  0.25500000920E-02 0. -1.
    10030    2    1    2    0    0  0.00000000000E+00  0.00000000000E+00 -0.29330069768E+03  0.22359197569E+04  0.22165991654E+04 0.  0.
        4    1    3    3  502    0 -0.29477616363E+02 -0.22159230894E+03 -0.12416323694E+04  0.12615960665E+04  0.12699999809E+01 0. -1.
       -4    1    3    3    0  502  0.29477616363E+02  0.22159230894E+03  0.94833167174E+03  0.97432369045E+03  0.12699999809E+01 0.  1.
</event>
<event>
 5   0  0.1311472E-04  0.2144994E+04  0.7818609E-02  0.8541678E-01
       -2   -1    0    0    0  501  0.00000000000E+00  0.00000000000E+00  0.16250050628E+04  0.16250050628E+04  0.25500000920E-02 0. -1.
        2   -1    0    0  501    0  0.00000000000E+00  0.00000000000E+00 -0.70784400200E+03  0.70784400201E+03  0.25500000920E-02 0.  1.
    10030    2    1    2    0    0  0.00000000000E+00  0.00000000000E+00  0.91716106079E+03  0.23328490648E+04  0.21449942535E+04 0.  0.
        4    1    3    3  502    0 -0.59960077687E+03 -0.12279323721E+03 -0.49925994095E+03  0.78984895534E+03  0.12699999809E+01 0.  1.
       -4    1    3    3    0  502  0.59960077687E+03  0.12279323721E+03  0.14164210017E+04  0.15430001095E+04  0.12699999809E+01 0. -1.
</event>
<event>
 5   0  0.5895063E-05  0.2208124E+04  0.7818609E-02  0.8515054E-01
       -1   -1    0    0    0  501  0.00000000000E+00  0.00000000000E+00  0.75666481304E+03  0.75666481306E+03  0.50400001928E-02 0. -1.
        1   -1    0    0  501    0  0.00000000000E+00  0.00000000000E+00 -0.16109554620E+04  0.16109554620E+04  0.50400001928E-02 0.  1.
    10030    2    1    2    0    0  0.00000000000E+00  0.00000000000E+00 -0.85429064895E+03  0.23676202751E+04  0.22081243747E+04 0.  0.
        5    1    3    3  502    0 -0.73506577392E+03 -0.80436209324E+03 -0.61778298381E+03  0.12525964929E+04  0.46999998093E+01 0. -1.
       -5    1    3    3    0  502  0.73506577392E+03  0.80436209324E+03 -0.23650766514E+03  0.11150237821E+04  0.46999998093E+01 0.  1.
</event>
<event>
 5   0  0.1241430E-04  0.2192298E+04  0.7818609E-02  0.8521641E-01
        2   -1    0    0  501    0  0.00000000000E+00  0.00000000000E+00  0.14738648994E+04  0.14738648994E+04  0.25500000920E-02 0.  1.
       -2   -1    0    0    0  501  0.00000000000E+00  0.00000000000E+00 -0.81523248161E+03  0.81523248162E+03  0.25500000920E-02 0. -1.
    10030    2    1    2    0    0  0.00000000000E+00  0.00000000000E+00  0.65863241776E+03  0.22890973810E+04  0.21922979172E+04 0.  0.
        1    1    3    3  502    0 -0.51067574702E+03 -0.56200345587E+03  0.11547299127E+04  0.13820415241E+04  0.50400001928E-02 0.  1.
       -1    1    3    3    0  502  0.51067574702E+03  0.56200345587E+03 -0.49609749495E+03  0.90705585689E+03  0.50400001928E-02 0. -1.
</event>
<event>
 5   0  0.1226021E-04  0.2191548E+04  0.7818609E-02  0.8521954E-01
       -2   -1    0    0    0  501  0.00000000000E+00  0.00000000000E+00  0.15320629368E+04  0.15320629368E+04  0.25500000920E-02 0. -1.
        2   -1    0    0  501    0  0.00000000000E+00  0.00000000000E+00 -0.78372821611E+03  0.78372821611E+03  0.25500000920E-02 0.  1.
    10030    2    1    2    0    0  0.00000000000E+00  0.00000000000E+00  0.74833472068E+03  0.23157911529E+04  0.21915482677E+04 0.  0.
        2    1    3    3  502    0 -0.66526954836E+03 -0.84046453239E+03  0.13376880694E+03  0.10802121532E+04  0.25500000920E-02 0.  1.
       -2    1    3    3    0  502  0.66526954836E+03  0.84046453239E+03  0.61456591374E+03  0.12355789997E+04  0.25500000920E-02 0. -1.
</event>
<event>
 5   0  0.5861816E-05  0.2232275E+04  0.7818609E-02  0.8505114E-01
       -1   -1    0    0    0  501  0.00000000000E+00  0.00000000000E+00  0.13735735152E+04  0.13735735152E+04  0.50400001928E-02 0.  1.
        1   -1    0    0  501    0  0.00000000000E+00  0.00000000000E+00 -0.90695003845E+03  0.90695003846E+03  0.50400001928E-02 0. -1.
    10030    2    1    2    0    0  0.00000000000E+00  0.00000000000E+00  0.46662347678E+03  0.22805235537E+04  0.22322746717E+04 0.  0.
        1    1    3    3  502    0 -0.42813649006E+02  0.10519644604E+04  0.61186126016E+03  0.12177177162E+04  0.50400001928E-02 0. -1.
       -1    1    3    3    0  502  0.42813649006E+02 -0.10519644604E+04 -0.14523778339E+03  0.10628058375E+04  0.50400001928E-02 0.  1.
</event>
<event>
 5   0  0.1404159E-04  0.2198236E+04  0.7818609E-02  0.8519163E-01
        2   -1    0    0  501    0  0.00000000000E+00  0.00000000000E+00  0.12297355370E+04  0.12297355370E+04  0.25500000920E-02 0. -1.
       -2   -1    0    0    0  501  0.00000000000E+00  0.00000000000E+00 -0.98237432213E+03  0.98237432214E+03  0.25500000920E-02 0.  1.
    10030    2    1    2    0    0  0.00000000000E+00  0.00000000000E+00  0.24736121487E+03  0.22121098591E+04  0.21982362153E+04 0.  0.
        5    1    3    3  502    0 -0.93746218056E+03 -0.56386719466E+03  0.16912114188E+02  0.10941159275E+04  0.46999998093E+01 0. -1.
       -5    1    3    3    0  502  0.93746218056E+03  0.56386719466E+03  0.23044910068E+03  0.11179939316E+04  0.46999998093E+01 0.  1.
</event>
<event>
 5   0  0.1226021E-04  0.2212345E+04  0.7818609E-02  0.8513307E-01
       -2   -1    0    0    0  501  0.00000000000E+00  0.00000000000E+00  0.53922851689E+03  0.53922851690E+03  0.25500000920E-02 0. -1.
        2   -1    0    0  501    0  0.00000000000E+00  0.00000000000E+00 -0.22692006090E+04  0.22692006090E+04  0.25500000920E-02 0.  1.
    10030    2    1    2    0    0  0.00000000000E+00  0.00000000000E+00 -0.17299720921E+04  0.28084291259E+04  0.22123450716E+04 0.  0.
        2    1    3    3  502    0  0.54656108462E+03  0.11114029752E+03  0.34766465463E+03  0.65723047483E+03  0.25500000920E-02 0. -1.
       -2    1    3    3    0  502 -0.54656108462E+03 -0.11114029752E+03 -0.20776367468E+04  0.21511986511E+04  0.25500000920E-02 0.  1.
</event>
<event>
 5   0  0.5861816E-05  0.2211867E+04  0.7818609E-02  0.8513505E-01
        1   -1    0    0  501    0  0.00000000000E+00  0.00000000000E+00  0.95912235734E+03  0.95912235736E+03  0.50400001928E-02 0. -1.
       -1   -1    0    0    0  501  0.00000000000E+00  0.00000000000E+00 -0.12752161852E+04  0.12752161852E+04  0.50400001928E-02 0.  1.
    10030    2    1    2    0    0  0.00000000000E+00  0.00000000000E+00 -0.31609382785E+03  0.22343385426E+04  0.22118665002E+04 0.  0.
        1    1    3    3  502    0  0.10351881474E+04 -0.25011850710E+03 -0.45926189688E+03  0.11597824184E+04  0.50400001928E-02 0. -1.
       -1    1    3    3    0  502 -0.10351881474E+04  0.25011850710E+03  0.14316806902E+03  0.10745561242E+04  0.50400001928E-02 0.  1.
</event>
<event>
 5   0  0.1404159E-04  0.2268952E+04  0.7818609E-02  0.8490264E-01
        2   -1    0    0  501    0  0.00000000000E+00  0.00000000000E+00  0.11897846971E+04  0.11897846971E+04  0.25500000920E-02 0.  1.
       -2   -1    0    0    0  501  0.00000000000E+00  0.00000000000E+00 -0.10817388306E+04  0.10817388306E+04  0.25500000920E-02 0. -1.
    10030    2    1    2    0    0  0.00000000000E+00  0.00000000000E+00  0.10804586651E+03  0.22715235277E+04  0.22689524516E+04 0.  0.
        5    1    3    3  502    0  0.14835626812E+03  0.10961283816E+04 -0.19826898931E+03  0.11237614041E+04  0.46999998093E+01 0.  1.
       -5    1    3    3    0  502 -0.14835626812E+03 -0.10961283816E+04  0.30631485581E+03  0.11477621235E+04  0.46999998093E+01 0. -1.
</event>
<event>
 5   0  0.1404159E-04  0.1877403E+04  0.7818609E-02  0.8666187E-01
       -2   -1    0    0    0  501  0.00000000000E+00  0.00000000000E+00  0.45387652316E+03  0.45387652317E+03  0.25500000920E-02 0.  1.
        2   -1    0    0  501    0  0.00000000000E+00  0.00000000000E+00 -0.19414093617E+04  0.19414093617E+04  0.25500000920E-02 0. -1.
    10030    2    1    2    0    0  0.00000000000E+00  0.00000000000E+00 -0.14875328385E+04  0.23952858848E+04  0.18774026005E+04 0.  0.
        5    1    3    3  502    0  0.48163301057E+03 -0.77710257306E+03 -0.47227902242E+03  0.10290424340E+04  0.46999998093E+01 0. -1.
       -5    1    3    3    0  502 -0.48163301057E+03  0.77710257306E+03 -0.10152538161E+04  0.13662434509E+04  0.46999998093E+01 0.  1.
</event>
<event>
 5   0  0.1252124E-04  0.2223618E+04  0.7818609E-02  0.8508662E-01
       -2   -1    0    0    0  501  0.00000000000E+00  0.00000000000E+00  0.81020975601E+03  0.81020975601E+03  0.25500000920E-02 0.  1.
        2   -1    0    0  501    0  0.00000000000E+00  0.00000000000E+00 -0.15256779966E+04  0.15256779966E+04  0.25500000920E-02 0. -1.
    10030    2    1    2    0    0  0.00000000000E+00  0.00000000000E+00 -0.71546824058E+03  0.23358877526E+04  0.22236179504E+04 0.  0.
        3    1    3    3  502    0 -0.48568220372E+03 -0.14378811935E+03 -0.13974307733E+04  0.14863966505E+04  0.10100000352E+00 0. -1.
       -3    1    3    3    0  502  0.48568220372E+03  0.14378811935E+03  0.68196253273E+03  0.84949110209E+03  0.10100000352E+00 0.  1.
</event>
<event>
 5   0  0.5849604E-05  0.2255164E+04  0.7818609E-02  0.8495812E-01
       -1   -1    0    0    0  501  0.00000000000E+00  0.00000000000E+00  0.15523719953E+04  0.15523719953E+04  0.50400001928E-02 0.  1.
        1   -1    0    0  501    0  0.00000000000E+00  0.00000000000E+00 -0.81903114423E+03  0.81903114424E+03  0.50400001928E-02 0. -1.
    10030    2    1    2    0    0  0.00000000000E+00  0.00000000000E+00  0.73334085108E+03  0.23714031396E+04  0.22551638624E+04 0.  0.
        2    1    3    3  502    0  0.20104820363E+03  0.14706407818E+03 -0.78973727280E+03  0.82809008165E+03  0.25500000920E-02 0. -1.
       -2    1    3    3    0  502 -0.20104820363E+03 -0.14706407818E+03  0.15230781239E+04  0.15433130579E+04  0.25500000920E-02 0.  1.
</event>
<event>
 5   0  0.5895063E-05  0.2258618E+04  0.7818609E-02  0.8494419E-01
       -1   -1    0    0    0  501  0.00000000000E+00  0.00000000000E+00  0.84009144925E+03  0.84009144926E+03  0.50400001928E-02 0. -1.
        1   -1    0    0  501    0  0.00000000000E+00  0.00000000000E+00 -0.15180948815E+04  0.15180948815E+04  0.50400001928E-02 0.  1.
    10030    2    1    2    0    0  0.00000000000E+00  0.00000000000E+00 -0.67800343222E+03  0.23581863307E+04  0.22586177446E+04 0.  0.
        5    1    3    3  502    0  0.82402028251E+02 -0.10988147817E+04 -0.80852282274E+02  0.11048724815E+04  0.46999998093E+01 0.  1.
       -5    1    3    3    0  502 -0.82402028251E+02  0.10988147817E+04 -0.59715114994E+03  0.12533138492E+04  0.46999998093E+01 0. -1.
</event>
<event>
 5   0  0.1226021E-04  0.2262349E+04  0.7818609E-02  0.8492916E-01
       -2   -1    0    0    0  501  0.00000000000E+00  0.00000000000E+00  0.11684684117E+04  0.11684684117E+04  0.25500000920E-02 0. -1.
        2   -1    0    0  501    0  0.00000000000E+00  0.00000000000E+00 -0.10950712648E+04  0.10950712648E+04  0.25500000920E-02 0.  1.
    10030    2    1    2    0    0  0.00000000000E+00  0.00000000000E+00  0.73397146948E+02  0.22635396765E+04  0.22623493819E+04 0.  0.
        2    1    3    3  502    0  0.32061383418E+03 -0.73630926985E+03 -0.76034569422E+03  0.11059250184E+04  0.25500000920E-02 0.  1.
       -2    1    3    3    0  502 -0.32061383418E+03  0.73630926985E+03  0.83374284116E+03  0.11576146581E+04  0.25500000920E-02 0. -1.
</event>
<event>
 5   0  0.1241430E-04  0.2202488E+04  0.7818609E-02  0.8517393E-01
       -2   -1    0    0    0  501  0.00000000000E+00  0.00000000000E+00  0.56201748388E+03  0.56201748389E+03  0.25500000920E-02 0.  1.
        2   -1    0    0  501    0  0.00000000000E+00  0.00000000000E+00 -0.21578312345E+04  0.21578312345E+04  0.25500000920E-02 0. -1.
    10030    2    1    2    0    0  0.00000000000E+00  0.00000000000E+00 -0.15958137506E+04  0.27198487184E+04  0.22024884845E+04 0.  0.
        1    1    3    3  502    0 -0.24729457818E+03 -0.58823000981E+02 -0.21211069722E+04  0.21362840497E+04  0.50400001928E-02 0. -1.
       -1    1    3    3    0  502  0.24729457818E+03  0.58823000981E+02  0.52529322155E+03  0.58356466863E+03  0.50400001928E-02 0.  1.
</event>
<event>
 5   0  0.5849604E-05  0.2156884E+04  0.7818609E-02  0.8536591E-01
        1   -1    0    0  501    0  0.00000000000E+00  0.00000000000E+00  0.12894004761E+04  0.12894004762E+04  0.50400001928E-02 0. -1.
       -1   -1    0    0    0  501  0.00000000000E+00  0.00000000000E+00 -0.90199805396E+03  0.90199805398E+03  0.50400001928E-02 0.  1.
    10030    2    1    2    0    0  0.00000000000E+00  0.00000000000E+00  0.38740242218E+03  0.21913985301E+04  0.21568836040E+04 0.  0.
        2    1    3    3  502    0 -0.25151875267E+03  0.11090183957E+03 -0.86580732837E+03  0.90839596588E+03  0.25500000920E-02 0.  1.
       -2    1    3    3    0  502  0.25151875267E+03 -0.11090183957E+03  0.12532097506E+04  0.12830025642E+04  0.25500000920E-02 0. -1.
</event>
<event>
 5   0  0.6263558E-05  0.2292685E+04  0.7818609E-02  0.8480811E-01
       -1   -1    0    0    0  501  0.00000000000E+00  0.00000000000E+00  0.86104054756E+03  0.86104054758E+03  0.50400001928E-02 0.  1.
        1   -1    0    0  501    0  0.00000000000E+00  0.00000000000E+00 -0.15261773960E+04  0.15261773960E+04  0.50400001928E-02 0. -1.
    10030    2    1    2    0    0  0.00000000000E+00  0.00000000000E+00 -0.66513684844E+03  0.23872179436E+04  0.22926845581E+04 0.  0.
        3    1    3    3  502    0 -0.45898997246E+03  0.87394033141E+03  0.27426308232E+03  0.10245309884E+04  0.10100000352E+00 0.  1.
       -3    1    3    3    0  502  0.45898997246E+03 -0.87394033141E+03 -0.93939993077E+03  0.13626869552E+04  0.10100000352E+00 0. -1.
</event>
<event>
 5   0  0.1226021E-04  0.2194227E+04  0.7818609E-02  0.8520835E-01
        2   -1    0    0  501    0  0.00000000000E+00  0.00000000000E+00  0.12932353988E+04  0.12932353988E+04  0.25500000920E-02 0.  1.
       -2   -1    0    0    0  501  0.00000000000E+00  0.00000000000E+00 -0.93073366748E+03  0.93073366748E+03  0.25500000920E-02 0. -1.
    10030    2    1    2    0    0  0.00000000000E+00  0.00000000000E+00  0.36250173129E+03  0.22239690663E+04  0.21942267208E+04 0.  0.
        2    1    3    3  502    0 -0.38820509795E+03  0.79863961774E+03 -0.47178785144E+03  0.10055407569E+04  0.25500000920E-02 0. -1.
       -2    1    3    3    0  502  0.38820509795E+03 -0.79863961774E+03  0.83428958273E+03  0.12184283093E+04  0.25500000920E-02 0.  1.
</event>
<event>
 5   0  0.5861816E-05  0.1814168E+04  0.7818609E-02  0.8698801E-01
        1   -1    0    0  501    0  0.00000000000E+00  0.00000000000E+00  0.18148906467E+04  0.18148906467E+04  0.50400001928E-02 0. -1.
       -1   -1    0    0    0  501  0.00000000000E+00  0.00000000000E+00 -0.45336147945E+03  0.45336147947E+03  0.50400001928E-02 0.  1.
    10030    2    1    2    0    0  0.00000000000E+00  0.00000000000E+00  0.13615291673E+04  0.22682521262E+04  0.18141681385E+04 0.  0.
        1    1    3    3  502    0 -0.62328171726E+03 -0.63209071458E+03  0.44758223368E+03  0.99415724434E+03  0.50400001928E-02 0.  1.
       -1    1    3    3    0  502  0.62328171726E+03  0.63209071458E+03  0.91394693358E+03  0.12740948819E+04  0.50400001928E-02 0. -1.
</event>
<event>
 5   0  0.5861816E-05  0.2061059E+04  0.7818609E-02  0.8578594E-01
       -1   -1    0    0    0  501  0.00000000000E+00  0.00000000000E+00  0.35816925667E+03  0.35816925670E+03  0.50400001928E-02 0.  1.
        1   -1    0    0  501    0  0.00000000000E+00  0.00000000000E+00 -0.29650546645E+04  0.29650546645E+04  0.50400001928E-02 0. -1.
    10030    2    1    2    0    0  0.00000000000E+00  0.00000000000E+00 -0.26068854078E+04  0.33232239212E+04  0.20610593638E+04 0.  0.
        1    1    3    3  502    0  0.66037563994E+03 -0.67040046519E+03 -0.62612786922E+03  0.11302959251E+04  0.50400001928E-02 0.  1.
       -1    1    3    3    0  502 -0.66037563994E+03  0.67040046519E+03 -0.19807575386E+04  0.21929279961E+04  0.50400001928E-02 0. -1.
</event>
<event>
 5   0  0.5849604E-05  0.2230412E+04  0.7818609E-02  0.8505876E-01
       -1   -1    0    0    0  501  0.00000000000E+00  0.00000000000E+00  0.80760994930E+03  0.80760994932E+03  0.50400001928E-02 0.  1.
        1   -1    0    0  501    0  0.00000000000E+00  0.00000000000E+00 -0.15399569651E+04  0.15399569651E+04  0.50400001928E-02 0. -1.
    10030    2    1    2    0    0  0.00000000000E+00  0.00000000000E+00 -0.73234701583E+03  0.23475669145E+04  0.22304121292E+04 0.  0.
        2    1    3    3  502    0 -0.34922451443E+03 -0.78418193769E+03  0.38310788795E+03  0.94003761983E+03  0.25500000920E-02 0.  1.
       -2    1    3    3    0  502  0.34922451443E+03  0.78418193769E+03 -0.11154549038E+04  0.14075292946E+04  0.25500000920E-02 0. -1.
</event>
<event>
 5   0  0.1311472E-04  0.2285186E+04  0.7818609E-02  0.8483785E-01
        2   -1    0    0  501    0  0.00000000000E+00  0.00000000000E+00  0.11028433786E+04  0.11028433786E+04  0.25500000920E-02 0. -1.
       -2   -1    0    0    0  501  0.00000000000E+00  0.00000000000E+00 -0.11837750314E+04  0.11837750314E+04  0.25500000920E-02 0.  1.
    10030    2    1    2    0    0  0.00000000000E+00  0.00000000000E+00 -0.80931652820E+02  0.22866184100E+04  0.22851857300E+04 0.  0.
        4    1    3    3  502    0 -0.14477715590E+03  0.10964428935E+04  0.24671480104E+03  0.11331448493E+04  0.12699999809E+01 0.  1.
       -4    1    3    3    0  502  0.14477715590E+03 -0.10964428935E+04 -0.32764645386E+03  0.11534735607E+04  0.12699999809E+01 0. -1.
</event>
<event>
 5   0  0.1404159E-04  0.2220501E+04  0.7818609E-02  0.8509943E-01
        2   -1    0    0  501    0  0.00000000000E+00  0.00000000000E+00  0.13872375177E+04  0.13872375177E+04  0.25500000920E-02 0. -1.
       -2   -1    0    0    0  501  0.00000000000E+00  0.00000000000E+00 -0.88856901632E+03  0.88856901632E+03  0.25500000920E-02 0.  1.
    10030    2    1    2    0    0  0.00000000000E+00  0.00000000000E+00  0.49866850139E+03  0.22758065340E+04  0.22205010935E+04 0.  0.
        5    1    3    3  502    0  0.87114471367E+03  0.30666448236E+03  0.88087806535E+03  0.12762854198E+04  0.46999998093E+01 0. -1.
       -5    1    3    3    0  502 -0.87114471367E+03 -0.30666448236E+03 -0.38220956396E+03  0.99952111418E+03  0.46999998093E+01 0.  1.
</event>
<event>
 5   0  0.1311472E-04  0.1359099E+04  0.7818609E-02  0.8983969E-01
        2   -1    0    0  501    0  0.00000000000E+00  0.00000000000E+00  0.66363037725E+03  0.66363037726E+03  0.25500000920E-02 0. -1.
       -2   -1    0    0    0  501  0.00000000000E+00  0.00000000000E+00 -0.69585024609E+03  0.69585024609E+03  0.25500000920E-02 0.  1.
    10030    2    1    2    0    0  0.00000000000E+00  0.00000000000E+00 -0.32219868837E+02  0.13594806234E+04  0.13590987622E+04 0.  0.
        4    1    3    3  502    0  0.45614021280E+03  0.45156777555E+03  0.20713072428E+03  0.67444947883E+03  0.12699999809E+01 0.  1.
       -4    1    3    3    0  502 -0.45614021280E+03 -0.45156777555E+03 -0.23935059311E+03  0.68503114453E+03  0.12699999809E+01 0. -1.
</event>
<event>
 5   0  0.1241430E-04  0.2170467E+04  0.7818609E-02  0.8530822E-01
        2   -1    0    0  501    0  0.00000000000E+00  0.00000000000E+00  0.22185107824E+04  0.22185107824E+04  0.25500000920E-02 0. -1.
       -2   -1    0    0    0  501  0.00000000000E+00  0.00000000000E+00 -0.53086611838E+03  0.53086611838E+03  0.25500000920E-02 0.  1.
    10030    2    1    2    0    0  0.00000000000E+00  0.00000000000E+00  0.16876446640E+04  0.27493769008E+04  0.21704674221E+04 0.  0.
        1    1    3    3  502    0  0.88550755438E+03 -0.13758996438E+02  0.16383496268E+04  0.18623915911E+04  0.50400001928E-02 0. -1.
       -1    1    3    3    0  502 -0.88550755438E+03  0.13758996438E+02  0.49295037168E+02  0.88698530966E+03  0.50400001928E-02 0.  1.
</event>
<event>
 5   0  0.1404159E-04  0.2158471E+04  0.7818609E-02  0.8535915E-01
       -2   -1    0    0    0  501  0.00000000000E+00  0.00000000000E+00  0.61135854713E+03  0.61135854713E+03  0.25500000920E-02 0.  1.
        2   -1    0    0  501    0  0.00000000000E+00  0.00000000000E+00 -0.19051826985E+04  0.19051826985E+04  0.25500000920E-02 0. -1.
    10030    2    1    2    0    0  0.00000000000E+00  0.00000000000E+00 -0.12938241514E+04  0.25165412457E+04  0.21584714282E+04 0.  0.
        5    1    3    3  502    0  0.76813008799E+03 -0.65393982830E+03 -0.10940223349E+04  0.14881424966E+04  0.46999998093E+01 0.  1.
       -5    1    3    3    0  502 -0.76813008799E+03  0.65393982830E+03 -0.19980181654E+03  0.10283987490E+04  0.46999998093E+01 0. -1.
</event>
<event>
 5   0  0.1252124E-04  0.2270262E+04  0.7818609E-02  0.8489740E-01
       -2   -1    0    0    0  501  0.00000000000E+00  0.00000000000E+00  0.12828333150E+04  0.12828333150E+04  0.25500000920E-02 0.  1.
        2   -1    0    0  501    0  0.00000000000E+00  0.00000000000E+00 -0.10044345108E+04  0.10044345108E+04  0.25500000920E-02 0. -1.
    10030    2    1    2    0    0  0.00000000000E+00  0.00000000000E+00  0.27839880418E+03  0.22872678258E+04  0.22702617058E+04 0.  0.
        3    1    3    3  502    0 -0.81698001373E+03 -0.77874566067E+03  0.17376737597E+02  0.11288060542E+04  0.10100000352E+00 0. -1.
       -3    1    3    3    0  502  0.81698001373E+03  0.77874566067E+03  0.26102206658E+03  0.11584617716E+04  0.10100000352E+00 0.  1.
</event>
<event>
 5   0  0.1311472E-04  0.2205146E+04  0.7818609E-02  0.8516289E-01
       -2   -1    0    0    0  501  0.00000000000E+00  0.00000000000E+00  0.13120904923E+04  0.13120904923E+04  0.25500000920E-02 0.  1.
        2   -1    0    0  501    0  0.00000000000E+00  0.00000000000E+00 -0.92651131628E+03  0.92651131629E+03  0.25500000920E-02 0. -1.
    10030    2    1    2    0    0  0.00000000000E+00  0.00000000000E+00  0.38557917603E+03  0.22386018086E+04  0.22051455182E+04 0.  0.
        4    1    3    3  502    0  0.79550427049E+02 -0.10968549035E+04  0.11255807547E+03  0.11054817425E+04  0.12699999809E+01 0. -1.
       -4    1    3    3    0  502 -0.79550427049E+02  0.10968549035E+04  0.27302110056E+03  0.11331200661E+04  0.12699999809E+01 0.  1.
</event>
<event>
 5   0  0.6263558E-05  0.2189964E+04  0.7818609E-02  0.8522617E-01
        1   -1    0    0  501    0  0.00000000000E+00  0.00000000000E+00  0.59504366711E+03  0.59504366713E+03  0.50400001928E-02 0.  1.
       -1   -1    0    0    0  501  0.00000000000E+00  0.00000000000E+00 -0.20149534546E+04  0.20149534546E+04  0.50400001928E-02 0. -1.
    10030    2    1    2    0    0  0.00000000000E+00  0.00000000000E+00 -0.14199097875E+04  0.26099971218E+04  0.21899637374E+04 0.  0.
        3    1    3    3  502    0 -0.15271689637E+03 -0.59937641802E+02 -0.20002229265E+04  0.20069396446E+04  0.10100000352E+00 0. -1.
       -3    1    3    3    0  502  0.15271689637E+03  0.59937641802E+02  0.58031313894E+03  0.60305747717E+03  0.10100000352E+00 0.  1.
</event>
<event>
 5   0  0.5849604E-05  0.1965893E+04  0.7818609E-02  0.8622735E-01
        1   -1    0    0  501    0  0.00000000000E+00  0.00000000000E+00  0.14866628783E+04  0.14866628783E+04  0.50400001928E-02 0.  1.
       -1   -1    0    0    0  501  0.00000000000E+00  0.00000000000E+00 -0.64990126551E+03  0.64990126553E+03  0.50400001928E-02 0. -1.
    10030    2    1    2    0    0  0.00000000000E+00  0.00000000000E+00  0.83676161280E+03  0.21365641438E+04  0.19658932688E+04 0.  0.
        2    1    3    3  502    0 -0.12239258757E+03 -0.20020568383E+02 -0.64136411562E+03  0.65324474545E+03  0.25500000920E-02 0. -1.
       -2    1    3    3    0  502  0.12239258757E+03  0.20020568383E+02  0.14781257284E+04  0.14833193984E+04  0.25500000920E-02 0.  1.
</event>
<event>
 5   0  0.5895063E-05  0.2165038E+04  0.7818609E-02  0.8533123E-01
       -1   -1    0    0    0  501  0.00000000000E+00  0.00000000000E+00  0.83253417861E+03  0.83253417863E+03  0.50400001928E-02 0. -1.
        1   -1    0    0  501    0  0.00000000000E+00  0.00000000000E+00 -0.14075668298E+04  0.14075668298E+04  0.50400001928E-02 0.  1.
    10030    2    1    2    0    0  0.00000000000E+00  0.00000000000E+00 -0.57503265120E+03  0.22401010084E+04  0.21650381008E+04 0.  0.
        5    1    3    3  502    0  0.18737391140E+03 -0.38320804050E+03  0.74189917797E+03  0.85580013160E+03  0.46999998093E+01 0. -1.
       -5    1    3    3    0  502 -0.18737391140E+03  0.38320804050E+03 -0.13169318292E+04  0.13843008769E+04  0.46999998093E+01 0.  1.
</event>
<event>
 5   0  0.1311472E-04  0.2111474E+04  0.7818609E-02  0.8556206E-01
        2   -1    0    0  501    0  0.00000000000E+00  0.00000000000E+00  0.20698462279E+04  0.20698462279E+04  0.25500000920E-02 0. -1.
       -2   -1    0    0    0  501  0.00000000000E+00  0.00000000000E+00 -0.53848463982E+03  0.53848463983E+03  0.25500000920E-02 0.  1.
    10030    2    1    2    0    0  0.00000000000E+00  0.00000000000E+00  0.15313615880E+04  0.26083308677E+04  0.21114737986E+04 0.  0.
        4    1    3    3  502    0  0.36494989085E+03  0.17469115044E+03 -0.43890663338E+03  0.59694728963E+03  0.12699999809E+01 0.  1.
       -4    1    3    3    0  502 -0.36494989085E+03 -0.17469115044E+03  0.19702682214E+04  0.20113835781E+04  0.12699999809E+01 0. -1.
</event>
<event>
 5   0  0.5861816E-05  0.2181093E+04  0.7818609E-02  0.8526339E-01
        1   -1    0    0  501    0  0.00000000000E+00  0.00000000000E+00  0.14895041143E+04  0.14895041143E+04  0.50400001928E-02 0. -1.
       -1   -1    0    0    0  501  0.00000000000E+00  0.00000000000E+00 -0.79844804012E+03  0.79844804013E+03  0.50400001928E-02 0.  1.
    10030    2    1    2    0    0  0.00000000000E+00  0.00000000000E+00  0.69105607421E+03  0.22879521545E+04  0.21810929745E+04 0.  0.
        1    1    3    3  502    0 -0.10738814674E+04  0.26715588273E+02  0.14828237182E+03  0.10843997374E+04  0.50400001928E-02 0.  1.
       -1    1    3    3    0  502  0.10738814674E+04 -0.26715588273E+02  0.54277370239E+03  0.12035524171E+04  0.50400001928E-02 0. -1.
</event>
<event>
 5   0  0.5895063E-05  0.2262229E+04  0.7818609E-02  0.8492964E-01
        1   -1    0    0  501    0  0.00000000000E+00  0.00000000000E+00  0.17910012465E+04  0.17910012465E+04  0.50400001928E-02 0.  1.
       -1   -1    0    0    0  501  0.00000000000E+00  0.00000000000E+00 -0.71436021752E+03  0.71436021754E+03  0.50400001928E-02 0. -1.
    10030    2    1    2    0    0  0.00000000000E+00  0.00000000000E+00  0.10766410290E+04  0.25053614641E+04  0.22622290247E+04 0.  0.
        5    1    3    3  502    0 -0.39080384542E+03 -0.21444819289E+03 -0.61296446223E+03  0.75793350302E+03  0.46999998093E+01 0. -1.
       -5    1    3    3    0  502  0.39080384542E+03  0.21444819289E+03  0.16896054912E+04  0.17474279610E+04  0.46999998093E+01 0.  1.
</event>
<event>
 5   0  0.5861816E-05  0.2191117E+04  0.7818609E-02  0.8522135E-01
       -1   -1    0    0    0  501  0.00000000000E+00  0.00000000000E+00  0.41693722757E+03  0.41693722760E+03  0.50400001928E-02 0. -1.
        1   -1    0    0  501    0  0.00000000000E+00  0.00000000000E+00 -0.28787256684E+04  0.28787256684E+04  0.50400001928E-02 0.  1.
    10030    2    1    2    0    0  0.00000000000E+00  0.00000000000E+00 -0.24617884408E+04  0.32956628960E+04  0.21911165183E+04 0.  0.
        1    1    3    3  502    0  0.38770525548E+03 -0.41910214169E+03 -0.26372786643E+04  0.26983700123E+04  0.50400001928E-02 0.  1.
       -1    1    3    3    0  502 -0.38770525548E+03  0.41910214169E+03  0.17549022348E+03  0.59729288365E+03  0.50400001928E-02 0. -1.
</event>
<event>
 5   0  0.5849604E-05  0.2189559E+04  0.7818609E-02  0.8522786E-01
        1   -1    0    0  501    0  0.00000000000E+00  0.00000000000E+00  0.13723236593E+04  0.13723236593E+04  0.50400001928E-02 0. -1.
       -1   -1    0    0    0  501  0.00000000000E+00  0.00000000000E+00 -0.87336711281E+03  0.87336711282E+03  0.50400001928E-02 0.  1.
    10030    2    1    2    0    0  0.00000000000E+00  0.00000000000E+00  0.49895654650E+03  0.22456907721E+04  0.21895591814E+04 0.  0.
        2    1    3    3  502    0  0.95267978069E+02 -0.26633985265E+03  0.13341965988E+04  0.13638524367E+04  0.25500000920E-02 0. -1.
       -2    1    3    3    0  502 -0.95267978069E+02  0.26633985265E+03 -0.83524005235E+03  0.88183833542E+03  0.25500000920E-02 0.  1.
</event>
<event>
 5   0  0.1404159E-04  0.2206187E+04  0.7818609E-02  0.8515857E-01
        2   -1    0    0  501    0  0.00000000000E+00  0.00000000000E+00  0.12096171317E+04  0.12096171317E+04  0.25500000920E-02 0. -1.
       -2   -1    0    0    0  501  0.00000000000E+00  0.00000000000E+00 -0.10059510711E+04  0.10059510711E+04  0.25500000920E-02 0.  1.
    10030    2    1    2    0    0  0.00000000000E+00  0.00000000000E+00  0.20366606068E+03  0.22155682028E+04  0.22061873440E+04 0.  0.
        5    1    3    3  502    0 -0.23421282362E+02  0.10086492253E+04  0.54967962367E+03  0.11489523901E+04  0.46999998093E+01 0. -1.
       -5    1    3    3    0  502  0.23421282362E+02 -0.10086492253E+04 -0.34601356299E+03  0.10666158127E+04  0.46999998093E+01 0.  1.
</event>
<event>
 5   0  0.1311472E-04  0.2302654E+04  0.7818609E-02  0.8476875E-01
       -2   -1    0    0    0  501  0.00000000000E+00  0.00000000000E+00  0.11156355754E+04  0.11156355754E+04  0.25500000920E-02 0.  1.
        2   -1    0    0  501    0  0.00000000000E+00  0.00000000000E+00 -0.11881606227E+04  0.11881606227E+04  0.25500000920E-02 0. -1.
    10030    2    1    2    0    0  0.00000000000E+00  0.00000000000E+00 -0.72525047329E+02  0.23037961981E+04  0.23026543466E+04 0.  0.
        4    1    3    3  502    0 -0.71342679420E+03  0.62271447601E+03 -0.69141663958E+03  0.11725227894E+04  0.12699999809E+01 0. -1.
       -4    1    3    3    0  502  0.71342679420E+03 -0.62271447601E+03  0.61889159225E+03  0.11312734087E+04  0.12699999809E+01 0.  1.
</event>
<event>
 5   0  0.6263558E-05  0.2067307E+04  0.7818609E-02  0.8575783E-01
       -1   -1    0    0    0  501  0.00000000000E+00  0.00000000000E+00  0.61486220103E+03  0.61486220105E+03  0.50400001928E-02 0.  1.
        1   -1    0    0  501    0  0.00000000000E+00  0.00000000000E+00 -0.17376889680E+04  0.17376889680E+04  0.50400001928E-02 0. -1.
    10030    2    1    2    0    0  0.00000000000E+00  0.00000000000E+00 -0.11228267669E+04  0.23525511690E+04  0.20673067151E+04 0.  0.
        3    1    3    3  502    0  0.99713610853E+02 -0.41959451010E+02  0.60840215122E+03  0.61794545676E+03  0.10100000352E+00 0.  1.
       -3    1    3    3    0  502 -0.99713610853E+02  0.41959451010E+02 -0.17312289182E+04  0.17346057123E+04  0.10100000352E+00 0. -1.
</event>
<event>
 5   0  0.5849604E-05  0.1652690E+04  0.7818609E-02  0.8788817E-01
        1   -1    0    0  501    0  0.00000000000E+00  0.00000000000E+00  0.20767275589E+04  0.20767275590E+04  0.50400001928E-02 0. -1.
       -1   -1    0    0    0  501  0.00000000000E+00  0.00000000000E+00 -0.32880875648E+03  0.32880875652E+03  0.50400001928E-02 0.  1.
    10030    2    1    2    0    0  0.00000000000E+00  0.00000000000E+00  0.17479188025E+04  0.24055363155E+04  0.16526901782E+04 0.  0.
        2    1    3    3  502    0  0.52320636729E+02 -0.82429573687E+03  0.91093368422E+03  0.12296345343E+04  0.25500000920E-02 0. -1.
       -2    1    3    3    0  502 -0.52320636729E+02  0.82429573687E+03  0.83698511824E+03  0.11759017812E+04  0.25500000920E-02 0.  1.
</event>
<event>
 5   0  0.1226021E-04  0.2237265E+04  0.7818609E-02  0.8503076E-01
       -2   -1    0    0    0  501  0.00000000000E+00  0.00000000000E+00  0.96975592155E+03  0.96975592155E+03  0.25500000920E-02 0. -1.
        2   -1    0    0  501    0  0.00000000000E+00  0.00000000000E+00 -0.12903642494E+04  0.12903642494E+04  0.25500000920E-02 0.  1.
    10030    2    1    2    0    0  0.00000000000E+00  0.00000000000E+00 -0.32060832788E+03  0.22601201710E+04  0.22372647334E+04 0.  0.
        2    1    3    3  502    0 -0.61841230327E+03  0.12897998527E+03  0.77231092756E+03  0.99776439216E+03  0.25500000920E-02 0. -1.
       -2    1    3    3    0  502  0.61841230327E+03 -0.12897998527E+03 -0.10929192554E+04  0.12623557788E+04  0.25500000920E-02 0.  1.
</event>
<event>
 5   0  0.5861816E-05  0.2061143E+04  0.7818609E-02  0.8578556E-01
       -1   -1    0    0    0  501  0.00000000000E+00  0.00000000000E+00  0.66692200751E+03  0.66692200753E+03  0.50400001928E-02 0. -1.
        1   -1    0    0  501    0  0.00000000000E+00  0.00000000000E+00 -0.15925063054E+04  0.15925063054E+04  0.50400001928E-02 0.  1.
    10030    2    1    2    0    0  0.00000000000E+00  0.00000000000E+00 -0.92558429785E+03  0.22594283129E+04  0.20611428890E+04 0.  0.
        1    1    3    3  502    0  0.19833242445E+03  0.71116527639E+03 -0.12509799919E+04  0.14525986167E+04  0.50400001928E-02 0.  1.
       -1    1    3    3    0  502 -0.19833242445E+03 -0.71116527639E+03  0.32539569410E+03  0.80682969622E+03  0.50400001928E-02 0. -1.
</event>
<event>
 5   0  0.1311472E-04  0.2270219E+04  0.7818609E-02  0.8489757E-01
        2   -1    0    0  501    0  0.00000000000E+00  0.00000000000E+00  0.12162053596E+04  0.12162053596E+04  0.25500000920E-02 0. -1.
       -2   -1    0    0    0  501  0.00000000000E+00  0.00000000000E+00 -0.10594208719E+04  0.10594208720E+04  0.25500000920E-02 0.  1.
    10030    2    1    2    0    0  0.00000000000E+00  0.00000000000E+00  0.15678448761E+03  0.22756262315E+04  0.22702187934E+04 0.  0.
        4    1    3    3  502    0 -0.73964545495E+03 -0.60741667514E+03 -0.53334108338E+03  0.10956663454E+04  0.12699999809E+01 0. -1.
       -4    1    3    3    0  502  0.73964545495E+03  0.60741667514E+03  0.69012557099E+03  0.11799598861E+04  0.12699999809E+01 0.  1.
</event>
<event>
 5   0  0.5861816E-05  0.1948421E+04  0.7818609E-02  0.8631123E-01
       -1   -1    0    0    0  501  0.00000000000E+00  0.00000000000E+00  0.54560458606E+03  0.54560458608E+03  0.50400001928E-02 0. -1.
        1   -1    0    0  501    0  0.00000000000E+00  0.00000000000E+00 -0.17395124387E+04  0.17395124387E+04  0.50400001928E-02 0.  1.
    10030    2    1    2    0    0  0.00000000000E+00  0.00000000000E+00 -0.11939078526E+04  0.22851170248E+04  0.19484208622E+04 0.  0.
        1    1    3    3  502    0  0.67612304605E+03  0.33052229454E+03 -0.13224818194E+04  0.15216259472E+04  0.50400001928E-02 0.  1.
       -1    1    3    3    0  502 -0.67612304605E+03 -0.33052229454E+03  0.12857396675E+03  0.76349107758E+03  0.50400001928E-02 0. -1.
</event>
<event>
 5   0  0.5861816E-05  0.2061797E+04  0.7818609E-02  0.8578261E-01
       -1   -1    0    0    0  501  0.00000000000E+00  0.00000000000E+00  0.12212412820E+04  0.12212412820E+04  0.50400001928E-02 0. -1.
        1   -1    0    0  501    0  0.00000000000E+00  0.00000000000E+00 -0.87022255560E+03  0.87022255561E+03  0.50400001928E-02 0.  1.
    10030    2    1    2    0    0  0.00000000000E+00  0.00000000000E+00  0.35101872639E+03  0.20914638376E+04  0.20617969924E+04 0.  0.
        1    1    3    3  502    0 -0.76700481071E+01  0.89434844621E+03 -0.34454053135E+03  0.95844986861E+03  0.50400001928E-02 0.  1.
       -1    1    3    3    0  502  0.76700481071E+01 -0.89434844621E+03  0.69555925774E+03  0.11330139690E+04  0.50400001928E-02 0. -1.
</event>
<event>
 5   0  0.1252124E-04  0.2263890E+04  0.7818609E-02  0.8492296E-01
        2   -1    0    0  501    0  0.00000000000E+00  0.00000000000E+00  0.25045322368E+04  0.25045322368E+04  0.25500000920E-02 0. -1.
       -2   -1    0    0    0  501  0.00000000000E+00  0.00000000000E+00 -0.51159237414E+03  0.51159237414E+03  0.25500000920E-02 0.  1.
    10030    2    1    2    0    0  0.00000000000E+00  0.00000000000E+00  0.19929398627E+04  0.30161246109E+04  0.22638900973E+04 0.  0.
        3    1    3    3  502    0  0.61664896878E+03  0.86753845074E+03  0.15097343195E+04  0.18472077955E+04  0.10100000352E+00 0. -1.
       -3    1    3    3    0  502 -0.61664896878E+03 -0.86753845074E+03  0.48320554318E+03  0.11689168154E+04  0.10100000352E+00 0.  1.
</event>
<event>
 5   0  0.5895063E-05  0.2205146E+04  0.7818609E-02  0.8516289E-01
        1   -1    0    0  501    0  0.00000000000E+00  0.00000000000E+00  0.76172932100E+03  0.76172932101E+03  0.50400001928E-02 0. -1.
       -1   -1    0    0    0  501  0.00000000000E+00  0.00000000000E+00 -0.15959301507E+04  0.15959301507E+04  0.50400001928E-02 0.  1.
    10030    2    1    2    0    0  0.00000000000E+00  0.00000000000E+00 -0.83420082967E+03  0.23576594717E+04  0.22051456098E+04 0.  0.
        5    1    3    3  502    0  0.83510896036E+03  0.45566694878E+02  0.35103284120E+03  0.90704434564E+03  0.46999998093E+01 0. -1.
       -5    1    3    3    0  502 -0.83510896036E+03 -0.45566694878E+02 -0.11852336709E+04  0.14506151261E+04  0.46999998093E+01 0.  1.
</event>
<event>
 5   0  0.1252124E-04  0.2223311E+04  0.7818609E-02  0.8508788E-01
       -2   -1    0    0    0  501  0.00000000000E+00  0.00000000000E+00  0.83867700368E+03  0.83867700369E+03  0.25500000920E-02 0.  1.
        2   -1    0    0  501    0  0.00000000000E+00  0.00000000000E+00 -0.14734845546E+04  0.14734845546E+04  0.25500000920E-02 0. -1.
    10030    2    1    2    0    0  0.00000000000E+00  0.00000000000E+00 -0.63480755087E+03  0.23121615582E+04  0.22233106946E+04 0.  0.
        3    1    3    3  502    0 -0.47754176788E+03 -0.72109680464E+02  0.72387512065E+03  0.87019603917E+03  0.10100000352E+00 0.  1.
       -3    1    3    3    0  502  0.47754176788E+03  0.72109680464E+02 -0.13586826715E+04  0.14419655191E+04  0.10100000352E+00 0. -1.
</event>
<event>
 5   0  0.1311472E-04  0.2218415E+04  0.7818609E-02  0.8510802E-01
        2   -1    0    0  501    0  0.00000000000E+00  0.00000000000E+00  0.15445910294E+04  0.15445910294E+04  0.25500000920E-02 0. -1.
       -2   -1    0    0    0  501  0.00000000000E+00  0.00000000000E+00 -0.79654810222E+03  0.79654810222E+03  0.25500000920E-02 0.  1.
    10030    2    1    2    0    0  0.00000000000E+00  0.00000000000E+00  0.74804292714E+03  0.23411391316E+04  0.22184147972E+04 0.  0.
        4    1    3    3  502    0  0.15041099599E+03 -0.70252092137E+03  0.12658644726E+04  0.14555320638E+04  0.12699999809E+01 0. -1.
       -4    1    3    3    0  502 -0.15041099599E+03  0.70252092137E+03 -0.51782154550E+03  0.88560706781E+03  0.12699999809E+01 0.  1.
</event>
<event>
 5   0  0.1241430E-04  0.2210741E+04  0.7818609E-02  0.8513971E-01
       -2   -1    0    0    0  501  0.00000000000E+00  0.00000000000E+00  0.59619224272E+03  0.59619224272E+03  0.25500000920E-02 0. -1.
        2   -1    0    0  501    0  0.00000000000E+00  0.00000000000E+00 -0.20494124701E+04  0.20494124701E+04  0.25500000920E-02 0.  1.
    10030    2    1    2    0    0  0.00000000000E+00  0.00000000000E+00 -0.14532202274E+04  0.26456047128E+04  0.22107408865E+04 0.  0.
        1    1    3    3  502    0 -0.64054584856E+03  0.69603772525E+03 -0.14110127315E+04  0.16987420133E+04  0.50400001928E-02 0.  1.
       -1    1    3    3    0  502  0.64054584856E+03 -0.69603772525E+03 -0.42207495863E+02  0.94686269956E+03  0.50400001928E-02 0. -1.
</event>
<event>
 5   0  0.1241430E-04  0.2239104E+04  0.7818609E-02  0.8502326E-01
        2   -1    0    0  501    0  0.00000000000E+00  0.00000000000E+00  0.14234245436E+04  0.14234245436E+04  0.25500000920E-02 0.  1.
       -2   -1    0    0    0  501  0.00000000000E+00  0.00000000000E+00 -0.88055004487E+03  0.88055004487E+03  0.25500000920E-02 0. -1.
    10030    2    1    2    0    0  0.00000000000E+00  0.00000000000E+00  0.54287449875E+03  0.23039745885E+04  0.22391038795E+04 0.  0.
        1    1    3    3  502    0  0.56576906675E+03  0.33458225322E+03  0.12039812329E+04  0.13717181672E+04  0.50400001928E-02 0.  1.
       -1    1    3    3    0  502 -0.56576906675E+03 -0.33458225322E+03 -0.66110673415E+03  0.93225642128E+03  0.50400001928E-02 0. -1.
</event>
<event>
 5   0  0.5849604E-05  0.2205847E+04  0.7818609E-02  0.8515998E-01
        1   -1    0    0  501    0  0.00000000000E+00  0.00000000000E+00  0.73022010915E+03  0.73022010917E+03  0.50400001928E-02 0.  1.
       -1   -1    0    0    0  501  0.00000000000E+00  0.00000000000E+00 -0.16658540185E+04  0.16658540185E+04  0.50400001928E-02 0. -1.
    10030    2    1    2    0    0  0.00000000000E+00  0.00000000000E+00 -0.93563390935E+03  0.23960741277E+04  0.22058468698E+04 0.  0.
        2    1    3    3  502    0  0.17457181272E+03 -0.26819172736E+03  0.67868523498E+03  0.75034376696E+03  0.25500000920E-02 0.  1.
       -2    1    3    3    0  502 -0.17457181272E+03  0.26819172736E+03 -0.16143191443E+04  0.16457303607E+04  0.25500000920E-02 0. -1.
</event>
<event>
 5   0  0.5981239E-05  0.2158626E+04  0.7818609E-02  0.8535849E-01
        1   -1    0    0  501    0  0.00000000000E+00  0.00000000000E+00  0.88052553264E+03  0.88052553266E+03  0.50400001928E-02 0.  1.
       -1   -1    0    0    0  501  0.00000000000E+00  0.00000000000E+00 -0.13229792891E+04  0.13229792891E+04  0.50400001928E-02 0. -1.
    10030    2    1    2    0    0  0.00000000000E+00  0.00000000000E+00 -0.44245375642E+03  0.22035048217E+04  0.21586264551E+04 0.  0.
        4    1    3    3  502    0 -0.10567517120E+04  0.21740537038E+03 -0.19016138659E+03  0.10955146013E+04  0.12699999809E+01 0. -1.
       -4    1    3    3    0  502  0.10567517120E+04 -0.21740537038E+03 -0.25229236983E+03  0.11079902204E+04  0.12699999809E+01 0.  1.
</event>
<event>
 5   0  0.1404159E-04  0.2189145E+04  0.7818609E-02  0.8522960E-01
       -2   -1    0    0    0  501  0.00000000000E+00  0.00000000000E+00  0.21464343887E+04  0.21464343887E+04  0.25500000920E-02 0.  1.
        2   -1    0    0  501    0  0.00000000000E+00  0.00000000000E+00 -0.55817616449E+03  0.55817616450E+03  0.25500000920E-02 0. -1.
    10030    2    1    2    0    0  0.00000000000E+00  0.00000000000E+00  0.15882582242E+04  0.27046105532E+04  0.21891445950E+04 0.  0.
        5    1    3    3  502    0  0.91335390435E+03  0.60247520184E+03  0.83066840172E+03  0.13737626458E+04  0.46999998093E+01 0. -1.
       -5    1    3    3    0  502 -0.91335390435E+03 -0.60247520184E+03  0.75758982245E+03  0.13308479073E+04  0.46999998093E+01 0.  1.
</event>
<event>
 5   0  0.5861816E-05  0.2206476E+04  0.7818609E-02  0.8515738E-01
        1   -1    0    0  501    0  0.00000000000E+00  0.00000000000E+00  0.12316103909E+04  0.12316103909E+04  0.50400001928E-02 0.  1.
       -1   -1    0    0    0  501  0.00000000000E+00  0.00000000000E+00 -0.98824566063E+03  0.98824566064E+03  0.50400001928E-02 0. -1.
    10030    2    1    2    0    0  0.00000000000E+00  0.00000000000E+00  0.24336473029E+03  0.22198560516E+04  0.22064755829E+04 0.  0.
        1    1    3    3  502    0  0.14570303072E+03  0.70032045278E+03 -0.72332501829E+03  0.10172891388E+04  0.50400001928E-02 0. -1.
       -1    1    3    3    0  502 -0.14570303072E+03 -0.70032045278E+03  0.96668974858E+03  0.12025669128E+04  0.50400001928E-02 0.  1.
</event>
<event>
 5   0  0.5981239E-05  0.2206289E+04  0.7818609E-02  0.8515815E-01
       -1   -1    0    0    0  501  0.00000000000E+00  0.00000000000E+00  0.59629910022E+03  0.59629910024E+03  0.50400001928E-02 0. -1.
        1   -1    0    0  501    0  0.00000000000E+00  0.00000000000E+00 -0.20408007824E+04  0.20408007825E+04  0.50400001928E-02 0.  1.
    10030    2    1    2    0    0  0.00000000000E+00  0.00000000000E+00 -0.14445016822E+04  0.26370998827E+04  0.22062888934E+04 0.  0.
        4    1    3    3  502    0  0.65294714220E+03 -0.30784780040E+03  0.27478632952E+03  0.77241140496E+03  0.12699999809E+01 0. -1.
       -4    1    3    3    0  502 -0.65294714220E+03  0.30784780040E+03 -0.17192880117E+04  0.18646884777E+04  0.12699999809E+01 0.  1.
</event>
<event>
 5   0  0.5895063E-05  0.2271017E+04  0.7818609E-02  0.8489437E-01
        1   -1    0    0  501    0  0.00000000000E+00  0.00000000000E+00  0.20574629428E+04  0.20574629428E+04  0.50400001928E-02 0. -1.
       -1   -1    0    0    0  501  0.00000000000E+00  0.00000000000E+00 -0.62668409496E+03  0.62668409498E+03  0.50400001928E-02 0.  1.
    10030    2    1    2    0    0  0.00000000000E+00  0.00000000000E+00  0.14307788478E+04  0.26841470378E+04  0.22710167787E+04 0.  0.
        5    1    3    3  502    0  0.10374526269E+04 -0.71240464498E+02  0.17638722109E+03  0.10547595454E+04  0.46999998093E+01 0.  1.
       -5    1    3    3    0  502 -0.10374526269E+04  0.71240464498E+02  0.12543916267E+04  0.16293874923E+04  0.46999998093E+01 0. -1.
</event>
<event>
 5   0  0.1311472E-04  0.2211135E+04  0.7818609E-02  0.8513808E-01
        2   -1    0    0  501    0  0.00000000000E+00  0.00000000000E+00  0.80708281124E+03  0.80708281124E+03  0.25500000920E-02 0.  1.
       -2   -1    0    0    0  501  0.00000000000E+00  0.00000000000E+00 -0.15144413612E+04  0.15144413612E+04  0.25500000920E-02 0. -1.
    10030    2    1    2    0    0  0.00000000000E+00  0.00000000000E+00 -0.70735854998E+03  0.23215241725E+04  0.22111350852E+04 0.  0.
        4    1    3    3  502    0  0.46379252295E+03  0.60399387029E+02  0.69809448741E+03  0.84029109037E+03  0.12699999809E+01 0.  1.
       -4    1    3    3    0  502 -0.46379252295E+03 -0.60399387029E+02 -0.14054530374E+04  0.14812330821E+04  0.12699999809E+01 0. -1.
</event>
<event>
 5   0  0.5861816E-05  0.1452024E+04  0.7818609E-02  0.8916999E-01
       -1   -1    0    0    0  501  0.00000000000E+00  0.00000000000E+00  0.42101424370E+03  0.42101424374E+03  0.50400001928E-02 0. -1.
        1   -1    0    0  501    0  0.00000000000E+00  0.00000000000E+00 -0.12519607505E+04  0.12519607506E+04  0.50400001928E-02 0.  1.
    10030    2    1    2    0    0  0.00000000000E+00  0.00000000000E+00 -0.83094650684E+03  0.16729749943E+04  0.14520238408E+04 0.  0.
        1    1    3    3  502    0 -0.23778919987E+03  0.35315961369E+03 -0.10930300584E+04  0.11730217921E+04  0.50400001928E-02 0.  1.
       -1    1    3    3    0  502  0.23778919987E+03 -0.35315961369E+03  0.26208355154E+03  0.49995320214E+03  0.50400001928E-02 0. -1.
</event>
<event>
 5   0  0.1226021E-04  0.2207907E+04  0.7818609E-02  0.8515144E-01
       -2   -1    0    0    0  501  0.00000000000E+00  0.00000000000E+00  0.10471532169E+04  0.10471532169E+04  0.25500000920E-02 0.  1.
        2   -1    0    0  501    0  0.00000000000E+00  0.00000000000E+00 -0.11638346367E+04  0.11638346367E+04  0.25500000920E-02 0. -1.
    10030    2    1    2    0    0  0.00000000000E+00  0.00000000000E+00 -0.11668141980E+03  0.22109878537E+04  0.22079068675E+04 0.  0.
        2    1    3    3  502    0  0.11744542842E+03  0.25988063242E+03  0.10096285346E+04  0.10491335233E+04  0.25500000920E-02 0.  1.
       -2    1    3    3    0  502 -0.11744542842E+03 -0.25988063242E+03 -0.11263099544E+04  0.11618543304E+04  0.25500000920E-02 0. -1.
</event>
<event>
 5   0  0.1404159E-04  0.2214862E+04  0.7818609E-02  0.8512268E-01
       -2   -1    0    0    0  501  0.00000000000E+00  0.00000000000E+00  0.10028160689E+04  0.10028160689E+04  0.25500000920E-02 0. -1.
        2   -1    0    0  501    0  0.00000000000E+00  0.00000000000E+00 -0.12229593812E+04  0.12229593812E+04  0.25500000920E-02 0.  1.
    10030    2    1    2    0    0  0.00000000000E+00  0.00000000000E+00 -0.22014331223E+03  0.22257754501E+04  0.22148619091E+04 0.  0.
        5    1    3    3  502    0  0.91222194587E+03  0.62780100899E+03 -0.10011102249E+03  0.11119025552E+04  0.46999998093E+01 0. -1.
       -5    1    3    3    0  502 -0.91222194587E+03 -0.62780100899E+03 -0.12003228974E+03  0.11138728949E+04  0.46999998093E+01 0.  1.
</event>
<event>
 5   0  0.6263558E-05  0.2198743E+04  0.7818609E-02  0.8518951E-01
        1   -1    0    0  501    0  0.00000000000E+00  0.00000000000E+00  0.21082419183E+04  0.21082419183E+04  0.50400001928E-02 0. -1.
       -1   -1    0    0    0  501  0.00000000000E+00  0.00000000000E+00 -0.57328250284E+03  0.57328250286E+03  0.50400001928E-02 0.  1.
    10030    2    1    2    0    0  0.00000000000E+00  0.00000000000E+00  0.15349594155E+04  0.26815244212E+04  0.21987434626E+04 0.  0.
        3    1    3    3  502    0 -0.49194435277E+03 -0.14403357436E+03  0.19535799031E+04  0.20197102180E+04  0.10100000352E+00 0. -1.
       -3    1    3    3    0  502  0.49194435277E+03  0.14403357436E+03 -0.41862048757E+03  0.66181420322E+03  0.10100000352E+00 0.  1.
</event>
<event>
 5   0  0.5895063E-05  0.2176105E+04  0.7818609E-02  0.8528440E-01
        1   -1    0    0  501    0  0.00000000000E+00  0.00000000000E+00  0.10751285890E+04  0.10751285890E+04  0.50400001928E-02 0. -1.
       -1   -1    0    0    0  501  0.00000000000E+00  0.00000000000E+00 -0.11011322364E+04  0.11011322365E+04  0.50400001928E-02 0.  1.
    10030    2    1    2    0    0  0.00000000000E+00  0.00000000000E+00 -0.26003647474E+02  0.21762608254E+04  0.21761054640E+04 0.  0.
        5    1    3    3  502    0  0.21201203491E+03  0.51469892569E+03  0.92192992151E+03  0.10769591251E+04  0.46999998093E+01 0. -1.
       -5    1    3    3    0  502 -0.21201203491E+03 -0.51469892569E+03 -0.94793356899E+03  0.10993017003E+04  0.46999998093E+01 0.  1.
</event>
<event>
 5   0  0.1226021E-04  0.2155730E+04  0.7818609E-02  0.8537083E-01
        2   -1    0    0  501    0  0.00000000000E+00  0.00000000000E+00  0.14485569620E+04  0.14485569620E+04  0.25500000920E-02 0.  1.
       -2   -1    0    0    0  501  0.00000000000E+00  0.00000000000E+00 -0.80203479512E+03  0.80203479513E+03  0.25500000920E-02 0. -1.
    10030    2    1    2    0    0  0.00000000000E+00  0.00000000000E+00  0.64652216685E+03  0.22505917571E+04  0.21557301188E+04 0.  0.
        2    1    3    3  502    0  0.43060882139E+03 -0.98374400304E+03  0.22634920861E+03  0.10974562337E+04  0.25500000920E-02 0. -1.
       -2    1    3    3    0  502 -0.43060882139E+03  0.98374400304E+03  0.42017295825E+03  0.11531355234E+04  0.25500000920E-02 0.  1.
</event>
<event>
 5   0  0.5981239E-05  0.2205243E+04  0.7818609E-02  0.8516249E-01
        1   -1    0    0  501    0  0.00000000000E+00  0.00000000000E+00  0.10699666837E+04  0.10699666837E+04  0.50400001928E-02 0.  1.
       -1   -1    0    0    0  501  0.00000000000E+00  0.00000000000E+00 -0.11362732422E+04  0.11362732422E+04  0.50400001928E-02 0. -1.
    10030    2    1    2    0    0  0.00000000000E+00  0.00000000000E+00 -0.66306558445E+02  0.22062399259E+04  0.22052433088E+04 0.  0.
        4    1    3    3  502    0 -0.68876554748E+03 -0.33531184371E+03 -0.82656962123E+03  0.11269653782E+04  0.12699999809E+01 0. -1.
       -4    1    3    3    0  502  0.68876554748E+03  0.33531184371E+03  0.76026306279E+03  0.10792745478E+04  0.12699999809E+01 0.  1.
</event>
<event>
 5   0  0.1252124E-04  0.2230512E+04  0.7818609E-02  0.8505835E-01
        2   -1    0    0  501    0  0.00000000000E+00  0.00000000000E+00  0.10418006564E+04  0.10418006564E+04  0.25500000920E-02 0. -1.
       -2   -1    0    0    0  501  0.00000000000E+00  0.00000000000E+00 -0.11938902130E+04  0.11938902130E+04  0.25500000920E-02 0.  1.
    10030    2    1    2    0    0  0.00000000000E+00  0.00000000000E+00 -0.15208955658E+03  0.22356908694E+04  0.22305116970E+04 0.  0.
        3    1    3    3  502    0 -0.92622993896E+03 -0.41890794953E+02 -0.69727327466E+03  0.11601063608E+04  0.10100000352E+00 0.  1.
       -3    1    3    3    0  502  0.92622993896E+03  0.41890794953E+02  0.54518371808E+03  0.10755845086E+04  0.10100000352E+00 0. -1.
</event>
<event>
 5   0  0.1404159E-04  0.2210889E+04  0.7818609E-02  0.8513909E-01
       -2   -1    0    0    0  501  0.00000000000E+00  0.00000000000E+00  0.87236173133E+03  0.87236173133E+03  0.25500000920E-02 0. -1.
        2   -1    0    0  501    0  0.00000000000E+00  0.00000000000E+00 -0.14008037661E+04  0.14008037661E+04  0.25500000920E-02 0.  1.
    10030    2    1    2    0    0  0.00000000000E+00  0.00000000000E+00 -0.52844203476E+03  0.22731654974E+04  0.22108890507E+04 0.  0.
        5    1    3    3  502    0  0.66778586859E+03 -0.26164554245E+03  0.60065666379E+03  0.93552491893E+03  0.46999998093E+01 0. -1.
       -5    1    3    3    0  502 -0.66778586859E+03  0.26164554245E+03 -0.11290986986E+04  0.13376405785E+04  0.46999998093E+01 0.  1.
</event>
<event>
 5   0  0.1311472E-04  0.2217297E+04  0.7818609E-02  0.8511263E-01
       -2   -1    0    0    0  501  0.00000000000E+00  0.00000000000E+00  0.12043266218E+04  0.12043266218E+04  0.25500000920E-02 0. -1.
        2   -1    0    0  501    0  0.00000000000E+00  0.00000000000E+00 -0.10205719402E+04  0.10205719402E+04  0.25500000920E-02 0.  1.
    10030    2    1    2    0    0  0.00000000000E+00  0.00000000000E+00  0.18375468160E+03  0.22248985619E+04  0.22172974153E+04 0.  0.
        4    1    3    3  502    0 -0.72109037067E+03 -0.10833407668E+03 -0.74608592068E+03  0.10432417787E+04  0.12699999809E+01 0.  1.
       -4    1    3    3    0  502  0.72109037067E+03  0.10833407668E+03  0.92984060229E+03  0.11816567832E+04  0.12699999809E+01 0. -1.
</event>
<event>
 5   0  0.5981239E-05  0.2201598E+04  0.7818609E-02  0.8517763E-01
        1   -1    0    0  501    0  0.00000000000E+00  0.00000000000E+00  0.18130431031E+04  0.18130431031E+04  0.50400001928E-02 0.  1.
       -1   -1    0    0    0  501  0.00000000000E+00  0.00000000000E+00 -0.66835636984E+03  0.66835636986E+03  0.50400001928E-02 0. -1.
    10030    2    1    2    0    0  0.00000000000E+00  0.00000000000E+00  0.11446867332E+04  0.24813994729E+04  0.22015984255E+04 0.  0.
        4    1    3    3  502    0  0.69003910016E+02  0.98854026629E+03  0.32064009784E+02  0.99146513368E+03  0.12699999809E+01 0.  1.
       -4    1    3    3    0  502 -0.69003910016E+02 -0.98854026629E+03  0.11126227234E+04  0.14899343393E+04  0.12699999809E+01 0. -1.
</event>
<event>
 5   0  0.1241430E-04  0.2186364E+04  0.7818609E-02  0.8524125E-01
       -2   -1    0    0    0  501  0.00000000000E+00  0.00000000000E+00  0.51236693300E+03  0.51236693301E+03  0.25500000920E-02 0.  1.
        2   -1    0    0  501    0  0.00000000000E+00  0.00000000000E+00 -0.23324033541E+04  0.23324033541E+04  0.25500000920E-02 0. -1.
    10030    2    1    2    0    0  0.00000000000E+00  0.00000000000E+00 -0.18200364211E+04  0.28447702871E+04  0.21863635133E+04 0.  0.
        1    1    3    3  502    0 -0.10176893255E+04  0.14318680780E+03 -0.42517489261E+03  0.11121905028E+04  0.50400001928E-02 0.  1.
       -1    1    3    3    0  502  0.10176893255E+04 -0.14318680780E+03 -0.13948615285E+04  0.17325797843E+04  0.50400001928E-02 0. -1.
</event>
<event>
 5   0  0.5981239E-05  0.2104152E+04  0.7818609E-02  0.8559417E-01
        1   -1    0    0  501    0  0.00000000000E+00  0.00000000000E+00  0.76170426266E+03  0.76170426268E+03  0.50400001928E-02 0. -1.
       -1   -1    0    0    0  501  0.00000000000E+00  0.00000000000E+00 -0.14531412853E+04  0.14531412853E+04  0.50400001928E-02 0.  1.
    10030    2    1    2    0    0  0.00000000000E+00  0.00000000000E+00 -0.69143702266E+03  0.22148455480E+04  0.21041520015E+04 0.  0.
        4    1    3    3  502    0  0.53763647522E+03  0.86865622340E+03 -0.81001540099E+02  0.10247826483E+04  0.12699999809E+01 0. -1.
       -4    1    3    3    0  502 -0.53763647522E+03 -0.86865622340E+03 -0.61043548256E+03  0.11900628997E+04  0.12699999809E+01 0.  1.
</event>
<event>
 5   0  0.1311472E-04  0.2288883E+04  0.7818609E-02  0.8482317E-01
        2   -1    0    0  501    0  0.00000000000E+00  0.00000000000E+00  0.20883375226E+04  0.20883375226E+04  0.25500000920E-02 0. -1.
       -2   -1    0    0    0  501  0.00000000000E+00  0.00000000000E+00 -0.62717188757E+03  0.62717188758E+03  0.25500000920E-02 0.  1.
    10030    2    1    2    0    0  0.00000000000E+00  0.00000000000E+00  0.14611656351E+04  0.27155094102E+04  0.22888832089E+04 0.  0.
        4    1    3    3  502    0  0.46434880860E+03 -0.10457758422E+04  0.70464329473E+03  0.13437971253E+04  0.12699999809E+01 0.  1.
       -4    1    3    3    0  502 -0.46434880860E+03  0.10457758422E+04  0.75652234035E+03  0.13717122849E+04  0.12699999809E+01 0. -1.
</event>
<event>
 5   0  0.5861816E-05  0.2015282E+04  0.7818609E-02  0.8599509E-01
        1   -1    0    0  501    0  0.00000000000E+00  0.00000000000E+00  0.81495492344E+03  0.81495492346E+03  0.50400001928E-02 0.  1.
       -1   -1    0    0    0  501  0.00000000000E+00  0.00000000000E+00 -0.12458851655E+04  0.12458851655E+04  0.50400001928E-02 0. -1.
    10030    2    1    2    0    0  0.00000000000E+00  0.00000000000E+00 -0.43093024201E+03  0.20608400889E+04  0.20152818658E+04 0.  0.
        1    1    3    3  502    0  0.67403158600E+03  0.11719165676E+03 -0.97197808564E+03  0.11886100548E+04  0.50400001928E-02 0. -1.
       -1    1    3    3    0  502 -0.67403158600E+03 -0.11719165676E+03  0.54104784363E+03  0.87223003414E+03  0.50400001928E-02 0.  1.
</event>
<event>
 5   0  0.1404159E-04  0.2210630E+04  0.7818609E-02  0.8514017E-01
       -2   -1    0    0    0  501  0.00000000000E+00  0.00000000000E+00  0.51111167723E+03  0.51111167724E+03  0.25500000920E-02 0.  1.
        2   -1    0    0  501    0  0.00000000000E+00  0.00000000000E+00 -0.23903206869E+04  0.23903206869E+04  0.25500000920E-02 0. -1.
    10030    2    1    2    0    0  0.00000000000E+00  0.00000000000E+00 -0.18792090096E+04  0.29014323641E+04  0.22106296075E+04 0.  0.
        5    1    3    3  502    0  0.47767646937E+03  0.89462973709E+03 -0.36276259102E+03  0.10771053631E+04  0.46999998093E+01 0.  1.
       -5    1    3    3    0  502 -0.47767646937E+03 -0.89462973709E+03 -0.15164464186E+04  0.18243270009E+04  0.46999998093E+01 0. -1.
</event>
<event>
 5   0  0.1404159E-04  0.2072177E+04  0.7818609E-02  0.8573600E-01
        2   -1    0    0  501    0  0.00000000000E+00  0.00000000000E+00  0.97540456045E+03  0.97540456045E+03  0.25500000920E-02 0. -1.
       -2   -1    0    0    0  501  0.00000000000E+00  0.00000000000E+00 -0.11005475419E+04  0.11005475419E+04  0.25500000920E-02 0.  1.
    10030    2    1    2    0    0  0.00000000000E+00  0.00000000000E+00 -0.12514298144E+03  0.20759521023E+04  0.20721767216E+04 0.  0.
        5    1    3    3  502    0 -0.18403966990E+03  0.98675113587E+03  0.19462294711E+03  0.10224718019E+04  0.46999998093E+01 0.  1.
       -5    1    3    3    0  502  0.18403966990E+03 -0.98675113587E+03 -0.31976592855E+03  0.10534803004E+04  0.46999998093E+01 0. -1.
</event>
<event>
 5   0  0.1226021E-04  0.2198648E+04  0.7818609E-02  0.8518991E-01
       -2   -1    0    0    0  501  0.00000000000E+00  0.00000000000E+00  0.88750639959E+03  0.88750639960E+03  0.25500000920E-02 0.  1.
        2   -1    0    0  501    0  0.00000000000E+00  0.00000000000E+00 -0.13616958515E+04  0.13616958515E+04  0.25500000920E-02 0. -1.
    10030    2    1    2    0    0  0.00000000000E+00  0.00000000000E+00 -0.47418945187E+03  0.22492022511E+04  0.21986484780E+04 0.  0.
        2    1    3    3  502    0  0.65806684326E+03 -0.30401240488E+03 -0.10825589376E+04  0.13028466394E+04  0.25500000920E-02 0. -1.
       -2    1    3    3    0  502 -0.65806684326E+03  0.30401240488E+03  0.60836948572E+03  0.94635561163E+03  0.25500000920E-02 0.  1.
</event>
<event>
 5   0  0.1226021E-04  0.2295354E+04  0.7818609E-02  0.8479755E-01
       -2   -1    0    0    0  501  0.00000000000E+00  0.00000000000E+00  0.96280234474E+03  0.96280234474E+03  0.25500000920E-02 0. -1.
        2   -1    0    0  501    0  0.00000000000E+00  0.00000000000E+00 -0.13680509570E+04  0.13680509570E+04  0.25500000920E-02 0.  1.
    10030    2    1    2    0    0  0.00000000000E+00  0.00000000000E+00 -0.40524861226E+03  0.23308533017E+04  0.22953541506E+04 0.  0.
        2    1    3    3  502    0 -0.18462680658E+03 -0.53075305477E+03  0.81354015632E+03  0.98875348233E+03  0.25500000920E-02 0. -1.
       -2    1    3    3    0  502  0.18462680658E+03  0.53075305477E+03 -0.12187887686E+04  0.13420998194E+04  0.25500000920E-02 0.  1.
</event>
<event>
 5   0  0.1241430E-04  0.2203688E+04  0.7818609E-02  0.8516895E-01
       -2   -1    0    0    0  501  0.00000000000E+00  0.00000000000E+00  0.63191478268E+03  0.63191478269E+03  0.25500000920E-02 0.  1.
        2   -1    0    0  501    0  0.00000000000E+00  0.00000000000E+00 -0.19212406959E+04  0.19212406959E+04  0.25500000920E-02 0. -1.
    10030    2    1    2    0    0  0.00000000000E+00  0.00000000000E+00 -0.12893259132E+04  0.25531554786E+04  0.22036881783E+04 0.  0.
        1    1    3    3  502    0  0.46561704626E+03  0.80302913871E+03  0.43115196814E+02  0.92925451390E+03  0.50400001928E-02 0.  1.
       -1    1    3    3    0  502 -0.46561704626E+03 -0.80302913871E+03 -0.13324411100E+04  0.16239009647E+04  0.50400001928E-02 0. -1.
</event>
<event>
 5   0  0.6263558E-05  0.2192486E+04  0.7818609E-02  0.8521562E-01
       -1   -1    0    0    0  501  0.00000000000E+00  0.00000000000E+00  0.13217630999E+04  0.13217631000E+04  0.50400001928E-02 0. -1.
        1   -1    0    0  501    0  0.00000000000E+00  0.00000000000E+00 -0.90920102800E+03  0.90920102801E+03  0.50400001928E-02 0.  1.
    10030    2    1    2    0    0  0.00000000000E+00  0.00000000000E+00  0.41256207195E+03  0.22309641280E+04  0.21924856846E+04 0.  0.
        3    1    3    3  502    0  0.79242539038E+03  0.75699691096E+03  0.17811792885E+03  0.11102739884E+04  0.10100000352E+00 0.  1.
       -3    1    3    3    0  502 -0.79242539038E+03 -0.75699691096E+03  0.23444414310E+03  0.11206901396E+04  0.10100000352E+00 0. -1.
</event>
<event>
 5   0  0.6263558E-05  0.1975411E+04  0.7818609E-02  0.8618204E-01
        1   -1    0    0  501    0  0.00000000000E+00  0.00000000000E+00  0.57684368437E+03  0.57684368439E+03  0.50400001928E-02 0. -1.
       -1   -1    0    0    0  501  0.00000000000E+00  0.00000000000E+00 -0.16912075887E+04  0.16912075887E+04  0.50400001928E-02 0.  1.
    10030    2    1    2    0    0  0.00000000000E+00  0.00000000000E+00 -0.11143639043E+04  0.22680512731E+04  0.19754112651E+04 0.  0.
        3    1    3    3  502    0  0.65961050802E+03 -0.41466684706E+02 -0.13999183744E+04  0.15480881672E+04  0.10100000352E+00 0.  1.
       -3    1    3    3    0  502 -0.65961050802E+03  0.41466684706E+02  0.28555447009E+03  0.71996310588E+03  0.10100000352E+00 0. -1.
</event>
<event>
 5   0  0.4586375E-05  0.2211818E+04  0.7818609E-02  0.8513525E-01
        3   -1    0    0  501    0  0.00000000000E+00  0.00000000000E+00  0.95473733572E+03  0.95473734107E+03  0.10100000352E+00 0.  1.
       -3   -1    0    0    0  501  0.00000000000E+00  0.00000000000E+00 -0.12810169977E+04  0.12810170017E+04  0.10100000352E+00 0. -1.
    10030    2    1    2    0    0  0.00000000000E+00  0.00000000000E+00 -0.32627966201E+03  0.22357543428E+04  0.22118180448E+04 0.  0.
        5    1    3    3  502    0  0.77051906924E-01  0.74873396663E+03 -0.98583351773E+03  0.12379387600E+04  0.46999998093E+01 0. -1.
       -5    1    3    3    0  502 -0.77051906924E-01 -0.74873396663E+03  0.65955385572E+03  0.99781558282E+03  0.46999998093E+01 0.  1.
</event>
<event>
 5   0  0.1252124E-04  0.2190831E+04  0.7818609E-02  0.8522254E-01
       -2   -1    0    0    0  501  0.00000000000E+00  0.00000000000E+00  0.70754358149E+03  0.70754358150E+03  0.25500000920E-02 0. -1.
        2   -1    0    0  501    0  0.00000000000E+00  0.00000000000E+00 -0.16959171420E+04  0.16959171420E+04  0.25500000920E-02 0.  1.
    10030    2    1    2    0    0  0.00000000000E+00  0.00000000000E+00 -0.98837356054E+03  0.24034607235E+04  0.21908311561E+04 0.  0.
        3    1    3    3  502    0  0.45750688843E+03  0.34778013967E+03  0.52888425649E+03  0.78101353732E+03  0.10100000352E+00 0. -1.
       -3    1    3    3    0  502 -0.45750688843E+03 -0.34778013967E+03 -0.15172578170E+04  0.16224471862E+04  0.10100000352E+00 0.  1.
</event>
<event>
 5   0  0.5861816E-05  0.2206688E+04  0.7818609E-02  0.8515650E-01
        1   -1    0    0  501    0  0.00000000000E+00  0.00000000000E+00  0.61808233529E+03  0.61808233531E+03  0.50400001928E-02 0.  1.
       -1   -1    0    0    0  501  0.00000000000E+00  0.00000000000E+00 -0.19695882984E+04  0.19695882984E+04  0.50400001928E-02 0. -1.
    10030    2    1    2    0    0  0.00000000000E+00  0.00000000000E+00 -0.13515059631E+04  0.25876706337E+04  0.22066877759E+04 0.  0.
        1    1    3    3  502    0 -0.11551481029E+03  0.62566555431E+03 -0.17328080484E+04  0.18459211224E+04  0.50400001928E-02 0. -1.
       -1    1    3    3    0  502  0.11551481029E+03 -0.62566555431E+03  0.38130208535E+03  0.74174951134E+03  0.50400001928E-02 0.  1.
</event>
<event>
 5   0  0.1226021E-04  0.2209020E+04  0.7818609E-02  0.8514683E-01
       -2   -1    0    0    0  501  0.00000000000E+00  0.00000000000E+00  0.60440552531E+03  0.60440552531E+03  0.25500000920E-02 0.  1.
        2   -1    0    0  501    0  0.00000000000E+00  0.00000000000E+00 -0.20184164313E+04  0.20184164314E+04  0.25500000920E-02 0. -1.
    10030    2    1    2    0    0  0.00000000000E+00  0.00000000000E+00 -0.14140109060E+04  0.26228219567E+04  0.22090197315E+04 0.  0.
        2    1    3    3  502    0  0.10256428139E+04 -0.21664982378E+03 -0.11201220353E+04  0.15341296235E+04  0.25500000920E-02 0.  1.
       -2    1    3    3    0  502 -0.10256428139E+04  0.21664982378E+03 -0.29388887073E+03  0.10886923331E+04  0.25500000920E-02 0. -1.
</event>
<event>
 5   0  0.5981239E-05  0.2195095E+04  0.7818609E-02  0.8520472E-01
        1   -1    0    0  501    0  0.00000000000E+00  0.00000000000E+00  0.18149578308E+04  0.18149578308E+04  0.50400001928E-02 0.  1.
       -1   -1    0    0    0  501  0.00000000000E+00  0.00000000000E+00 -0.66371287552E+03  0.66371287554E+03  0.50400001928E-02 0. -1.
    10030    2    1    2    0    0  0.00000000000E+00  0.00000000000E+00  0.11512449553E+04  0.24786707064E+04  0.21950953336E+04 0.  0.
        4    1    3    3  502    0 -0.81011595998E+03 -0.51383106793E+03  0.11777010053E+04  0.15189771248E+04  0.12699999809E+01 0. -1.
       -4    1    3    3    0  502  0.81011595998E+03  0.51383106793E+03 -0.26456049982E+02  0.95969358155E+03  0.12699999809E+01 0.  1.
</event>
<event>
 5   0  0.5861816E-05  0.2217418E+04  0.7818609E-02  0.8511213E-01
        1   -1    0    0  501    0  0.00000000000E+00  0.00000000000E+00  0.23203377629E+04  0.23203377629E+04  0.50400001928E-02 0.  1.
       -1   -1    0    0    0  501  0.00000000000E+00  0.00000000000E+00 -0.52976582452E+03  0.52976582455E+03  0.50400001928E-02 0. -1.
    10030    2    1    2    0    0  0.00000000000E+00  0.00000000000E+00  0.17905719384E+04  0.28501035875E+04  0.22174180014E+04 0.  0.
        1    1    3    3  502    0 -0.39898388120E+03 -0.40872481026E+03  0.21166775350E+04  0.21923886278E+04  0.50400001928E-02 0.  1.
       -1    1    3    3    0  502  0.39898388120E+03  0.40872481026E+03 -0.32610559664E+03  0.65771495967E+03  0.50400001928E-02 0. -1.
</event>
<event>
 5   0  0.5849604E-05  0.2326196E+04  0.7818609E-02  0.8467663E-01
       -1   -1    0    0    0  501  0.00000000000E+00  0.00000000000E+00  0.82401433827E+03  0.82401433829E+03  0.50400001928E-02 0. -1.
        1   -1    0    0  501    0  0.00000000000E+00  0.00000000000E+00 -0.16417152555E+04  0.16417152555E+04  0.50400001928E-02 0.  1.
    10030    2    1    2    0    0  0.00000000000E+00  0.00000000000E+00 -0.81770091721E+03  0.24657295938E+04  0.23261959590E+04 0.  0.
        2    1    3    3  502    0 -0.57014210417E+03  0.73632511596E+03  0.32976892046E+03  0.98791914459E+03  0.25500000920E-02 0. -1.
       -2    1    3    3    0  502  0.57014210417E+03 -0.73632511596E+03 -0.11474698377E+04  0.14778104492E+04  0.25500000920E-02 0.  1.
</event>
<event>
 5   0  0.6263558E-05  0.2200119E+04  0.7818609E-02  0.8518378E-01
        1   -1    0    0  501    0  0.00000000000E+00  0.00000000000E+00  0.15959393929E+04  0.15959393929E+04  0.50400001928E-02 0.  1.
       -1   -1    0    0    0  501  0.00000000000E+00  0.00000000000E+00 -0.75825633285E+03  0.75825633286E+03  0.50400001928E-02 0. -1.
    10030    2    1    2    0    0  0.00000000000E+00  0.00000000000E+00  0.83768306008E+03  0.23541957258E+04  0.22001192255E+04 0.  0.
        3    1    3    3  502    0  0.72424446992E+03  0.25896477231E+02  0.13044047924E+04  0.14922039246E+04  0.10100000352E+00 0.  1.
       -3    1    3    3    0  502 -0.72424446992E+03 -0.25896477231E+02 -0.46672173235E+03  0.86199180124E+03  0.10100000352E+00 0. -1.
</event>
<event>
 5   0  0.1311472E-04  0.2268294E+04  0.7818609E-02  0.8490528E-01
        2   -1    0    0  501    0  0.00000000000E+00  0.00000000000E+00  0.11475186090E+04  0.11475186090E+04  0.25500000920E-02 0. -1.
       -2   -1    0    0    0  501  0.00000000000E+00  0.00000000000E+00 -0.11209314487E+04  0.11209314487E+04  0.25500000920E-02 0.  1.
    10030    2    1    2    0    0  0.00000000000E+00  0.00000000000E+00  0.26587160341E+02  0.22684500577E+04  0.22682942461E+04 0.  0.
        4    1    3    3  502    0  0.40738428181E+03  0.68575225916E+03  0.81961813076E+03  0.11436754816E+04  0.12699999809E+01 0. -1.
       -4    1    3    3    0  502 -0.40738428181E+03 -0.68575225916E+03 -0.79303097042E+03  0.11247745761E+04  0.12699999809E+01 0.  1.
</event>
<event>
 5   0  0.1311472E-04  0.2141681E+04  0.7818609E-02  0.8543102E-01
        2   -1    0    0  501    0  0.00000000000E+00  0.00000000000E+00  0.13754106873E+04  0.13754106873E+04  0.25500000920E-02 0.  1.
       -2   -1    0    0    0  501  0.00000000000E+00  0.00000000000E+00 -0.83371393871E+03  0.83371393871E+03  0.25500000920E-02 0. -1.
    10030    2    1    2    0    0  0.00000000000E+00  0.00000000000E+00  0.54169674860E+03  0.22091246260E+04  0.21416807059E+04 0.  0.
        4    1    3    3  502    0  0.42126307393E+02 -0.56064416729E+03  0.12109216397E+04  0.13350765290E+04  0.12699999809E+01 0.  1.
       -4    1    3    3    0  502 -0.42126307393E+02  0.56064416729E+03 -0.66922489107E+03  0.87404809697E+03  0.12699999809E+01 0. -1.
</event>
<event>
 5   0  0.5849604E-05  0.2120187E+04  0.7818609E-02  0.8552403E-01
        1   -1    0    0  501    0  0.00000000000E+00  0.00000000000E+00  0.16757173839E+04  0.16757173839E+04  0.50400001928E-02 0.  1.
       -1   -1    0    0    0  501  0.00000000000E+00  0.00000000000E+00 -0.67063679009E+03  0.67063679011E+03  0.50400001928E-02 0. -1.
    10030    2    1    2    0    0  0.00000000000E+00  0.00000000000E+00  0.10050805938E+04  0.23463541740E+04  0.21201865271E+04 0.  0.
        2    1    3    3  502    0  0.47673416776E+03  0.91468326832E+03  0.77334033048E+03  0.12891765646E+04  0.25500000920E-02 0.  1.
       -2    1    3    3    0  502 -0.47673416776E+03 -0.91468326832E+03  0.23174026328E+03  0.10571776093E+04  0.25500000920E-02 0. -1.
</event>
<event>
 5   0  0.1311472E-04  0.2191755E+04  0.7818609E-02  0.8521868E-01
        2   -1    0    0  501    0  0.00000000000E+00  0.00000000000E+00  0.77905171682E+03  0.77905171682E+03  0.25500000920E-02 0.  1.
       -2   -1    0    0    0  501  0.00000000000E+00  0.00000000000E+00 -0.15415499950E+04  0.15415499950E+04  0.25500000920E-02 0. -1.
    10030    2    1    2    0    0  0.00000000000E+00  0.00000000000E+00 -0.76249827815E+03  0.23206017118E+04  0.21917547036E+04 0.  0.
        4    1    3    3  502    0 -0.78226459169E+02 -0.47573031674E+03 -0.14232306385E+04  0.15026728774E+04  0.12699999809E+01 0. -1.
       -4    1    3    3    0  502  0.78226459169E+02  0.47573031674E+03  0.66073236037E+03  0.81792883439E+03  0.12699999809E+01 0.  1.
</event>
<event>
 5   0  0.1241430E-04  0.2199501E+04  0.7818609E-02  0.8518636E-01
       -2   -1    0    0    0  501  0.00000000000E+00  0.00000000000E+00  0.10139249827E+04  0.10139249827E+04  0.25500000920E-02 0. -1.
        2   -1    0    0  501    0  0.00000000000E+00  0.00000000000E+00 -0.11928404494E+04  0.11928404494E+04  0.25500000920E-02 0.  1.
    10030    2    1    2    0    0  0.00000000000E+00  0.00000000000E+00 -0.17891546666E+03  0.22067654321E+04  0.21995006088E+04 0.  0.
        1    1    3    3  502    0 -0.78494185783E+03 -0.60204728700E+03 -0.57151955831E+03  0.11424663065E+04  0.50400001928E-02 0.  1.
       -1    1    3    3    0  502  0.78494185783E+03  0.60204728700E+03  0.39260409166E+03  0.10642991256E+04  0.50400001928E-02 0. -1.
</event>
<event>
 5   0  0.1311472E-04  0.2226801E+04  0.7818609E-02  0.8507355E-01
       -2   -1    0    0    0  501  0.00000000000E+00  0.00000000000E+00  0.10476913570E+04  0.10476913570E+04  0.25500000920E-02 0. -1.
        2   -1    0    0  501    0  0.00000000000E+00  0.00000000000E+00 -0.11832308464E+04  0.11832308465E+04  0.25500000920E-02 0.  1.
    10030    2    1    2    0    0  0.00000000000E+00  0.00000000000E+00 -0.13553948941E+03  0.22309222035E+04  0.22268010519E+04 0.  0.
        4    1    3    3  502    0 -0.53971824961E+03  0.14776474432E+03  0.89657539387E+03  0.10568723946E+04  0.12699999809E+01 0. -1.
       -4    1    3    3    0  502  0.53971824961E+03 -0.14776474432E+03 -0.10321148833E+04  0.11740498089E+04  0.12699999809E+01 0.  1.
</event>
<event>
 5   0  0.6263558E-05  0.2299877E+04  0.7818609E-02  0.8477970E-01
       -1   -1    0    0    0  501  0.00000000000E+00  0.00000000000E+00  0.82968545546E+03  0.82968545548E+03  0.50400001928E-02 0. -1.
        1   -1    0    0  501    0  0.00000000000E+00  0.00000000000E+00 -0.15938073502E+04  0.15938073502E+04  0.50400001928E-02 0.  1.
    10030    2    1    2    0    0  0.00000000000E+00  0.00000000000E+00 -0.76412189477E+03  0.24234928057E+04  0.22998771944E+04 0.  0.
        3    1    3    3  502    0  0.93362459279E+03  0.35218007947E+03 -0.98433445571E+03  0.14016419013E+04  0.10100000352E+00 0.  1.
       -3    1    3    3    0  502 -0.93362459279E+03 -0.35218007947E+03  0.22021256094E+03  0.10218509044E+04  0.10100000352E+00 0. -1.
</event>
<event>
 5   0  0.1404159E-04  0.2296373E+04  0.7818609E-02  0.8479352E-01
       -2   -1    0    0    0  501  0.00000000000E+00  0.00000000000E+00  0.57690091215E+03  0.57690091215E+03  0.25500000920E-02 0. -1.
        2   -1    0    0  501    0  0.00000000000E+00  0.00000000000E+00 -0.22851974577E+04  0.22851974577E+04  0.25500000920E-02 0.  1.
    10030    2    1    2    0    0  0.00000000000E+00  0.00000000000E+00 -0.17082965456E+04  0.28620983699E+04  0.22963732256E+04 0.  0.
        5    1    3    3  502    0 -0.65608205786E+03  0.30910090090E+03  0.25526489379E+03  0.76887534073E+03  0.46999998093E+01 0. -1.
       -5    1    3    3    0  502  0.65608205786E+03 -0.30910090090E+03 -0.19635614394E+04  0.20932230291E+04  0.46999998093E+01 0.  1.
</event>
<event>
 5   0  0.5895063E-05  0.2191193E+04  0.7818609E-02  0.8522103E-01
       -1   -1    0    0    0  501  0.00000000000E+00  0.00000000000E+00  0.20400540545E+04  0.20400540545E+04  0.50400001928E-02 0.  1.
        1   -1    0    0  501    0  0.00000000000E+00  0.00000000000E+00 -0.58838233812E+03  0.58838233814E+03  0.50400001928E-02 0. -1.
    10030    2    1    2    0    0  0.00000000000E+00  0.00000000000E+00  0.14516717164E+04  0.26284363927E+04  0.21911930764E+04 0.  0.
        5    1    3    3  502    0 -0.91020050241E+03  0.12964558220E+03  0.14405847344E+04  0.17089702744E+04  0.46999998093E+01 0.  1.
       -5    1    3    3    0  502  0.91020050241E+03 -0.12964558220E+03  0.11086981980E+02  0.91946611832E+03  0.46999998093E+01 0. -1.
</event>
<event>
 5   0  0.6263558E-05  0.1881009E+04  0.7818609E-02  0.8664367E-01
        1   -1    0    0  501    0  0.00000000000E+00  0.00000000000E+00  0.12353590537E+04  0.12353590537E+04  0.50400001928E-02 0. -1.
       -1   -1    0    0    0  501  0.00000000000E+00  0.00000000000E+00 -0.71602582384E+03  0.71602582386E+03  0.50400001928E-02 0.  1.
    10030    2    1    2    0    0  0.00000000000E+00  0.00000000000E+00  0.51933322988E+03  0.19513848776E+04  0.18810092868E+04 0.  0.
        3    1    3    3  502    0 -0.15934472252E+03  0.26554052574E+03  0.11809498648E+04  0.12208788248E+04  0.10100000352E+00 0. -1.
       -3    1    3    3    0  502  0.15934472252E+03 -0.26554052574E+03 -0.66161663492E+03  0.73050605282E+03  0.10100000352E+00 0.  1.
</event>
<event>
 5   0  0.1252124E-04  0.2177377E+04  0.7818609E-02  0.8527904E-01
       -2   -1    0    0    0  501  0.00000000000E+00  0.00000000000E+00  0.12582156535E+04  0.12582156535E+04  0.25500000920E-02 0. -1.
        2   -1    0    0  501    0  0.00000000000E+00  0.00000000000E+00 -0.94200292901E+03  0.94200292902E+03  0.25500000920E-02 0.  1.
    10030    2    1    2    0    0  0.00000000000E+00  0.00000000000E+00  0.31621272446E+03  0.22002185825E+04  0.21773771661E+04 0.  0.
        3    1    3    3  502    0 -0.84712060990E+03 -0.22444364644E+03 -0.49462232588E+03  0.10062999223E+04  0.10100000352E+00 0.  1.
       -3    1    3    3    0  502  0.84712060990E+03  0.22444364644E+03  0.81083505034E+03  0.11939186602E+04  0.10100000352E+00 0. -1.
</event>
<event>
 5   0  0.5861816E-05  0.2271549E+04  0.7818609E-02  0.8489224E-01
       -1   -1    0    0    0  501  0.00000000000E+00  0.00000000000E+00  0.13410184331E+04  0.13410184331E+04  0.50400001928E-02 0.  1.
        1   -1    0    0  501    0  0.00000000000E+00  0.00000000000E+00 -0.96194363958E+03  0.96194363959E+03  0.50400001928E-02 0. -1.
    10030    2    1    2    0    0  0.00000000000E+00  0.00000000000E+00  0.37907479355E+03  0.23029620727E+04  0.22715493852E+04 0.  0.
        1    1    3    3  502    0 -0.68782275330E+03 -0.88682118760E+03  0.12676740854E+02  0.11223692167E+04  0.50400001928E-02 0. -1.
       -1    1    3    3    0  502  0.68782275330E+03  0.88682118760E+03  0.36639805270E+03  0.11805928561E+04  0.50400001928E-02 0.  1.
</event>
<event>
 5   0  0.5981239E-05  0.2106392E+04  0.7818609E-02  0.8558433E-01
       -1   -1    0    0    0  501  0.00000000000E+00  0.00000000000E+00  0.10103814144E+04  0.10103814144E+04  0.50400001928E-02 0. -1.
        1   -1    0    0  501    0  0.00000000000E+00  0.00000000000E+00 -0.10978243731E+04  0.10978243732E+04  0.50400001928E-02 0.  1.
    10030    2    1    2    0    0  0.00000000000E+00  0.00000000000E+00 -0.87442958783E+02  0.21082057875E+04  0.21063915523E+04 0.  0.
        4    1    3    3  502    0  0.57913022574E+03  0.40769858728E+03  0.73644317823E+03  0.10217436685E+04  0.12699999809E+01 0. -1.
       -4    1    3    3    0  502 -0.57913022574E+03 -0.40769858728E+03 -0.82388613701E+03  0.10864621190E+04  0.12699999809E+01 0.  1.
</event>
<event>
 5   0  0.5895063E-05  0.2199725E+04  0.7818609E-02  0.8518542E-01
       -1   -1    0    0    0  501  0.00000000000E+00  0.00000000000E+00  0.13579294258E+04  0.13579294258E+04  0.50400001928E-02 0. -1.
        1   -1    0    0  501    0  0.00000000000E+00  0.00000000000E+00 -0.89083999143E+03  0.89083999145E+03  0.50400001928E-02 0.  1.
    10030    2    1    2    0    0  0.00000000000E+00  0.00000000000E+00  0.46708943440E+03  0.22487694173E+04  0.21997252902E+04 0.  0.
        5    1    3    3  502    0  0.91916718504E+03  0.51487815853E+03 -0.89261059395E+02  0.10573350741E+04  0.46999998093E+01 0.  1.
       -5    1    3    3    0  502 -0.91916718504E+03 -0.51487815853E+03  0.55635049379E+03  0.11914343432E+04  0.46999998093E+01 0. -1.
</event>
<event>
 5   0  0.5981239E-05  0.2203076E+04  0.7818609E-02  0.8517149E-01
       -1   -1    0    0    0  501  0.00000000000E+00  0.00000000000E+00  0.10756166361E+04  0.10756166361E+04  0.50400001928E-02 0.  1.
        1   -1    0    0  501    0  0.00000000000E+00  0.00000000000E+00 -0.11280843982E+04  0.11280843982E+04  0.50400001928E-02 0. -1.
    10030    2    1    2    0    0  0.00000000000E+00  0.00000000000E+00 -0.52467762114E+02  0.22037010343E+04  0.22030763451E+04 0.  0.
        4    1    3    3  502    0 -0.94571810829E+03  0.54068460430E+03  0.13709790833E+03  0.10979617621E+04  0.12699999809E+01 0.  1.
       -4    1    3    3    0  502  0.94571810829E+03 -0.54068460430E+03 -0.18956567045E+03  0.11057392722E+04  0.12699999809E+01 0. -1.
</event>
<event>
 5   0  0.5861816E-05  0.2242597E+04  0.7818609E-02  0.8500905E-01
       -1   -1    0    0    0  501  0.00000000000E+00  0.00000000000E+00  0.90845774002E+03  0.90845774004E+03  0.50400001928E-02 0.  1.
        1   -1    0    0  501    0  0.00000000000E+00  0.00000000000E+00 -0.13840047274E+04  0.13840047274E+04  0.50400001928E-02 0. -1.
    10030    2    1    2    0    0  0.00000000000E+00  0.00000000000E+00 -0.47554698736E+03  0.22924624674E+04  0.22425965369E+04 0.  0.
        1    1    3    3  502    0  0.30381824217E+03  0.20460093629E+03  0.84557594807E+03  0.92150189982E+03  0.50400001928E-02 0.  1.
       -1    1    3    3    0  502 -0.30381824217E+03 -0.20460093629E+03 -0.13211229354E+04  0.13709605676E+04  0.50400001928E-02 0. -1.
</event>
<event>
 5   0  0.1311472E-04  0.2211764E+04  0.7818609E-02  0.8513547E-01
       -2   -1    0    0    0  501  0.00000000000E+00  0.00000000000E+00  0.14603032869E+04  0.14603032869E+04  0.25500000920E-02 0.  1.
        2   -1    0    0  501    0  0.00000000000E+00  0.00000000000E+00 -0.83748051234E+03  0.83748051234E+03  0.25500000920E-02 0. -1.
    10030    2    1    2    0    0  0.00000000000E+00  0.00000000000E+00  0.62282277452E+03  0.22977837992E+04  0.22117644946E+04 0.  0.
        4    1    3    3  502    0  0.35977869365E+03  0.10389723225E+04  0.18818229087E+03  0.11154901985E+04  0.12699999809E+01 0. -1.
       -4    1    3    3    0  502 -0.35977869365E+03 -0.10389723225E+04  0.43464048365E+03  0.11822936007E+04  0.12699999809E+01 0.  1.
</event>
<event>
 5   0  0.5981239E-05  0.2452234E+04  0.7818609E-02  0.8420203E-01
       -1   -1    0    0    0  501  0.00000000000E+00  0.00000000000E+00  0.11500832579E+04  0.11500832579E+04  0.50400001928E-02 0. -1.
        1   -1    0    0  501    0  0.00000000000E+00  0.00000000000E+00 -0.13071770657E+04  0.13071770657E+04  0.50400001928E-02 0.  1.
    10030    2    1    2    0    0  0.00000000000E+00  0.00000000000E+00 -0.15709380781E+03  0.24572603237E+04  0.24522336418E+04 0.  0.
        4    1    3    3  502    0 -0.94571602939E+03  0.64563069908E+03  0.36069285897E+03  0.12005493573E+04  0.12699999809E+01 0. -1.
       -4    1    3    3    0  502  0.94571602939E+03 -0.64563069908E+03 -0.51778666678E+03  0.12567109664E+04  0.12699999809E+01 0.  1.
</event>
<event>
 5   0  0.5981239E-05  0.2256501E+04  0.7818609E-02  0.8495272E-01
       -1   -1    0    0    0  501  0.00000000000E+00  0.00000000000E+00  0.59714090544E+03  0.59714090546E+03  0.50400001928E-02 0. -1.
        1   -1    0    0  501    0  0.00000000000E+00  0.00000000000E+00 -0.21317398569E+04  0.21317398569E+04  0.50400001928E-02 0.  1.
    10030    2    1    2    0    0  0.00000000000E+00  0.00000000000E+00 -0.15345989514E+04  0.27288807623E+04  0.22565008915E+04 0.  0.
        4    1    3    3  502    0  0.15928984410E+02  0.60313789447E+03 -0.19202521969E+04  0.20128087751E+04  0.12699999809E+01 0.  1.
       -4    1    3    3    0  502 -0.15928984410E+02 -0.60313789447E+03  0.38565324550E+03  0.71607198727E+03  0.12699999809E+01 0. -1.
</event>
<event>
 5   0  0.6263558E-05  0.2173720E+04  0.7818609E-02  0.8529447E-01
        1   -1    0    0  501    0  0.00000000000E+00  0.00000000000E+00  0.10147791279E+04  0.10147791279E+04  0.50400001928E-02 0. -1.
       -1   -1    0    0    0  501  0.00000000000E+00  0.00000000000E+00 -0.11640608576E+04  0.11640608577E+04  0.50400001928E-02 0.  1.
    10030    2    1    2    0    0  0.00000000000E+00  0.00000000000E+00 -0.14928172979E+03  0.21788399855E+04  0.21737200021E+04 0.  0.
        3    1    3    3  502    0 -0.50841425077E+03  0.15457332424E+03 -0.10249703624E+04  0.11545311676E+04  0.10100000352E+00 0.  1.
       -3    1    3    3    0  502  0.50841425077E+03 -0.15457332424E+03  0.87568863262E+03  0.10243088179E+04  0.10100000352E+00 0. -1.
</event>
<event>
 5   0  0.6263558E-05  0.2261076E+04  0.7818609E-02  0.8493428E-01
        1   -1    0    0  501    0  0.00000000000E+00  0.00000000000E+00  0.12502470793E+04  0.12502470793E+04  0.50400001928E-02 0.  1.
       -1   -1    0    0    0  501  0.00000000000E+00  0.00000000000E+00 -0.10222910497E+04  0.10222910497E+04  0.50400001928E-02 0. -1.
    10030    2    1    2    0    0  0.00000000000E+00  0.00000000000E+00  0.22795602955E+03  0.22725381290E+04  0.22610762031E+04 0.  0.
        3    1    3    3  502    0  0.31000048731E+03  0.27471856070E+03 -0.94327924572E+03  0.10302166449E+04  0.10100000352E+00 0. -1.
       -3    1    3    3    0  502 -0.31000048731E+03 -0.27471856070E+03  0.11712352753E+04  0.12423214841E+04  0.10100000352E+00 0.  1.
</event>
<event>
 5   0  0.1311472E-04  0.2182315E+04  0.7818609E-02  0.8525825E-01
        2   -1    0    0  501    0  0.00000000000E+00  0.00000000000E+00  0.12101049640E+04  0.12101049640E+04  0.25500000920E-02 0.  1.
       -2   -1    0    0    0  501  0.00000000000E+00  0.00000000000E+00 -0.98390197463E+03  0.98390197464E+03  0.25500000920E-02 0. -1.
    10030    2    1    2    0    0  0.00000000000E+00  0.00000000000E+00  0.22620298935E+03  0.21940069386E+04  0.21823149760E+04 0.  0.
        4    1    3    3  502    0 -0.82820608486E+03  0.60683406979E+03 -0.25826914180E+03  0.10587150088E+04  0.12699999809E+01 0. -1.
       -4    1    3    3    0  502  0.82820608486E+03 -0.60683406979E+03  0.48447213116E+03  0.11352919299E+04  0.12699999809E+01 0.  1.
</event>
<event>
 5   0  0.5849604E-05  0.1370662E+04  0.7818609E-02  0.8975333E-01
        1   -1    0    0  501    0  0.00000000000E+00  0.00000000000E+00  0.60832718366E+03  0.60832718368E+03  0.50400001928E-02 0.  1.
       -1   -1    0    0    0  501  0.00000000000E+00  0.00000000000E+00 -0.77208227583E+03  0.77208227584E+03  0.50400001928E-02 0. -1.
    10030    2    1    2    0    0  0.00000000000E+00  0.00000000000E+00 -0.16375509217E+03  0.13804094595E+04  0.13706620830E+04 0.  0.
        2    1    3    3  502    0 -0.17830292308E+03  0.17449930453E+03  0.56096942044E+03  0.61394513626E+03  0.25500000920E-02 0.  1.
       -2    1    3    3    0  502  0.17830292308E+03 -0.17449930453E+03 -0.72472451261E+03  0.76646432327E+03  0.25500000920E-02 0. -1.
</event>
<event>
 5   0  0.5981239E-05  0.2129888E+04  0.7818609E-02  0.8548190E-01
       -1   -1    0    0    0  501  0.00000000000E+00  0.00000000000E+00  0.64515344220E+03  0.64515344222E+03  0.50400001928E-02 0.  1.
        1   -1    0    0  501    0  0.00000000000E+00  0.00000000000E+00 -0.17578857133E+04  0.17578857133E+04  0.50400001928E-02 0. -1.
    10030    2    1    2    0    0  0.00000000000E+00  0.00000000000E+00 -0.11127322711E+04  0.24030391555E+04  0.21298882778E+04 0.  0.
        4    1    3    3  502    0  0.10622703859E+04 -0.55665682558E+02 -0.49897657825E+03  0.11749452241E+04  0.12699999809E+01 0.  1.
       -4    1    3    3    0  502 -0.10622703859E+04  0.55665682558E+02 -0.61375569288E+03  0.12280939315E+04  0.12699999809E+01 0. -1.
</event>
<event>
 5   0  0.1311472E-04  0.2196701E+04  0.7818609E-02  0.8519802E-01
       -2   -1    0    0    0  501  0.00000000000E+00  0.00000000000E+00  0.81649311798E+03  0.81649311798E+03  0.25500000920E-02 0.  1.
        2   -1    0    0  501    0  0.00000000000E+00  0.00000000000E+00 -0.14775067631E+04  0.14775067631E+04  0.25500000920E-02 0. -1.
    10030    2    1    2    0    0  0.00000000000E+00  0.00000000000E+00 -0.66101364516E+03  0.22939998811E+04  0.21967012577E+04 0.  0.
        4    1    3    3  502    0 -0.89379270469E+03 -0.63092743461E+03 -0.22905621459E+03  0.11177670549E+04  0.12699999809E+01 0.  1.
       -4    1    3    3    0  502  0.89379270469E+03  0.63092743461E+03 -0.43195743057E+03  0.11762328262E+04  0.12699999809E+01 0. -1.
</event>
<event>
 5   0  0.1404159E-04  0.2205406E+04  0.7818609E-02  0.8516181E-01
        2   -1    0    0  501    0  0.00000000000E+00  0.00000000000E+00  0.20839056730E+04  0.20839056730E+04  0.25500000920E-02 0. -1.
       -2   -1    0    0    0  501  0.00000000000E+00  0.00000000000E+00 -0.58349766535E+03  0.58349766535E+03  0.25500000920E-02 0.  1.
    10030    2    1    2    0    0  0.00000000000E+00  0.00000000000E+00  0.15004080077E+04  0.26674033384E+04  0.22054061712E+04 0.  0.
        5    1    3    3  502    0  0.63522662318E+03  0.26284068591E+03  0.17929825302E+04  0.19202620999E+04  0.46999998093E+01 0. -1.
       -5    1    3    3    0  502 -0.63522662318E+03 -0.26284068591E+03 -0.29257452250E+03  0.74714123844E+03  0.46999998093E+01 0.  1.
</event>
<event>
 5   0  0.5981239E-05  0.2201264E+04  0.7818609E-02  0.8517902E-01
       -1   -1    0    0    0  501  0.00000000000E+00  0.00000000000E+00  0.80694591533E+03  0.80694591535E+03  0.50400001928E-02 0.  1.
        1   -1    0    0  501    0  0.00000000000E+00  0.00000000000E+00 -0.15012045726E+04  0.15012045727E+04  0.50400001928E-02 0. -1.
    10030    2    1    2    0    0  0.00000000000E+00  0.00000000000E+00 -0.69425865731E+03  0.23081504880E+04  0.22012640896E+04 0.  0.
        4    1    3    3  502    0  0.40713753864E+03 -0.61632087635E+03 -0.12027008677E+04  0.14114189272E+04  0.12699999809E+01 0. -1.
       -4    1    3    3    0  502 -0.40713753864E+03  0.61632087635E+03  0.50844221036E+03  0.89673156082E+03  0.12699999809E+01 0.  1.
</event>
<event>
 5   0  0.1311472E-04  0.2195519E+04  0.7818609E-02  0.8520296E-01
       -2   -1    0    0    0  501  0.00000000000E+00  0.00000000000E+00  0.69031184714E+03  0.69031184715E+03  0.25500000920E-02 0.  1.
        2   -1    0    0  501    0  0.00000000000E+00  0.00000000000E+00 -0.17456975550E+04  0.17456975550E+04  0.25500000920E-02 0. -1.
    10030    2    1    2    0    0  0.00000000000E+00  0.00000000000E+00 -0.10553857079E+04  0.24360094022E+04  0.21955188032E+04 0.  0.
        4    1    3    3  502    0 -0.28972193718E+03  0.10161132295E+04 -0.85804657047E+03  0.13611283650E+04  0.12699999809E+01 0.  1.
       -4    1    3    3    0  502  0.28972193718E+03 -0.10161132295E+04 -0.19733913740E+03  0.10748810372E+04  0.12699999809E+01 0. -1.
</event>
<event>
 5   0  0.1252124E-04  0.2145173E+04  0.7818609E-02  0.8541601E-01
       -2   -1    0    0    0  501  0.00000000000E+00  0.00000000000E+00  0.66476013081E+03  0.66476013081E+03  0.25500000920E-02 0.  1.
        2   -1    0    0  501    0  0.00000000000E+00  0.00000000000E+00 -0.17306125583E+04  0.17306125583E+04  0.25500000920E-02 0. -1.
    10030    2    1    2    0    0  0.00000000000E+00  0.00000000000E+00 -0.10658524275E+04  0.23953726892E+04  0.21451734015E+04 0.  0.
        3    1    3    3  502    0 -0.43835809264E+02  0.60725600284E+03  0.45310664239E+03  0.75893812050E+03  0.10100000352E+00 0.  1.
       -3    1    3    3    0  502  0.43835809264E+02 -0.60725600284E+03 -0.15189590699E+04  0.16364345687E+04  0.10100000352E+00 0. -1.
</event>
<event>
 5   0  0.5895063E-05  0.2227233E+04  0.7818609E-02  0.8507178E-01
       -1   -1    0    0    0  501  0.00000000000E+00  0.00000000000E+00  0.59822631249E+03  0.59822631251E+03  0.50400001928E-02 0.  1.
        1   -1    0    0  501    0  0.00000000000E+00  0.00000000000E+00 -0.20730313173E+04  0.20730313173E+04  0.50400001928E-02 0. -1.
    10030    2    1    2    0    0  0.00000000000E+00  0.00000000000E+00 -0.14748050048E+04  0.26712576298E+04  0.22272331541E+04 0.  0.
        5    1    3    3  502    0  0.24855149929E+03  0.50910526475E+03  0.41245541470E+03  0.70079068023E+03  0.46999998093E+01 0.  1.
       -5    1    3    3    0  502 -0.24855149929E+03 -0.50910526475E+03 -0.18872604195E+04  0.19704669496E+04  0.46999998093E+01 0. -1.
</event>
<event>
 5   0  0.1226021E-04  0.2063882E+04  0.7818609E-02  0.8577323E-01
       -2   -1    0    0    0  501  0.00000000000E+00  0.00000000000E+00  0.71570361762E+03  0.71570361762E+03  0.25500000920E-02 0.  1.
        2   -1    0    0  501    0  0.00000000000E+00  0.00000000000E+00 -0.14879089951E+04  0.14879089951E+04  0.25500000920E-02 0. -1.
    10030    2    1    2    0    0  0.00000000000E+00  0.00000000000E+00 -0.77220537744E+03  0.22036126127E+04  0.20638816346E+04 0.  0.
        2    1    3    3  502    0 -0.31437685839E+03 -0.92106807161E+03 -0.75240830816E+03  0.12301696890E+04  0.25500000920E-02 0. -1.
       -2    1    3    3    0  502  0.31437685839E+03  0.92106807161E+03 -0.19797069277E+02  0.97344292364E+03  0.25500000920E-02 0.  1.
</event>
<event>
 5   0  0.5895063E-05  0.2225172E+04  0.7818609E-02  0.8508023E-01
        1   -1    0    0  501    0  0.00000000000E+00  0.00000000000E+00  0.10670973729E+04  0.10670973729E+04  0.50400001928E-02 0.  1.
       -1   -1    0    0    0  501  0.00000000000E+00  0.00000000000E+00 -0.11600140719E+04  0.11600140719E+04  0.50400001928E-02 0. -1.
    10030    2    1    2    0    0  0.00000000000E+00  0.00000000000E+00 -0.92916698997E+02  0.22271114448E+04  0.22251723247E+04 0.  0.
        5    1    3    3  502    0 -0.86113715501E+03  0.61494377281E+03 -0.39043332408E+03  0.11279066070E+04  0.46999998093E+01 0. -1.
       -5    1    3    3    0  502  0.86113715501E+03 -0.61494377281E+03  0.29751662508E+03  0.10992048379E+04  0.46999998093E+01 0.  1.
</event>
<event>
 5   0  0.1226021E-04  0.2245524E+04  0.7818609E-02  0.8499715E-01
       -2   -1    0    0    0  501  0.00000000000E+00  0.00000000000E+00  0.48131108233E+03  0.48131108234E+03  0.25500000920E-02 0. -1.
        2   -1    0    0  501    0  0.00000000000E+00  0.00000000000E+00 -0.26190852258E+04  0.26190852258E+04  0.25500000920E-02 0.  1.
    10030    2    1    2    0    0  0.00000000000E+00  0.00000000000E+00 -0.21377741435E+04  0.31003963082E+04  0.22455242103E+04 0.  0.
        2    1    3    3  502    0  0.23324407903E+03  0.10652695624E+04 -0.14378021313E+04  0.18045711429E+04  0.25500000920E-02 0.  1.
       -2    1    3    3    0  502 -0.23324407903E+03 -0.10652695624E+04 -0.69997201224E+03  0.12958251653E+04  0.25500000920E-02 0. -1.
</event>
<event>
 5   0  0.6263558E-05  0.2194310E+04  0.7818609E-02  0.8520800E-01
        1   -1    0    0  501    0  0.00000000000E+00  0.00000000000E+00  0.86955189152E+03  0.86955189153E+03  0.50400001928E-02 0. -1.
       -1   -1    0    0    0  501  0.00000000000E+00  0.00000000000E+00 -0.13843330711E+04  0.13843330711E+04  0.50400001928E-02 0.  1.
    10030    2    1    2    0    0  0.00000000000E+00  0.00000000000E+00 -0.51478117958E+03  0.22538849626E+04  0.21943103158E+04 0.  0.
        3    1    3    3  502    0 -0.63096220574E+03 -0.55531187447E+03  0.46692457970E+03  0.96151087167E+03  0.10100000352E+00 0. -1.
       -3    1    3    3    0  502  0.63096220574E+03  0.55531187447E+03 -0.98170575928E+03  0.12923740910E+04  0.10100000352E+00 0.  1.
</event>
<event>
 5   0  0.1241430E-04  0.1717801E+04  0.7818609E-02  0.8751277E-01
        2   -1    0    0  501    0  0.00000000000E+00  0.00000000000E+00  0.12052201060E+04  0.12052201060E+04  0.25500000920E-02 0.  1.
       -2   -1    0    0    0  501  0.00000000000E+00  0.00000000000E+00 -0.61209561617E+03  0.61209561617E+03  0.25500000920E-02 0. -1.
    10030    2    1    2    0    0  0.00000000000E+00  0.00000000000E+00  0.59312448982E+03  0.18173157222E+04  0.17178008539E+04 0.  0.
        1    1    3    3  502    0  0.52238407177E+03  0.40805489333E+03 -0.28126213802E+03  0.72007104144E+03  0.50400001928E-02 0. -1.
       -1    1    3    3    0  502 -0.52238407177E+03 -0.40805489333E+03  0.87438662783E+03  0.10972446807E+04  0.50400001928E-02 0.  1.
</event>
<event>
 5   0  0.5849604E-05  0.2143965E+04  0.7818609E-02  0.8542120E-01
       -1   -1    0    0    0  501  0.00000000000E+00  0.00000000000E+00  0.11098985541E+04  0.11098985541E+04  0.50400001928E-02 0.  1.
        1   -1    0    0  501    0  0.00000000000E+00  0.00000000000E+00 -0.10353615094E+04  0.10353615094E+04  0.50400001928E-02 0. -1.
    10030    2    1    2    0    0  0.00000000000E+00  0.00000000000E+00  0.74537044729E+02  0.21452600635E+04  0.21439647779E+04 0.  0.
        2    1    3    3  502    0 -0.10004835978E+04  0.31965756402E+03 -0.17733215534E+03  0.10651737328E+04  0.25500000920E-02 0. -1.
       -2    1    3    3    0  502  0.10004835978E+04 -0.31965756402E+03  0.25186920007E+03  0.10800863307E+04  0.25500000920E-02 0.  1.
</event>
<event>
 5   0  0.5861816E-05  0.2153165E+04  0.7818609E-02  0.8538179E-01
        1   -1    0    0  501    0  0.00000000000E+00  0.00000000000E+00  0.15101554654E+04  0.15101554654E+04  0.50400001928E-02 0. -1.
       -1   -1    0    0    0  501  0.00000000000E+00  0.00000000000E+00 -0.76749061713E+03  0.76749061715E+03  0.50400001928E-02 0.  1.
    10030    2    1    2    0    0  0.00000000000E+00  0.00000000000E+00  0.74266484827E+03  0.22776460826E+04  0.21531652516E+04 0.  0.
        1    1    3    3  502    0 -0.13575112569E+03  0.38015490912E+03 -0.68440730890E+03  0.79458132847E+03  0.50400001928E-02 0.  1.
       -1    1    3    3    0  502  0.13575112569E+03 -0.38015490912E+03  0.14270721572E+04  0.14830647541E+04  0.50400001928E-02 0. -1.
</event>
<event>
 5   0  0.1226021E-04  0.2258702E+04  0.7818609E-02  0.8494385E-01
        2   -1    0    0  501    0  0.00000000000E+00  0.00000000000E+00  0.11184416891E+04  0.11184416891E+04  0.25500000920E-02 0. -1.
       -2   -1    0    0    0  501  0.00000000000E+00  0.00000000000E+00 -0.11403662200E+04  0.11403662200E+04  0.25500000920E-02 0.  1.
    10030    2    1    2    0    0  0.00000000000E+00  0.00000000000E+00 -0.21924530995E+02  0.22588079091E+04  0.22587015042E+04 0.  0.
        2    1    3    3  502    0  0.96897267346E+03 -0.42147635684E+03  0.38765751564E+03  0.11255348554E+04  0.25500000920E-02 0.  1.
       -2    1    3    3    0  502 -0.96897267346E+03  0.42147635684E+03 -0.40958204664E+03  0.11332730537E+04  0.25500000920E-02 0. -1.
</event>
<event>
 5   0  0.6263558E-05  0.2213976E+04  0.7818609E-02  0.8512633E-01
        1   -1    0    0  501    0  0.00000000000E+00  0.00000000000E+00  0.10876147148E+04  0.10876147148E+04  0.50400001928E-02 0. -1.
       -1   -1    0    0    0  501  0.00000000000E+00  0.00000000000E+00 -0.11267062322E+04  0.11267062322E+04  0.50400001928E-02 0.  1.
    10030    2    1    2    0    0  0.00000000000E+00  0.00000000000E+00 -0.39091517481E+02  0.22143209470E+04  0.22139758602E+04 0.  0.
        3    1    3    3  502    0  0.21430840364E+03  0.63466144407E+03 -0.90098842269E+03  0.11227214207E+04  0.10100000352E+00 0.  1.
       -3    1    3    3    0  502 -0.21430840364E+03 -0.63466144407E+03  0.86189690521E+03  0.10915995263E+04  0.10100000352E+00 0. -1.
</event>
<event>
 5   0  0.1311472E-04  0.2398807E+04  0.7818609E-02  0.8439950E-01
       -2   -1    0    0    0  501  0.00000000000E+00  0.00000000000E+00  0.14754064856E+04  0.14754064856E+04  0.25500000920E-02 0. -1.
        2   -1    0    0  501    0  0.00000000000E+00  0.00000000000E+00 -0.97503214355E+03  0.97503214356E+03  0.25500000920E-02 0.  1.
    10030    2    1    2    0    0  0.00000000000E+00  0.00000000000E+00  0.50037434204E+03  0.24504386292E+04  0.23988069937E+04 0.  0.
        4    1    3    3  502    0 -0.61817958928E+03 -0.42517808180E+03  0.12060872397E+04  0.14204120700E+04  0.12699999809E+01 0. -1.
       -4    1    3    3    0  502  0.61817958928E+03  0.42517808180E+03 -0.70571289765E+03  0.10300265592E+04  0.12699999809E+01 0.  1.
</event>
<event>
 5   0  0.1252124E-04  0.2269827E+04  0.7818609E-02  0.8489914E-01
       -2   -1    0    0    0  501  0.00000000000E+00  0.00000000000E+00  0.65808326718E+03  0.65808326719E+03  0.25500000920E-02 0.  1.
        2   -1    0    0  501    0  0.00000000000E+00  0.00000000000E+00 -0.19572424327E+04  0.19572424327E+04  0.25500000920E-02 0. -1.
    10030    2    1    2    0    0  0.00000000000E+00  0.00000000000E+00 -0.12991591655E+04  0.26153256999E+04  0.22698268610E+04 0.  0.
        3    1    3    3  502    0  0.32559670610E+03 -0.70979390075E+03  0.29930735591E+03  0.83630466941E+03  0.10100000352E+00 0.  1.
       -3    1    3    3    0  502 -0.32559670610E+03  0.70979390075E+03 -0.15984665214E+04  0.17790210305E+04  0.10100000352E+00 0. -1.
</event>
<event>
 5   0  0.1404159E-04  0.2204554E+04  0.7818609E-02  0.8516535E-01
        2   -1    0    0  501    0  0.00000000000E+00  0.00000000000E+00  0.13202272804E+04  0.13202272804E+04  0.25500000920E-02 0.  1.
       -2   -1    0    0    0  501  0.00000000000E+00  0.00000000000E+00 -0.92030679905E+03  0.92030679905E+03  0.25500000920E-02 0. -1.
    10030    2    1    2    0    0  0.00000000000E+00  0.00000000000E+00  0.39992048133E+03  0.22405340794E+04  0.22045535987E+04 0.  0.
        5    1    3    3  502    0  0.22635210282E+03  0.63541320372E+03 -0.68605183687E+03  0.96211975699E+03  0.46999998093E+01 0. -1.
       -5    1    3    3    0  502 -0.22635210282E+03 -0.63541320372E+03  0.10859723182E+04  0.12784143224E+04  0.46999998093E+01 0.  1.
</event>
<event>
 5   0  0.5981239E-05  0.1999461E+04  0.7818609E-02  0.8606873E-01
        1   -1    0    0  501    0  0.00000000000E+00  0.00000000000E+00  0.73110226096E+03  0.73110226098E+03  0.50400001928E-02 0. -1.
       -1   -1    0    0    0  501  0.00000000000E+00  0.00000000000E+00 -0.13670606262E+04  0.13670606262E+04  0.50400001928E-02 0.  1.
    10030    2    1    2    0    0  0.00000000000E+00  0.00000000000E+00 -0.63595836523E+03  0.20981628872E+04  0.19994610421E+04 0.  0.
        4    1    3    3  502    0 -0.98700005299E+03  0.15783841704E+03 -0.29759256306E+03  0.10429022087E+04  0.12699999809E+01 0. -1.
       -4    1    3    3    0  502  0.98700005299E+03 -0.15783841704E+03 -0.33836580217E+03  0.10552606784E+04  0.12699999809E+01 0.  1.
</event>
<event>
 5   0  0.6263558E-05  0.1697544E+04  0.7818609E-02  0.8762766E-01
       -1   -1    0    0    0  501  0.00000000000E+00  0.00000000000E+00  0.36398138183E+03  0.36398138187E+03  0.50400001928E-02 0. -1.
        1   -1    0    0  501    0  0.00000000000E+00  0.00000000000E+00 -0.19792600737E+04  0.19792600737E+04  0.50400001928E-02 0.  1.
    10030    2    1    2    0    0  0.00000000000E+00  0.00000000000E+00 -0.16152786918E+04  0.23432414556E+04  0.16975438924E+04 0.  0.
        3    1    3    3  502    0 -0.71386066669E+03  0.96137792366E+02 -0.18789355171E+03  0.74440816998E+03  0.10100000352E+00 0. -1.
       -3    1    3    3    0  502  0.71386066669E+03 -0.96137792366E+02 -0.14273851401E+04  0.15988332856E+04  0.10100000352E+00 0.  1.
</event>
<event>
 5   0  0.5895063E-05  0.2208799E+04  0.7818609E-02  0.8514775E-01
        1   -1    0    0  501    0  0.00000000000E+00  0.00000000000E+00  0.13216139912E+04  0.13216139912E+04  0.50400001928E-02 0. -1.
       -1   -1    0    0    0  501  0.00000000000E+00  0.00000000000E+00 -0.92288545872E+03  0.92288545873E+03  0.50400001928E-02 0.  1.
    10030    2    1    2    0    0  0.00000000000E+00  0.00000000000E+00  0.39872853246E+03  0.22444994499E+04  0.22087990715E+04 0.  0.
        5    1    3    3  502    0  0.96340372677E+03  0.53952242384E+03  0.17792689314E+03  0.11184414405E+04  0.46999998093E+01 0.  1.
       -5    1    3    3    0  502 -0.96340372677E+03 -0.53952242384E+03  0.22080163933E+03  0.11260580094E+04  0.46999998093E+01 0. -1.
</event>
<event>
 5   0  0.1226021E-04  0.2191536E+04  0.7818609E-02  0.8521959E-01
        2   -1    0    0  501    0  0.00000000000E+00  0.00000000000E+00  0.75858279623E+03  0.75858279623E+03  0.25500000920E-02 0. -1.
       -2   -1    0    0    0  501  0.00000000000E+00  0.00000000000E+00 -0.15828292655E+04  0.15828292655E+04  0.25500000920E-02 0.  1.
    10030    2    1    2    0    0  0.00000000000E+00  0.00000000000E+00 -0.82424646927E+03  0.23414120617E+04  0.21915355805E+04 0.  0.
        2    1    3    3  502    0  0.10385582064E+04 -0.18185980311E+03 -0.93336866672E+02  0.10584837772E+04  0.25500000920E-02 0. -1.
       -2    1    3    3    0  502 -0.10385582064E+04  0.18185980311E+03 -0.73090960260E+03  0.12829282845E+04  0.25500000920E-02 0.  1.
</event>
<event>
 5   0  0.1311472E-04  0.2178322E+04  0.7818609E-02  0.8527505E-01
        2   -1    0    0  501    0  0.00000000000E+00  0.00000000000E+00  0.12248865260E+04  0.12248865260E+04  0.25500000920E-02 0.  1.
       -2   -1    0    0    0  501  0.00000000000E+00  0.00000000000E+00 -0.96847503534E+03  0.96847503534E+03  0.25500000920E-02 0. -1.
    10030    2    1    2    0    0  0.00000000000E+00  0.00000000000E+00  0.25641149063E+03  0.21933615613E+04  0.21783223100E+04 0.  0.
        4    1    3    3  502    0  0.25491013744E+03 -0.10360365345E+04 -0.92210886520E+02  0.10709133203E+04  0.12699999809E+01 0. -1.
       -4    1    3    3    0  502 -0.25491013744E+03  0.10360365345E+04  0.34862237715E+03  0.11224482410E+04  0.12699999809E+01 0.  1.
</event>
<event>
 5   0  0.1404159E-04  0.2190441E+04  0.7818609E-02  0.8522417E-01
       -2   -1    0    0    0  501  0.00000000000E+00  0.00000000000E+00  0.17734643720E+04  0.17734643720E+04  0.25500000920E-02 0. -1.
        2   -1    0    0  501    0  0.00000000000E+00  0.00000000000E+00 -0.67636436917E+03  0.67636436917E+03  0.25500000920E-02 0.  1.
    10030    2    1    2    0    0  0.00000000000E+00  0.00000000000E+00  0.10971000029E+04  0.24498287412E+04  0.21904411530E+04 0.  0.
        5    1    3    3  502    0  0.15506340598E+02 -0.85675431285E+03 -0.21428781402E+03  0.88329482984E+03  0.46999998093E+01 0.  1.
       -5    1    3    3    0  502 -0.15506340598E+02  0.85675431285E+03  0.13113878169E+04  0.15665339114E+04  0.46999998093E+01 0. -1.
</event>
<event>
 5   0  0.1311472E-04  0.2237494E+04  0.7818609E-02  0.8502982E-01
       -2   -1    0    0    0  501  0.00000000000E+00  0.00000000000E+00  0.80550432855E+03  0.80550432856E+03  0.25500000920E-02 0. -1.
        2   -1    0    0  501    0  0.00000000000E+00  0.00000000000E+00 -0.15538033078E+04  0.15538033078E+04  0.25500000920E-02 0.  1.
    10030    2    1    2    0    0  0.00000000000E+00  0.00000000000E+00 -0.74829897923E+03  0.23593076363E+04  0.22374943934E+04 0.  0.
        4    1    3    3  502    0  0.35296007200E+03  0.66134592737E+03  0.50150360153E+03  0.90192390107E+03  0.12699999809E+01 0. -1.
       -4    1    3    3    0  502 -0.35296007200E+03 -0.66134592737E+03 -0.12498025808E+04  0.14573837353E+04  0.12699999809E+01 0.  1.
</event>
<event>
 5   0  0.1226021E-04  0.2176922E+04  0.7818609E-02  0.8528095E-01
        2   -1    0    0  501    0  0.00000000000E+00  0.00000000000E+00  0.12431460998E+04  0.12431460998E+04  0.25500000920E-02 0.  1.
       -2   -1    0    0    0  501  0.00000000000E+00  0.00000000000E+00 -0.95302344770E+03  0.95302344770E+03  0.25500000920E-02 0. -1.
    10030    2    1    2    0    0  0.00000000000E+00  0.00000000000E+00  0.29012265211E+03  0.21961695475E+04  0.21769220308E+04 0.  0.
        2    1    3    3  502    0  0.69852635143E+03  0.30990797140E+03 -0.63688228435E+03  0.99478694126E+03  0.25500000920E-02 0. -1.
       -2    1    3    3    0  502 -0.69852635143E+03 -0.30990797140E+03  0.92700493647E+03  0.12013826063E+04  0.25500000920E-02 0.  1.
</event>
<event>
 5   0  0.1404159E-04  0.2168663E+04  0.7818609E-02  0.8531586E-01
        2   -1    0    0  501    0  0.00000000000E+00  0.00000000000E+00  0.11353321075E+04  0.11353321075E+04  0.25500000920E-02 0. -1.
       -2   -1    0    0    0  501  0.00000000000E+00  0.00000000000E+00 -0.10356217549E+04  0.10356217549E+04  0.25500000920E-02 0.  1.
    10030    2    1    2    0    0  0.00000000000E+00  0.00000000000E+00  0.99710352618E+02  0.21709538624E+04  0.21686628410E+04 0.  0.
        5    1    3    3  502    0  0.36371670668E+03 -0.48343706376E+03 -0.85095728072E+03  0.10441032616E+04  0.46999998093E+01 0.  1.
       -5    1    3    3    0  502 -0.36371670668E+03  0.48343706376E+03  0.95066763333E+03  0.11268506007E+04  0.46999998093E+01 0. -1.
</event>
<event>
 5   0  0.1404159E-04  0.2158165E+04  0.7818609E-02  0.8536045E-01
        2   -1    0    0  501    0  0.00000000000E+00  0.00000000000E+00  0.11030530224E+04  0.11030530224E+04  0.25500000920E-02 0.  1.
       -2   -1    0    0    0  501  0.00000000000E+00  0.00000000000E+00 -0.10556326281E+04  0.10556326281E+04  0.25500000920E-02 0. -1.
    10030    2    1    2    0    0  0.00000000000E+00  0.00000000000E+00  0.47420394261E+02  0.21586856506E+04  0.21581647398E+04 0.  0.
        5    1    3    3  502    0 -0.41925125134E+03  0.48769470606E+03 -0.84297394598E+03  0.10603041553E+04  0.46999998093E+01 0. -1.
       -5    1    3    3    0  502  0.41925125134E+03 -0.48769470606E+03  0.89039434024E+03  0.10983814953E+04  0.46999998093E+01 0.  1.
</event>
<event>
 5   0  0.5849604E-05  0.2202187E+04  0.7818609E-02  0.8517518E-01
       -1   -1    0    0    0  501  0.00000000000E+00  0.00000000000E+00  0.10206951765E+04  0.10206951765E+04  0.50400001928E-02 0.  1.
        1   -1    0    0  501    0  0.00000000000E+00  0.00000000000E+00 -0.11878244390E+04  0.11878244390E+04  0.50400001928E-02 0. -1.
    10030    2    1    2    0    0  0.00000000000E+00  0.00000000000E+00 -0.16712926254E+03  0.22085196155E+04  0.22021867999E+04 0.  0.
        2    1    3    3  502    0  0.86336220457E+03  0.38233555882E+03 -0.65161373262E+03  0.11472468053E+04  0.25500000920E-02 0. -1.
       -2    1    3    3    0  502 -0.86336220457E+03 -0.38233555882E+03  0.48448447008E+03  0.10612728102E+04  0.25500000920E-02 0.  1.
</event>
<event>
 5   0  0.5849604E-05  0.1800058E+04  0.7818609E-02  0.8706269E-01
       -1   -1    0    0    0  501  0.00000000000E+00  0.00000000000E+00  0.47317448733E+03  0.47317448736E+03  0.50400001928E-02 0. -1.
        1   -1    0    0  501    0  0.00000000000E+00  0.00000000000E+00 -0.17119528545E+04  0.17119528545E+04  0.50400001928E-02 0.  1.
    10030    2    1    2    0    0  0.00000000000E+00  0.00000000000E+00 -0.12387783672E+04  0.21851273419E+04  0.18000582372E+04 0.  0.
        2    1    3    3  502    0 -0.61287787555E+03 -0.44797414476E+03 -0.12062946195E+04  0.14252883336E+04  0.25500000920E-02 0.  1.
       -2    1    3    3    0  502  0.61287787555E+03  0.44797414476E+03 -0.32483747681E+02  0.75983900833E+03  0.25500000920E-02 0. -1.
</event>
<event>
 5   0  0.4586375E-05  0.2157687E+04  0.7818609E-02  0.8536249E-01
       -4   -1    0    0    0  501  0.00000000000E+00  0.00000000000E+00  0.10299976369E+04  0.10299984199E+04  0.12699999809E+01 0. -1.
        4   -1    0    0  501    0  0.00000000000E+00  0.00000000000E+00 -0.11300046642E+04  0.11300053779E+04  0.12699999809E+01 0.  1.
    10030    2    1    2    0    0  0.00000000000E+00  0.00000000000E+00 -0.10000702726E+03  0.21600037977E+04  0.21576874196E+04 0.  0.
        4    1    3    3  502    0  0.10164669149E+04 -0.35880857642E+03 -0.57570394851E+01  0.10779533106E+04  0.12699999809E+01 0.  1.
       -4    1    3    3    0  502 -0.10164669149E+04  0.35880857642E+03 -0.94249987779E+02  0.10820504871E+04  0.12699999809E+01 0. -1.
</event>
<event>
 5   0  0.5895063E-05  0.2219698E+04  0.7818609E-02  0.8510274E-01
       -1   -1    0    0    0  501  0.00000000000E+00  0.00000000000E+00  0.64043923857E+03  0.64043923859E+03  0.50400001928E-02 0. -1.
        1   -1    0    0  501    0  0.00000000000E+00  0.00000000000E+00 -0.19233123829E+04  0.19233123829E+04  0.50400001928E-02 0.  1.
    10030    2    1    2    0    0  0.00000000000E+00  0.00000000000E+00 -0.12828731443E+04  0.25637516215E+04  0.22196979236E+04 0.  0.
        5    1    3    3  502    0 -0.83443389144E+03 -0.61626508458E+03 -0.10971570663E+04  0.15099133391E+04  0.46999998093E+01 0.  1.
       -5    1    3    3    0  502  0.83443389144E+03  0.61626508458E+03 -0.18571607803E+03  0.10538382823E+04  0.46999998093E+01 0. -1.
</event>
<event>
 5   0  0.1252124E-04  0.2204799E+04  0.7818609E-02  0.8516433E-01
        2   -1    0    0  501    0  0.00000000000E+00  0.00000000000E+00  0.17741110644E+04  0.17741110644E+04  0.25500000920E-02 0. -1.
       -2   -1    0    0    0  501  0.00000000000E+00  0.00000000000E+00 -0.68501022359E+03  0.68501022360E+03  0.25500000920E-02 0.  1.
    10030    2    1    2    0    0  0.00000000000E+00  0.00000000000E+00  0.10891008409E+04  0.24591212880E+04  0.22047986003E+04 0.  0.
        3    1    3    3  502    0 -0.33730911819E+03 -0.89133346693E+03 -0.73469441753E+02  0.95585069940E+03  0.10100000352E+00 0.  1.
       -3    1    3    3    0  502  0.33730911819E+03  0.89133346693E+03  0.11625702826E+04  0.15032705886E+04  0.10100000352E+00 0. -1.
</event>
<event>
 5   0  0.5861816E-05  0.2225028E+04  0.7818609E-02  0.8508083E-01
       -1   -1    0    0    0  501  0.00000000000E+00  0.00000000000E+00  0.67667443923E+03  0.67667443924E+03  0.50400001928E-02 0. -1.
        1   -1    0    0  501    0  0.00000000000E+00  0.00000000000E+00 -0.18290729927E+04  0.18290729927E+04  0.50400001928E-02 0.  1.
    10030    2    1    2    0    0  0.00000000000E+00  0.00000000000E+00 -0.11523985535E+04  0.25057474319E+04  0.22250275878E+04 0.  0.
        1    1    3    3  502    0 -0.86566382359E+03  0.24899955543E+03  0.15910286210E+03  0.91470670426E+03  0.50400001928E-02 0. -1.
       -1    1    3    3    0  502  0.86566382359E+03 -0.24899955543E+03 -0.13115014156E+04  0.15910407277E+04  0.50400001928E-02 0.  1.
</event>
<event>
 5   0  0.5849604E-05  0.2231468E+04  0.7818609E-02  0.8505443E-01
        1   -1    0    0  501    0  0.00000000000E+00  0.00000000000E+00  0.14551303178E+04  0.14551303178E+04  0.50400001928E-02 0.  1.
       -1   -1    0    0    0  501  0.00000000000E+00  0.00000000000E+00 -0.85549922161E+03  0.85549922162E+03  0.50400001928E-02 0. -1.
    10030    2    1    2    0    0  0.00000000000E+00  0.00000000000E+00  0.59963109622E+03  0.23106295395E+04  0.22314684441E+04 0.  0.
        2    1    3    3  502    0 -0.99465159147E+03  0.16574448119E+03  0.79431290224E+03  0.12836416977E+04  0.25500000920E-02 0.  1.
       -2    1    3    3    0  502  0.99465159147E+03 -0.16574448119E+03 -0.19468180602E+03  0.10269878417E+04  0.25500000920E-02 0. -1.
</event>
<event>
 5   0  0.5895063E-05  0.2242391E+04  0.7818609E-02  0.8500988E-01
       -1   -1    0    0    0  501  0.00000000000E+00  0.00000000000E+00  0.16831870545E+04  0.16831870545E+04  0.50400001928E-02 0. -1.
        1   -1    0    0  501    0  0.00000000000E+00  0.00000000000E+00 -0.74684456196E+03  0.74684456198E+03  0.50400001928E-02 0.  1.
    10030    2    1    2    0    0  0.00000000000E+00  0.00000000000E+00  0.93634249257E+03  0.24300316165E+04  0.22423907763E+04 0.  0.
        5    1    3    3  502    0 -0.28427884445E+02  0.10859218979E+04  0.16741862670E+03  0.10991294735E+04  0.46999998093E+01 0.  1.
       -5    1    3    3    0  502  0.28427884445E+02 -0.10859218979E+04  0.76892386587E+03  0.13309021430E+04  0.46999998093E+01 0. -1.
</event>
<event>
 5   0  0.1226021E-04  0.2197313E+04  0.7818609E-02  0.8519547E-01
       -2   -1    0    0    0  501  0.00000000000E+00  0.00000000000E+00  0.55580862653E+03  0.55580862654E+03  0.25500000920E-02 0. -1.
        2   -1    0    0  501    0  0.00000000000E+00  0.00000000000E+00 -0.21716945173E+04  0.21716945173E+04  0.25500000920E-02 0.  1.
    10030    2    1    2    0    0  0.00000000000E+00  0.00000000000E+00 -0.16158858908E+04  0.27275031438E+04  0.21973134022E+04 0.  0.
        2    1    3    3  502    0  0.86082801027E+03  0.42950983593E+03 -0.14930672498E+03  0.97354818091E+03  0.25500000920E-02 0. -1.
       -2    1    3    3    0  502 -0.86082801027E+03 -0.42950983593E+03 -0.14665791658E+04  0.17539549629E+04  0.25500000920E-02 0.  1.
</event>
<event>
 5   0  0.1311472E-04  0.2135390E+04  0.7818609E-02  0.8545812E-01
        2   -1    0    0  501    0  0.00000000000E+00  0.00000000000E+00  0.11771129786E+04  0.11771129786E+04  0.25500000920E-02 0.  1.
       -2   -1    0    0    0  501  0.00000000000E+00  0.00000000000E+00 -0.96844798121E+03  0.96844798122E+03  0.25500000920E-02 0. -1.
    10030    2    1    2    0    0  0.00000000000E+00  0.00000000000E+00  0.20866499734E+03  0.21455609598E+04  0.21353900700E+04 0.  0.
        4    1    3    3  502    0 -0.20032905348E+03  0.31598854834E+03 -0.90042578273E+03  0.97506343150E+03  0.12699999809E+01 0. -1.
       -4    1    3    3    0  502  0.20032905348E+03 -0.31598854834E+03  0.11090907801E+04  0.11704975283E+04  0.12699999809E+01 0.  1.
</event>
<event>
 5   0  0.6263558E-05  0.2193336E+04  0.7818609E-02  0.8521207E-01
       -1   -1    0    0    0  501  0.00000000000E+00  0.00000000000E+00  0.95944440055E+03  0.95944440056E+03  0.50400001928E-02 0. -1.
        1   -1    0    0  501    0  0.00000000000E+00  0.00000000000E+00 -0.12535177796E+04  0.12535177797E+04  0.50400001928E-02 0.  1.
    10030    2    1    2    0    0  0.00000000000E+00  0.00000000000E+00 -0.29407337909E+03  0.22129621802E+04  0.21933359202E+04 0.  0.
        3    1    3    3  502    0 -0.10870489787E+04 -0.13578702694E+03 -0.19815567855E+03  0.11132741270E+04  0.10100000352E+00 0.  1.
       -3    1    3    3    0  502  0.10870489787E+04  0.13578702694E+03 -0.95917700548E+02  0.10996880532E+04  0.10100000352E+00 0. -1.
</event>
<event>
 5   0  0.1226021E-04  0.2201885E+04  0.7818609E-02  0.8517644E-01
       -2   -1    0    0    0  501  0.00000000000E+00  0.00000000000E+00  0.12121673510E+04  0.12121673510E+04  0.25500000920E-02 0.  1.
        2   -1    0    0  501    0  0.00000000000E+00  0.00000000000E+00 -0.99992316997E+03  0.99992316997E+03  0.25500000920E-02 0. -1.
    10030    2    1    2    0    0  0.00000000000E+00  0.00000000000E+00  0.21224418107E+03  0.22120905210E+04  0.22018848473E+04 0.  0.
        2    1    3    3  502    0 -0.57470876885E+03  0.92785287720E+03  0.25126695000E+03  0.11199715224E+04  0.25500000920E-02 0.  1.
       -2    1    3    3    0  502  0.57470876885E+03 -0.92785287720E+03 -0.39022768932E+02  0.10921189987E+04  0.25500000920E-02 0. -1.
</event>
<event>
 5   0  0.5895063E-05  0.2186164E+04  0.7818609E-02  0.8524209E-01
       -1   -1    0    0    0  501  0.00000000000E+00  0.00000000000E+00  0.16534498469E+04  0.16534498469E+04  0.50400001928E-02 0. -1.
        1   -1    0    0  501    0  0.00000000000E+00  0.00000000000E+00 -0.72262734472E+03  0.72262734474E+03  0.50400001928E-02 0.  1.
    10030    2    1    2    0    0  0.00000000000E+00  0.00000000000E+00  0.93082250219E+03  0.23760771917E+04  0.21861638297E+04 0.  0.
        5    1    3    3  502    0 -0.84046845230E+01 -0.40738212189E+03  0.15678083805E+04  0.16199000093E+04  0.46999998093E+01 0. -1.
       -5    1    3    3    0  502  0.84046845230E+01  0.40738212189E+03 -0.63698587834E+03  0.75617718239E+03  0.46999998093E+01 0.  1.
</event>
<event>
 5   0  0.4586375E-05  0.1805728E+04  0.7818609E-02  0.8703259E-01
        3   -1    0    0  501    0  0.00000000000E+00  0.00000000000E+00  0.51026065233E+03  0.51026066232E+03  0.10100000352E+00 0. -1.
       -3   -1    0    0    0  501  0.00000000000E+00  0.00000000000E+00 -0.15975434729E+04  0.15975434761E+04  0.10100000352E+00 0.  1.
    10030    2    1    2    0    0  0.00000000000E+00  0.00000000000E+00 -0.10872828206E+04  0.21078041385E+04  0.18057282060E+04 0.  0.
        5    1    3    3  502    0  0.25882789780E+03  0.66702781918E+03 -0.11864168937E+04  0.13854692807E+04  0.46999998093E+01 0.  1.
       -5    1    3    3    0  502 -0.25882789780E+03 -0.66702781918E+03  0.99134073065E+02  0.72233485772E+03  0.46999998093E+01 0. -1.
</event>
<event>
 5   0  0.5981239E-05  0.2229220E+04  0.7818609E-02  0.8506364E-01
       -1   -1    0    0    0  501  0.00000000000E+00  0.00000000000E+00  0.15487809945E+04  0.15487809945E+04  0.50400001928E-02 0.  1.
        1   -1    0    0  501    0  0.00000000000E+00  0.00000000000E+00 -0.80215048993E+03  0.80215048995E+03  0.50400001928E-02 0. -1.
    10030    2    1    2    0    0  0.00000000000E+00  0.00000000000E+00  0.74663050454E+03  0.23509314844E+04  0.22292199834E+04 0.  0.
        4    1    3    3  502    0 -0.90806907438E+03 -0.56289377248E+03  0.38299784527E+02  0.10690684400E+04  0.12699999809E+01 0. -1.
       -4    1    3    3    0  502  0.90806907438E+03  0.56289377248E+03  0.70833072002E+03  0.12818630445E+04  0.12699999809E+01 0.  1.
</event>
<event>
 5   0  0.5849604E-05  0.2076315E+04  0.7818609E-02  0.8571749E-01
        1   -1    0    0  501    0  0.00000000000E+00  0.00000000000E+00  0.84752351514E+03  0.84752351515E+03  0.50400001928E-02 0.  1.
       -1   -1    0    0    0  501  0.00000000000E+00  0.00000000000E+00 -0.12716709437E+04  0.12716709437E+04  0.50400001928E-02 0. -1.
    10030    2    1    2    0    0  0.00000000000E+00  0.00000000000E+00 -0.42414742854E+03  0.21191944588E+04  0.20763150323E+04 0.  0.
        2    1    3    3  502    0 -0.34961095374E+03  0.55943083679E+03 -0.10302394382E+04  0.12233494922E+04  0.25500000920E-02 0. -1.
       -2    1    3    3    0  502  0.34961095374E+03 -0.55943083679E+03  0.60609200962E+03  0.89584496664E+03  0.25500000920E-02 0.  1.
</event>
<event>
 5   0  0.5895063E-05  0.2165945E+04  0.7818609E-02  0.8532738E-01
        1   -1    0    0  501    0  0.00000000000E+00  0.00000000000E+00  0.13221993938E+04  0.13221993938E+04  0.50400001928E-02 0. -1.
       -1   -1    0    0    0  501  0.00000000000E+00  0.00000000000E+00 -0.88702903531E+03  0.88702903533E+03  0.50400001928E-02 0.  1.
    10030    2    1    2    0    0  0.00000000000E+00  0.00000000000E+00  0.43517035846E+03  0.22092284291E+04  0.21659448310E+04 0.  0.
        5    1    3    3  502    0  0.51810416573E+03 -0.10601701151E+03 -0.74635912205E+03  0.91473797469E+03  0.46999998093E+01 0.  1.
       -5    1    3    3    0  502 -0.51810416573E+03  0.10601701151E+03  0.11815294805E+04  0.12944904544E+04  0.46999998093E+01 0. -1.
</event>
<event>
 5   0  0.5861816E-05  0.2209306E+04  0.7818609E-02  0.8514565E-01
        1   -1    0    0  501    0  0.00000000000E+00  0.00000000000E+00  0.79564729555E+03  0.79564729557E+03  0.50400001928E-02 0. -1.
       -1   -1    0    0    0  501  0.00000000000E+00  0.00000000000E+00 -0.15336678551E+04  0.15336678551E+04  0.50400001928E-02 0.  1.
    10030    2    1    2    0    0  0.00000000000E+00  0.00000000000E+00 -0.73802055954E+03  0.23293151507E+04  0.22093063900E+04 0.  0.
        1    1    3    3  502    0 -0.59639429472E+03 -0.88479904684E+03 -0.67037455250E+03  0.12601418764E+04  0.50400001928E-02 0.  1.
       -1    1    3    3    0  502  0.59639429472E+03  0.88479904684E+03 -0.67646007042E+02  0.10691732742E+04  0.50400001928E-02 0. -1.
</event>
<event>
 5   0  0.1252124E-04  0.2213991E+04  0.7818609E-02  0.8512627E-01
       -2   -1    0    0    0  501  0.00000000000E+00  0.00000000000E+00  0.80797439841E+03  0.80797439841E+03  0.25500000920E-02 0. -1.
        2   -1    0    0  501    0  0.00000000000E+00  0.00000000000E+00 -0.15166804165E+04  0.15166804165E+04  0.25500000920E-02 0.  1.
    10030    2    1    2    0    0  0.00000000000E+00  0.00000000000E+00 -0.70870601813E+03  0.23246548149E+04  0.22139909188E+04 0.  0.
        3    1    3    3  502    0 -0.10562471942E+04  0.14019958945E+03 -0.66956663361E+03  0.12584250265E+04  0.10100000352E+00 0.  1.
       -3    1    3    3    0  502  0.10562471942E+04 -0.14019958945E+03 -0.39139384513E+02  0.10662297885E+04  0.10100000352E+00 0. -1.
</event>
<event>
 5   0  0.1252124E-04  0.1854414E+04  0.7818609E-02  0.8677886E-01
       -2   -1    0    0    0  501  0.00000000000E+00  0.00000000000E+00  0.61520154213E+03  0.61520154213E+03  0.25500000920E-02 0. -1.
        2   -1    0    0  501    0  0.00000000000E+00  0.00000000000E+00 -0.13974494198E+04  0.13974494198E+04  0.25500000920E-02 0.  1.
    10030    2    1    2    0    0  0.00000000000E+00  0.00000000000E+00 -0.78224787772E+03  0.20126509620E+04  0.18544142343E+04 0.  0.
        3    1    3    3  502    0 -0.35350037176E+03  0.83584438522E+03 -0.59737851416E+03  0.10864895069E+04  0.10100000352E+00 0. -1.
       -3    1    3    3    0  502  0.35350037176E+03 -0.83584438522E+03 -0.18486936355E+03  0.92616145511E+03  0.10100000352E+00 0.  1.
</event>
<event>
 5   0  0.5895063E-05  0.2221621E+04  0.7818609E-02  0.8509482E-01
       -1   -1    0    0    0  501  0.00000000000E+00  0.00000000000E+00  0.28171447166E+04  0.28171447166E+04  0.50400001928E-02 0. -1.
        1   -1    0    0  501    0  0.00000000000E+00  0.00000000000E+00 -0.43799684222E+03  0.43799684225E+03  0.50400001928E-02 0.  1.
    10030    2    1    2    0    0  0.00000000000E+00  0.00000000000E+00  0.23791478744E+04  0.32551415589E+04  0.22216214709E+04 0.  0.
        5    1    3    3  502    0 -0.36280695749E+03  0.67926646166E+03  0.16631084592E+02  0.77027949299E+03  0.46999998093E+01 0.  1.
       -5    1    3    3    0  502  0.36280695749E+03 -0.67926646166E+03  0.23625167898E+04  0.24848620659E+04  0.46999998093E+01 0. -1.
</event>
<event>
 5   0  0.6263558E-05  0.2243246E+04  0.7818609E-02  0.8500641E-01
        1   -1    0    0  501    0  0.00000000000E+00  0.00000000000E+00  0.14632338325E+04  0.14632338325E+04  0.50400001928E-02 0.  1.
       -1   -1    0    0    0  501  0.00000000000E+00  0.00000000000E+00 -0.85976536638E+03  0.85976536639E+03  0.50400001928E-02 0. -1.
    10030    2    1    2    0    0  0.00000000000E+00  0.00000000000E+00  0.60346846609E+03  0.23229991989E+04  0.22432456594E+04 0.  0.
        3    1    3    3  502    0 -0.66327631304E+01 -0.18664980371E+03 -0.84354947112E+03  0.86397792981E+03  0.10100000352E+00 0. -1.
       -3    1    3    3    0  502  0.66327631304E+01  0.18664980371E+03  0.14470179372E+04  0.14590212691E+04  0.10100000352E+00 0.  1.
</event>
<event>
 5   0  0.6263558E-05  0.1998193E+04  0.7818609E-02  0.8607466E-01
        1   -1    0    0  501    0  0.00000000000E+00  0.00000000000E+00  0.16293767428E+04  0.16293767428E+04  0.50400001928E-02 0.  1.
       -1   -1    0    0    0  501  0.00000000000E+00  0.00000000000E+00 -0.61262330322E+03  0.61262330324E+03  0.50400001928E-02 0. -1.
    10030    2    1    2    0    0  0.00000000000E+00  0.00000000000E+00  0.10167534396E+04  0.22420000461E+04  0.19981933464E+04 0.  0.
        3    1    3    3  502    0 -0.17636072213E+03 -0.96602097697E+03  0.30180881130E+03  0.10273208851E+04  0.10100000352E+00 0.  1.
       -3    1    3    3    0  502  0.17636072213E+03  0.96602097697E+03  0.71494462829E+03  0.12146791609E+04  0.10100000352E+00 0. -1.
</event>
<event>
 5   0  0.1226021E-04  0.2182465E+04  0.7818609E-02  0.8525762E-01
       -2   -1    0    0    0  501  0.00000000000E+00  0.00000000000E+00  0.11118247464E+04  0.11118247465E+04  0.25500000920E-02 0.  1.
        2   -1    0    0  501    0  0.00000000000E+00  0.00000000000E+00 -0.10710212917E+04  0.10710212917E+04  0.25500000920E-02 0. -1.
    10030    2    1    2    0    0  0.00000000000E+00  0.00000000000E+00  0.40803454738E+02  0.21828460382E+04  0.21824646399E+04 0.  0.
        2    1    3    3  502    0 -0.35993891947E+03 -0.49118998217E+03 -0.88527534742E+03  0.10744933993E+04  0.25500000920E-02 0. -1.
       -2    1    3    3    0  502  0.35993891947E+03  0.49118998217E+03  0.92607880216E+03  0.11083526389E+04  0.25500000920E-02 0.  1.
</event>
<event>
 5   0  0.1226021E-04  0.2234389E+04  0.7818609E-02  0.8504249E-01
       -2   -1    0    0    0  501  0.00000000000E+00  0.00000000000E+00  0.11473730659E+04  0.11473730659E+04  0.25500000920E-02 0.  1.
        2   -1    0    0  501    0  0.00000000000E+00  0.00000000000E+00 -0.10878098762E+04  0.10878098762E+04  0.25500000920E-02 0. -1.
    10030    2    1    2    0    0  0.00000000000E+00  0.00000000000E+00  0.59563189709E+02  0.22351829421E+04  0.22343891808E+04 0.  0.
        2    1    3    3  502    0  0.49945591138E+03  0.55966824247E+03  0.85798814598E+03  0.11396615321E+04  0.25500000920E-02 0.  1.
       -2    1    3    3    0  502 -0.49945591138E+03 -0.55966824247E+03 -0.79842495627E+03  0.10955214100E+04  0.25500000920E-02 0. -1.
</event>
<event>
 5   0  0.5981239E-05  0.2214411E+04  0.7818609E-02  0.8512454E-01
       -1   -1    0    0    0  501  0.00000000000E+00  0.00000000000E+00  0.11811847426E+04  0.11811847426E+04  0.50400001928E-02 0. -1.
        1   -1    0    0  501    0  0.00000000000E+00  0.00000000000E+00 -0.10378600526E+04  0.10378600526E+04  0.50400001928E-02 0.  1.
    10030    2    1    2    0    0  0.00000000000E+00  0.00000000000E+00  0.14332468995E+03  0.22190447952E+04  0.22144113973E+04 0.  0.
        4    1    3    3  502    0  0.40904765498E+03 -0.25065093918E+02  0.11023837082E+04  0.11760951050E+04  0.12699999809E+01 0. -1.
       -4    1    3    3    0  502 -0.40904765498E+03  0.25065093918E+02 -0.95905901825E+03  0.10429496902E+04  0.12699999809E+01 0.  1.
</event>
<event>
 5   0  0.1241430E-04  0.2209406E+04  0.7818609E-02  0.8514523E-01
        2   -1    0    0  501    0  0.00000000000E+00  0.00000000000E+00  0.34207128340E+04  0.34207128340E+04  0.25500000920E-02 0. -1.
       -2   -1    0    0    0  501  0.00000000000E+00  0.00000000000E+00 -0.35675846887E+03  0.35675846888E+03  0.25500000920E-02 0.  1.
    10030    2    1    2    0    0  0.00000000000E+00  0.00000000000E+00  0.30639543651E+04  0.37774713029E+04  0.22094055971E+04 0.  0.
        1    1    3    3  502    0  0.48685609797E+03 -0.99159276747E+03  0.15475719238E+04  0.19013847417E+04  0.50400001928E-02 0. -1.
       -1    1    3    3    0  502 -0.48685609797E+03  0.99159276747E+03  0.15163824414E+04  0.18760865612E+04  0.50400001928E-02 0.  1.
</event>
<event>
 5   0  0.4586375E-05  0.2353932E+04  0.7818609E-02  0.8456955E-01
        3   -1    0    0  501    0  0.00000000000E+00  0.00000000000E+00  0.17123409594E+04  0.17123409624E+04  0.10100000352E+00 0.  1.
       -3   -1    0    0    0  501  0.00000000000E+00  0.00000000000E+00 -0.80897981993E+03  0.80897982624E+03  0.10100000352E+00 0. -1.
    10030    2    1    2    0    0  0.00000000000E+00  0.00000000000E+00  0.90336113951E+03  0.25213207887E+04  0.23539322783E+04 0.  0.
        3    1    3    3  502    0 -0.65392188917E+03  0.60379878156E+03  0.12765483951E+04  0.15562013434E+04  0.10100000352E+00 0.  1.
       -3    1    3    3    0  502  0.65392188917E+03 -0.60379878156E+03 -0.37318725561E+03  0.96511944530E+03  0.10100000352E+00 0. -1.
</event>
<event>
 5   0  0.1404159E-04  0.2184822E+04  0.7818609E-02  0.8524772E-01
        2   -1    0    0  501    0  0.00000000000E+00  0.00000000000E+00  0.14848331934E+04  0.14848331934E+04  0.25500000920E-02 0. -1.
       -2   -1    0    0    0  501  0.00000000000E+00  0.00000000000E+00 -0.80370061347E+03  0.80370061347E+03  0.25500000920E-02 0.  1.
    10030    2    1    2    0    0  0.00000000000E+00  0.00000000000E+00  0.68113257993E+03  0.22885338069E+04  0.21848215931E+04 0.  0.
        5    1    3    3  502    0 -0.14775827712E+03  0.13456700372E+03  0.14655106397E+04  0.14790822533E+04  0.46999998093E+01 0. -1.
       -5    1    3    3    0  502  0.14775827712E+03 -0.13456700372E+03 -0.78437805976E+03  0.80945155357E+03  0.46999998093E+01 0.  1.
</event>
<event>
 5   0  0.1404159E-04  0.2214557E+04  0.7818609E-02  0.8512394E-01
       -2   -1    0    0    0  501  0.00000000000E+00  0.00000000000E+00  0.10313250082E+04  0.10313250082E+04  0.25500000920E-02 0.  1.
        2   -1    0    0  501    0  0.00000000000E+00  0.00000000000E+00 -0.11888253031E+04  0.11888253031E+04  0.25500000920E-02 0. -1.
    10030    2    1    2    0    0  0.00000000000E+00  0.00000000000E+00 -0.15750029488E+03  0.22201503114E+04  0.22145566288E+04 0.  0.
        5    1    3    3  502    0  0.74654491984E+03 -0.71297307167E+03 -0.48024048991E+03  0.11385573927E+04  0.46999998093E+01 0. -1.
       -5    1    3    3    0  502 -0.74654491984E+03  0.71297307167E+03  0.32274019502E+03  0.10815929187E+04  0.46999998093E+01 0.  1.
</event>
<event>
 5   0  0.1226021E-04  0.2184288E+04  0.7818609E-02  0.8524997E-01
       -2   -1    0    0    0  501  0.00000000000E+00  0.00000000000E+00  0.14106240605E+04  0.14106240605E+04  0.25500000920E-02 0. -1.
        2   -1    0    0  501    0  0.00000000000E+00  0.00000000000E+00 -0.84556764817E+03  0.84556764817E+03  0.25500000920E-02 0.  1.
    10030    2    1    2    0    0  0.00000000000E+00  0.00000000000E+00  0.56505641237E+03  0.22561917087E+04  0.21842875903E+04 0.  0.
        2    1    3    3  502    0 -0.90276538898E+03  0.49771280984E+03 -0.90002919487E+02  0.10347965569E+04  0.25500000920E-02 0.  1.
       -2    1    3    3    0  502  0.90276538898E+03 -0.49771280984E+03  0.65505933186E+03  0.12213951518E+04  0.25500000920E-02 0. -1.
</event>
<event>
 5   0  0.5895063E-05  0.2010691E+04  0.7818609E-02  0.8601638E-01
        1   -1    0    0  501    0  0.00000000000E+00  0.00000000000E+00  0.16531214631E+04  0.16531214631E+04  0.50400001928E-02 0.  1.
       -1   -1    0    0    0  501  0.00000000000E+00  0.00000000000E+00 -0.61140094848E+03  0.61140094850E+03  0.50400001928E-02 0. -1.
    10030    2    1    2    0    0  0.00000000000E+00  0.00000000000E+00  0.10417205146E+04  0.22645224116E+04  0.20106914537E+04 0.  0.
        5    1    3    3  502    0 -0.92755262689E+03 -0.32376692792E+03  0.28057465765E+03  0.10217255638E+04  0.46999998093E+01 0. -1.
       -5    1    3    3    0  502  0.92755262689E+03  0.32376692792E+03  0.76114585698E+03  0.12427968478E+04  0.46999998093E+01 0.  1.
</event>
<event>
 5   0  0.1252124E-04  0.2043463E+04  0.7818609E-02  0.8586566E-01
        2   -1    0    0  501    0  0.00000000000E+00  0.00000000000E+00  0.11470839319E+04  0.11470839319E+04  0.25500000920E-02 0. -1.
       -2   -1    0    0    0  501  0.00000000000E+00  0.00000000000E+00 -0.91007756973E+03  0.91007756973E+03  0.25500000920E-02 0.  1.
    10030    2    1    2    0    0  0.00000000000E+00  0.00000000000E+00  0.23700636216E+03  0.20571615016E+04  0.20434630968E+04 0.  0.
        3    1    3    3  502    0  0.33724356271E+02  0.54269745247E+03  0.98933227343E+03  0.11289093031E+04  0.10100000352E+00 0. -1.
       -3    1    3    3    0  502 -0.33724356271E+02 -0.54269745247E+03 -0.75232591128E+03  0.92825219854E+03  0.10100000352E+00 0.  1.
</event>
<event>
 5   0  0.6263558E-05  0.2194300E+04  0.7818609E-02  0.8520804E-01
        1   -1    0    0  501    0  0.00000000000E+00  0.00000000000E+00  0.16599736871E+04  0.16599736871E+04  0.50400001928E-02 0.  1.
       -1   -1    0    0    0  501  0.00000000000E+00  0.00000000000E+00 -0.72515479395E+03  0.72515479397E+03  0.50400001928E-02 0. -1.
    10030    2    1    2    0    0  0.00000000000E+00  0.00000000000E+00  0.93481889313E+03  0.23851284811E+04  0.21942997763E+04 0.  0.
        3    1    3    3  502    0 -0.10396287510E+04 -0.28294129704E+03  0.24239403797E+03  0.11043724903E+04  0.10100000352E+00 0. -1.
       -3    1    3    3    0  502  0.10396287510E+04  0.28294129704E+03  0.69242485516E+03  0.12807559907E+04  0.10100000352E+00 0.  1.
</event>
<event>
 5   0  0.1311472E-04  0.2176991E+04  0.7818609E-02  0.8528066E-01
       -2   -1    0    0    0  501  0.00000000000E+00  0.00000000000E+00  0.47658612155E+03  0.47658612156E+03  0.25500000920E-02 0. -1.
        2   -1    0    0  501    0  0.00000000000E+00  0.00000000000E+00 -0.24860617994E+04  0.24860617994E+04  0.25500000920E-02 0.  1.
    10030    2    1    2    0    0  0.00000000000E+00  0.00000000000E+00 -0.20094756779E+04  0.29626479210E+04  0.21769910895E+04 0.  0.
        4    1    3    3  502    0  0.78378898774E+03 -0.68201243965E+03 -0.14464613756E+04  0.17809318541E+04  0.12699999809E+01 0.  1.
       -4    1    3    3    0  502 -0.78378898774E+03  0.68201243965E+03 -0.56301430229E+03  0.11817160668E+04  0.12699999809E+01 0. -1.
</event>
<event>
 5   0  0.5849604E-05  0.1632266E+04  0.7818609E-02  0.8800967E-01
       -1   -1    0    0    0  501  0.00000000000E+00  0.00000000000E+00  0.11339677008E+04  0.11339677008E+04  0.50400001928E-02 0.  1.
        1   -1    0    0  501    0  0.00000000000E+00  0.00000000000E+00 -0.58738288959E+03  0.58738288961E+03  0.50400001928E-02 0. -1.
    10030    2    1    2    0    0  0.00000000000E+00  0.00000000000E+00  0.54658481125E+03  0.17213505905E+04  0.16322661852E+04 0.  0.
        2    1    3    3  502    0 -0.72290265612E+02  0.33034641382E+03 -0.51002388324E+03  0.61194689076E+03  0.25500000920E-02 0. -1.
       -2    1    3    3    0  502  0.72290265612E+02 -0.33034641382E+03  0.10566086945E+04  0.11094036997E+04  0.25500000920E-02 0.  1.
</event>
<event>
 5   0  0.5861816E-05  0.2206242E+04  0.7818609E-02  0.8515835E-01
        1   -1    0    0  501    0  0.00000000000E+00  0.00000000000E+00  0.17195723564E+04  0.17195723564E+04  0.50400001928E-02 0. -1.
       -1   -1    0    0    0  501  0.00000000000E+00  0.00000000000E+00 -0.70766180670E+03  0.70766180672E+03  0.50400001928E-02 0.  1.
    10030    2    1    2    0    0  0.00000000000E+00  0.00000000000E+00  0.10119105497E+04  0.24272341631E+04  0.22062417642E+04 0.  0.
        1    1    3    3  502    0 -0.30123004944E+02 -0.92919008387E+03 -0.14730125722E+03  0.94127534112E+03  0.50400001928E-02 0.  1.
       -1    1    3    3    0  502  0.30123004944E+02  0.92919008387E+03  0.11592118069E+04  0.14859588220E+04  0.50400001928E-02 0. -1.
</event>
<event>
 5   0  0.1404159E-04  0.2232933E+04  0.7818609E-02  0.8504845E-01
       -2   -1    0    0    0  501  0.00000000000E+00  0.00000000000E+00  0.15782437329E+04  0.15782437329E+04  0.25500000920E-02 0. -1.
        2   -1    0    0  501    0  0.00000000000E+00  0.00000000000E+00 -0.78980004486E+03  0.78980004486E+03  0.25500000920E-02 0.  1.
    10030    2    1    2    0    0  0.00000000000E+00  0.00000000000E+00  0.78844368802E+03  0.23680437778E+04  0.22329325749E+04 0.  0.
        5    1    3    3  502    0  0.11935914741E+03 -0.36232786667E+03  0.15069710232E+04  0.15545133785E+04  0.46999998093E+01 0. -1.
       -5    1    3    3    0  502 -0.11935914741E+03  0.36232786667E+03 -0.71852733522E+03  0.81353039925E+03  0.46999998093E+01 0.  1.
</event>
<event>
 5   0  0.5895063E-05  0.2181810E+04  0.7818609E-02  0.8526038E-01
        1   -1    0    0  501    0  0.00000000000E+00  0.00000000000E+00  0.17503418129E+04  0.17503418129E+04  0.50400001928E-02 0. -1.
       -1   -1    0    0    0  501  0.00000000000E+00  0.00000000000E+00 -0.67990917600E+03  0.67990917602E+03  0.50400001928E-02 0.  1.
    10030    2    1    2    0    0  0.00000000000E+00  0.00000000000E+00  0.10704326369E+04  0.24302509889E+04  0.21818097623E+04 0.  0.
        5    1    3    3  502    0 -0.80716191466E+03 -0.67731623008E+03  0.84984002066E+03  0.13537052053E+04  0.46999998093E+01 0. -1.
       -5    1    3    3    0  502  0.80716191466E+03  0.67731623008E+03  0.22059261624E+03  0.10765457837E+04  0.46999998093E+01 0.  1.
</event>
<event>
 5   0  0.1252124E-04  0.2175225E+04  0.7818609E-02  0.8528811E-01
       -2   -1    0    0    0  501  0.00000000000E+00  0.00000000000E+00  0.81774289284E+03  0.81774289284E+03  0.25500000920E-02 0.  1.
        2   -1    0    0  501    0  0.00000000000E+00  0.00000000000E+00 -0.14465433561E+04  0.14465433561E+04  0.25500000920E-02 0. -1.
    10030    2    1    2    0    0  0.00000000000E+00  0.00000000000E+00 -0.62880046330E+03  0.22642862490E+04  0.21752246309E+04 0.  0.
        3    1    3    3  502    0  0.52668484886E+03 -0.69499591919E+03 -0.99100101191E+03  0.13200376031E+04  0.10100000352E+00 0. -1.
       -3    1    3    3    0  502 -0.52668484886E+03  0.69499591919E+03  0.36220054861E+03  0.94424864592E+03  0.10100000352E+00 0.  1.
</event>
<event>
 5   0  0.1241430E-04  0.1651820E+04  0.7818609E-02  0.8789330E-01
        2   -1    0    0  501    0  0.00000000000E+00  0.00000000000E+00  0.12798739280E+04  0.12798739280E+04  0.25500000920E-02 0.  1.
       -2   -1    0    0    0  501  0.00000000000E+00  0.00000000000E+00 -0.53296458924E+03  0.53296458924E+03  0.25500000920E-02 0. -1.
    10030    2    1    2    0    0  0.00000000000E+00  0.00000000000E+00  0.74690933881E+03  0.18128385173E+04  0.16518201868E+04 0.  0.
        1    1    3    3  502    0 -0.80826543149E+02 -0.72015010653E+03  0.80828143303E+03  0.10855726512E+04  0.50400001928E-02 0.  1.
       -1    1    3    3    0  502  0.80826543149E+02  0.72015010653E+03 -0.61372094225E+02  0.72726586609E+03  0.50400001928E-02 0. -1.
</event>
<event>
 5   0  0.5849604E-05  0.2204940E+04  0.7818609E-02  0.8516375E-01
        1   -1    0    0  501    0  0.00000000000E+00  0.00000000000E+00  0.20819258303E+04  0.20819258303E+04  0.50400001928E-02 0. -1.
       -1   -1    0    0    0  501  0.00000000000E+00  0.00000000000E+00 -0.58380590950E+03  0.58380590952E+03  0.50400001928E-02 0.  1.
    10030    2    1    2    0    0  0.00000000000E+00  0.00000000000E+00  0.14981199208E+04  0.26657317398E+04  0.22049404554E+04 0.  0.
        2    1    3    3  502    0  0.14061367027E+03  0.86622588295E+03 -0.57722081498E+02  0.87946081394E+03  0.25500000920E-02 0.  1.
       -2    1    3    3    0  502 -0.14061367027E+03 -0.86622588295E+03  0.15558420023E+04  0.17862709259E+04  0.25500000920E-02 0. -1.
</event>
<event>
 5   0  0.5849604E-05  0.2286996E+04  0.7818609E-02  0.8483066E-01
       -1   -1    0    0    0  501  0.00000000000E+00  0.00000000000E+00  0.11945813362E+04  0.11945813362E+04  0.50400001928E-02 0. -1.
        1   -1    0    0  501    0  0.00000000000E+00  0.00000000000E+00 -0.10945991494E+04  0.10945991494E+04  0.50400001928E-02 0.  1.
    10030    2    1    2    0    0  0.00000000000E+00  0.00000000000E+00  0.99982186812E+02  0.22891804856E+04  0.22869960337E+04 0.  0.
        2    1    3    3  502    0  0.82397878578E+03 -0.48145347345E+03 -0.58057032372E+03  0.11170498589E+04  0.25500000920E-02 0.  1.
       -2    1    3    3    0  502 -0.82397878578E+03  0.48145347345E+03  0.68055251053E+03  0.11721306267E+04  0.25500000920E-02 0. -1.
</event>
<event>
 5   0  0.1252124E-04  0.2269136E+04  0.7818609E-02  0.8490191E-01
       -2   -1    0    0    0  501  0.00000000000E+00  0.00000000000E+00  0.13628455071E+04  0.13628455071E+04  0.25500000920E-02 0. -1.
        2   -1    0    0  501    0  0.00000000000E+00  0.00000000000E+00 -0.94452696818E+03  0.94452696819E+03  0.25500000920E-02 0.  1.
    10030    2    1    2    0    0  0.00000000000E+00  0.00000000000E+00  0.41831853892E+03  0.23073724753E+04  0.22691358134E+04 0.  0.
        3    1    3    3  502    0 -0.34558843716E+03  0.10071627107E+04 -0.18915070141E+03  0.10814740366E+04  0.10100000352E+00 0. -1.
       -3    1    3    3    0  502  0.34558843716E+03 -0.10071627107E+04  0.60746924033E+03  0.12258984387E+04  0.10100000352E+00 0.  1.
</event>
<event>
 5   0  0.1252124E-04  0.2325831E+04  0.7818609E-02  0.8467806E-01
        2   -1    0    0  501    0  0.00000000000E+00  0.00000000000E+00  0.14224532591E+04  0.14224532591E+04  0.25500000920E-02 0. -1.
       -2   -1    0    0    0  501  0.00000000000E+00  0.00000000000E+00 -0.95073214608E+03  0.95073214608E+03  0.25500000920E-02 0.  1.
    10030    2    1    2    0    0  0.00000000000E+00  0.00000000000E+00  0.47172111301E+03  0.23731854052E+04  0.23258306385E+04 0.  0.
        3    1    3    3  502    0 -0.21109889735E+03 -0.56150425220E+03  0.12523987705E+04  0.13886513099E+04  0.10100000352E+00 0. -1.
       -3    1    3    3    0  502  0.21109889735E+03  0.56150425220E+03 -0.78067765752E+03  0.98453409533E+03  0.10100000352E+00 0.  1.
</event>
<event>
 5   0  0.5981239E-05  0.2197787E+04  0.7818609E-02  0.8519350E-01
        1   -1    0    0  501    0  0.00000000000E+00  0.00000000000E+00  0.14488921253E+04  0.14488921253E+04  0.50400001928E-02 0.  1.
       -1   -1    0    0    0  501  0.00000000000E+00  0.00000000000E+00 -0.83344190171E+03  0.83344190173E+03  0.50400001928E-02 0. -1.
    10030    2    1    2    0    0  0.00000000000E+00  0.00000000000E+00  0.61545022357E+03  0.22823340270E+04  0.21977874404E+04 0.  0.
        4    1    3    3  502    0 -0.18293098612E+03 -0.87924334777E+03 -0.34990800293E+03  0.96383081176E+03  0.12699999809E+01 0. -1.
       -4    1    3    3    0  502  0.18293098612E+03  0.87924334777E+03  0.96535822649E+03  0.13185032153E+04  0.12699999809E+01 0.  1.
</event>
<event>
 5   0  0.5981239E-05  0.2202030E+04  0.7818609E-02  0.8517583E-01
        1   -1    0    0  501    0  0.00000000000E+00  0.00000000000E+00  0.18844255368E+04  0.18844255368E+04  0.50400001928E-02 0.  1.
       -1   -1    0    0    0  501  0.00000000000E+00  0.00000000000E+00 -0.64329127005E+03  0.64329127007E+03  0.50400001928E-02 0. -1.
    10030    2    1    2    0    0  0.00000000000E+00  0.00000000000E+00  0.12411342668E+04  0.25277168069E+04  0.22020304239E+04 0.  0.
        4    1    3    3  502    0  0.49629622867E+03  0.14115492503E+03 -0.49591110298E+03  0.71565640808E+03  0.12699999809E+01 0. -1.
       -4    1    3    3    0  502 -0.49629622867E+03 -0.14115492503E+03  0.17370453697E+04  0.18120603988E+04  0.12699999809E+01 0.  1.
</event>
<event>
 5   0  0.5861816E-05  0.2181117E+04  0.7818609E-02  0.8526329E-01
       -1   -1    0    0    0  501  0.00000000000E+00  0.00000000000E+00  0.11526408494E+04  0.11526408494E+04  0.50400001928E-02 0. -1.
        1   -1    0    0  501    0  0.00000000000E+00  0.00000000000E+00 -0.10318199780E+04  0.10318199780E+04  0.50400001928E-02 0.  1.
    10030    2    1    2    0    0  0.00000000000E+00  0.00000000000E+00  0.12082087134E+03  0.21844608274E+04  0.21811170128E+04 0.  0.
        1    1    3    3  502    0  0.14175498525E+03 -0.35432524978E+03 -0.96276086929E+03  0.10356395850E+04  0.50400001928E-02 0.  1.
       -1    1    3    3    0  502 -0.14175498525E+03  0.35432524978E+03  0.10835817406E+04  0.11488212425E+04  0.50400001928E-02 0. -1.
</event>
<event>
 5   0  0.5861816E-05  0.2126864E+04  0.7818609E-02  0.8549501E-01
       -1   -1    0    0    0  501  0.00000000000E+00  0.00000000000E+00  0.11144876287E+04  0.11144876287E+04  0.50400001928E-02 0.  1.
        1   -1    0    0  501    0  0.00000000000E+00  0.00000000000E+00 -0.10147153043E+04  0.10147153043E+04  0.50400001928E-02 0. -1.
    10030    2    1    2    0    0  0.00000000000E+00  0.00000000000E+00  0.99772324436E+02  0.21292029330E+04  0.21268640326E+04 0.  0.
        1    1    3    3  502    0  0.32820968411E+03  0.13622455984E+03 -0.95351787718E+03  0.10175829546E+04  0.50400001928E-02 0. -1.
       -1    1    3    3    0  502 -0.32820968411E+03 -0.13622455984E+03  0.10532902016E+04  0.11116199784E+04  0.50400001928E-02 0.  1.
</event>
<event>
 5   0  0.5849604E-05  0.2253464E+04  0.7818609E-02  0.8496499E-01
        1   -1    0    0  501    0  0.00000000000E+00  0.00000000000E+00  0.25279915845E+04  0.25279915845E+04  0.50400001928E-02 0.  1.
       -1   -1    0    0    0  501  0.00000000000E+00  0.00000000000E+00 -0.50218725298E+03  0.50218725300E+03  0.50400001928E-02 0. -1.
    10030    2    1    2    0    0  0.00000000000E+00  0.00000000000E+00  0.20258043315E+04  0.30301788375E+04  0.22534641328E+04 0.  0.
        2    1    3    3  502    0 -0.50948309316E+03  0.18593216866E+03  0.23409228390E+04  0.24029281162E+04  0.25500000920E-02 0.  1.
       -2    1    3    3    0  502  0.50948309316E+03 -0.18593216866E+03 -0.31511850749E+03  0.62725072127E+03  0.25500000920E-02 0. -1.
</event>
<event>
 5   0  0.5895063E-05  0.2237685E+04  0.7818609E-02  0.8502904E-01
        1   -1    0    0  501    0  0.00000000000E+00  0.00000000000E+00  0.17204937996E+04  0.17204937996E+04  0.50400001928E-02 0. -1.
       -1   -1    0    0    0  501  0.00000000000E+00  0.00000000000E+00 -0.72758686071E+03  0.72758686073E+03  0.50400001928E-02 0.  1.
    10030    2    1    2    0    0  0.00000000000E+00  0.00000000000E+00  0.99290693891E+03  0.24480806603E+04  0.22376851276E+04 0.  0.
        5    1    3    3  502    0 -0.66447764580E+03  0.46771900420E+03 -0.34494609062E+03  0.88278055262E+03  0.46999998093E+01 0.  1.
       -5    1    3    3    0  502  0.66447764580E+03 -0.46771900420E+03  0.13378530295E+04  0.15653001077E+04  0.46999998093E+01 0. -1.
</event>
<event>
 5   0  0.5849604E-05  0.2196100E+04  0.7818609E-02  0.8520053E-01
       -1   -1    0    0    0  501  0.00000000000E+00  0.00000000000E+00  0.75436785337E+03  0.75436785338E+03  0.50400001928E-02 0.  1.
        1   -1    0    0  501    0  0.00000000000E+00  0.00000000000E+00 -0.15983102492E+04  0.15983102492E+04  0.50400001928E-02 0. -1.
    10030    2    1    2    0    0  0.00000000000E+00  0.00000000000E+00 -0.84394239584E+03  0.23526781026E+04  0.21961000631E+04 0.  0.
        2    1    3    3  502    0  0.52346964810E+03 -0.53246470555E+03  0.44052350372E+03  0.86694872540E+03  0.25500000920E-02 0.  1.
       -2    1    3    3    0  502 -0.52346964810E+03  0.53246470555E+03 -0.12844658996E+04  0.14857293772E+04  0.25500000920E-02 0. -1.
</event>
<event>
 5   0  0.1241430E-04  0.2221064E+04  0.7818609E-02  0.8509712E-01
       -2   -1    0    0    0  501  0.00000000000E+00  0.00000000000E+00  0.11537984414E+04  0.11537984415E+04  0.25500000920E-02 0. -1.
        2   -1    0    0  501    0  0.00000000000E+00  0.00000000000E+00 -0.10688880771E+04  0.10688880771E+04  0.25500000920E-02 0.  1.
    10030    2    1    2    0    0  0.00000000000E+00  0.00000000000E+00  0.84910364353E+02  0.22226865185E+04  0.22210640670E+04 0.  0.
        1    1    3    3  502    0  0.53263607154E+03  0.84549414705E+03 -0.44237767914E+03  0.10928218283E+04  0.50400001928E-02 0.  1.
       -1    1    3    3    0  502 -0.53263607154E+03 -0.84549414705E+03  0.52728804349E+03  0.11298646902E+04  0.50400001928E-02 0. -1.
</event>
<event>
 5   0  0.1241430E-04  0.2184638E+04  0.7818609E-02  0.8524850E-01
        2   -1    0    0  501    0  0.00000000000E+00  0.00000000000E+00  0.12133179461E+04  0.12133179461E+04  0.25500000920E-02 0.  1.
       -2   -1    0    0    0  501  0.00000000000E+00  0.00000000000E+00 -0.98338644521E+03  0.98338644521E+03  0.25500000920E-02 0. -1.
    10030    2    1    2    0    0  0.00000000000E+00  0.00000000000E+00  0.22993150092E+03  0.21967043913E+04  0.21846376560E+04 0.  0.
        1    1    3    3  502    0 -0.79773926374E+03  0.50806223333E+03  0.66446868146E+03  0.11558692809E+04  0.50400001928E-02 0.  1.
       -1    1    3    3    0  502  0.79773926374E+03 -0.50806223333E+03 -0.43453718054E+03  0.10408351104E+04  0.50400001928E-02 0. -1.
</event>
<event>
 5   0  0.1226021E-04  0.2191631E+04  0.7818609E-02  0.8521920E-01
       -2   -1    0    0    0  501  0.00000000000E+00  0.00000000000E+00  0.20807899948E+04  0.20807899948E+04  0.25500000920E-02 0. -1.
        2   -1    0    0  501    0  0.00000000000E+00  0.00000000000E+00 -0.57709402184E+03  0.57709402185E+03  0.25500000920E-02 0.  1.
    10030    2    1    2    0    0  0.00000000000E+00  0.00000000000E+00  0.15036959729E+04  0.26578840166E+04  0.21916308692E+04 0.  0.
        2    1    3    3  502    0 -0.10282462846E+04 -0.16007330599E+03  0.33543806827E+03  0.10933583962E+04  0.25500000920E-02 0.  1.
       -2    1    3    3    0  502  0.10282462846E+04  0.16007330599E+03  0.11682579047E+04  0.15645256204E+04  0.25500000920E-02 0. -1.
</event>
<event>
 5   0  0.5981239E-05  0.2244820E+04  0.7818609E-02  0.8500001E-01
       -1   -1    0    0    0  501  0.00000000000E+00  0.00000000000E+00  0.84124948971E+03  0.84124948973E+03  0.50400001928E-02 0.  1.
        1   -1    0    0  501    0  0.00000000000E+00  0.00000000000E+00 -0.14975391186E+04  0.14975391186E+04  0.50400001928E-02 0. -1.
    10030    2    1    2    0    0  0.00000000000E+00  0.00000000000E+00 -0.65628962888E+03  0.23387886083E+04  0.22448198319E+04 0.  0.
        4    1    3    3  502    0  0.96078455801E+03  0.12441487027E+03 -0.91862906804E+03  0.13350906353E+04  0.12699999809E+01 0. -1.
       -4    1    3    3    0  502 -0.96078455801E+03 -0.12441487027E+03  0.26233943916E+03  0.10036979730E+04  0.12699999809E+01 0.  1.
</event>
<event>
 5   0  0.5981239E-05  0.2180731E+04  0.7818609E-02  0.8526491E-01
        1   -1    0    0  501    0  0.00000000000E+00  0.00000000000E+00  0.12392457056E+04  0.12392457056E+04  0.50400001928E-02 0.  1.
       -1   -1    0    0    0  501  0.00000000000E+00  0.00000000000E+00 -0.95937184248E+03  0.95937184249E+03  0.50400001928E-02 0. -1.
    10030    2    1    2    0    0  0.00000000000E+00  0.00000000000E+00  0.27987386311E+03  0.21986175481E+04  0.21807314698E+04 0.  0.
        4    1    3    3  502    0 -0.42870132465E+03  0.99176374714E+03  0.28782219760E+03  0.11181338856E+04  0.12699999809E+01 0. -1.
       -4    1    3    3    0  502  0.42870132465E+03 -0.99176374714E+03 -0.79483344967E+01  0.10804836624E+04  0.12699999809E+01 0.  1.
</event>
<event>
 5   0  0.5861816E-05  0.2161771E+04  0.7818609E-02  0.8534510E-01
       -1   -1    0    0    0  501  0.00000000000E+00  0.00000000000E+00  0.17186285958E+04  0.17186285958E+04  0.50400001928E-02 0. -1.
        1   -1    0    0  501    0  0.00000000000E+00  0.00000000000E+00 -0.67979433814E+03  0.67979433816E+03  0.50400001928E-02 0.  1.
    10030    2    1    2    0    0  0.00000000000E+00  0.00000000000E+00  0.10388342576E+04  0.23984229340E+04  0.21617714854E+04 0.  0.
        1    1    3    3  502    0  0.42944823792E+03  0.94823682986E+03  0.84237635358E+03  0.13390955140E+04  0.50400001928E-02 0. -1.
       -1    1    3    3    0  502 -0.42944823792E+03 -0.94823682986E+03  0.19645790406E+03  0.10593274199E+04  0.50400001928E-02 0.  1.
</event>
<event>
 5   0  0.5849604E-05  0.2222268E+04  0.7818609E-02  0.8509217E-01
       -1   -1    0    0    0  501  0.00000000000E+00  0.00000000000E+00  0.12644259026E+04  0.12644259026E+04  0.50400001928E-02 0. -1.
        1   -1    0    0  501    0  0.00000000000E+00  0.00000000000E+00 -0.97642613900E+03  0.97642613901E+03  0.50400001928E-02 0.  1.
    10030    2    1    2    0    0  0.00000000000E+00  0.00000000000E+00  0.28799976359E+03  0.22408520416E+04  0.22222677626E+04 0.  0.
        2    1    3    3  502    0 -0.10624412189E+03  0.34778017119E+03 -0.91472321552E+03  0.98435634906E+03  0.25500000920E-02 0.  1.
       -2    1    3    3    0  502  0.10624412189E+03 -0.34778017119E+03  0.12027229791E+04  0.12564956926E+04  0.25500000920E-02 0. -1.
</event>
<event>
 5   0  0.5849604E-05  0.2199103E+04  0.7818609E-02  0.8518802E-01
       -1   -1    0    0    0  501  0.00000000000E+00  0.00000000000E+00  0.80904484539E+03  0.80904484541E+03  0.50400001928E-02 0.  1.
        1   -1    0    0  501    0  0.00000000000E+00  0.00000000000E+00 -0.14943714162E+04  0.14943714162E+04  0.50400001928E-02 0. -1.
    10030    2    1    2    0    0  0.00000000000E+00  0.00000000000E+00 -0.68532657081E+03  0.23034162616E+04  0.21991029911E+04 0.  0.
        2    1    3    3  502    0  0.20361459160E+03  0.46539818330E+02 -0.14734019650E+04  0.14881324561E+04  0.25500000920E-02 0. -1.
       -2    1    3    3    0  502 -0.20361459160E+03 -0.46539818330E+02  0.78807539416E+03  0.81528380549E+03  0.25500000920E-02 0.  1.
</event>
<event>
 5   0  0.1252124E-04  0.2197100E+04  0.7818609E-02  0.8519636E-01
       -2   -1    0    0    0  501  0.00000000000E+00  0.00000000000E+00  0.54578912349E+03  0.54578912350E+03  0.25500000920E-02 0. -1.
        2   -1    0    0  501    0  0.00000000000E+00  0.00000000000E+00 -0.22111319348E+04  0.22111319348E+04  0.25500000920E-02 0.  1.
    10030    2    1    2    0    0  0.00000000000E+00  0.00000000000E+00 -0.16653428113E+04  0.27569210583E+04  0.21970996888E+04 0.  0.
        3    1    3    3  502    0  0.62387249131E+03 -0.85259348861E+03 -0.45481357428E+03  0.11502121282E+04  0.10100000352E+00 0.  1.
       -3    1    3    3    0  502 -0.62387249131E+03  0.85259348861E+03 -0.12105292370E+04  0.16067089301E+04  0.10100000352E+00 0. -1.
</event>
<event>
 5   0  0.1241430E-04  0.2195881E+04  0.7818609E-02  0.8520144E-01
       -2   -1    0    0    0  501  0.00000000000E+00  0.00000000000E+00  0.85313648815E+03  0.85313648816E+03  0.25500000920E-02 0. -1.
        2   -1    0    0  501    0  0.00000000000E+00  0.00000000000E+00 -0.14129906409E+04  0.14129906409E+04  0.25500000920E-02 0.  1.
    10030    2    1    2    0    0  0.00000000000E+00  0.00000000000E+00 -0.55985415271E+03  0.22661271290E+04  0.21958814842E+04 0.  0.
        1    1    3    3  502    0  0.93277729743E+03 -0.21835181033E+02  0.31731205616E+03  0.98551367456E+03  0.50400001928E-02 0. -1.
       -1    1    3    3    0  502 -0.93277729743E+03  0.21835181033E+02 -0.87716620887E+03  0.12806134545E+04  0.50400001928E-02 0.  1.
</event>
<event>
 5   0  0.1252124E-04  0.2191163E+04  0.7818609E-02  0.8522115E-01
       -2   -1    0    0    0  501  0.00000000000E+00  0.00000000000E+00  0.95306643628E+03  0.95306643629E+03  0.25500000920E-02 0.  1.
        2   -1    0    0  501    0  0.00000000000E+00  0.00000000000E+00 -0.12594075508E+04  0.12594075508E+04  0.25500000920E-02 0. -1.
    10030    2    1    2    0    0  0.00000000000E+00  0.00000000000E+00 -0.30634111451E+03  0.22124739871E+04  0.21911632219E+04 0.  0.
        3    1    3    3  502    0  0.98373784940E+03 -0.29628534918E+03 -0.53736277875E+03  0.11594325900E+04  0.10100000352E+00 0. -1.
       -3    1    3    3    0  502 -0.98373784940E+03  0.29628534918E+03  0.23102166424E+03  0.10530413971E+04  0.10100000352E+00 0.  1.
</event>
<event>
 5   0  0.5861816E-05  0.1362001E+04  0.7818609E-02  0.8981793E-01
       -1   -1    0    0    0  501  0.00000000000E+00  0.00000000000E+00  0.57189924127E+03  0.57189924129E+03  0.50400001928E-02 0. -1.
        1   -1    0    0  501    0  0.00000000000E+00  0.00000000000E+00 -0.81091531420E+03  0.81091531421E+03  0.50400001928E-02 0.  1.
    10030    2    1    2    0    0  0.00000000000E+00  0.00000000000E+00 -0.23901607293E+03  0.13828145555E+04  0.13620012525E+04 0.  0.
        1    1    3    3  502    0 -0.18821304012E+03  0.65442398967E+03 -0.12781513568E+03  0.69284313929E+03  0.50400001928E-02 0.  1.
       -1    1    3    3    0  502  0.18821304012E+03 -0.65442398967E+03 -0.11120093725E+03  0.68997141621E+03  0.50400001928E-02 0. -1.
</event>
<event>
 5   0  0.1226021E-04  0.1389284E+04  0.7818609E-02  0.8961612E-01
       -2   -1    0    0    0  501  0.00000000000E+00  0.00000000000E+00  0.71113975116E+03  0.71113975117E+03  0.25500000920E-02 0. -1.
        2   -1    0    0  501    0  0.00000000000E+00  0.00000000000E+00 -0.67852700312E+03  0.67852700312E+03  0.25500000920E-02 0.  1.
    10030    2    1    2    0    0  0.00000000000E+00  0.00000000000E+00  0.32612748046E+02  0.13896667543E+04  0.13892840230E+04 0.  0.
        2    1    3    3  502    0 -0.29216984217E+03  0.23674726309E+03  0.60051781954E+03  0.70854367180E+03  0.25500000920E-02 0. -1.
       -2    1    3    3    0  502  0.29216984217E+03 -0.23674726309E+03 -0.56790507150E+03  0.68112308248E+03  0.25500000920E-02 0.  1.
</event>
<event>
 5   0  0.1226021E-04  0.2196624E+04  0.7818609E-02  0.8519835E-01
        2   -1    0    0  501    0  0.00000000000E+00  0.00000000000E+00  0.20877983829E+04  0.20877983829E+04  0.25500000920E-02 0.  1.
       -2   -1    0    0    0  501  0.00000000000E+00  0.00000000000E+00 -0.57778041191E+03  0.57778041191E+03  0.25500000920E-02 0. -1.
    10030    2    1    2    0    0  0.00000000000E+00  0.00000000000E+00  0.15100179710E+04  0.26655787948E+04  0.21966237818E+04 0.  0.
        2    1    3    3  502    0 -0.69823389140E+03 -0.73710267645E+03  0.12632828574E+04  0.16207203647E+04  0.25500000920E-02 0.  1.
       -2    1    3    3    0  502  0.69823389140E+03  0.73710267645E+03  0.24673511361E+03  0.10448584301E+04  0.25500000920E-02 0. -1.
</event>
<event>
 5   0  0.5981239E-05  0.2203524E+04  0.7818609E-02  0.8516963E-01
       -1   -1    0    0    0  501  0.00000000000E+00  0.00000000000E+00  0.21648923936E+04  0.21648923936E+04  0.50400001928E-02 0.  1.
        1   -1    0    0  501    0  0.00000000000E+00  0.00000000000E+00 -0.56071122472E+03  0.56071122474E+03  0.50400001928E-02 0. -1.
    10030    2    1    2    0    0  0.00000000000E+00  0.00000000000E+00  0.16041811688E+04  0.27256036183E+04  0.22035239644E+04 0.  0.
        4    1    3    3  502    0  0.94162027809E+03  0.46581974097E+03  0.39139821337E+03  0.11210847218E+04  0.12699999809E+01 0. -1.
       -4    1    3    3    0  502 -0.94162027809E+03 -0.46581974097E+03  0.12127829555E+04  0.16045188965E+04  0.12699999809E+01 0.  1.
</event>
<event>
 5   0  0.5849604E-05  0.1499152E+04  0.7818609E-02  0.8885017E-01
        1   -1    0    0  501    0  0.00000000000E+00  0.00000000000E+00  0.89342391307E+03  0.89342391309E+03  0.50400001928E-02 0.  1.
       -1   -1    0    0    0  501  0.00000000000E+00  0.00000000000E+00 -0.62888893213E+03  0.62888893215E+03  0.50400001928E-02 0. -1.
    10030    2    1    2    0    0  0.00000000000E+00  0.00000000000E+00  0.26453498094E+03  0.15223128452E+04  0.14991523080E+04 0.  0.
        2    1    3    3  502    0 -0.61288091943E+03 -0.41928093351E+03  0.23604662607E+03  0.77919030557E+03  0.25500000920E-02 0. -1.
       -2    1    3    3    0  502  0.61288091943E+03  0.41928093351E+03  0.28488354871E+02  0.74312253968E+03  0.25500000920E-02 0.  1.
</event>
<event>
 5   0  0.5895063E-05  0.2190662E+04  0.7818609E-02  0.8522325E-01
       -1   -1    0    0    0  501  0.00000000000E+00  0.00000000000E+00  0.19562465066E+04  0.19562465066E+04  0.50400001928E-02 0. -1.
        1   -1    0    0  501    0  0.00000000000E+00  0.00000000000E+00 -0.61329191388E+03  0.61329191390E+03  0.50400001928E-02 0.  1.
    10030    2    1    2    0    0  0.00000000000E+00  0.00000000000E+00  0.13429545927E+04  0.25695384205E+04  0.21906621502E+04 0.  0.
        5    1    3    3  502    0  0.92129653599E+03 -0.46905132386E+03  0.10959033015E+04  0.15065930399E+04  0.46999998093E+01 0. -1.
       -5    1    3    3    0  502 -0.92129653599E+03  0.46905132386E+03  0.24705129123E+03  0.10629453806E+04  0.46999998093E+01 0.  1.
</event>
<event>
 5   0  0.1311472E-04  0.1909804E+04  0.7818609E-02  0.8649992E-01
        2   -1    0    0  501    0  0.00000000000E+00  0.00000000000E+00  0.84094091189E+03  0.84094091189E+03  0.25500000920E-02 0. -1.
       -2   -1    0    0    0  501  0.00000000000E+00  0.00000000000E+00 -0.10843064692E+04  0.10843064692E+04  0.25500000920E-02 0.  1.
    10030    2    1    2    0    0  0.00000000000E+00  0.00000000000E+00 -0.24336555734E+03  0.19252473811E+04  0.19098038339E+04 0.  0.
        4    1    3    3  502    0  0.42278715941E+03 -0.30640197157E+03  0.68428528044E+03  0.86074334634E+03  0.12699999809E+01 0. -1.
       -4    1    3    3    0  502 -0.42278715941E+03  0.30640197157E+03 -0.92765083778E+03  0.10645040348E+04  0.12699999809E+01 0.  1.
</event>
<event>
 5   0  0.5895063E-05  0.2352033E+04  0.7818609E-02  0.8457683E-01
        1   -1    0    0  501    0  0.00000000000E+00  0.00000000000E+00  0.12621443856E+04  0.12621443856E+04  0.50400001928E-02 0. -1.
       -1   -1    0    0    0  501  0.00000000000E+00  0.00000000000E+00 -0.10957656904E+04  0.10957656905E+04  0.50400001928E-02 0.  1.
    10030    2    1    2    0    0  0.00000000000E+00  0.00000000000E+00  0.16637869514E+03  0.23579100760E+04  0.23520327499E+04 0.  0.
        5    1    3    3  502    0  0.11000457300E+04 -0.19127479576E+03 -0.28692932140E+03  0.11528387489E+04  0.46999998093E+01 0. -1.
       -5    1    3    3    0  502 -0.11000457300E+04  0.19127479576E+03  0.45330801653E+03  0.12050713271E+04  0.46999998093E+01 0.  1.
</event>
<event>
 5   0  0.1241430E-04  0.2255038E+04  0.7818609E-02  0.8495863E-01
        2   -1    0    0  501    0  0.00000000000E+00  0.00000000000E+00  0.87461603381E+03  0.87461603381E+03  0.25500000920E-02 0. -1.
       -2   -1    0    0    0  501  0.00000000000E+00  0.00000000000E+00 -0.14535514458E+04  0.14535514458E+04  0.25500000920E-02 0.  1.
    10030    2    1    2    0    0  0.00000000000E+00  0.00000000000E+00 -0.57893541200E+03  0.23281674796E+04  0.22550382706E+04 0.  0.
        1    1    3    3  502    0 -0.10404648851E+04 -0.33330328677E+03 -0.57714544719E+03  0.12356193287E+04  0.50400001928E-02 0.  1.
       -1    1    3    3    0  502  0.10404648851E+04  0.33330328677E+03 -0.17899648160E+01  0.10925481510E+04  0.50400001928E-02 0. -1.
</event>
<event>
 5   0  0.5895063E-05  0.2258429E+04  0.7818609E-02  0.8494495E-01
        1   -1    0    0  501    0  0.00000000000E+00  0.00000000000E+00  0.18512879854E+04  0.18512879854E+04  0.50400001928E-02 0. -1.
       -1   -1    0    0    0  501  0.00000000000E+00  0.00000000000E+00 -0.68877722116E+03  0.68877722118E+03  0.50400001928E-02 0.  1.
    10030    2    1    2    0    0  0.00000000000E+00  0.00000000000E+00  0.11625107642E+04  0.25400652066E+04  0.22584286521E+04 0.  0.
        5    1    3    3  502    0 -0.90083956899E+03  0.67123821192E+03  0.45287027016E+03  0.12112746335E+04  0.46999998093E+01 0.  1.
       -5    1    3    3    0  502  0.90083956899E+03 -0.67123821192E+03  0.70964049406E+03  0.13287905730E+04  0.46999998093E+01 0. -1.
</event>
<event>
 5   0  0.6263558E-05  0.2234917E+04  0.7818609E-02  0.8504034E-01
       -1   -1    0    0    0  501  0.00000000000E+00  0.00000000000E+00  0.11535008406E+04  0.11535008406E+04  0.50400001928E-02 0. -1.
        1   -1    0    0  501    0  0.00000000000E+00  0.00000000000E+00 -0.10825421611E+04  0.10825421612E+04  0.50400001928E-02 0.  1.
    10030    2    1    2    0    0  0.00000000000E+00  0.00000000000E+00  0.70958679426E+02  0.22360430017E+04  0.22349168153E+04 0.  0.
        3    1    3    3  502    0  0.84106345316E+03 -0.41987221971E+03 -0.56900461064E+03  0.10988387826E+04  0.10100000352E+00 0.  1.
       -3    1    3    3    0  502 -0.84106345316E+03  0.41987221971E+03  0.63996329006E+03  0.11372042191E+04  0.10100000352E+00 0. -1.
</event>
<event>
 5   0  0.6263558E-05  0.2176521E+04  0.7818609E-02  0.8528265E-01
        1   -1    0    0  501    0  0.00000000000E+00  0.00000000000E+00  0.21575170031E+04  0.21575170031E+04  0.50400001928E-02 0. -1.
       -1   -1    0    0    0  501  0.00000000000E+00  0.00000000000E+00 -0.54892295252E+03  0.54892295254E+03  0.50400001928E-02 0.  1.
    10030    2    1    2    0    0  0.00000000000E+00  0.00000000000E+00  0.16085940506E+04  0.27064399556E+04  0.21765207129E+04 0.  0.
        3    1    3    3  502    0 -0.47268621478E+02  0.12604513565E+03 -0.53852990552E+03  0.55510014244E+03  0.10100000352E+00 0.  1.
       -3    1    3    3    0  502  0.47268621478E+02 -0.12604513565E+03  0.21471239561E+04  0.21513398132E+04  0.10100000352E+00 0. -1.
</event>
<event>
 5   0  0.5895063E-05  0.1980476E+04  0.7818609E-02  0.8615804E-01
       -1   -1    0    0    0  501  0.00000000000E+00  0.00000000000E+00  0.12617134041E+04  0.12617134042E+04  0.50400001928E-02 0. -1.
        1   -1    0    0  501    0  0.00000000000E+00  0.00000000000E+00 -0.77717402910E+03  0.77717402911E+03  0.50400001928E-02 0.  1.
    10030    2    1    2    0    0  0.00000000000E+00  0.00000000000E+00  0.48453937505E+03  0.20388874333E+04  0.19804755892E+04 0.  0.
        5    1    3    3  502    0 -0.30409651990E+03 -0.46206014199E+03 -0.60327920600E+03  0.81849994418E+03  0.46999998093E+01 0.  1.
       -5    1    3    3    0  502  0.30409651990E+03  0.46206014199E+03  0.10878185811E+04  0.12203874891E+04  0.46999998093E+01 0. -1.
</event>
<event>
 5   0  0.1311472E-04  0.2279628E+04  0.7818609E-02  0.8485997E-01
        2   -1    0    0  501    0  0.00000000000E+00  0.00000000000E+00  0.17632959672E+04  0.17632959672E+04  0.25500000920E-02 0. -1.
       -2   -1    0    0    0  501  0.00000000000E+00  0.00000000000E+00 -0.73678868705E+03  0.73678868706E+03  0.25500000920E-02 0.  1.
    10030    2    1    2    0    0  0.00000000000E+00  0.00000000000E+00  0.10265072802E+04  0.25000846543E+04  0.22796284966E+04 0.  0.
        4    1    3    3  502    0  0.26928098488E+03  0.11000789278E+04  0.65408129527E+03  0.13078646145E+04  0.12699999809E+01 0.  1.
       -4    1    3    3    0  502 -0.26928098488E+03 -0.11000789278E+04  0.37242598492E+03  0.11922200398E+04  0.12699999809E+01 0. -1.
</event>
<event>
 5   0  0.1252124E-04  0.2187232E+04  0.7818609E-02  0.8523761E-01
        2   -1    0    0  501    0  0.00000000000E+00  0.00000000000E+00  0.13269305994E+04  0.13269305994E+04  0.25500000920E-02 0.  1.
       -2   -1    0    0    0  501  0.00000000000E+00  0.00000000000E+00 -0.90132557092E+03  0.90132557092E+03  0.25500000920E-02 0. -1.
    10030    2    1    2    0    0  0.00000000000E+00  0.00000000000E+00  0.42560502852E+03  0.22282561704E+04  0.21872324798E+04 0.  0.
        3    1    3    3  502    0 -0.95806086754E+03  0.52256091157E+03  0.14043542351E+03  0.11003057078E+04  0.10100000352E+00 0.  1.
       -3    1    3    3    0  502  0.95806086754E+03 -0.52256091157E+03  0.28516960501E+03  0.11279504626E+04  0.10100000352E+00 0. -1.
</event>
<event>
 5   0  0.1226021E-04  0.2085964E+04  0.7818609E-02  0.8567452E-01
       -2   -1    0    0    0  501  0.00000000000E+00  0.00000000000E+00  0.16564606178E+04  0.16564606178E+04  0.25500000920E-02 0.  1.
        2   -1    0    0  501    0  0.00000000000E+00  0.00000000000E+00 -0.65670826115E+03  0.65670826115E+03  0.25500000920E-02 0. -1.
    10030    2    1    2    0    0  0.00000000000E+00  0.00000000000E+00  0.99975235665E+03  0.23131688790E+04  0.20859639230E+04 0.  0.
        2    1    3    3  502    0 -0.79999442289E+03 -0.17993053956E+03  0.12146316206E+04  0.14655019787E+04  0.25500000920E-02 0.  1.
       -2    1    3    3    0  502  0.79999442289E+03  0.17993053956E+03 -0.21487926396E+03  0.84766690027E+03  0.25500000920E-02 0. -1.
</event>
<event>
 5   0  0.1241430E-04  0.1994965E+04  0.7818609E-02  0.8608979E-01
        2   -1    0    0  501    0  0.00000000000E+00  0.00000000000E+00  0.29145258126E+04  0.29145258126E+04  0.25500000920E-02 0.  1.
       -2   -1    0    0    0  501  0.00000000000E+00  0.00000000000E+00 -0.34138346217E+03  0.34138346217E+03  0.25500000920E-02 0. -1.
    10030    2    1    2    0    0  0.00000000000E+00  0.00000000000E+00  0.25731423504E+04  0.32559092747E+04  0.19949645736E+04 0.  0.
        1    1    3    3  502    0  0.82703663436E+03 -0.42812634096E+03  0.18697666048E+04  0.20888534929E+04  0.50400001928E-02 0.  1.
       -1    1    3    3    0  502 -0.82703663436E+03  0.42812634096E+03  0.70337574563E+03  0.11670557819E+04  0.50400001928E-02 0. -1.
</event>
<event>
 5   0  0.1404159E-04  0.2193712E+04  0.7818609E-02  0.8521050E-01
        2   -1    0    0  501    0  0.00000000000E+00  0.00000000000E+00  0.68471279110E+03  0.68471279110E+03  0.25500000920E-02 0.  1.
       -2   -1    0    0    0  501  0.00000000000E+00  0.00000000000E+00 -0.17570765151E+04  0.17570765151E+04  0.25500000920E-02 0. -1.
    10030    2    1    2    0    0  0.00000000000E+00  0.00000000000E+00 -0.10723637240E+04  0.24417893062E+04  0.21937117083E+04 0.  0.
        5    1    3    3  502    0  0.39050410026E+03 -0.10196746486E+04 -0.42028812335E+03  0.11699974521E+04  0.46999998093E+01 0. -1.
       -5    1    3    3    0  502 -0.39050410026E+03  0.10196746486E+04 -0.65207560061E+03  0.12717918541E+04  0.46999998093E+01 0.  1.
</event>
<event>
 5   0  0.1252124E-04  0.2205650E+04  0.7818609E-02  0.8516080E-01
        2   -1    0    0  501    0  0.00000000000E+00  0.00000000000E+00  0.69142185114E+03  0.69142185115E+03  0.25500000920E-02 0. -1.
       -2   -1    0    0    0  501  0.00000000000E+00  0.00000000000E+00 -0.17590170396E+04  0.17590170396E+04  0.25500000920E-02 0.  1.
    10030    2    1    2    0    0  0.00000000000E+00  0.00000000000E+00 -0.10675951884E+04  0.24504388907E+04  0.22056498523E+04 0.  0.
        3    1    3    3  502    0  0.35632460501E+03 -0.29695923196E+03 -0.16453749824E+04  0.17095060259E+04  0.10100000352E+00 0.  1.
       -3    1    3    3    0  502 -0.35632460501E+03  0.29695923196E+03  0.57777979401E+03  0.74093286481E+03  0.10100000352E+00 0. -1.
</event>
<event>
 5   0  0.5861816E-05  0.2171183E+04  0.7818609E-02  0.8530519E-01
       -1   -1    0    0    0  501  0.00000000000E+00  0.00000000000E+00  0.58532370657E+03  0.58532370659E+03  0.50400001928E-02 0.  1.
        1   -1    0    0  501    0  0.00000000000E+00  0.00000000000E+00 -0.20134314509E+04  0.20134314509E+04  0.50400001928E-02 0. -1.
    10030    2    1    2    0    0  0.00000000000E+00  0.00000000000E+00 -0.14281077443E+04  0.25987551575E+04  0.21711832348E+04 0.  0.
        1    1    3    3  502    0  0.26441281806E+03  0.72421525494E+03 -0.16288307930E+04  0.18020798057E+04  0.50400001928E-02 0. -1.
       -1    1    3    3    0  502 -0.26441281806E+03 -0.72421525494E+03  0.20072304868E+03  0.79667535178E+03  0.50400001928E-02 0.  1.
</event>
<event>
 5   0  0.6263558E-05  0.2245428E+04  0.7818609E-02  0.8499755E-01
        1   -1    0    0  501    0  0.00000000000E+00  0.00000000000E+00  0.20273055172E+04  0.20273055172E+04  0.50400001928E-02 0.  1.
       -1   -1    0    0    0  501  0.00000000000E+00  0.00000000000E+00 -0.62175444757E+03  0.62175444759E+03  0.50400001928E-02 0. -1.
    10030    2    1    2    0    0  0.00000000000E+00  0.00000000000E+00  0.14055510696E+04  0.26490599648E+04  0.22454275512E+04 0.  0.
        3    1    3    3  502    0 -0.38385701454E+03 -0.75122858924E+03 -0.17119754719E+03  0.86081311054E+03  0.10100000352E+00 0. -1.
       -3    1    3    3    0  502  0.38385701454E+03  0.75122858924E+03  0.15767486168E+04  0.17882468543E+04  0.10100000352E+00 0.  1.
</event>
<event>
 5   0  0.5895063E-05  0.2194207E+04  0.7818609E-02  0.8520843E-01
        1   -1    0    0  501    0  0.00000000000E+00  0.00000000000E+00  0.13681522175E+04  0.13681522175E+04  0.50400001928E-02 0. -1.
       -1   -1    0    0    0  501  0.00000000000E+00  0.00000000000E+00 -0.87975278691E+03  0.87975278692E+03  0.50400001928E-02 0.  1.
    10030    2    1    2    0    0  0.00000000000E+00  0.00000000000E+00  0.48839943061E+03  0.22479050044E+04  0.21942066687E+04 0.  0.
        5    1    3    3  502    0  0.97955919605E+03  0.25831723244E+02 -0.26124045678E+03  0.10141361658E+04  0.46999998093E+01 0.  1.
       -5    1    3    3    0  502 -0.97955919605E+03 -0.25831723244E+02  0.74963988738E+03  0.12337688387E+04  0.46999998093E+01 0. -1.
</event>
<event>
 5   0  0.6263558E-05  0.2157762E+04  0.7818609E-02  0.8536217E-01
       -1   -1    0    0    0  501  0.00000000000E+00  0.00000000000E+00  0.75640333174E+03  0.75640333176E+03  0.50400001928E-02 0.  1.
        1   -1    0    0  501    0  0.00000000000E+00  0.00000000000E+00 -0.15388404194E+04  0.15388404194E+04  0.50400001928E-02 0. -1.
    10030    2    1    2    0    0  0.00000000000E+00  0.00000000000E+00 -0.78243708762E+03  0.22952437511E+04  0.21577618221E+04 0.  0.
        3    1    3    3  502    0 -0.30819725378E+02 -0.24243856684E+03 -0.15090093321E+04  0.15286711513E+04  0.10100000352E+00 0. -1.
       -3    1    3    3    0  502  0.30819725378E+02  0.24243856684E+03  0.72657224449E+03  0.76657259984E+03  0.10100000352E+00 0.  1.
</event>
<event>
 5   0  0.1226021E-04  0.2191085E+04  0.7818609E-02  0.8522148E-01
        2   -1    0    0  501    0  0.00000000000E+00  0.00000000000E+00  0.10174577882E+04  0.10174577882E+04  0.25500000920E-02 0. -1.
       -2   -1    0    0    0  501  0.00000000000E+00  0.00000000000E+00 -0.11796193152E+04  0.11796193152E+04  0.25500000920E-02 0.  1.
    10030    2    1    2    0    0  0.00000000000E+00  0.00000000000E+00 -0.16216152698E+03  0.21970771034E+04  0.21910845345E+04 0.  0.
        2    1    3    3  502    0  0.41425479956E+03 -0.49541861774E+03  0.80630638825E+03  0.10330424181E+04  0.25500000920E-02 0. -1.
       -2    1    3    3    0  502 -0.41425479956E+03  0.49541861774E+03 -0.96846791523E+03  0.11640346853E+04  0.25500000920E-02 0.  1.
</event>
<event>
 5   0  0.1241430E-04  0.2199981E+04  0.7818609E-02  0.8518436E-01
        2   -1    0    0  501    0  0.00000000000E+00  0.00000000000E+00  0.16364241722E+04  0.16364241722E+04  0.25500000920E-02 0.  1.
       -2   -1    0    0    0  501  0.00000000000E+00  0.00000000000E+00 -0.73940456319E+03  0.73940456319E+03  0.25500000920E-02 0. -1.
    10030    2    1    2    0    0  0.00000000000E+00  0.00000000000E+00  0.89701960898E+03  0.23758287354E+04  0.21999813638E+04 0.  0.
        1    1    3    3  502    0  0.79452341740E+03  0.75326393437E+03  0.33368367664E+03  0.11445605321E+04  0.50400001928E-02 0. -1.
       -1    1    3    3    0  502 -0.79452341740E+03 -0.75326393437E+03  0.56333593234E+03  0.12312682032E+04  0.50400001928E-02 0.  1.
</event>
<event>
 5   0  0.6263558E-05  0.1711158E+04  0.7818609E-02  0.8755026E-01
       -1   -1    0    0    0  501  0.00000000000E+00  0.00000000000E+00  0.86799940986E+03  0.86799940987E+03  0.50400001928E-02 0.  1.
        1   -1    0    0  501    0  0.00000000000E+00  0.00000000000E+00 -0.84333625682E+03  0.84333625684E+03  0.50400001928E-02 0. -1.
    10030    2    1    2    0    0  0.00000000000E+00  0.00000000000E+00  0.24663153032E+02  0.17113356667E+04  0.17111579392E+04 0.  0.
        3    1    3    3  502    0  0.18088941480E+03 -0.40570212172E+01 -0.82398366919E+03  0.84361515936E+03  0.10100000352E+00 0. -1.
       -3    1    3    3    0  502 -0.18088941480E+03  0.40570212172E+01  0.84864682222E+03  0.86772050735E+03  0.10100000352E+00 0.  1.
</event>
<event>
 5   0  0.5849604E-05  0.2028465E+04  0.7818609E-02  0.8593427E-01
       -1   -1    0    0    0  501  0.00000000000E+00  0.00000000000E+00  0.15709209550E+04  0.15709209550E+04  0.50400001928E-02 0.  1.
        1   -1    0    0  501    0  0.00000000000E+00  0.00000000000E+00 -0.65481788372E+03  0.65481788374E+03  0.50400001928E-02 0. -1.
    10030    2    1    2    0    0  0.00000000000E+00  0.00000000000E+00  0.91610307125E+03  0.22257388387E+04  0.20284645772E+04 0.  0.
        2    1    3    3  502    0  0.65908616736E+03  0.75230551640E+03  0.64266730917E+03  0.11888563565E+04  0.25500000920E-02 0.  1.
       -2    1    3    3    0  502 -0.65908616736E+03 -0.75230551640E+03  0.27343576207E+03  0.10368824823E+04  0.25500000920E-02 0. -1.
</event>
<event>
 5   0  0.1226021E-04  0.2232186E+04  0.7818609E-02  0.8505150E-01
        2   -1    0    0  501    0  0.00000000000E+00  0.00000000000E+00  0.11510525084E+04  0.11510525084E+04  0.25500000920E-02 0. -1.
       -2   -1    0    0    0  501  0.00000000000E+00  0.00000000000E+00 -0.10821951862E+04  0.10821951862E+04  0.25500000920E-02 0.  1.
    10030    2    1    2    0    0  0.00000000000E+00  0.00000000000E+00  0.68857322213E+02  0.22332476946E+04  0.22321859095E+04 0.  0.
        2    1    3    3  502    0 -0.42360013372E+03  0.61525284793E+03 -0.79523676974E+03  0.10910429231E+04  0.25500000920E-02 0.  1.
       -2    1    3    3    0  502  0.42360013372E+03 -0.61525284793E+03  0.86409409196E+03  0.11422047715E+04  0.25500000920E-02 0. -1.
</event>
<event>
 5   0  0.5981239E-05  0.2147770E+04  0.7818609E-02  0.8540488E-01
       -1   -1    0    0    0  501  0.00000000000E+00  0.00000000000E+00  0.87393312924E+03  0.87393312925E+03  0.50400001928E-02 0. -1.
        1   -1    0    0  501    0  0.00000000000E+00  0.00000000000E+00 -0.13195845156E+04  0.13195845157E+04  0.50400001928E-02 0.  1.
    10030    2    1    2    0    0  0.00000000000E+00  0.00000000000E+00 -0.44565138641E+03  0.21935176449E+04  0.21477696572E+04 0.  0.
        4    1    3    3  502    0 -0.81211831327E+03 -0.12341905005E+02 -0.94031257237E+03  0.12425288021E+04  0.12699999809E+01 0.  1.
       -4    1    3    3    0  502  0.81211831327E+03  0.12341905005E+02  0.49466118596E+03  0.95098884282E+03  0.12699999809E+01 0. -1.
</event>
<event>
 5   0  0.1241430E-04  0.1965299E+04  0.7818609E-02  0.8623019E-01
        2   -1    0    0  501    0  0.00000000000E+00  0.00000000000E+00  0.19418301534E+04  0.19418301534E+04  0.25500000920E-02 0. -1.
       -2   -1    0    0    0  501  0.00000000000E+00  0.00000000000E+00 -0.49726283072E+03  0.49726283073E+03  0.25500000920E-02 0.  1.
    10030    2    1    2    0    0  0.00000000000E+00  0.00000000000E+00  0.14445673227E+04  0.24390929841E+04  0.19652989176E+04 0.  0.
        1    1    3    3  502    0 -0.63935034150E+03 -0.26151713974E+03 -0.14508814677E+03  0.70584038132E+03  0.50400001928E-02 0.  1.
       -1    1    3    3    0  502  0.63935034150E+03  0.26151713974E+03  0.15896554694E+04  0.17332526028E+04  0.50400001928E-02 0. -1.
</event>
<event>
 5   0  0.5981239E-05  0.2227229E+04  0.7818609E-02  0.8507180E-01
       -1   -1    0    0    0  501  0.00000000000E+00  0.00000000000E+00  0.78041041942E+03  0.78041041944E+03  0.50400001928E-02 0. -1.
        1   -1    0    0  501    0  0.00000000000E+00  0.00000000000E+00 -0.15890833248E+04  0.15890833248E+04  0.50400001928E-02 0.  1.
    10030    2    1    2    0    0  0.00000000000E+00  0.00000000000E+00 -0.80867290533E+03  0.23694937442E+04  0.22272289366E+04 0.  0.
        4    1    3    3  502    0 -0.80220994523E+03  0.68326400341E+03 -0.21127056504E+02  0.10539632157E+04  0.12699999809E+01 0. -1.
       -4    1    3    3    0  502  0.80220994523E+03 -0.68326400341E+03 -0.78754584883E+03  0.13155305285E+04  0.12699999809E+01 0.  1.
</event>
<event>
 5   0  0.5861816E-05  0.2142466E+04  0.7818609E-02  0.8542764E-01
       -1   -1    0    0    0  501  0.00000000000E+00  0.00000000000E+00  0.12077234277E+04  0.12077234277E+04  0.50400001928E-02 0. -1.
        1   -1    0    0  501    0  0.00000000000E+00  0.00000000000E+00 -0.95016840190E+03  0.95016840192E+03  0.50400001928E-02 0.  1.
    10030    2    1    2    0    0  0.00000000000E+00  0.00000000000E+00  0.25755502576E+03  0.21578918296E+04  0.21424664658E+04 0.  0.
        1    1    3    3  502    0 -0.76439008837E+03  0.74132527235E+03  0.10951179300E+02  0.10648827611E+04  0.50400001928E-02 0.  1.
       -1    1    3    3    0  502  0.76439008837E+03 -0.74132527235E+03  0.24660384646E+03  0.10930090685E+04  0.50400001928E-02 0. -1.
</event>
<event>
 5   0  0.5849604E-05  0.2226349E+04  0.7818609E-02  0.8507541E-01
        1   -1    0    0  501    0  0.00000000000E+00  0.00000000000E+00  0.61319027662E+03  0.61319027664E+03  0.50400001928E-02 0. -1.
       -1   -1    0    0    0  501  0.00000000000E+00  0.00000000000E+00 -0.20208365751E+04  0.20208365751E+04  0.50400001928E-02 0.  1.
    10030    2    1    2    0    0  0.00000000000E+00  0.00000000000E+00 -0.14076462985E+04  0.26340268518E+04  0.22263488842E+04 0.  0.
        2    1    3    3  502    0  0.69310375346E+03 -0.75100756494E+03 -0.12259404936E+04  0.15960373647E+04  0.25500000920E-02 0.  1.
       -2    1    3    3    0  502 -0.69310375346E+03  0.75100756494E+03 -0.18170580486E+03  0.10379894870E+04  0.25500000920E-02 0. -1.
</event>
<event>
 5   0  0.1241430E-04  0.2227643E+04  0.7818609E-02  0.8507010E-01
       -2   -1    0    0    0  501  0.00000000000E+00  0.00000000000E+00  0.42703407006E+03  0.42703407007E+03  0.25500000920E-02 0. -1.
        2   -1    0    0  501    0  0.00000000000E+00  0.00000000000E+00 -0.29051512819E+04  0.29051512819E+04  0.25500000920E-02 0.  1.
    10030    2    1    2    0    0  0.00000000000E+00  0.00000000000E+00 -0.24781172119E+04  0.33321853520E+04  0.22276432175E+04 0.  0.
        1    1    3    3  502    0 -0.10446253665E+04 -0.11273333472E+03 -0.17920069275E+04  0.20773155248E+04  0.50400001928E-02 0.  1.
       -1    1    3    3    0  502  0.10446253665E+04  0.11273333472E+03 -0.68611028432E+03  0.12548698272E+04  0.50400001928E-02 0. -1.
</event>
<event>
 5   0  0.1404159E-04  0.2234334E+04  0.7818609E-02  0.8504272E-01
       -2   -1    0    0    0  501  0.00000000000E+00  0.00000000000E+00  0.59258429127E+03  0.59258429127E+03  0.25500000920E-02 0.  1.
        2   -1    0    0  501    0  0.00000000000E+00  0.00000000000E+00 -0.21061349927E+04  0.21061349927E+04  0.25500000920E-02 0. -1.
    10030    2    1    2    0    0  0.00000000000E+00  0.00000000000E+00 -0.15135507014E+04  0.26987192840E+04  0.22343343635E+04 0.  0.
        5    1    3    3  502    0  0.38831881251E+03  0.86173440060E+03 -0.14760873958E+04  0.17527788701E+04  0.46999998093E+01 0. -1.
       -5    1    3    3    0  502 -0.38831881251E+03 -0.86173440060E+03 -0.37463305587E+02  0.94594041387E+03  0.46999998093E+01 0.  1.
</event>
<event>
 5   0  0.5895063E-05  0.2199199E+04  0.7818609E-02  0.8518762E-01
        1   -1    0    0  501    0  0.00000000000E+00  0.00000000000E+00  0.13047591723E+04  0.13047591723E+04  0.50400001928E-02 0.  1.
       -1   -1    0    0    0  501  0.00000000000E+00  0.00000000000E+00 -0.92669884491E+03  0.92669884492E+03  0.50400001928E-02 0. -1.
    10030    2    1    2    0    0  0.00000000000E+00  0.00000000000E+00  0.37806032741E+03  0.22314580173E+04  0.21991987795E+04 0.  0.
        5    1    3    3  502    0 -0.17137917623E+03 -0.48924215940E+03 -0.79492012876E+03  0.94902519128E+03  0.46999998093E+01 0. -1.
       -5    1    3    3    0  502  0.17137917623E+03  0.48924215940E+03  0.11729804562E+04  0.12824328260E+04  0.46999998093E+01 0.  1.
</event>
<event>
 5   0  0.1311472E-04  0.1949632E+04  0.7818609E-02  0.8630538E-01
        2   -1    0    0  501    0  0.00000000000E+00  0.00000000000E+00  0.13171385129E+04  0.13171385130E+04  0.25500000920E-02 0.  1.
       -2   -1    0    0    0  501  0.00000000000E+00  0.00000000000E+00 -0.72146228957E+03  0.72146228958E+03  0.25500000920E-02 0. -1.
    10030    2    1    2    0    0  0.00000000000E+00  0.00000000000E+00  0.59567622338E+03  0.20386008025E+04  0.19496315213E+04 0.  0.
        4    1    3    3  502    0  0.83687463982E+03  0.40914341929E+03  0.59818569412E+03  0.11070615330E+04  0.12699999809E+01 0.  1.
       -4    1    3    3    0  502 -0.83687463982E+03 -0.40914341929E+03 -0.25094707405E+01  0.93153926952E+03  0.12699999809E+01 0. -1.
</event>
<event>
 5   0  0.5861816E-05  0.2187793E+04  0.7818609E-02  0.8523526E-01
        1   -1    0    0  501    0  0.00000000000E+00  0.00000000000E+00  0.19617959414E+04  0.19617959414E+04  0.50400001928E-02 0.  1.
       -1   -1    0    0    0  501  0.00000000000E+00  0.00000000000E+00 -0.60995608582E+03  0.60995608584E+03  0.50400001928E-02 0. -1.
    10030    2    1    2    0    0  0.00000000000E+00  0.00000000000E+00  0.13518398555E+04  0.25717520272E+04  0.21877928363E+04 0.  0.
        1    1    3    3  502    0  0.16945049550E+03  0.27877853816E+02  0.19458517733E+04  0.19534148994E+04  0.50400001928E-02 0.  1.
       -1    1    3    3    0  502 -0.16945049550E+03 -0.27877853816E+02 -0.59401191780E+03  0.61833712785E+03  0.50400001928E-02 0. -1.
</event>
<event>
 5   0  0.5895063E-05  0.2171045E+04  0.7818609E-02  0.8530577E-01
       -1   -1    0    0    0  501  0.00000000000E+00  0.00000000000E+00  0.60985470265E+03  0.60985470267E+03  0.50400001928E-02 0. -1.
        1   -1    0    0  501    0  0.00000000000E+00  0.00000000000E+00 -0.19321968798E+04  0.19321968798E+04  0.50400001928E-02 0.  1.
    10030    2    1    2    0    0  0.00000000000E+00  0.00000000000E+00 -0.13223421772E+04  0.25420515825E+04  0.21710452355E+04 0.  0.
        5    1    3    3  502    0 -0.13705058921E+03 -0.38695497362E+03  0.51545242678E+03  0.65896153900E+03  0.46999998093E+01 0. -1.
       -5    1    3    3    0  502  0.13705058921E+03  0.38695497362E+03 -0.18377946040E+04  0.18830900435E+04  0.46999998093E+01 0.  1.
</event>
<event>
 5   0  0.5849604E-05  0.2224823E+04  0.7818609E-02  0.8508167E-01
       -1   -1    0    0    0  501  0.00000000000E+00  0.00000000000E+00  0.89956993630E+03  0.89956993632E+03  0.50400001928E-02 0.  1.
        1   -1    0    0  501    0  0.00000000000E+00  0.00000000000E+00 -0.13756121608E+04  0.13756121608E+04  0.50400001928E-02 0. -1.
    10030    2    1    2    0    0  0.00000000000E+00  0.00000000000E+00 -0.47604222446E+03  0.22751820971E+04  0.22248229987E+04 0.  0.
        2    1    3    3  502    0 -0.35666691552E+03 -0.68895362119E+03  0.57726407774E+03  0.96700682327E+03  0.25500000920E-02 0.  1.
       -2    1    3    3    0  502  0.35666691552E+03  0.68895362119E+03 -0.10533063022E+04  0.13081752738E+04  0.25500000920E-02 0. -1.
</event>
<event>
 5   0  0.5849604E-05  0.2214628E+04  0.7818609E-02  0.8512364E-01
        1   -1    0    0  501    0  0.00000000000E+00  0.00000000000E+00  0.10197906154E+04  0.10197906154E+04  0.50400001928E-02 0.  1.
       -1   -1    0    0    0  501  0.00000000000E+00  0.00000000000E+00 -0.12023494575E+04  0.12023494575E+04  0.50400001928E-02 0. -1.
    10030    2    1    2    0    0  0.00000000000E+00  0.00000000000E+00 -0.18255884216E+03  0.22221400729E+04  0.22146283600E+04 0.  0.
        2    1    3    3  502    0 -0.74266124006E+03 -0.81252547928E+03  0.29133126067E+02  0.11011776019E+04  0.25500000920E-02 0.  1.
       -2    1    3    3    0  502  0.74266124006E+03  0.81252547928E+03 -0.21169196823E+03  0.11209624710E+04  0.25500000920E-02 0. -1.
</event>
<event>
 5   0  0.5895063E-05  0.2199776E+04  0.7818609E-02  0.8518521E-01
        1   -1    0    0  501    0  0.00000000000E+00  0.00000000000E+00  0.45241430054E+03  0.45241430057E+03  0.50400001928E-02 0. -1.
       -1   -1    0    0    0  501  0.00000000000E+00  0.00000000000E+00 -0.26739957008E+04  0.26739957008E+04  0.50400001928E-02 0.  1.
    10030    2    1    2    0    0  0.00000000000E+00  0.00000000000E+00 -0.22215814002E+04  0.31264100013E+04  0.21997762565E+04 0.  0.
        5    1    3    3  502    0 -0.24894517292E+03  0.74175607789E+03 -0.12147336853E+02  0.78252503219E+03  0.46999998093E+01 0. -1.
       -5    1    3    3    0  502  0.24894517292E+03 -0.74175607789E+03 -0.22094340634E+04  0.23438849691E+04  0.46999998093E+01 0.  1.
</event>
<event>
 5   0  0.5895063E-05  0.2106064E+04  0.7818609E-02  0.8558577E-01
        1   -1    0    0  501    0  0.00000000000E+00  0.00000000000E+00  0.21373749420E+04  0.21373749420E+04  0.50400001928E-02 0. -1.
       -1   -1    0    0    0  501  0.00000000000E+00  0.00000000000E+00 -0.51880302294E+03  0.51880302297E+03  0.50400001928E-02 0.  1.
    10030    2    1    2    0    0  0.00000000000E+00  0.00000000000E+00  0.16185719190E+04  0.26561779650E+04  0.21060641786E+04 0.  0.
        5    1    3    3  502    0 -0.95833330483E+03  0.14410821475E+03  0.28976057749E+03  0.10115103474E+04  0.46999998093E+01 0.  1.
       -5    1    3    3    0  502  0.95833330483E+03 -0.14410821475E+03  0.13288113415E+04  0.16446676175E+04  0.46999998093E+01 0. -1.
</event>
<event>
 5   0  0.5849604E-05  0.2181941E+04  0.7818609E-02  0.8525982E-01
       -1   -1    0    0    0  501  0.00000000000E+00  0.00000000000E+00  0.14916907977E+04  0.14916907977E+04  0.50400001928E-02 0.  1.
        1   -1    0    0  501    0  0.00000000000E+00  0.00000000000E+00 -0.79789760962E+03  0.79789760963E+03  0.50400001928E-02 0. -1.
    10030    2    1    2    0    0  0.00000000000E+00  0.00000000000E+00  0.69379318807E+03  0.22895884073E+04  0.21819408991E+04 0.  0.
        2    1    3    3  502    0 -0.85539315261E+02  0.59579148314E+03  0.13016952160E+04  0.14341181615E+04  0.25500000920E-02 0.  1.
       -2    1    3    3    0  502  0.85539315261E+02 -0.59579148314E+03 -0.60790202795E+03  0.85547024579E+03  0.25500000920E-02 0. -1.
</event>
<event>
 5   0  0.5849604E-05  0.2201188E+04  0.7818609E-02  0.8517934E-01
       -1   -1    0    0    0  501  0.00000000000E+00  0.00000000000E+00  0.23155474488E+04  0.23155474488E+04  0.50400001928E-02 0.  1.
        1   -1    0    0  501    0  0.00000000000E+00  0.00000000000E+00 -0.52311917668E+03  0.52311917671E+03  0.50400001928E-02 0. -1.
    10030    2    1    2    0    0  0.00000000000E+00  0.00000000000E+00  0.17924282721E+04  0.28386666255E+04  0.22011881110E+04 0.  0.
        2    1    3    3  502    0 -0.16733080631E+01 -0.50014346617E+03 -0.36810089438E+03  0.62100286244E+03  0.25500000920E-02 0. -1.
       -2    1    3    3    0  502  0.16733080631E+01  0.50014346617E+03  0.21605291665E+04  0.22176637631E+04  0.25500000920E-02 0.  1.
</event>
<event>
 5   0  0.4586375E-05  0.2215616E+04  0.7818609E-02  0.8511956E-01
        4   -1    0    0  501    0  0.00000000000E+00  0.00000000000E+00  0.55208280300E+03  0.55208426374E+03  0.12699999809E+01 0. -1.
       -4   -1    0    0    0  501  0.00000000000E+00  0.00000000000E+00 -0.22229202370E+04  0.22229205998E+04  0.12699999809E+01 0.  1.
    10030    2    1    2    0    0  0.00000000000E+00  0.00000000000E+00 -0.16708374340E+04  0.27750048635E+04  0.22156160005E+04 0.  0.
        4    1    3    3  502    0 -0.27215053654E+02  0.41104061379E+03 -0.21234251997E+04  0.21630143866E+04  0.12699999809E+01 0.  1.
       -4    1    3    3    0  502  0.27215053654E+02 -0.41104061379E+03  0.45258776564E+03  0.61199047691E+03  0.12699999809E+01 0. -1.
</event>
<event>
 5   0  0.1241430E-04  0.2128568E+04  0.7818609E-02  0.8548762E-01
        2   -1    0    0  501    0  0.00000000000E+00  0.00000000000E+00  0.58064029993E+03  0.58064029994E+03  0.25500000920E-02 0. -1.
       -2   -1    0    0    0  501  0.00000000000E+00  0.00000000000E+00 -0.19507779718E+04  0.19507779718E+04  0.25500000920E-02 0.  1.
    10030    2    1    2    0    0  0.00000000000E+00  0.00000000000E+00 -0.13701376718E+04  0.25314182717E+04  0.21285678816E+04 0.  0.
        1    1    3    3  502    0 -0.55666386487E+03 -0.65481710322E+02 -0.17610279634E+04  0.18480752151E+04  0.50400001928E-02 0.  1.
       -1    1    3    3    0  502  0.55666386487E+03  0.65481710322E+02  0.39089029161E+03  0.68334305655E+03  0.50400001928E-02 0. -1.
</event>
<event>
 5   0  0.5895063E-05  0.2159953E+04  0.7818609E-02  0.8535284E-01
        1   -1    0    0  501    0  0.00000000000E+00  0.00000000000E+00  0.97493171498E+03  0.97493171499E+03  0.50400001928E-02 0.  1.
       -1   -1    0    0    0  501  0.00000000000E+00  0.00000000000E+00 -0.11963398433E+04  0.11963398433E+04  0.50400001928E-02 0. -1.
    10030    2    1    2    0    0  0.00000000000E+00  0.00000000000E+00 -0.22140812836E+03  0.21712715583E+04  0.21599533839E+04 0.  0.
        5    1    3    3  502    0 -0.58218415703E+03  0.57312468629E+03  0.59933792554E+03  0.10132316308E+04  0.46999998093E+01 0.  1.
       -5    1    3    3    0  502  0.58218415703E+03 -0.57312468629E+03 -0.82074605390E+03  0.11580399275E+04  0.46999998093E+01 0. -1.
</event>
<event>
 5   0  0.5849604E-05  0.2180531E+04  0.7818609E-02  0.8526576E-01
       -1   -1    0    0    0  501  0.00000000000E+00  0.00000000000E+00  0.89866723789E+03  0.89866723790E+03  0.50400001928E-02 0.  1.
        1   -1    0    0  501    0  0.00000000000E+00  0.00000000000E+00 -0.13227125899E+04  0.13227125899E+04  0.50400001928E-02 0. -1.
    10030    2    1    2    0    0  0.00000000000E+00  0.00000000000E+00 -0.42404535203E+03  0.22213798278E+04  0.21805306416E+04 0.  0.
        2    1    3    3  502    0 -0.70790928286E+03 -0.23254370806E+03  0.59879349486E+03  0.95591096783E+03  0.25500000920E-02 0.  1.
       -2    1    3    3    0  502  0.70790928286E+03  0.23254370806E+03 -0.10228388469E+04  0.12654688600E+04  0.25500000920E-02 0. -1.
</event>
<event>
 5   0  0.5861816E-05  0.2214721E+04  0.7818609E-02  0.8512326E-01
        1   -1    0    0  501    0  0.00000000000E+00  0.00000000000E+00  0.26046758847E+04  0.26046758847E+04  0.50400001928E-02 0.  1.
       -1   -1    0    0    0  501  0.00000000000E+00  0.00000000000E+00 -0.47078675618E+03  0.47078675621E+03  0.50400001928E-02 0. -1.
    10030    2    1    2    0    0  0.00000000000E+00  0.00000000000E+00  0.21338891285E+04  0.30754626409E+04  0.22147206693E+04 0.  0.
        1    1    3    3  502    0 -0.36419179423E+03 -0.22283353943E+03 -0.35189304008E+03  0.55328036379E+03  0.50400001928E-02 0. -1.
       -1    1    3    3    0  502  0.36419179423E+03  0.22283353943E+03  0.24857821686E+04  0.25221822771E+04  0.50400001928E-02 0.  1.
</event>
<event>
 5   0  0.1404159E-04  0.2176186E+04  0.7818609E-02  0.8528406E-01
        2   -1    0    0  501    0  0.00000000000E+00  0.00000000000E+00  0.98038759682E+03  0.98038759683E+03  0.25500000920E-02 0.  1.
       -2   -1    0    0    0  501  0.00000000000E+00  0.00000000000E+00 -0.12076314593E+04  0.12076314593E+04  0.25500000920E-02 0. -1.
    10030    2    1    2    0    0  0.00000000000E+00  0.00000000000E+00 -0.22724386245E+03  0.21880190561E+04  0.21761864848E+04 0.  0.
        5    1    3    3  502    0  0.89568004312E+03 -0.50858544300E+03  0.23903141561E+03  0.10573835634E+04  0.46999998093E+01 0.  1.
       -5    1    3    3    0  502 -0.89568004312E+03  0.50858544300E+03 -0.46627527805E+03  0.11306354927E+04  0.46999998093E+01 0. -1.
</event>
<event>
 5   0  0.1404159E-04  0.2164208E+04  0.7818609E-02  0.8533475E-01
       -2   -1    0    0    0  501  0.00000000000E+00  0.00000000000E+00  0.62107793377E+03  0.62107793377E+03  0.25500000920E-02 0.  1.
        2   -1    0    0  501    0  0.00000000000E+00  0.00000000000E+00 -0.18853493150E+04  0.18853493150E+04  0.25500000920E-02 0. -1.
    10030    2    1    2    0    0  0.00000000000E+00  0.00000000000E+00 -0.12642713812E+04  0.25064272487E+04  0.21642078061E+04 0.  0.
        5    1    3    3  502    0 -0.83803639501E+02 -0.64853143600E+03 -0.16306202069E+04  0.17568609571E+04  0.46999998093E+01 0. -1.
       -5    1    3    3    0  502  0.83803639501E+02  0.64853143600E+03  0.36634882570E+03  0.74956629164E+03  0.46999998093E+01 0.  1.
</event>
<event>
 5   0  0.1311472E-04  0.1569367E+04  0.7818609E-02  0.8839591E-01
        2   -1    0    0  501    0  0.00000000000E+00  0.00000000000E+00  0.13034325584E+04  0.13034325584E+04  0.25500000920E-02 0.  1.
       -2   -1    0    0    0  501  0.00000000000E+00  0.00000000000E+00 -0.47238983724E+03  0.47238983725E+03  0.25500000920E-02 0. -1.
    10030    2    1    2    0    0  0.00000000000E+00  0.00000000000E+00  0.83104272112E+03  0.17758223956E+04  0.15693671261E+04 0.  0.
        4    1    3    3  502    0 -0.42305697475E+03  0.54507926905E+03 -0.73194464267E+01  0.69003173886E+03  0.12699999809E+01 0. -1.
       -4    1    3    3    0  502  0.42305697475E+03 -0.54507926905E+03  0.83836216754E+03  0.10857906568E+04  0.12699999809E+01 0.  1.
</event>
<event>
 5   0  0.5895063E-05  0.2197826E+04  0.7818609E-02  0.8519334E-01
        1   -1    0    0  501    0  0.00000000000E+00  0.00000000000E+00  0.91210592870E+03  0.91210592871E+03  0.50400001928E-02 0.  1.
       -1   -1    0    0    0  501  0.00000000000E+00  0.00000000000E+00 -0.13239794307E+04  0.13239794307E+04  0.50400001928E-02 0. -1.
    10030    2    1    2    0    0  0.00000000000E+00  0.00000000000E+00 -0.41187350199E+03  0.22360853594E+04  0.21978257331E+04 0.  0.
        5    1    3    3  502    0  0.99184463222E+03 -0.47274133422E+03 -0.18697758697E+03  0.11145505155E+04  0.46999998093E+01 0.  1.
       -5    1    3    3    0  502 -0.99184463222E+03  0.47274133422E+03 -0.22489591503E+03  0.11215348439E+04  0.46999998093E+01 0. -1.
</event>
<event>
 5   0  0.1226021E-04  0.2025739E+04  0.7818609E-02  0.8594681E-01
       -2   -1    0    0    0  501  0.00000000000E+00  0.00000000000E+00  0.79041680849E+03  0.79041680850E+03  0.25500000920E-02 0.  1.
        2   -1    0    0  501    0  0.00000000000E+00  0.00000000000E+00 -0.12979286612E+04  0.12979286612E+04  0.25500000920E-02 0. -1.
    10030    2    1    2    0    0  0.00000000000E+00  0.00000000000E+00 -0.50751185271E+03  0.20883454697E+04  0.20257390059E+04 0.  0.
        2    1    3    3  502    0  0.57029879073E+03 -0.72632232348E+03  0.17517980645E+03  0.93993233421E+03  0.25500000920E-02 0.  1.
       -2    1    3    3    0  502 -0.57029879073E+03  0.72632232348E+03 -0.68269165916E+03  0.11484131355E+04  0.25500000920E-02 0. -1.
</event>
<event>
 5   0  0.5849604E-05  0.2211574E+04  0.7818609E-02  0.8513626E-01
        1   -1    0    0  501    0  0.00000000000E+00  0.00000000000E+00  0.12467917865E+04  0.12467917865E+04  0.50400001928E-02 0.  1.
       -1   -1    0    0    0  501  0.00000000000E+00  0.00000000000E+00 -0.98072945980E+03  0.98072945981E+03  0.50400001928E-02 0. -1.
    10030    2    1    2    0    0  0.00000000000E+00  0.00000000000E+00  0.26606232670E+03  0.22275212463E+04  0.22115744937E+04 0.  0.
        2    1    3    3  502    0 -0.95807583899E+03  0.23454803534E+03  0.63647864417E+03  0.11738940151E+04  0.25500000920E-02 0. -1.
       -2    1    3    3    0  502  0.95807583899E+03 -0.23454803534E+03 -0.37041631747E+03  0.10536272312E+04  0.25500000920E-02 0.  1.
</event>
<event>
 5   0  0.1226021E-04  0.2166339E+04  0.7818609E-02  0.8532570E-01
        2   -1    0    0  501    0  0.00000000000E+00  0.00000000000E+00  0.19585539522E+04  0.19585539522E+04  0.25500000920E-02 0.  1.
       -2   -1    0    0    0  501  0.00000000000E+00  0.00000000000E+00 -0.59904219022E+03  0.59904219023E+03  0.25500000920E-02 0. -1.
    10030    2    1    2    0    0  0.00000000000E+00  0.00000000000E+00  0.13595117620E+04  0.25575961425E+04  0.21663392617E+04 0.  0.
        2    1    3    3  502    0 -0.12587977371E+03 -0.93181555890E+03  0.13145785813E+04  0.16162434222E+04  0.25500000920E-02 0.  1.
       -2    1    3    3    0  502  0.12587977371E+03  0.93181555890E+03  0.44933180661E+02  0.94135272027E+03  0.25500000920E-02 0. -1.
</event>
<event>
 5   0  0.5895063E-05  0.2235145E+04  0.7818609E-02  0.8503941E-01
       -1   -1    0    0    0  501  0.00000000000E+00  0.00000000000E+00  0.64345412663E+03  0.64345412665E+03  0.50400001928E-02 0. -1.
        1   -1    0    0  501    0  0.00000000000E+00  0.00000000000E+00 -0.19410374052E+04  0.19410374052E+04  0.50400001928E-02 0.  1.
    10030    2    1    2    0    0  0.00000000000E+00  0.00000000000E+00 -0.12975832786E+04  0.25844915319E+04  0.22351452108E+04 0.  0.
        5    1    3    3  502    0  0.33716140012E+03 -0.13093801654E+02  0.58313796801E+03  0.67373677138E+03  0.46999998093E+01 0. -1.
       -5    1    3    3    0  502 -0.33716140012E+03  0.13093801654E+02 -0.18807212466E+04  0.19107547605E+04  0.46999998093E+01 0.  1.
</event>
<event>
 5   0  0.1311472E-04  0.2218493E+04  0.7818609E-02  0.8510770E-01
        2   -1    0    0  501    0  0.00000000000E+00  0.00000000000E+00  0.69396885595E+03  0.69396885596E+03  0.25500000920E-02 0.  1.
       -2   -1    0    0    0  501  0.00000000000E+00  0.00000000000E+00 -0.17730295159E+04  0.17730295160E+04  0.25500000920E-02 0. -1.
    10030    2    1    2    0    0  0.00000000000E+00  0.00000000000E+00 -0.10790606600E+04  0.24669983719E+04  0.22184925195E+04 0.  0.
        4    1    3    3  502    0 -0.95722657423E+03 -0.43999440563E+03 -0.92562219190E+03  0.14023750734E+04  0.12699999809E+01 0. -1.
       -4    1    3    3    0  502  0.95722657423E+03  0.43999440563E+03 -0.15343846809E+03  0.10646232985E+04  0.12699999809E+01 0.  1.
</event>
<event>
 5   0  0.5861816E-05  0.2125558E+04  0.7818609E-02  0.8550068E-01
       -1   -1    0    0    0  501  0.00000000000E+00  0.00000000000E+00  0.14566916412E+04  0.14566916412E+04  0.50400001928E-02 0. -1.
        1   -1    0    0  501    0  0.00000000000E+00  0.00000000000E+00 -0.77538655140E+03  0.77538655141E+03  0.50400001928E-02 0.  1.
    10030    2    1    2    0    0  0.00000000000E+00  0.00000000000E+00  0.68130508981E+03  0.22320781926E+04  0.21255579109E+04 0.  0.
        1    1    3    3  502    0  0.29910409546E+03  0.23640752702E+03  0.13824097714E+04  0.14340183244E+04  0.50400001928E-02 0. -1.
       -1    1    3    3    0  502 -0.29910409546E+03 -0.23640752702E+03 -0.70110468155E+03  0.79805986822E+03  0.50400001928E-02 0.  1.
</event>
<event>
 5   0  0.5895063E-05  0.2226790E+04  0.7818609E-02  0.8507359E-01
       -1   -1    0    0    0  501  0.00000000000E+00  0.00000000000E+00  0.83185460376E+03  0.83185460377E+03  0.50400001928E-02 0.  1.
        1   -1    0    0  501    0  0.00000000000E+00  0.00000000000E+00 -0.14902228585E+04  0.14902228586E+04  0.50400001928E-02 0. -1.
    10030    2    1    2    0    0  0.00000000000E+00  0.00000000000E+00 -0.65836825479E+03  0.23220774623E+04  0.22267902870E+04 0.  0.
        5    1    3    3  502    0  0.12564880031E+02 -0.19820378003E+03 -0.14715923197E+04  0.14849406251E+04  0.46999998093E+01 0. -1.
       -5    1    3    3    0  502 -0.12564880031E+02  0.19820378003E+03  0.81322406488E+03  0.83713683727E+03  0.46999998093E+01 0.  1.
</event>
<event>
 5   0  0.5981239E-05  0.2136176E+04  0.7818609E-02  0.8545473E-01
        1   -1    0    0  501    0  0.00000000000E+00  0.00000000000E+00  0.98486525279E+03  0.98486525281E+03  0.50400001928E-02 0. -1.
       -1   -1    0    0    0  501  0.00000000000E+00  0.00000000000E+00 -0.11583437287E+04  0.11583437287E+04  0.50400001928E-02 0.  1.
    10030    2    1    2    0    0  0.00000000000E+00  0.00000000000E+00 -0.17347847591E+03  0.21432089815E+04  0.21361764807E+04 0.  0.
        4    1    3    3  502    0  0.95759659597E+03  0.47258020429E+03 -0.10889328670E+03  0.10733977133E+04  0.12699999809E+01 0.  1.
       -4    1    3    3    0  502 -0.95759659597E+03 -0.47258020429E+03 -0.64585189215E+02  0.10698112682E+04  0.12699999809E+01 0. -1.
</event>
<event>
 5   0  0.1226021E-04  0.2194434E+04  0.7818609E-02  0.8520749E-01
        2   -1    0    0  501    0  0.00000000000E+00  0.00000000000E+00  0.93651421977E+03  0.93651421977E+03  0.25500000920E-02 0.  1.
       -2   -1    0    0    0  501  0.00000000000E+00  0.00000000000E+00 -0.12854954499E+04  0.12854954499E+04  0.25500000920E-02 0. -1.
    10030    2    1    2    0    0  0.00000000000E+00  0.00000000000E+00 -0.34898123010E+03  0.22220096696E+04  0.21944336565E+04 0.  0.
        2    1    3    3  502    0  0.48666687823E+03 -0.13658093270E+03  0.81159813196E+03  0.95613311278E+03  0.25500000920E-02 0.  1.
       -2    1    3    3    0  502 -0.48666687823E+03  0.13658093270E+03 -0.11605793621E+04  0.12658765569E+04  0.25500000920E-02 0. -1.
</event>
<event>
 5   0  0.1241430E-04  0.2203028E+04  0.7818609E-02  0.8517169E-01
        2   -1    0    0  501    0  0.00000000000E+00  0.00000000000E+00  0.21704254314E+04  0.21704254314E+04  0.25500000920E-02 0. -1.
       -2   -1    0    0    0  501  0.00000000000E+00  0.00000000000E+00 -0.55903021117E+03  0.55903021118E+03  0.25500000920E-02 0.  1.
    10030    2    1    2    0    0  0.00000000000E+00  0.00000000000E+00  0.16113952202E+04  0.27294556426E+04  0.22030282679E+04 0.  0.
        1    1    3    3  502    0  0.76115839324E+03  0.22700971597E+03 -0.13984428411E+03  0.80650600405E+03  0.50400001928E-02 0.  1.
       -1    1    3    3    0  502 -0.76115839324E+03 -0.22700971597E+03  0.17512395043E+04  0.19229496385E+04  0.50400001928E-02 0. -1.
</event>
<event>
 5   0  0.5895063E-05  0.2206407E+04  0.7818609E-02  0.8515766E-01
        1   -1    0    0  501    0  0.00000000000E+00  0.00000000000E+00  0.24981298445E+04  0.24981298445E+04  0.50400001928E-02 0. -1.
       -1   -1    0    0    0  501  0.00000000000E+00  0.00000000000E+00 -0.48718766871E+03  0.48718766874E+03  0.50400001928E-02 0.  1.
    10030    2    1    2    0    0  0.00000000000E+00  0.00000000000E+00  0.20109421758E+04  0.29853175132E+04  0.22064070840E+04 0.  0.
        5    1    3    3  502    0  0.72497530125E+03  0.25295038927E+03  0.20772344437E+04  0.22146101488E+04  0.46999998093E+01 0. -1.
       -5    1    3    3    0  502 -0.72497530125E+03 -0.25295038927E+03 -0.66292267941E+02  0.77070736446E+03  0.46999998093E+01 0.  1.
</event>
<event>
 5   0  0.1404159E-04  0.2076902E+04  0.7818609E-02  0.8571487E-01
        2   -1    0    0  501    0  0.00000000000E+00  0.00000000000E+00  0.12123209287E+04  0.12123209287E+04  0.25500000920E-02 0. -1.
       -2   -1    0    0    0  501  0.00000000000E+00  0.00000000000E+00 -0.88951751700E+03  0.88951751700E+03  0.25500000920E-02 0.  1.
    10030    2    1    2    0    0  0.00000000000E+00  0.00000000000E+00  0.32280341166E+03  0.21018384457E+04  0.20769022146E+04 0.  0.
        5    1    3    3  502    0 -0.58927154412E+03 -0.13768526290E+03 -0.69262647422E+03  0.91975633030E+03  0.46999998093E+01 0.  1.
       -5    1    3    3    0  502  0.58927154412E+03  0.13768526290E+03  0.10154298859E+04  0.11820821154E+04  0.46999998093E+01 0. -1.
</event>
<event>
 5   0  0.1404159E-04  0.1384654E+04  0.7818609E-02  0.8965002E-01
        2   -1    0    0  501    0  0.00000000000E+00  0.00000000000E+00  0.22215922432E+04  0.22215922432E+04  0.25500000920E-02 0. -1.
       -2   -1    0    0    0  501  0.00000000000E+00  0.00000000000E+00 -0.21575377419E+03  0.21575377421E+03  0.25500000920E-02 0.  1.
    10030    2    1    2    0    0  0.00000000000E+00  0.00000000000E+00  0.20058384690E+04  0.24373460174E+04  0.13846543413E+04 0.  0.
        5    1    3    3  502    0 -0.35605152651E+03  0.33081464323E+03  0.18707875395E+04  0.19328939768E+04  0.46999998093E+01 0. -1.
       -5    1    3    3    0  502  0.35605152651E+03 -0.33081464323E+03  0.13505092953E+03  0.50445204061E+03  0.46999998093E+01 0.  1.
</event>
<event>
 5   0  0.1404159E-04  0.2203045E+04  0.7818609E-02  0.8517162E-01
        2   -1    0    0  501    0  0.00000000000E+00  0.00000000000E+00  0.10901370520E+04  0.10901370520E+04  0.25500000920E-02 0.  1.
       -2   -1    0    0    0  501  0.00000000000E+00  0.00000000000E+00 -0.11130266633E+04  0.11130266633E+04  0.25500000920E-02 0. -1.
    10030    2    1    2    0    0  0.00000000000E+00  0.00000000000E+00 -0.22889611264E+02  0.22031637153E+04  0.22030448071E+04 0.  0.
        5    1    3    3  502    0  0.68208469324E+03  0.34103571148E+03  0.78344690562E+03  0.10933233873E+04  0.46999998093E+01 0.  1.
       -5    1    3    3    0  502 -0.68208469324E+03 -0.34103571148E+03 -0.80633651688E+03  0.11098403280E+04  0.46999998093E+01 0. -1.
</event>
<event>
 5   0  0.5861816E-05  0.2133760E+04  0.7818609E-02  0.8546516E-01
       -1   -1    0    0    0  501  0.00000000000E+00  0.00000000000E+00  0.14714708194E+04  0.14714708194E+04  0.50400001928E-02 0. -1.
        1   -1    0    0  501    0  0.00000000000E+00  0.00000000000E+00 -0.77353389017E+03  0.77353389018E+03  0.50400001928E-02 0.  1.
    10030    2    1    2    0    0  0.00000000000E+00  0.00000000000E+00  0.69793692924E+03  0.22450047096E+04  0.21337596371E+04 0.  0.
        1    1    3    3  502    0 -0.54352674532E+03  0.49790186587E+03  0.11604816010E+04  0.13747891246E+04  0.50400001928E-02 0. -1.
       -1    1    3    3    0  502  0.54352674532E+03 -0.49790186587E+03 -0.46254467177E+03  0.87021558497E+03  0.50400001928E-02 0.  1.
</event>
<event>
 5   0  0.1311472E-04  0.2192202E+04  0.7818609E-02  0.8521681E-01
        2   -1    0    0  501    0  0.00000000000E+00  0.00000000000E+00  0.22547777775E+04  0.22547777775E+04  0.25500000920E-02 0.  1.
       -2   -1    0    0    0  501  0.00000000000E+00  0.00000000000E+00 -0.53284074769E+03  0.53284074770E+03  0.25500000920E-02 0. -1.
    10030    2    1    2    0    0  0.00000000000E+00  0.00000000000E+00  0.17219370298E+04  0.27876185252E+04  0.21922020681E+04 0.  0.
        4    1    3    3  502    0 -0.33199319477E+02  0.26760763461E+03 -0.49000188938E+03  0.55930269570E+03  0.12699999809E+01 0. -1.
       -4    1    3    3    0  502  0.33199319477E+02 -0.26760763461E+03  0.22119389192E+04  0.22283158295E+04  0.12699999809E+01 0.  1.
</event>
<event>
 5   0  0.5861816E-05  0.2087072E+04  0.7818609E-02  0.8566960E-01
        1   -1    0    0  501    0  0.00000000000E+00  0.00000000000E+00  0.19142488916E+04  0.19142488916E+04  0.50400001928E-02 0. -1.
       -1   -1    0    0    0  501  0.00000000000E+00  0.00000000000E+00 -0.56887432620E+03  0.56887432622E+03  0.50400001928E-02 0.  1.
    10030    2    1    2    0    0  0.00000000000E+00  0.00000000000E+00  0.13453745654E+04  0.24831232178E+04  0.20870716791E+04 0.  0.
        1    1    3    3  502    0 -0.16259117981E+03  0.44180654811E+03  0.17807264842E+04  0.18419054616E+04  0.50400001928E-02 0. -1.
       -1    1    3    3    0  502  0.16259117981E+03 -0.44180654811E+03 -0.43535191882E+03  0.64121775626E+03  0.50400001928E-02 0.  1.
</event>
<event>
 5   0  0.5861816E-05  0.2424650E+04  0.7818609E-02  0.8430332E-01
        1   -1    0    0  501    0  0.00000000000E+00  0.00000000000E+00  0.12217102998E+04  0.12217102999E+04  0.50400001928E-02 0. -1.
       -1   -1    0    0    0  501  0.00000000000E+00  0.00000000000E+00 -0.12030119711E+04  0.12030119711E+04  0.50400001928E-02 0.  1.
    10030    2    1    2    0    0  0.00000000000E+00  0.00000000000E+00  0.18698328779E+02  0.24247222709E+04  0.24246501735E+04 0.  0.
        1    1    3    3  502    0  0.51752977422E+03  0.10665076305E+04  0.26323960534E+03  0.12143190203E+04  0.50400001928E-02 0.  1.
       -1    1    3    3    0  502 -0.51752977422E+03 -0.10665076305E+04 -0.24454127656E+03  0.12104032506E+04  0.50400001928E-02 0. -1.
</event>
<event>
 5   0  0.5849604E-05  0.2188159E+04  0.7818609E-02  0.8523373E-01
        1   -1    0    0  501    0  0.00000000000E+00  0.00000000000E+00  0.10799111901E+04  0.10799111901E+04  0.50400001928E-02 0. -1.
       -1   -1    0    0    0  501  0.00000000000E+00  0.00000000000E+00 -0.11084338524E+04  0.11084338525E+04  0.50400001928E-02 0.  1.
    10030    2    1    2    0    0  0.00000000000E+00  0.00000000000E+00 -0.28522662352E+02  0.21883450426E+04  0.21881591539E+04 0.  0.
        2    1    3    3  502    0 -0.39872262664E+03 -0.96643822190E+03 -0.33682175414E+03  0.10983767404E+04  0.25500000920E-02 0. -1.
       -2    1    3    3    0  502  0.39872262664E+03  0.96643822190E+03  0.30829909179E+03  0.10899683022E+04  0.25500000920E-02 0.  1.
</event>
<event>
 5   0  0.1311472E-04  0.2168395E+04  0.7818609E-02  0.8531699E-01
       -2   -1    0    0    0  501  0.00000000000E+00  0.00000000000E+00  0.87087943566E+03  0.87087943566E+03  0.25500000920E-02 0. -1.
        2   -1    0    0  501    0  0.00000000000E+00  0.00000000000E+00 -0.13497665116E+04  0.13497665116E+04  0.25500000920E-02 0.  1.
    10030    2    1    2    0    0  0.00000000000E+00  0.00000000000E+00 -0.47888707596E+03  0.22206459473E+04  0.21683947038E+04 0.  0.
        4    1    3    3  502    0 -0.11839321418E+03  0.84820881987E+03 -0.92030008987E+03  0.12571511538E+04  0.12699999809E+01 0.  1.
       -4    1    3    3    0  502  0.11839321418E+03 -0.84820881987E+03  0.44141301391E+03  0.96349479345E+03  0.12699999809E+01 0. -1.
</event>
<event>
 5   0  0.5981239E-05  0.2455095E+04  0.7818609E-02  0.8419160E-01
        1   -1    0    0  501    0  0.00000000000E+00  0.00000000000E+00  0.98371247078E+03  0.98371247079E+03  0.50400001928E-02 0. -1.
       -1   -1    0    0    0  501  0.00000000000E+00  0.00000000000E+00 -0.15318227274E+04  0.15318227274E+04  0.50400001928E-02 0.  1.
    10030    2    1    2    0    0  0.00000000000E+00  0.00000000000E+00 -0.54811025662E+03  0.25155351982E+04  0.24550952079E+04 0.  0.
        4    1    3    3  502    0  0.36487767656E+03 -0.36085992606E+03  0.86852780192E+03  0.10088100717E+04  0.12699999809E+01 0. -1.
       -4    1    3    3    0  502 -0.36487767656E+03  0.36085992606E+03 -0.14166380585E+04  0.15067251265E+04  0.12699999809E+01 0.  1.
</event>
<event>
 5   0  0.6263558E-05  0.2214806E+04  0.7818609E-02  0.8512291E-01
       -1   -1    0    0    0  501  0.00000000000E+00  0.00000000000E+00  0.91181464861E+03  0.91181464862E+03  0.50400001928E-02 0.  1.
        1   -1    0    0  501    0  0.00000000000E+00  0.00000000000E+00 -0.13449453304E+04  0.13449453305E+04  0.50400001928E-02 0. -1.
    10030    2    1    2    0    0  0.00000000000E+00  0.00000000000E+00 -0.43313068184E+03  0.22567599791E+04  0.22148055029E+04 0.  0.
        3    1    3    3  502    0 -0.79154405870E+03 -0.66894207830E+03 -0.61423421862E+03  0.12047029453E+04  0.10100000352E+00 0. -1.
       -3    1    3    3    0  502  0.79154405870E+03  0.66894207830E+03  0.18110353679E+03  0.10520570337E+04  0.10100000352E+00 0.  1.
</event>
<event>
 5   0  0.1241430E-04  0.2232305E+04  0.7818609E-02  0.8505101E-01
        2   -1    0    0  501    0  0.00000000000E+00  0.00000000000E+00  0.10488881929E+04  0.10488881929E+04  0.25500000920E-02 0. -1.
       -2   -1    0    0    0  501  0.00000000000E+00  0.00000000000E+00 -0.11877307519E+04  0.11877307519E+04  0.25500000920E-02 0.  1.
    10030    2    1    2    0    0  0.00000000000E+00  0.00000000000E+00 -0.13884255904E+03  0.22366189448E+04  0.22323053214E+04 0.  0.
        1    1    3    3  502    0  0.22710061286E+03 -0.18072350078E+03 -0.11492613332E+04  0.11853426864E+04  0.50400001928E-02 0.  1.
       -1    1    3    3    0  502 -0.22710061286E+03  0.18072350078E+03  0.10104187742E+04  0.10512762584E+04  0.50400001928E-02 0. -1.
</event>
<event>
 5   0  0.1404159E-04  0.2163292E+04  0.7818609E-02  0.8533864E-01
        2   -1    0    0  501    0  0.00000000000E+00  0.00000000000E+00  0.12507820850E+04  0.12507820850E+04  0.25500000920E-02 0.  1.
       -2   -1    0    0    0  501  0.00000000000E+00  0.00000000000E+00 -0.93538115751E+03  0.93538115752E+03  0.25500000920E-02 0. -1.
    10030    2    1    2    0    0  0.00000000000E+00  0.00000000000E+00  0.31540092753E+03  0.21861632426E+04  0.21632919308E+04 0.  0.
        5    1    3    3  502    0  0.14202745209E+03  0.81523721168E+03  0.86159330428E+03  0.11946332577E+04  0.46999998093E+01 0.  1.
       -5    1    3    3    0  502 -0.14202745209E+03 -0.81523721168E+03 -0.54619237675E+03  0.99152998485E+03  0.46999998093E+01 0. -1.
</event>
<event>
 5   0  0.5981239E-05  0.2179141E+04  0.7818609E-02  0.8527161E-01
        1   -1    0    0  501    0  0.00000000000E+00  0.00000000000E+00  0.12575018653E+04  0.12575018653E+04  0.50400001928E-02 0.  1.
       -1   -1    0    0    0  501  0.00000000000E+00  0.00000000000E+00 -0.94406502733E+03  0.94406502734E+03  0.50400001928E-02 0. -1.
    10030    2    1    2    0    0  0.00000000000E+00  0.00000000000E+00  0.31343683797E+03  0.22015668927E+04  0.21791406865E+04 0.  0.
        4    1    3    3  502    0  0.78152348837E+03 -0.39381462327E+03 -0.49903224284E+03  0.10074242962E+04  0.12699999809E+01 0. -1.
       -4    1    3    3    0  502 -0.78152348837E+03  0.39381462327E+03  0.81246908081E+03  0.11941425964E+04  0.12699999809E+01 0.  1.
</event>
<event>
 5   0  0.1311472E-04  0.2181376E+04  0.7818609E-02  0.8526220E-01
        2   -1    0    0  501    0  0.00000000000E+00  0.00000000000E+00  0.16981661287E+04  0.16981661287E+04  0.25500000920E-02 0. -1.
       -2   -1    0    0    0  501  0.00000000000E+00  0.00000000000E+00 -0.70052069719E+03  0.70052069719E+03  0.25500000920E-02 0.  1.
    10030    2    1    2    0    0  0.00000000000E+00  0.00000000000E+00  0.99764543153E+03  0.23986868259E+04  0.21813761899E+04 0.  0.
        4    1    3    3  502    0  0.15573767884E+03 -0.78898062649E+03 -0.31136304150E+03  0.86237648977E+03  0.12699999809E+01 0.  1.
       -4    1    3    3    0  502 -0.15573767884E+03  0.78898062649E+03  0.13090084730E+04  0.15363103361E+04  0.12699999809E+01 0. -1.
</event>
<event>
 5   0  0.1226021E-04  0.2214537E+04  0.7818609E-02  0.8512402E-01
       -2   -1    0    0    0  501  0.00000000000E+00  0.00000000000E+00  0.17304645412E+04  0.17304645412E+04  0.25500000920E-02 0.  1.
        2   -1    0    0  501    0  0.00000000000E+00  0.00000000000E+00 -0.70850532117E+03  0.70850532117E+03  0.25500000920E-02 0. -1.
    10030    2    1    2    0    0  0.00000000000E+00  0.00000000000E+00  0.10219592200E+04  0.24389698624E+04  0.22145368234E+04 0.  0.
        2    1    3    3  502    0  0.46177900014E+03 -0.43373419352E+03  0.15111310604E+04  0.16385610387E+04  0.25500000920E-02 0.  1.
       -2    1    3    3    0  502 -0.46177900014E+03  0.43373419352E+03 -0.48917184041E+03  0.80040882370E+03  0.25500000920E-02 0. -1.
</event>
<event>
 5   0  0.5861816E-05  0.2357724E+04  0.7818609E-02  0.8455503E-01
       -1   -1    0    0    0  501  0.00000000000E+00  0.00000000000E+00  0.16238012146E+04  0.16238012146E+04  0.50400001928E-02 0.  1.
        1   -1    0    0  501    0  0.00000000000E+00  0.00000000000E+00 -0.85584123033E+03  0.85584123035E+03  0.50400001928E-02 0. -1.
    10030    2    1    2    0    0  0.00000000000E+00  0.00000000000E+00  0.76795998426E+03  0.24796424449E+04  0.23577243514E+04 0.  0.
        1    1    3    3  502    0  0.10606738564E+04  0.39362573563E+03  0.35570525222E+02  0.11319167424E+04  0.50400001928E-02 0.  1.
       -1    1    3    3    0  502 -0.10606738564E+04 -0.39362573563E+03  0.73238945904E+03  0.13477257025E+04  0.50400001928E-02 0. -1.
</event>
<event>
 5   0  0.1226021E-04  0.2292960E+04  0.7818609E-02  0.8480702E-01
        2   -1    0    0  501    0  0.00000000000E+00  0.00000000000E+00  0.20789477071E+04  0.20789477071E+04  0.25500000920E-02 0.  1.
       -2   -1    0    0    0  501  0.00000000000E+00  0.00000000000E+00 -0.63225084158E+03  0.63225084158E+03  0.25500000920E-02 0. -1.
    10030    2    1    2    0    0  0.00000000000E+00  0.00000000000E+00  0.14466968655E+04  0.27111985487E+04  0.22929600410E+04 0.  0.
        2    1    3    3  502    0 -0.42791253586E+03 -0.28921402405E+03  0.19335997006E+04  0.20013899401E+04  0.25500000920E-02 0.  1.
       -2    1    3    3    0  502  0.42791253586E+03  0.28921402405E+03 -0.48690283507E+03  0.70980860861E+03  0.25500000920E-02 0. -1.
</event>
<event>
 5   0  0.5849604E-05  0.1636329E+04  0.7818609E-02  0.8798535E-01
        1   -1    0    0  501    0  0.00000000000E+00  0.00000000000E+00  0.12264339193E+04  0.12264339193E+04  0.50400001928E-02 0. -1.
       -1   -1    0    0    0  501  0.00000000000E+00  0.00000000000E+00 -0.54580479892E+03  0.54580479894E+03  0.50400001928E-02 0.  1.
    10030    2    1    2    0    0  0.00000000000E+00  0.00000000000E+00  0.68062912034E+03  0.17722387182E+04  0.16363294518E+04 0.  0.
        2    1    3    3  502    0  0.37708456364E+03  0.72515226150E+03  0.38018149292E+03  0.90143027354E+03  0.25500000920E-02 0. -1.
       -2    1    3    3    0  502 -0.37708456364E+03 -0.72515226150E+03  0.30044762742E+03  0.87080844468E+03  0.25500000920E-02 0.  1.
</event>
<event>
 5   0  0.5981239E-05  0.2188260E+04  0.7818609E-02  0.8523331E-01
        1   -1    0    0  501    0  0.00000000000E+00  0.00000000000E+00  0.11190039449E+04  0.11190039449E+04  0.50400001928E-02 0.  1.
       -1   -1    0    0    0  501  0.00000000000E+00  0.00000000000E+00 -0.10698087387E+04  0.10698087387E+04  0.50400001928E-02 0. -1.
    10030    2    1    2    0    0  0.00000000000E+00  0.00000000000E+00  0.49195206242E+02  0.21888126836E+04  0.21882597642E+04 0.  0.
        4    1    3    3  502    0 -0.73311466785E+03  0.21597063100E+03  0.80775019660E+03  0.11120082835E+04  0.12699999809E+01 0.  1.
       -4    1    3    3    0  502  0.73311466785E+03 -0.21597063100E+03 -0.75855499036E+03  0.10768044000E+04  0.12699999809E+01 0. -1.
</event>
<event>
 5   0  0.1241430E-04  0.1943395E+04  0.7818609E-02  0.8633553E-01
       -2   -1    0    0    0  501  0.00000000000E+00  0.00000000000E+00  0.90034652071E+03  0.90034652071E+03  0.25500000920E-02 0.  1.
        2   -1    0    0  501    0  0.00000000000E+00  0.00000000000E+00 -0.10487024036E+04  0.10487024036E+04  0.25500000920E-02 0. -1.
    10030    2    1    2    0    0  0.00000000000E+00  0.00000000000E+00 -0.14835588286E+03  0.19490489243E+04  0.19433945151E+04 0.  0.
        1    1    3    3  502    0  0.29224446799E+03 -0.31538925118E+03  0.79974615901E+03  0.90800392494E+03  0.50400001928E-02 0.  1.
       -1    1    3    3    0  502 -0.29224446799E+03  0.31538925118E+03 -0.94810204187E+03  0.10410449993E+04  0.50400001928E-02 0. -1.
</event>
<event>
 5   0  0.1226021E-04  0.2210880E+04  0.7818609E-02  0.8513913E-01
        2   -1    0    0  501    0  0.00000000000E+00  0.00000000000E+00  0.12076959185E+04  0.12076959185E+04  0.25500000920E-02 0. -1.
       -2   -1    0    0    0  501  0.00000000000E+00  0.00000000000E+00 -0.10118417938E+04  0.10118417938E+04  0.25500000920E-02 0.  1.
    10030    2    1    2    0    0  0.00000000000E+00  0.00000000000E+00  0.19585412472E+03  0.22195377123E+04  0.22108796480E+04 0.  0.
        2    1    3    3  502    0 -0.62107286964E+03  0.31845811245E+03 -0.76266396368E+03  0.10338294832E+04  0.25500000920E-02 0.  1.
       -2    1    3    3    0  502  0.62107286964E+03 -0.31845811245E+03  0.95851808839E+03  0.11857082291E+04  0.25500000920E-02 0. -1.
</event>
<event>
 5   0  0.5861816E-05  0.2202521E+04  0.7818609E-02  0.8517380E-01
       -1   -1    0    0    0  501  0.00000000000E+00  0.00000000000E+00  0.11728975582E+04  0.11728975582E+04  0.50400001928E-02 0. -1.
        1   -1    0    0  501    0  0.00000000000E+00  0.00000000000E+00 -0.10339985129E+04  0.10339985129E+04  0.50400001928E-02 0.  1.
    10030    2    1    2    0    0  0.00000000000E+00  0.00000000000E+00  0.13889904535E+03  0.22068960711E+04  0.22025206750E+04 0.  0.
        1    1    3    3  502    0  0.46808004926E+03 -0.19590569306E+03 -0.90988473956E+03  0.10418100654E+04  0.50400001928E-02 0.  1.
       -1    1    3    3    0  502 -0.46808004926E+03  0.19590569306E+03  0.10487837849E+04  0.11650860057E+04  0.50400001928E-02 0. -1.
</event>
<event>
 5   0  0.5849604E-05  0.2189475E+04  0.7818609E-02  0.8522822E-01
       -1   -1    0    0    0  501  0.00000000000E+00  0.00000000000E+00  0.11473501753E+04  0.11473501753E+04  0.50400001928E-02 0.  1.
        1   -1    0    0  501    0  0.00000000000E+00  0.00000000000E+00 -0.10445375470E+04  0.10445375470E+04  0.50400001928E-02 0. -1.
    10030    2    1    2    0    0  0.00000000000E+00  0.00000000000E+00  0.10281262833E+03  0.21918877223E+04  0.21894751313E+04 0.  0.
        2    1    3    3  502    0 -0.90344769662E+03  0.78492303629E+02 -0.56251615762E+03  0.10671472297E+04  0.25500000920E-02 0. -1.
       -2    1    3    3    0  502  0.90344769662E+03 -0.78492303629E+02  0.66532878595E+03  0.11247404926E+04  0.25500000920E-02 0.  1.
</event>
<event>
 5   0  0.1241430E-04  0.2197661E+04  0.7818609E-02  0.8519402E-01
       -2   -1    0    0    0  501  0.00000000000E+00  0.00000000000E+00  0.14538016098E+04  0.14538016098E+04  0.25500000920E-02 0.  1.
        2   -1    0    0  501    0  0.00000000000E+00  0.00000000000E+00 -0.83053167609E+03  0.83053167609E+03  0.25500000920E-02 0. -1.
    10030    2    1    2    0    0  0.00000000000E+00  0.00000000000E+00  0.62326993370E+03  0.22843332859E+04  0.21976608361E+04 0.  0.
        1    1    3    3  502    0  0.28976509245E+03 -0.12545937055E+03 -0.78235834072E+03  0.84367555125E+03  0.50400001928E-02 0. -1.
       -1    1    3    3    0  502 -0.28976509245E+03  0.12545937055E+03  0.14056282744E+04  0.14406577346E+04  0.50400001928E-02 0.  1.
</event>
<event>
 5   0  0.5849604E-05  0.2183937E+04  0.7818609E-02  0.8525144E-01
        1   -1    0    0  501    0  0.00000000000E+00  0.00000000000E+00  0.10008790206E+04  0.10008790206E+04  0.50400001928E-02 0. -1.
       -1   -1    0    0    0  501  0.00000000000E+00  0.00000000000E+00 -0.11913476320E+04  0.11913476320E+04  0.50400001928E-02 0.  1.
    10030    2    1    2    0    0  0.00000000000E+00  0.00000000000E+00 -0.19046861138E+03  0.21922266526E+04  0.21839366760E+04 0.  0.
        2    1    3    3  502    0  0.26983111481E+03  0.79831182156E+03  0.60186869839E+03  0.10355464862E+04  0.25500000920E-02 0. -1.
       -2    1    3    3    0  502 -0.26983111481E+03 -0.79831182156E+03 -0.79233730977E+03  0.11566801664E+04  0.25500000920E-02 0.  1.
</event>
<event>
 5   0  0.6263558E-05  0.2185008E+04  0.7818609E-02  0.8524694E-01
       -1   -1    0    0    0  501  0.00000000000E+00  0.00000000000E+00  0.62443383193E+03  0.62443383195E+03  0.50400001928E-02 0.  1.
        1   -1    0    0  501    0  0.00000000000E+00  0.00000000000E+00 -0.19114355503E+04  0.19114355503E+04  0.50400001928E-02 0. -1.
    10030    2    1    2    0    0  0.00000000000E+00  0.00000000000E+00 -0.12870017184E+04  0.25358693823E+04  0.21850080322E+04 0.  0.
        3    1    3    3  502    0  0.52479307403E+03  0.94263990836E+03 -0.44387071273E+03  0.11666186126E+04  0.10100000352E+00 0.  1.
       -3    1    3    3    0  502 -0.52479307403E+03 -0.94263990836E+03 -0.84313100564E+03  0.13692507697E+04  0.10100000352E+00 0. -1.
</event>
<event>
 5   0  0.1311472E-04  0.2179956E+04  0.7818609E-02  0.8526818E-01
       -2   -1    0    0    0  501  0.00000000000E+00  0.00000000000E+00  0.83086291088E+03  0.83086291088E+03  0.25500000920E-02 0. -1.
        2   -1    0    0  501    0  0.00000000000E+00  0.00000000000E+00 -0.14299012170E+04  0.14299012170E+04  0.25500000920E-02 0.  1.
    10030    2    1    2    0    0  0.00000000000E+00  0.00000000000E+00 -0.59903830611E+03  0.22607641279E+04  0.21799558596E+04 0.  0.
        4    1    3    3  502    0  0.34582751148E+02  0.63655623823E+03 -0.12164020008E+04  0.13733299864E+04  0.12699999809E+01 0.  1.
       -4    1    3    3    0  502 -0.34582751148E+02 -0.63655623823E+03  0.61736369466E+03  0.88743414150E+03  0.12699999809E+01 0. -1.
</event>
<event>
 5   0  0.1311472E-04  0.2197487E+04  0.7818609E-02  0.8519475E-01
        2   -1    0    0  501    0  0.00000000000E+00  0.00000000000E+00  0.19412415575E+04  0.19412415575E+04  0.25500000920E-02 0.  1.
       -2   -1    0    0    0  501  0.00000000000E+00  0.00000000000E+00 -0.62188899598E+03  0.62188899599E+03  0.25500000920E-02 0. -1.
    10030    2    1    2    0    0  0.00000000000E+00  0.00000000000E+00  0.13193525615E+04  0.25631305535E+04  0.21974865307E+04 0.  0.
        4    1    3    3  502    0  0.55038567273E+03 -0.24913323648E+03 -0.41076614118E+03  0.73056292947E+03  0.12699999809E+01 0. -1.
       -4    1    3    3    0  502 -0.55038567273E+03  0.24913323648E+03  0.17301187027E+04  0.18325676240E+04  0.12699999809E+01 0.  1.
</event>
<event>
 5   0  0.1311472E-04  0.2189190E+04  0.7818609E-02  0.8522941E-01
        2   -1    0    0  501    0  0.00000000000E+00  0.00000000000E+00  0.15871602030E+04  0.15871602030E+04  0.25500000920E-02 0. -1.
       -2   -1    0    0    0  501  0.00000000000E+00  0.00000000000E+00 -0.75489418305E+03  0.75489418306E+03  0.25500000920E-02 0.  1.
    10030    2    1    2    0    0  0.00000000000E+00  0.00000000000E+00  0.83226601994E+03  0.23420543861E+04  0.21891898089E+04 0.  0.
        4    1    3    3  502    0  0.17799182762E+03 -0.10228478001E+04  0.78709879047E+03  0.13028525748E+04  0.12699999809E+01 0. -1.
       -4    1    3    3    0  502 -0.17799182762E+03  0.10228478001E+04  0.45167229471E+02  0.10392018112E+04  0.12699999809E+01 0.  1.
</event>
<event>
 5   0  0.1252124E-04  0.2157010E+04  0.7818609E-02  0.8536538E-01
       -2   -1    0    0    0  501  0.00000000000E+00  0.00000000000E+00  0.94015221800E+03  0.94015221800E+03  0.25500000920E-02 0.  1.
        2   -1    0    0  501    0  0.00000000000E+00  0.00000000000E+00 -0.12372176030E+04  0.12372176030E+04  0.25500000920E-02 0. -1.
    10030    2    1    2    0    0  0.00000000000E+00  0.00000000000E+00 -0.29706538498E+03  0.21773698210E+04  0.21570098503E+04 0.  0.
        3    1    3    3  502    0 -0.80020630468E+03  0.72307199707E+03 -0.14540173909E+03  0.10882577447E+04  0.10100000352E+00 0. -1.
       -3    1    3    3    0  502  0.80020630468E+03 -0.72307199707E+03 -0.15166364589E+03  0.10891120763E+04  0.10100000352E+00 0.  1.
</event>
<event>
 5   0  0.5861816E-05  0.2214438E+04  0.7818609E-02  0.8512443E-01
       -1   -1    0    0    0  501  0.00000000000E+00  0.00000000000E+00  0.86719511218E+03  0.86719511220E+03  0.50400001928E-02 0.  1.
        1   -1    0    0  501    0  0.00000000000E+00  0.00000000000E+00 -0.14136766420E+04  0.14136766420E+04  0.50400001928E-02 0. -1.
    10030    2    1    2    0    0  0.00000000000E+00  0.00000000000E+00 -0.54648152978E+03  0.22808717542E+04  0.22144376028E+04 0.  0.
        1    1    3    3  502    0 -0.79471570158E+03  0.52267482601E+03  0.31048100216E+03  0.10005800682E+04  0.50400001928E-02 0.  1.
       -1    1    3    3    0  502  0.79471570158E+03 -0.52267482601E+03 -0.85696253194E+03  0.12802916860E+04  0.50400001928E-02 0. -1.
</event>
<event>
 5   0  0.1226021E-04  0.2163595E+04  0.7818609E-02  0.8533735E-01
        2   -1    0    0  501    0  0.00000000000E+00  0.00000000000E+00  0.13890672415E+04  0.13890672415E+04  0.25500000920E-02 0.  1.
       -2   -1    0    0    0  501  0.00000000000E+00  0.00000000000E+00 -0.84249723144E+03  0.84249723145E+03  0.25500000920E-02 0. -1.
    10030    2    1    2    0    0  0.00000000000E+00  0.00000000000E+00  0.54657001008E+03  0.22315644730E+04  0.21635945140E+04 0.  0.
        2    1    3    3  502    0  0.44399904217E+03 -0.81366349885E+03 -0.30200241259E+03  0.97487891352E+03  0.25500000920E-02 0. -1.
       -2    1    3    3    0  502 -0.44399904217E+03  0.81366349885E+03  0.84857242267E+03  0.12566855595E+04  0.25500000920E-02 0.  1.
</event>
<event>
 5   0  0.1241430E-04  0.2181136E+04  0.7818609E-02  0.8526321E-01
        2   -1    0    0  501    0  0.00000000000E+00  0.00000000000E+00  0.92774202104E+03  0.92774202105E+03  0.25500000920E-02 0.  1.
       -2   -1    0    0    0  501  0.00000000000E+00  0.00000000000E+00 -0.12819707443E+04  0.12819707443E+04  0.25500000920E-02 0. -1.
    10030    2    1    2    0    0  0.00000000000E+00  0.00000000000E+00 -0.35422872328E+03  0.22097127654E+04  0.21811356026E+04 0.  0.
        1    1    3    3  502    0  0.75376621200E+02  0.14109863847E+03 -0.12700197564E+04  0.12800549373E+04  0.50400001928E-02 0. -1.
       -1    1    3    3    0  502 -0.75376621200E+02 -0.14109863847E+03  0.91579103316E+03  0.92965782804E+03  0.50400001928E-02 0.  1.
</event>
<event>
 5   0  0.5849604E-05  0.2190563E+04  0.7818609E-02  0.8522366E-01
       -1   -1    0    0    0  501  0.00000000000E+00  0.00000000000E+00  0.87032824569E+03  0.87032824570E+03  0.50400001928E-02 0.  1.
        1   -1    0    0  501    0  0.00000000000E+00  0.00000000000E+00 -0.13783778879E+04  0.13783778879E+04  0.50400001928E-02 0. -1.
    10030    2    1    2    0    0  0.00000000000E+00  0.00000000000E+00 -0.50804964225E+03  0.22487061336E+04  0.21905626758E+04 0.  0.
        2    1    3    3  502    0  0.58006700534E+03  0.63603059309E+03 -0.94922131043E+03  0.12814186444E+04  0.25500000920E-02 0. -1.
       -2    1    3    3    0  502 -0.58006700534E+03 -0.63603059309E+03  0.44117166819E+03  0.96728748925E+03  0.25500000920E-02 0.  1.
</event>
<event>
 5   0  0.5849604E-05  0.2207976E+04  0.7818609E-02  0.8515116E-01
       -1   -1    0    0    0  501  0.00000000000E+00  0.00000000000E+00  0.10494521703E+04  0.10494521703E+04  0.50400001928E-02 0.  1.
        1   -1    0    0  501    0  0.00000000000E+00  0.00000000000E+00 -0.11613577570E+04  0.11613577570E+04  0.50400001928E-02 0. -1.
    10030    2    1    2    0    0  0.00000000000E+00  0.00000000000E+00 -0.11190558671E+03  0.22108099273E+04  0.22079759225E+04 0.  0.
        2    1    3    3  502    0 -0.93929320984E+03  0.57296112732E+03  0.34900824278E+02  0.11008061841E+04  0.25500000920E-02 0. -1.
       -2    1    3    3    0  502  0.93929320984E+03 -0.57296112732E+03 -0.14680641099E+03  0.11100037431E+04  0.25500000920E-02 0.  1.
</event>
<event>
 5   0  0.1311472E-04  0.2247166E+04  0.7818609E-02  0.8499049E-01
        2   -1    0    0  501    0  0.00000000000E+00  0.00000000000E+00  0.15117367151E+04  0.15117367151E+04  0.25500000920E-02 0. -1.
       -2   -1    0    0    0  501  0.00000000000E+00  0.00000000000E+00 -0.83509161353E+03  0.83509161354E+03  0.25500000920E-02 0.  1.
    10030    2    1    2    0    0  0.00000000000E+00  0.00000000000E+00  0.67664510160E+03  0.23468283287E+04  0.22471659064E+04 0.  0.
        4    1    3    3  502    0 -0.98909099009E+03 -0.74250633451E+02 -0.21293504435E+03  0.10144737992E+04  0.12699999809E+01 0.  1.
       -4    1    3    3    0  502  0.98909099009E+03  0.74250633451E+02  0.88958014595E+03  0.13323545295E+04  0.12699999809E+01 0. -1.
</event>
<event>
 5   0  0.1311472E-04  0.2159039E+04  0.7818609E-02  0.8535673E-01
        2   -1    0    0  501    0  0.00000000000E+00  0.00000000000E+00  0.24654866049E+04  0.24654866049E+04  0.25500000920E-02 0. -1.
       -2   -1    0    0    0  501  0.00000000000E+00  0.00000000000E+00 -0.47267043707E+03  0.47267043708E+03  0.25500000920E-02 0.  1.
    10030    2    1    2    0    0  0.00000000000E+00  0.00000000000E+00  0.19928161678E+04  0.29381570420E+04  0.21590392596E+04 0.  0.
        4    1    3    3  502    0 -0.87099958602E+03 -0.37761297893E+03  0.16958032957E+04  0.19434459785E+04  0.12699999809E+01 0. -1.
       -4    1    3    3    0  502  0.87099958602E+03  0.37761297893E+03  0.29701287212E+03  0.99471106348E+03  0.12699999809E+01 0.  1.
</event>
<event>
 5   0  0.1311472E-04  0.2262294E+04  0.7818609E-02  0.8492938E-01
        2   -1    0    0  501    0  0.00000000000E+00  0.00000000000E+00  0.84309672171E+03  0.84309672171E+03  0.25500000920E-02 0. -1.
       -2   -1    0    0    0  501  0.00000000000E+00  0.00000000000E+00 -0.15176115633E+04  0.15176115633E+04  0.25500000920E-02 0.  1.
    10030    2    1    2    0    0  0.00000000000E+00  0.00000000000E+00 -0.67451484162E+03  0.23607082850E+04  0.22622938217E+04 0.  0.
        4    1    3    3  502    0 -0.40397612569E+03  0.50597952441E+03  0.63060395798E+03  0.90381134866E+03  0.12699999809E+01 0. -1.
       -4    1    3    3    0  502  0.40397612569E+03 -0.50597952441E+03 -0.13051187996E+04  0.14568969364E+04  0.12699999809E+01 0.  1.
</event>
<event>
 5   0  0.6263558E-05  0.1809888E+04  0.7818609E-02  0.8701059E-01
       -1   -1    0    0    0  501  0.00000000000E+00  0.00000000000E+00  0.58501880279E+03  0.58501880282E+03  0.50400001928E-02 0.  1.
        1   -1    0    0  501    0  0.00000000000E+00  0.00000000000E+00 -0.13998244783E+04  0.13998244783E+04  0.50400001928E-02 0. -1.
    10030    2    1    2    0    0  0.00000000000E+00  0.00000000000E+00 -0.81480567546E+03  0.19848432811E+04  0.18098879970E+04 0.  0.
        3    1    3    3  502    0  0.18958605338E+03  0.73636544331E+03  0.13068687134E+03  0.77152835741E+03  0.10100000352E+00 0.  1.
       -3    1    3    3    0  502 -0.18958605338E+03 -0.73636544331E+03 -0.94549254681E+03  0.12133149237E+04  0.10100000352E+00 0. -1.
</event>
<event>
 5   0  0.5895063E-05  0.2202224E+04  0.7818609E-02  0.8517503E-01
       -1   -1    0    0    0  501  0.00000000000E+00  0.00000000000E+00  0.18043932550E+04  0.18043932550E+04  0.50400001928E-02 0. -1.
        1   -1    0    0  501    0  0.00000000000E+00  0.00000000000E+00 -0.67194184423E+03  0.67194184425E+03  0.50400001928E-02 0.  1.
    10030    2    1    2    0    0  0.00000000000E+00  0.00000000000E+00  0.11324514107E+04  0.24763350992E+04  0.22022237230E+04 0.  0.
        5    1    3    3  502    0 -0.40778161790E+03 -0.86664627204E+03 -0.44583845422E+02  0.95883857766E+03  0.46999998093E+01 0.  1.
       -5    1    3    3    0  502  0.40778161790E+03  0.86664627204E+03  0.11770352562E+04  0.15174965216E+04  0.46999998093E+01 0. -1.
</event>
<event>
 5   0  0.1226021E-04  0.2215486E+04  0.7818609E-02  0.8512010E-01
        2   -1    0    0  501    0  0.00000000000E+00  0.00000000000E+00  0.16496130121E+04  0.16496130121E+04  0.25500000920E-02 0. -1.
       -2   -1    0    0    0  501  0.00000000000E+00  0.00000000000E+00 -0.74386786439E+03  0.74386786439E+03  0.25500000920E-02 0.  1.
    10030    2    1    2    0    0  0.00000000000E+00  0.00000000000E+00  0.90574514770E+03  0.23934808765E+04  0.22154855977E+04 0.  0.
        2    1    3    3  502    0  0.23190267578E+03  0.84085297896E+03 -0.28483651626E+03  0.91757529623E+03  0.25500000920E-02 0. -1.
       -2    1    3    3    0  502 -0.23190267578E+03 -0.84085297896E+03  0.11905816640E+04  0.14759055803E+04  0.25500000920E-02 0.  1.
</event>
<event>
 5   0  0.5849604E-05  0.2191365E+04  0.7818609E-02  0.8522031E-01
        1   -1    0    0  501    0  0.00000000000E+00  0.00000000000E+00  0.11475188048E+04  0.11475188048E+04  0.50400001928E-02 0.  1.
       -1   -1    0    0    0  501  0.00000000000E+00  0.00000000000E+00 -0.10461879113E+04  0.10461879113E+04  0.50400001928E-02 0. -1.
    10030    2    1    2    0    0  0.00000000000E+00  0.00000000000E+00  0.10133089354E+03  0.21937067161E+04  0.21913651467E+04 0.  0.
        2    1    3    3  502    0  0.87931477767E+03 -0.53333492517E+03  0.42906363708E+03  0.11143321880E+04  0.25500000920E-02 0.  1.
       -2    1    3    3    0  502 -0.87931477767E+03  0.53333492517E+03 -0.32773274354E+03  0.10793745281E+04  0.25500000920E-02 0. -1.
</event>
<event>
 5   0  0.5849604E-05  0.1369725E+04  0.7818609E-02  0.8976029E-01
        1   -1    0    0  501    0  0.00000000000E+00  0.00000000000E+00  0.60648483288E+03  0.60648483291E+03  0.50400001928E-02 0. -1.
       -1   -1    0    0    0  501  0.00000000000E+00  0.00000000000E+00 -0.77336922413E+03  0.77336922414E+03  0.50400001928E-02 0.  1.
    10030    2    1    2    0    0  0.00000000000E+00  0.00000000000E+00 -0.16688439124E+03  0.13798540570E+04  0.13697250887E+04 0.  0.
        2    1    3    3  502    0 -0.15184979920E+03  0.10295641413E+03  0.58126922986E+03  0.60953449641E+03  0.25500000920E-02 0. -1.
       -2    1    3    3    0  502  0.15184979920E+03 -0.10295641413E+03 -0.74815362110E+03  0.77031956064E+03  0.25500000920E-02 0.  1.
</event>
<event>
 5   0  0.5861816E-05  0.1530255E+04  0.7818609E-02  0.8864579E-01
        1   -1    0    0  501    0  0.00000000000E+00  0.00000000000E+00  0.84524046525E+03  0.84524046527E+03  0.50400001928E-02 0. -1.
       -1   -1    0    0    0  501  0.00000000000E+00  0.00000000000E+00 -0.69260769381E+03  0.69260769383E+03  0.50400001928E-02 0.  1.
    10030    2    1    2    0    0  0.00000000000E+00  0.00000000000E+00  0.15263277144E+03  0.15378481591E+04  0.15302549453E+04 0.  0.
        1    1    3    3  502    0  0.22321742990E+03  0.11313032118E+03 -0.65031743874E+03  0.69680503854E+03  0.50400001928E-02 0.  1.
       -1    1    3    3    0  502 -0.22321742990E+03 -0.11313032118E+03  0.80295021018E+03  0.84104312056E+03  0.50400001928E-02 0. -1.
</event>
<event>
 5   0  0.1226021E-04  0.2213790E+04  0.7818609E-02  0.8512710E-01
        2   -1    0    0  501    0  0.00000000000E+00  0.00000000000E+00  0.75622528242E+03  0.75622528242E+03  0.25500000920E-02 0. -1.
       -2   -1    0    0    0  501  0.00000000000E+00  0.00000000000E+00 -0.16201738973E+04  0.16201738973E+04  0.25500000920E-02 0.  1.
    10030    2    1    2    0    0  0.00000000000E+00  0.00000000000E+00 -0.86394861492E+03  0.23763991798E+04  0.22137899296E+04 0.  0.
        2    1    3    3  502    0 -0.37598497025E+03 -0.44054557362E+03  0.58058902924E+03  0.82007848476E+03  0.25500000920E-02 0. -1.
       -2    1    3    3    0  502  0.37598497025E+03  0.44054557362E+03 -0.14445376442E+04  0.15563206950E+04  0.25500000920E-02 0.  1.
</event>
<event>
 5   0  0.1311472E-04  0.2176685E+04  0.7818609E-02  0.8528195E-01
       -2   -1    0    0    0  501  0.00000000000E+00  0.00000000000E+00  0.52031439472E+03  0.52031439473E+03  0.25500000920E-02 0. -1.
        2   -1    0    0  501    0  0.00000000000E+00  0.00000000000E+00 -0.22764883739E+04  0.22764883739E+04  0.25500000920E-02 0.  1.
    10030    2    1    2    0    0  0.00000000000E+00  0.00000000000E+00 -0.17561739792E+04  0.27968027686E+04  0.21766852509E+04 0.  0.
        4    1    3    3  502    0 -0.46960239389E+03  0.19914898803E+03 -0.21133885649E+04  0.21740744161E+04  0.12699999809E+01 0.  1.
       -4    1    3    3    0  502  0.46960239389E+03 -0.19914898803E+03  0.35721458575E+03  0.62272835246E+03  0.12699999809E+01 0. -1.
</event>
<event>
 5   0  0.5861816E-05  0.2187422E+04  0.7818609E-02  0.8523681E-01
        1   -1    0    0  501    0  0.00000000000E+00  0.00000000000E+00  0.18089224850E+04  0.18089224850E+04  0.50400001928E-02 0. -1.
       -1   -1    0    0    0  501  0.00000000000E+00  0.00000000000E+00 -0.66127996070E+03  0.66127996072E+03  0.50400001928E-02 0.  1.
    10030    2    1    2    0    0  0.00000000000E+00  0.00000000000E+00  0.11476425243E+04  0.24702024457E+04  0.21874224007E+04 0.  0.
        1    1    3    3  502    0  0.29622392397E+03  0.46855046529E+02 -0.61393829180E+03  0.68327464074E+03  0.50400001928E-02 0.  1.
       -1    1    3    3    0  502 -0.29622392397E+03 -0.46855046529E+02  0.17615808161E+04  0.17869278050E+04  0.50400001928E-02 0. -1.
</event>
<event>
 5   0  0.1241430E-04  0.2356680E+04  0.7818609E-02  0.8455902E-01
       -2   -1    0    0    0  501  0.00000000000E+00  0.00000000000E+00  0.64529300569E+03  0.64529300569E+03  0.25500000920E-02 0. -1.
        2   -1    0    0  501    0  0.00000000000E+00  0.00000000000E+00 -0.21517118545E+04  0.21517118545E+04  0.25500000920E-02 0.  1.
    10030    2    1    2    0    0  0.00000000000E+00  0.00000000000E+00 -0.15064188488E+04  0.27970048602E+04  0.23566795370E+04 0.  0.
        1    1    3    3  502    0  0.28228380364E+03 -0.11153060082E+04 -0.45087226857E+03  0.12356688231E+04  0.50400001928E-02 0. -1.
       -1    1    3    3    0  502 -0.28228380364E+03  0.11153060082E+04 -0.10555465803E+04  0.15613360371E+04  0.50400001928E-02 0.  1.
</event>
<event>
 5   0  0.5849604E-05  0.2141843E+04  0.7818609E-02  0.8543032E-01
       -1   -1    0    0    0  501  0.00000000000E+00  0.00000000000E+00  0.11924742060E+04  0.11924742060E+04  0.50400001928E-02 0.  1.
        1   -1    0    0  501    0  0.00000000000E+00  0.00000000000E+00 -0.96175944721E+03  0.96175944722E+03  0.50400001928E-02 0. -1.
    10030    2    1    2    0    0  0.00000000000E+00  0.00000000000E+00  0.23071475878E+03  0.21542336532E+04  0.21418434426E+04 0.  0.
        2    1    3    3  502    0  0.43403423564E+03  0.97764937173E+03  0.63198717673E+02  0.10715307227E+04  0.25500000920E-02 0.  1.
       -2    1    3    3    0  502 -0.43403423564E+03 -0.97764937173E+03  0.16751604111E+03  0.10827029305E+04  0.25500000920E-02 0. -1.
</event>
<event>
 5   0  0.5861816E-05  0.2195869E+04  0.7818609E-02  0.8520150E-01
        1   -1    0    0  501    0  0.00000000000E+00  0.00000000000E+00  0.21886332871E+04  0.21886332871E+04  0.50400001928E-02 0. -1.
       -1   -1    0    0    0  501  0.00000000000E+00  0.00000000000E+00 -0.55078194801E+03  0.55078194804E+03  0.50400001928E-02 0.  1.
    10030    2    1    2    0    0  0.00000000000E+00  0.00000000000E+00  0.16378513391E+04  0.27394152351E+04  0.21958685802E+04 0.  0.
        1    1    3    3  502    0  0.10181724929E+04  0.23734805791E+03  0.12372681671E+04  0.16198277202E+04  0.50400001928E-02 0. -1.
       -1    1    3    3    0  502 -0.10181724929E+04 -0.23734805791E+03  0.40058317197E+03  0.11195875149E+04  0.50400001928E-02 0.  1.
</event>
<event>
 5   0  0.5861816E-05  0.2182950E+04  0.7818609E-02  0.8525558E-01
       -1   -1    0    0    0  501  0.00000000000E+00  0.00000000000E+00  0.54055119693E+03  0.54055119696E+03  0.50400001928E-02 0. -1.
        1   -1    0    0  501    0  0.00000000000E+00  0.00000000000E+00 -0.22038950606E+04  0.22038950606E+04  0.50400001928E-02 0.  1.
    10030    2    1    2    0    0  0.00000000000E+00  0.00000000000E+00 -0.16633438636E+04  0.27444462575E+04  0.21829504007E+04 0.  0.
        1    1    3    3  502    0  0.41593518920E+03 -0.77810814103E+03 -0.23852603336E+02  0.88262297017E+03  0.50400001928E-02 0. -1.
       -1    1    3    3    0  502 -0.41593518920E+03  0.77810814103E+03 -0.16394912603E+04  0.18618232874E+04  0.50400001928E-02 0.  1.
</event>
<event>
 5   0  0.5861816E-05  0.2176808E+04  0.7818609E-02  0.8528144E-01
        1   -1    0    0  501    0  0.00000000000E+00  0.00000000000E+00  0.12848253755E+04  0.12848253755E+04  0.50400001928E-02 0.  1.
       -1   -1    0    0    0  501  0.00000000000E+00  0.00000000000E+00 -0.92201093956E+03  0.92201093958E+03  0.50400001928E-02 0. -1.
    10030    2    1    2    0    0  0.00000000000E+00  0.00000000000E+00  0.36281443595E+03  0.22068363151E+04  0.21768078020E+04 0.  0.
        1    1    3    3  502    0 -0.10814873961E+04 -0.11722508975E+03  0.21748381357E+03  0.11093493223E+04  0.50400001928E-02 0. -1.
       -1    1    3    3    0  502  0.10814873961E+04  0.11722508975E+03  0.14533062237E+03  0.10974869928E+04  0.50400001928E-02 0.  1.
</event>
<event>
 5   0  0.5861816E-05  0.2205821E+04  0.7818609E-02  0.8516009E-01
       -1   -1    0    0    0  501  0.00000000000E+00  0.00000000000E+00  0.99417266440E+03  0.99417266442E+03  0.50400001928E-02 0. -1.
        1   -1    0    0  501    0  0.00000000000E+00  0.00000000000E+00 -0.12235412470E+04  0.12235412470E+04  0.50400001928E-02 0.  1.
    10030    2    1    2    0    0  0.00000000000E+00  0.00000000000E+00 -0.22936858255E+03  0.22177139114E+04  0.22058207194E+04 0.  0.
        1    1    3    3  502    0 -0.84976291801E+03 -0.69768518721E+03 -0.27327237978E+02  0.10998219925E+04  0.50400001928E-02 0. -1.
       -1    1    3    3    0  502  0.84976291801E+03  0.69768518721E+03 -0.20204134457E+03  0.11178919189E+04  0.50400001928E-02 0.  1.
</event>
<event>
 5   0  0.5849604E-05  0.2203565E+04  0.7818609E-02  0.8516946E-01
        1   -1    0    0  501    0  0.00000000000E+00  0.00000000000E+00  0.15155730297E+04  0.15155730297E+04  0.50400001928E-02 0.  1.
       -1   -1    0    0    0  501  0.00000000000E+00  0.00000000000E+00 -0.80096733424E+03  0.80096733426E+03  0.50400001928E-02 0. -1.
    10030    2    1    2    0    0  0.00000000000E+00  0.00000000000E+00  0.71460569547E+03  0.23165403640E+04  0.22035648295E+04 0.  0.
        2    1    3    3  502    0  0.46068357656E+03 -0.66400453108E+02  0.14071448044E+04  0.14821251224E+04  0.25500000920E-02 0.  1.
       -2    1    3    3    0  502 -0.46068357656E+03  0.66400453108E+02 -0.69253910896E+03  0.83441524155E+03  0.25500000920E-02 0. -1.
</event>
<event>
 5   0  0.5981239E-05  0.2195381E+04  0.7818609E-02  0.8520353E-01
       -1   -1    0    0    0  501  0.00000000000E+00  0.00000000000E+00  0.60731397269E+03  0.60731397271E+03  0.50400001928E-02 0.  1.
        1   -1    0    0  501    0  0.00000000000E+00  0.00000000000E+00 -0.19840219082E+04  0.19840219082E+04  0.50400001928E-02 0. -1.
    10030    2    1    2    0    0  0.00000000000E+00  0.00000000000E+00 -0.13767079355E+04  0.25913358809E+04  0.21953808116E+04 0.  0.
        4    1    3    3  502    0  0.24552219337E+03  0.10401069354E+04 -0.39251222208E+03  0.11384950776E+04  0.12699999809E+01 0.  1.
       -4    1    3    3    0  502 -0.24552219337E+03 -0.10401069354E+04 -0.98419571344E+03  0.14528408033E+04  0.12699999809E+01 0. -1.
</event>
<event>
 5   0  0.1226021E-04  0.2240857E+04  0.7818609E-02  0.8501612E-01
       -2   -1    0    0    0  501  0.00000000000E+00  0.00000000000E+00  0.68174146013E+03  0.68174146013E+03  0.25500000920E-02 0. -1.
        2   -1    0    0  501    0  0.00000000000E+00  0.00000000000E+00 -0.18414024954E+04  0.18414024954E+04  0.25500000920E-02 0.  1.
    10030    2    1    2    0    0  0.00000000000E+00  0.00000000000E+00 -0.11596610353E+04  0.25231439555E+04  0.22408573591E+04 0.  0.
        2    1    3    3  502    0  0.13120773913E+03 -0.65854657717E+03  0.43007422464E+03  0.79741012272E+03  0.25500000920E-02 0. -1.
       -2    1    3    3    0  502 -0.13120773913E+03  0.65854657717E+03 -0.15897352599E+04  0.17257338328E+04  0.25500000920E-02 0.  1.
</event>
<event>
 5   0  0.5849604E-05  0.2230028E+04  0.7818609E-02  0.8506033E-01
        1   -1    0    0  501    0  0.00000000000E+00  0.00000000000E+00  0.91281009055E+03  0.91281009056E+03  0.50400001928E-02 0. -1.
       -1   -1    0    0    0  501  0.00000000000E+00  0.00000000000E+00 -0.13620102860E+04  0.13620102860E+04  0.50400001928E-02 0.  1.
    10030    2    1    2    0    0  0.00000000000E+00  0.00000000000E+00 -0.44920019542E+03  0.22748203765E+04  0.22300284594E+04 0.  0.
        2    1    3    3  502    0  0.38260568839E+03  0.60713682366E+03  0.64591897708E+03  0.96551207159E+03  0.25500000920E-02 0. -1.
       -2    1    3    3    0  502 -0.38260568839E+03 -0.60713682366E+03 -0.10951191725E+04  0.13093083050E+04  0.25500000920E-02 0.  1.
</event>
<event>
 5   0  0.5895063E-05  0.2258604E+04  0.7818609E-02  0.8494424E-01
       -1   -1    0    0    0  501  0.00000000000E+00  0.00000000000E+00  0.43963581919E+03  0.43963581921E+03  0.50400001928E-02 0. -1.
        1   -1    0    0  501    0  0.00000000000E+00  0.00000000000E+00 -0.29008622155E+04  0.29008622155E+04  0.50400001928E-02 0.  1.
    10030    2    1    2    0    0  0.00000000000E+00  0.00000000000E+00 -0.24612263963E+04  0.33404980347E+04  0.22586039374E+04 0.  0.
        5    1    3    3  502    0  0.69947987677E+03  0.80529018917E+03 -0.68210886826E+03  0.12661196566E+04  0.46999998093E+01 0. -1.
       -5    1    3    3    0  502 -0.69947987677E+03 -0.80529018917E+03 -0.17791175280E+04  0.20743783780E+04  0.46999998093E+01 0.  1.
</event>
<event>
 5   0  0.1241430E-04  0.2216785E+04  0.7818609E-02  0.8511474E-01
        2   -1    0    0  501    0  0.00000000000E+00  0.00000000000E+00  0.10476186437E+04  0.10476186437E+04  0.25500000920E-02 0.  1.
       -2   -1    0    0    0  501  0.00000000000E+00  0.00000000000E+00 -0.11726916388E+04  0.11726916388E+04  0.25500000920E-02 0. -1.
    10030    2    1    2    0    0  0.00000000000E+00  0.00000000000E+00 -0.12507299516E+03  0.22203102825E+04  0.22167847203E+04 0.  0.
        1    1    3    3  502    0 -0.28298803829E+02  0.61408392634E+03 -0.98630138709E+03  0.11621920311E+04  0.50400001928E-02 0. -1.
       -1    1    3    3    0  502  0.28298803829E+02 -0.61408392634E+03  0.86122839192E+03  0.10581182514E+04  0.50400001928E-02 0.  1.
</event>
<event>
 5   0  0.1241430E-04  0.2115267E+04  0.7818609E-02  0.8554548E-01
       -2   -1    0    0    0  501  0.00000000000E+00  0.00000000000E+00  0.76793260592E+03  0.76793260593E+03  0.25500000920E-02 0.  1.
        2   -1    0    0  501    0  0.00000000000E+00  0.00000000000E+00 -0.14566240382E+04  0.14566240382E+04  0.25500000920E-02 0. -1.
    10030    2    1    2    0    0  0.00000000000E+00  0.00000000000E+00 -0.68869143224E+03  0.22245566441E+04  0.21152674474E+04 0.  0.
        1    1    3    3  502    0  0.28396045898E+03 -0.28177396507E+03 -0.13739909267E+04  0.14310419897E+04  0.50400001928E-02 0. -1.
       -1    1    3    3    0  502 -0.28396045898E+03  0.28177396507E+03  0.68529949443E+03  0.79351465440E+03  0.50400001928E-02 0.  1.
</event>
<event>
 5   0  0.1226021E-04  0.2178338E+04  0.7818609E-02  0.8527499E-01
        2   -1    0    0  501    0  0.00000000000E+00  0.00000000000E+00  0.21766540763E+04  0.21766540763E+04  0.25500000920E-02 0. -1.
       -2   -1    0    0    0  501  0.00000000000E+00  0.00000000000E+00 -0.54500565820E+03  0.54500565821E+03  0.25500000920E-02 0.  1.
    10030    2    1    2    0    0  0.00000000000E+00  0.00000000000E+00  0.16316484181E+04  0.27216597345E+04  0.21783377034E+04 0.  0.
        2    1    3    3  502    0 -0.86100542024E+03 -0.15020996965E+03  0.16278470013E+04  0.18476415313E+04  0.25500000920E-02 0. -1.
       -2    1    3    3    0  502  0.86100542024E+03  0.15020996965E+03  0.38014167782E+01  0.87401820315E+03  0.25500000920E-02 0.  1.
</event>
<event>
 5   0  0.1404159E-04  0.2131208E+04  0.7818609E-02  0.8547619E-01
       -2   -1    0    0    0  501  0.00000000000E+00  0.00000000000E+00  0.51523478781E+03  0.51523478781E+03  0.25500000920E-02 0. -1.
        2   -1    0    0  501    0  0.00000000000E+00  0.00000000000E+00 -0.22038725912E+04  0.22038725912E+04  0.25500000920E-02 0.  1.
    10030    2    1    2    0    0  0.00000000000E+00  0.00000000000E+00 -0.16886378034E+04  0.27191073790E+04  0.21312079457E+04 0.  0.
        5    1    3    3  502    0 -0.52107781348E+03  0.24199547661E+03 -0.19893253133E+04  0.20706330410E+04  0.46999998093E+01 0.  1.
       -5    1    3    3    0  502  0.52107781348E+03 -0.24199547661E+03  0.30068750993E+03  0.64847433798E+03  0.46999998093E+01 0. -1.
</event>
<event>
 5   0  0.5981239E-05  0.2127153E+04  0.7818609E-02  0.8549376E-01
        1   -1    0    0  501    0  0.00000000000E+00  0.00000000000E+00  0.97121129957E+03  0.97121129958E+03  0.50400001928E-02 0.  1.
       -1   -1    0    0    0  501  0.00000000000E+00  0.00000000000E+00 -0.11647254591E+04  0.11647254591E+04  0.50400001928E-02 0. -1.
    10030    2    1    2    0    0  0.00000000000E+00  0.00000000000E+00 -0.19351415951E+03  0.21359367587E+04  0.21271525820E+04 0.  0.
        4    1    3    3  502    0 -0.49474889140E+03 -0.93306034804E+03  0.29519288355E+02  0.10565278415E+04  0.12699999809E+01 0.  1.
       -4    1    3    3    0  502  0.49474889140E+03  0.93306034804E+03 -0.22303344786E+03  0.10794089171E+04  0.12699999809E+01 0. -1.
</event>
<event>
 5   0  0.1241430E-04  0.2145095E+04  0.7818609E-02  0.8541635E-01
        2   -1    0    0  501    0  0.00000000000E+00  0.00000000000E+00  0.14880568672E+04  0.14880568672E+04  0.25500000920E-02 0.  1.
       -2   -1    0    0    0  501  0.00000000000E+00  0.00000000000E+00 -0.77306087584E+03  0.77306087584E+03  0.25500000920E-02 0. -1.
    10030    2    1    2    0    0  0.00000000000E+00  0.00000000000E+00  0.71499599137E+03  0.22611177430E+04  0.21450953779E+04 0.  0.
        1    1    3    3  502    0 -0.63896702808E+03 -0.30507864727E+02  0.12649618184E+04  0.14175111975E+04  0.50400001928E-02 0.  1.
       -1    1    3    3    0  502  0.63896702808E+03  0.30507864727E+02 -0.54996582708E+03  0.84360654559E+03  0.50400001928E-02 0. -1.
</event>
<event>
 5   0  0.5861816E-05  0.2207555E+04  0.7818609E-02  0.8515290E-01
        1   -1    0    0  501    0  0.00000000000E+00  0.00000000000E+00  0.28338530528E+04  0.28338530528E+04  0.50400001928E-02 0.  1.
       -1   -1    0    0    0  501  0.00000000000E+00  0.00000000000E+00 -0.42991793571E+03  0.42991793574E+03  0.50400001928E-02 0. -1.
    10030    2    1    2    0    0  0.00000000000E+00  0.00000000000E+00  0.24039351171E+04  0.32637709885E+04  0.22075545335E+04 0.  0.
        1    1    3    3  502    0  0.73021033855E+03 -0.22070855208E+02  0.24252766339E+04  0.25329155161E+04  0.50400001928E-02 0.  1.
       -1    1    3    3    0  502 -0.73021033855E+03  0.22070855208E+02 -0.21341516763E+02  0.73085547240E+03  0.50400001928E-02 0. -1.
</event>
<event>
 5   0  0.5849604E-05  0.2206021E+04  0.7818609E-02  0.8515926E-01
       -1   -1    0    0    0  501  0.00000000000E+00  0.00000000000E+00  0.75204158521E+03  0.75204158522E+03  0.50400001928E-02 0.  1.
        1   -1    0    0  501    0  0.00000000000E+00  0.00000000000E+00 -0.16177718648E+04  0.16177718648E+04  0.50400001928E-02 0. -1.
    10030    2    1    2    0    0  0.00000000000E+00  0.00000000000E+00 -0.86573027955E+03  0.23698134500E+04  0.22060205962E+04 0.  0.
        2    1    3    3  502    0 -0.76290278073E+03 -0.17521466554E+03 -0.12676816436E+04  0.14898783780E+04  0.25500000920E-02 0.  1.
       -2    1    3    3    0  502  0.76290278073E+03  0.17521466554E+03  0.40195136400E+03  0.87993507198E+03  0.25500000920E-02 0. -1.
</event>
<event>
 5   0  0.5861816E-05  0.2163516E+04  0.7818609E-02  0.8533769E-01
       -1   -1    0    0    0  501  0.00000000000E+00  0.00000000000E+00  0.13507574087E+04  0.13507574087E+04  0.50400001928E-02 0.  1.
        1   -1    0    0  501    0  0.00000000000E+00  0.00000000000E+00 -0.86632931707E+03  0.86632931708E+03  0.50400001928E-02 0. -1.
    10030    2    1    2    0    0  0.00000000000E+00  0.00000000000E+00  0.48442809165E+03  0.22170867258E+04  0.21635163447E+04 0.  0.
        1    1    3    3  502    0 -0.18495757794E+03 -0.48184398686E+03  0.12164472982E+04  0.13214109742E+04  0.50400001928E-02 0.  1.
       -1    1    3    3    0  502  0.18495757794E+03  0.48184398686E+03 -0.73201920655E+03  0.89567575165E+03  0.50400001928E-02 0. -1.
</event>
<event>
 5   0  0.5895063E-05  0.2203177E+04  0.7818609E-02  0.8517107E-01
        1   -1    0    0  501    0  0.00000000000E+00  0.00000000000E+00  0.16067295757E+04  0.16067295757E+04  0.50400001928E-02 0. -1.
       -1   -1    0    0    0  501  0.00000000000E+00  0.00000000000E+00 -0.75525919761E+03  0.75525919762E+03  0.50400001928E-02 0.  1.
    10030    2    1    2    0    0  0.00000000000E+00  0.00000000000E+00  0.85147037807E+03  0.23619887733E+04  0.22031770606E+04 0.  0.
        5    1    3    3  502    0 -0.17633789561E+03 -0.64067943829E+03 -0.51617991857E+03  0.84144458784E+03  0.46999998093E+01 0.  1.
       -5    1    3    3    0  502  0.17633789561E+03  0.64067943829E+03  0.13676502966E+04  0.15205441855E+04  0.46999998093E+01 0. -1.
</event>
<event>
 5   0  0.5849604E-05  0.2178449E+04  0.7818609E-02  0.8527452E-01
       -1   -1    0    0    0  501  0.00000000000E+00  0.00000000000E+00  0.11127092068E+04  0.11127092068E+04  0.50400001928E-02 0. -1.
        1   -1    0    0  501    0  0.00000000000E+00  0.00000000000E+00 -0.10662351386E+04  0.10662351386E+04  0.50400001928E-02 0.  1.
    10030    2    1    2    0    0  0.00000000000E+00  0.00000000000E+00  0.46474068152E+02  0.21789443454E+04  0.21784486731E+04 0.  0.
        2    1    3    3  502    0 -0.25934161235E+03  0.10061918872E+04 -0.30353206547E+03  0.10825026099E+04  0.25500000920E-02 0.  1.
       -2    1    3    3    0  502  0.25934161235E+03 -0.10061918872E+04  0.35000613362E+03  0.10964417355E+04  0.25500000920E-02 0. -1.
</event>
<event>
 5   0  0.1241430E-04  0.2153929E+04  0.7818609E-02  0.8537852E-01
       -2   -1    0    0    0  501  0.00000000000E+00  0.00000000000E+00  0.56983914820E+03  0.56983914821E+03  0.25500000920E-02 0.  1.
        2   -1    0    0  501    0  0.00000000000E+00  0.00000000000E+00 -0.20354042830E+04  0.20354042830E+04  0.25500000920E-02 0. -1.
    10030    2    1    2    0    0  0.00000000000E+00  0.00000000000E+00 -0.14655651348E+04  0.26052434312E+04  0.21539294723E+04 0.  0.
        1    1    3    3  502    0 -0.10557542759E+04  0.10637838913E+02 -0.98971255427E+03  0.14471562441E+04  0.50400001928E-02 0.  1.
       -1    1    3    3    0  502  0.10557542759E+04 -0.10637838913E+02 -0.47585258053E+03  0.11580871872E+04  0.50400001928E-02 0. -1.
</event>
<event>
 5   0  0.1252124E-04  0.2175951E+04  0.7818609E-02  0.8528505E-01
       -2   -1    0    0    0  501  0.00000000000E+00  0.00000000000E+00  0.59682527049E+03  0.59682527050E+03  0.25500000920E-02 0.  1.
        2   -1    0    0  501    0  0.00000000000E+00  0.00000000000E+00 -0.19833125821E+04  0.19833125821E+04  0.25500000920E-02 0. -1.
    10030    2    1    2    0    0  0.00000000000E+00  0.00000000000E+00 -0.13864873116E+04  0.25801378526E+04  0.21759513490E+04 0.  0.
        3    1    3    3  502    0 -0.93443709297E+03 -0.45886800300E+03 -0.31835381930E+03  0.10886145734E+04  0.10100000352E+00 0.  1.
       -3    1    3    3    0  502  0.93443709297E+03  0.45886800300E+03 -0.10681334923E+04  0.14915232793E+04  0.10100000352E+00 0. -1.
</event>
<event>
 5   0  0.5861816E-05  0.2194984E+04  0.7818609E-02  0.8520519E-01
       -1   -1    0    0    0  501  0.00000000000E+00  0.00000000000E+00  0.99935102622E+03  0.99935102623E+03  0.50400001928E-02 0. -1.
        1   -1    0    0  501    0  0.00000000000E+00  0.00000000000E+00 -0.12052707950E+04  0.12052707950E+04  0.50400001928E-02 0.  1.
    10030    2    1    2    0    0  0.00000000000E+00  0.00000000000E+00 -0.20591976877E+03  0.22046218212E+04  0.21949839233E+04 0.  0.
        1    1    3    3  502    0  0.37804565469E+03  0.87120657064E+03  0.44951827813E+03  0.10507074227E+04  0.50400001928E-02 0. -1.
       -1    1    3    3    0  502 -0.37804565469E+03 -0.87120657064E+03 -0.65543804691E+03  0.11539143985E+04  0.50400001928E-02 0.  1.
</event>
<event>
 5   0  0.5849604E-05  0.2118423E+04  0.7818609E-02  0.8553171E-01
       -1   -1    0    0    0  501  0.00000000000E+00  0.00000000000E+00  0.94651476044E+03  0.94651476045E+03  0.50400001928E-02 0.  1.
        1   -1    0    0  501    0  0.00000000000E+00  0.00000000000E+00 -0.11853263427E+04  0.11853263427E+04  0.50400001928E-02 0. -1.
    10030    2    1    2    0    0  0.00000000000E+00  0.00000000000E+00 -0.23881158228E+03  0.21318411032E+04  0.21184228845E+04 0.  0.
        2    1    3    3  502    0  0.58353952302E+03  0.48108383062E+03 -0.86570197179E+03  0.11495216096E+04  0.25500000920E-02 0. -1.
       -2    1    3    3    0  502 -0.58353952302E+03 -0.48108383062E+03  0.62689038951E+03  0.98231949358E+03  0.25500000920E-02 0.  1.
</event>
<event>
 5   0  0.5981239E-05  0.2301622E+04  0.7818609E-02  0.8477282E-01
       -1   -1    0    0    0  501  0.00000000000E+00  0.00000000000E+00  0.94740770625E+03  0.94740770626E+03  0.50400001928E-02 0. -1.
        1   -1    0    0  501    0  0.00000000000E+00  0.00000000000E+00 -0.13978844405E+04  0.13978844405E+04  0.50400001928E-02 0.  1.
    10030    2    1    2    0    0  0.00000000000E+00  0.00000000000E+00 -0.45047673424E+03  0.23452921468E+04  0.23016224637E+04 0.  0.
        4    1    3    3  502    0 -0.57877431105E+03 -0.66792985662E+03 -0.97628115605E+03  0.13169041366E+04  0.12699999809E+01 0.  1.
       -4    1    3    3    0  502  0.57877431105E+03  0.66792985662E+03  0.52580442181E+03  0.10283880101E+04  0.12699999809E+01 0. -1.
</event>
<event>
 5   0  0.5849604E-05  0.2322060E+04  0.7818609E-02  0.8469274E-01
       -1   -1    0    0    0  501  0.00000000000E+00  0.00000000000E+00  0.12482006990E+04  0.12482006990E+04  0.50400001928E-02 0. -1.
        1   -1    0    0  501    0  0.00000000000E+00  0.00000000000E+00 -0.10799470067E+04  0.10799470067E+04  0.50400001928E-02 0.  1.
    10030    2    1    2    0    0  0.00000000000E+00  0.00000000000E+00  0.16825369232E+03  0.23281477056E+04  0.23220599549E+04 0.  0.
        2    1    3    3  502    0  0.11025026367E+04 -0.35859122057E+03  0.14666730765E+03  0.11685936105E+04  0.25500000920E-02 0. -1.
       -2    1    3    3    0  502 -0.11025026367E+04  0.35859122057E+03  0.21586384668E+02  0.11595540951E+04  0.25500000920E-02 0.  1.
</event>
<event>
 5   0  0.6263558E-05  0.2196847E+04  0.7818609E-02  0.8519742E-01
        1   -1    0    0  501    0  0.00000000000E+00  0.00000000000E+00  0.44086081083E+03  0.44086081086E+03  0.50400001928E-02 0.  1.
       -1   -1    0    0    0  501  0.00000000000E+00  0.00000000000E+00 -0.27367687323E+04  0.27367687323E+04  0.50400001928E-02 0. -1.
    10030    2    1    2    0    0  0.00000000000E+00  0.00000000000E+00 -0.22959079215E+04  0.31776295432E+04  0.21968469063E+04 0.  0.
        3    1    3    3  502    0 -0.78104902527E+03  0.76754849524E+03 -0.12720944428E+04  0.16785090271E+04  0.10100000352E+00 0. -1.
       -3    1    3    3    0  502  0.78104902527E+03 -0.76754849524E+03 -0.10238134787E+04  0.14991205161E+04  0.10100000352E+00 0.  1.
</event>
<event>
 5   0  0.1241430E-04  0.1648603E+04  0.7818609E-02  0.8791234E-01
       -2   -1    0    0    0  501  0.00000000000E+00  0.00000000000E+00  0.14117954204E+04  0.14117954204E+04  0.25500000920E-02 0. -1.
        2   -1    0    0  501    0  0.00000000000E+00  0.00000000000E+00 -0.48128263726E+03  0.48128263726E+03  0.25500000920E-02 0.  1.
    10030    2    1    2    0    0  0.00000000000E+00  0.00000000000E+00  0.93051278316E+03  0.18930780577E+04  0.16486025879E+04 0.  0.
        1    1    3    3  502    0  0.31332951030E+02  0.45710536628E+03  0.12521054157E+04  0.13333023070E+04  0.50400001928E-02 0. -1.
       -1    1    3    3    0  502 -0.31332951030E+02 -0.45710536628E+03 -0.32159263258E+03  0.55977575069E+03  0.50400001928E-02 0.  1.
</event>
<event>
 5   0  0.5895063E-05  0.2228313E+04  0.7818609E-02  0.8506735E-01
       -1   -1    0    0    0  501  0.00000000000E+00  0.00000000000E+00  0.70591487004E+03  0.70591487006E+03  0.50400001928E-02 0. -1.
        1   -1    0    0  501    0  0.00000000000E+00  0.00000000000E+00 -0.17584907122E+04  0.17584907123E+04  0.50400001928E-02 0.  1.
    10030    2    1    2    0    0  0.00000000000E+00  0.00000000000E+00 -0.10525758422E+04  0.24644055823E+04  0.22283130324E+04 0.  0.
        5    1    3    3  502    0  0.87171958949E+03 -0.67417252337E+03 -0.70774152379E+03  0.13097037026E+04  0.46999998093E+01 0.  1.
       -5    1    3    3    0  502 -0.87171958949E+03  0.67417252337E+03 -0.34483431841E+03  0.11547018798E+04  0.46999998093E+01 0. -1.
</event>
<event>
 5   0  0.1226021E-04  0.2157256E+04  0.7818609E-02  0.8536433E-01
        2   -1    0    0  501    0  0.00000000000E+00  0.00000000000E+00  0.17824593512E+04  0.17824593512E+04  0.25500000920E-02 0.  1.
       -2   -1    0    0    0  501  0.00000000000E+00  0.00000000000E+00 -0.65271519249E+03  0.65271519249E+03  0.25500000920E-02 0. -1.
    10030    2    1    2    0    0  0.00000000000E+00  0.00000000000E+00  0.11297441587E+04  0.24351745437E+04  0.21572559408E+04 0.  0.
        2    1    3    3  502    0  0.86754404772E+02  0.91507275621E+03  0.12019900162E+04  0.15131637304E+04  0.25500000920E-02 0.  1.
       -2    1    3    3    0  502 -0.86754404772E+02 -0.91507275621E+03 -0.72245857488E+02  0.92201081330E+03  0.25500000920E-02 0. -1.
</event>
<event>
 5   0  0.5849604E-05  0.2185748E+04  0.7818609E-02  0.8524384E-01
        1   -1    0    0  501    0  0.00000000000E+00  0.00000000000E+00  0.84796378448E+03  0.84796378449E+03  0.50400001928E-02 0.  1.
       -1   -1    0    0    0  501  0.00000000000E+00  0.00000000000E+00 -0.14085194617E+04  0.14085194617E+04  0.50400001928E-02 0. -1.
    10030    2    1    2    0    0  0.00000000000E+00  0.00000000000E+00 -0.56055567719E+03  0.22564832462E+04  0.21857479207E+04 0.  0.
        2    1    3    3  502    0  0.15663205933E+03  0.29538188431E+03 -0.13544253618E+04  0.13950814028E+04  0.25500000920E-02 0. -1.
       -2    1    3    3    0  502 -0.15663205933E+03 -0.29538188431E+03  0.79386968465E+03  0.86140184339E+03  0.25500000920E-02 0.  1.
</event>
<event>
 5   0  0.1252124E-04  0.2142283E+04  0.7818609E-02  0.8542843E-01
       -2   -1    0    0    0  501  0.00000000000E+00  0.00000000000E+00  0.99894849157E+03  0.99894849158E+03  0.25500000920E-02 0. -1.
        2   -1    0    0  501    0  0.00000000000E+00  0.00000000000E+00 -0.11485517671E+04  0.11485517671E+04  0.25500000920E-02 0.  1.
    10030    2    1    2    0    0  0.00000000000E+00  0.00000000000E+00 -0.14960327555E+03  0.21475002587E+04  0.21422829461E+04 0.  0.
        3    1    3    3  502    0 -0.10389966312E+04 -0.16720147087E+03  0.12536870657E+03  0.10598054795E+04  0.10100000352E+00 0. -1.
       -3    1    3    3    0  502  0.10389966312E+04  0.16720147087E+03 -0.27497198211E+03  0.10876947792E+04  0.10100000352E+00 0.  1.
</event>
<event>
 5   0  0.5861816E-05  0.2243039E+04  0.7818609E-02  0.8500725E-01
        1   -1    0    0  501    0  0.00000000000E+00  0.00000000000E+00  0.13603613759E+04  0.13603613759E+04  0.50400001928E-02 0. -1.
       -1   -1    0    0    0  501  0.00000000000E+00  0.00000000000E+00 -0.92461128905E+03  0.92461128907E+03  0.50400001928E-02 0.  1.
    10030    2    1    2    0    0  0.00000000000E+00  0.00000000000E+00  0.43575008686E+03  0.22849726650E+04  0.22430385511E+04 0.  0.
        1    1    3    3  502    0  0.91286848239E+03 -0.61070977038E+03  0.44907666226E+03  0.11865770680E+04  0.50400001928E-02 0. -1.
       -1    1    3    3    0  502 -0.91286848239E+03  0.61070977038E+03 -0.13326575402E+02  0.10983955970E+04  0.50400001928E-02 0.  1.
</event>
<event>
 5   0  0.1252124E-04  0.1404724E+04  0.7818609E-02  0.8950406E-01
       -2   -1    0    0    0  501  0.00000000000E+00  0.00000000000E+00  0.12300929000E+04  0.12300929000E+04  0.25500000920E-02 0.  1.
        2   -1    0    0  501    0  0.00000000000E+00  0.00000000000E+00 -0.40103680046E+03  0.40103680047E+03  0.25500000920E-02 0. -1.
    10030    2    1    2    0    0  0.00000000000E+00  0.00000000000E+00  0.82905609953E+03  0.16311297005E+04  0.14047242020E+04 0.  0.
        3    1    3    3  502    0 -0.35324161096E+03 -0.42722874824E+03 -0.86271342185E+02  0.56102298859E+03  0.10100000352E+00 0. -1.
       -3    1    3    3    0  502  0.35324161096E+03  0.42722874824E+03  0.91532744171E+03  0.10701067119E+04  0.10100000352E+00 0.  1.
</event>
<event>
 5   0  0.6263558E-05  0.1878888E+04  0.7818609E-02  0.8665437E-01
        1   -1    0    0  501    0  0.00000000000E+00  0.00000000000E+00  0.61807240624E+03  0.61807240626E+03  0.50400001928E-02 0. -1.
       -1   -1    0    0    0  501  0.00000000000E+00  0.00000000000E+00 -0.14279159616E+04  0.14279159616E+04  0.50400001928E-02 0.  1.
    10030    2    1    2    0    0  0.00000000000E+00  0.00000000000E+00 -0.80984355535E+03  0.20459883679E+04  0.18788884526E+04 0.  0.
        3    1    3    3  502    0  0.12085090798E+03  0.27552960253E+03 -0.13740339739E+04  0.14065883816E+04  0.10100000352E+00 0.  1.
       -3    1    3    3    0  502 -0.12085090798E+03 -0.27552960253E+03  0.56419041852E+03  0.63939998622E+03  0.10100000352E+00 0. -1.
</event>
<event>
 5   0  0.5895063E-05  0.2122202E+04  0.7818609E-02  0.8551526E-01
        1   -1    0    0  501    0  0.00000000000E+00  0.00000000000E+00  0.11339662198E+04  0.11339662198E+04  0.50400001928E-02 0.  1.
       -1   -1    0    0    0  501  0.00000000000E+00  0.00000000000E+00 -0.99291781306E+03  0.99291781308E+03  0.50400001928E-02 0. -1.
    10030    2    1    2    0    0  0.00000000000E+00  0.00000000000E+00  0.14104840675E+03  0.21268840329E+04  0.21222019311E+04 0.  0.
        5    1    3    3  502    0 -0.47370476708E+03  0.21342777226E+02  0.10218610327E+04  0.11265317487E+04  0.46999998093E+01 0.  1.
       -5    1    3    3    0  502  0.47370476708E+03 -0.21342777226E+02 -0.88081262599E+03  0.10003522842E+04  0.46999998093E+01 0. -1.
</event>
<event>
 5   0  0.6263558E-05  0.2244627E+04  0.7818609E-02  0.8500079E-01
        1   -1    0    0  501    0  0.00000000000E+00  0.00000000000E+00  0.79373938785E+03  0.79373938787E+03  0.50400001928E-02 0.  1.
       -1   -1    0    0    0  501  0.00000000000E+00  0.00000000000E+00 -0.15869038910E+04  0.15869038910E+04  0.50400001928E-02 0. -1.
    10030    2    1    2    0    0  0.00000000000E+00  0.00000000000E+00 -0.79316450312E+03  0.23806432788E+04  0.22446274729E+04 0.  0.
        3    1    3    3  502    0  0.29933353334E+03 -0.15889830174E+03  0.73817578424E+03  0.81225164396E+03  0.10100000352E+00 0.  1.
       -3    1    3    3    0  502 -0.29933353334E+03  0.15889830174E+03 -0.15313402874E+04  0.15683916349E+04  0.10100000352E+00 0. -1.
</event>
<event>
 5   0  0.1404159E-04  0.2197576E+04  0.7818609E-02  0.8519438E-01
        2   -1    0    0  501    0  0.00000000000E+00  0.00000000000E+00  0.16726441014E+04  0.16726441014E+04  0.25500000920E-02 0. -1.
       -2   -1    0    0    0  501  0.00000000000E+00  0.00000000000E+00 -0.72181201768E+03  0.72181201769E+03  0.25500000920E-02 0.  1.
    10030    2    1    2    0    0  0.00000000000E+00  0.00000000000E+00  0.95083208376E+03  0.23944561191E+04  0.21975755857E+04 0.  0.
        5    1    3    3  502    0  0.98869197462E+03 -0.44807816135E+03  0.66105179607E+03  0.12709435182E+04  0.46999998093E+01 0. -1.
       -5    1    3    3    0  502 -0.98869197462E+03  0.44807816135E+03  0.28978028769E+03  0.11235126009E+04  0.46999998093E+01 0.  1.
</event>
<event>
 5   0  0.1241430E-04  0.2174439E+04  0.7818609E-02  0.8529143E-01
       -2   -1    0    0    0  501  0.00000000000E+00  0.00000000000E+00  0.66031436290E+03  0.66031436291E+03  0.25500000920E-02 0.  1.
        2   -1    0    0  501    0  0.00000000000E+00  0.00000000000E+00 -0.17901267106E+04  0.17901267106E+04  0.25500000920E-02 0. -1.
    10030    2    1    2    0    0  0.00000000000E+00  0.00000000000E+00 -0.11298123477E+04  0.24504410735E+04  0.21744391262E+04 0.  0.
        1    1    3    3  502    0 -0.10323938099E+04 -0.19461498999E+03 -0.24949775245E+03  0.10797967872E+04  0.50400001928E-02 0.  1.
       -1    1    3    3    0  502  0.10323938099E+04  0.19461498999E+03 -0.88031459521E+03  0.13706442863E+04  0.50400001928E-02 0. -1.
</event>
<event>
 5   0  0.1241430E-04  0.2051689E+04  0.7818609E-02  0.8582829E-01
        2   -1    0    0  501    0  0.00000000000E+00  0.00000000000E+00  0.14995078328E+04  0.14995078328E+04  0.25500000920E-02 0.  1.
       -2   -1    0    0    0  501  0.00000000000E+00  0.00000000000E+00 -0.70180146995E+03  0.70180146995E+03  0.25500000920E-02 0. -1.
    10030    2    1    2    0    0  0.00000000000E+00  0.00000000000E+00  0.79770636283E+03  0.22013093027E+04  0.20516888665E+04 0.  0.
        1    1    3    3  502    0 -0.25594793784E+03  0.33358637787E+03  0.14028085445E+04  0.14644661249E+04  0.50400001928E-02 0.  1.
       -1    1    3    3    0  502  0.25594793784E+03 -0.33358637787E+03 -0.60510218170E+03  0.73684317782E+03  0.50400001928E-02 0. -1.
</event>
<event>
 5   0  0.5849604E-05  0.2232113E+04  0.7818609E-02  0.8505180E-01
        1   -1    0    0  501    0  0.00000000000E+00  0.00000000000E+00  0.19202348316E+04  0.19202348316E+04  0.50400001928E-02 0.  1.
       -1   -1    0    0    0  501  0.00000000000E+00  0.00000000000E+00 -0.64866112548E+03  0.64866112550E+03  0.50400001928E-02 0. -1.
    10030    2    1    2    0    0  0.00000000000E+00  0.00000000000E+00  0.12715737061E+04  0.25688959571E+04  0.22321126200E+04 0.  0.
        2    1    3    3  502    0 -0.95004840404E+03  0.16200699106E+03  0.12835022711E+04  0.16050595986E+04  0.25500000920E-02 0.  1.
       -2    1    3    3    0  502  0.95004840404E+03 -0.16200699106E+03 -0.11928565034E+02  0.96383635844E+03  0.25500000920E-02 0. -1.
</event>
<event>
 5   0  0.1404159E-04  0.2202299E+04  0.7818609E-02  0.8517472E-01
       -2   -1    0    0    0  501  0.00000000000E+00  0.00000000000E+00  0.13980362587E+04  0.13980362587E+04  0.25500000920E-02 0. -1.
        2   -1    0    0  501    0  0.00000000000E+00  0.00000000000E+00 -0.86730974459E+03  0.86730974460E+03  0.25500000920E-02 0.  1.
    10030    2    1    2    0    0  0.00000000000E+00  0.00000000000E+00  0.53072651412E+03  0.22653460033E+04  0.22022992262E+04 0.  0.
        5    1    3    3  502    0  0.18687571538E+03  0.10151644623E+04 -0.12905472789E+03  0.10402685381E+04  0.46999998093E+01 0.  1.
       -5    1    3    3    0  502 -0.18687571538E+03 -0.10151644623E+04  0.65978124200E+03  0.12250774652E+04  0.46999998093E+01 0. -1.
</event>
<event>
 5   0  0.1226021E-04  0.2271993E+04  0.7818609E-02  0.8489046E-01
       -2   -1    0    0    0  501  0.00000000000E+00  0.00000000000E+00  0.11662307125E+04  0.11662307125E+04  0.25500000920E-02 0. -1.
        2   -1    0    0  501    0  0.00000000000E+00  0.00000000000E+00 -0.11065460105E+04  0.11065460105E+04  0.25500000920E-02 0.  1.
    10030    2    1    2    0    0  0.00000000000E+00  0.00000000000E+00  0.59684701952E+02  0.22727767230E+04  0.22719929069E+04 0.  0.
        2    1    3    3  502    0  0.33075116190E+03  0.18453243206E+03 -0.10415263833E+04  0.11082534713E+04  0.25500000920E-02 0.  1.
       -2    1    3    3    0  502 -0.33075116190E+03 -0.18453243206E+03  0.11012110852E+04  0.11645232517E+04  0.25500000920E-02 0. -1.
</event>
<event>
 5   0  0.5895063E-05  0.2210260E+04  0.7818609E-02  0.8514170E-01
       -1   -1    0    0    0  501  0.00000000000E+00  0.00000000000E+00  0.17104725433E+04  0.17104725433E+04  0.50400001928E-02 0.  1.
        1   -1    0    0  501    0  0.00000000000E+00  0.00000000000E+00 -0.71402021491E+03  0.71402021493E+03  0.50400001928E-02 0. -1.
    10030    2    1    2    0    0  0.00000000000E+00  0.00000000000E+00  0.99645232839E+03  0.24244927582E+04  0.22102596888E+04 0.  0.
        5    1    3    3  502    0 -0.96516803575E+03  0.10065646746E+03 -0.81807263066E+02  0.97385603657E+03  0.46999998093E+01 0. -1.
       -5    1    3    3    0  502  0.96516803575E+03 -0.10065646746E+03  0.10782595915E+04  0.14506367217E+04  0.46999998093E+01 0.  1.
</event>
<event>
 5   0  0.5981239E-05  0.2004126E+04  0.7818609E-02  0.8604694E-01
        1   -1    0    0  501    0  0.00000000000E+00  0.00000000000E+00  0.71245684705E+03  0.71245684707E+03  0.50400001928E-02 0. -1.
       -1   -1    0    0    0  501  0.00000000000E+00  0.00000000000E+00 -0.14093905727E+04  0.14093905727E+04  0.50400001928E-02 0.  1.
    10030    2    1    2    0    0  0.00000000000E+00  0.00000000000E+00 -0.69693372568E+03  0.21218474198E+04  0.20041257084E+04 0.  0.
        4    1    3    3  502    0 -0.64728275673E+03 -0.47974585743E+03  0.28234770521E+03  0.85372881784E+03  0.12699999809E+01 0. -1.
       -4    1    3    3    0  502  0.64728275673E+03  0.47974585743E+03 -0.97928143089E+03  0.12681186020E+04  0.12699999809E+01 0.  1.
</event>
<event>
 5   0  0.6263558E-05  0.2218689E+04  0.7818609E-02  0.8510689E-01
       -1   -1    0    0    0  501  0.00000000000E+00  0.00000000000E+00  0.14228014601E+04  0.14228014601E+04  0.50400001928E-02 0.  1.
        1   -1    0    0  501    0  0.00000000000E+00  0.00000000000E+00 -0.86494541241E+03  0.86494541242E+03  0.50400001928E-02 0. -1.
    10030    2    1    2    0    0  0.00000000000E+00  0.00000000000E+00  0.55785604766E+03  0.22877468725E+04  0.22186893389E+04 0.  0.
        3    1    3    3  502    0  0.89042434659E+03  0.37001721565E+03  0.84452386315E+03  0.12817912554E+04  0.10100000352E+00 0.  1.
       -3    1    3    3    0  502 -0.89042434659E+03 -0.37001721565E+03 -0.28666781548E+03  0.10059556171E+04  0.10100000352E+00 0. -1.
</event>
<event>
 5   0  0.5895063E-05  0.2152241E+04  0.7818609E-02  0.8538574E-01
       -1   -1    0    0    0  501  0.00000000000E+00  0.00000000000E+00  0.96692970145E+03  0.96692970147E+03  0.50400001928E-02 0.  1.
        1   -1    0    0  501    0  0.00000000000E+00  0.00000000000E+00 -0.11976413241E+04  0.11976413242E+04  0.50400001928E-02 0. -1.
    10030    2    1    2    0    0  0.00000000000E+00  0.00000000000E+00 -0.23071162269E+03  0.21645710256E+04  0.21522406632E+04 0.  0.
        5    1    3    3  502    0  0.37402434836E+03 -0.45481235618E+02  0.89841217959E+03  0.97423266749E+03  0.46999998093E+01 0.  1.
       -5    1    3    3    0  502 -0.37402434836E+03  0.45481235618E+02 -0.11291238023E+04  0.11903383581E+04  0.46999998093E+01 0. -1.
</event>
<event>
 5   0  0.1226021E-04  0.2264624E+04  0.7818609E-02  0.8492001E-01
        2   -1    0    0  501    0  0.00000000000E+00  0.00000000000E+00  0.13541168165E+04  0.13541168165E+04  0.25500000920E-02 0.  1.
       -2   -1    0    0    0  501  0.00000000000E+00  0.00000000000E+00 -0.94683918542E+03  0.94683918543E+03  0.25500000920E-02 0. -1.
    10030    2    1    2    0    0  0.00000000000E+00  0.00000000000E+00  0.40727763110E+03  0.23009560020E+04  0.22646243517E+04 0.  0.
        2    1    3    3  502    0  0.90003001796E+03  0.31383403213E+03  0.82466065643E+03  0.12604011390E+04  0.25500000920E-02 0.  1.
       -2    1    3    3    0  502 -0.90003001796E+03 -0.31383403213E+03 -0.41738302533E+03  0.10405548629E+04  0.25500000920E-02 0. -1.
</event>
<event>
 5   0  0.1226021E-04  0.2334131E+04  0.7818609E-02  0.8464584E-01
       -2   -1    0    0    0  501  0.00000000000E+00  0.00000000000E+00  0.80716727698E+03  0.80716727698E+03  0.25500000920E-02 0.  1.
        2   -1    0    0  501    0  0.00000000000E+00  0.00000000000E+00 -0.16874339959E+04  0.16874339959E+04  0.25500000920E-02 0. -1.
    10030    2    1    2    0    0  0.00000000000E+00  0.00000000000E+00 -0.88026671889E+03  0.24946012729E+04  0.23341306763E+04 0.  0.
        2    1    3    3  502    0  0.10933047391E+04 -0.19628833611E+03 -0.82279518727E+03  0.13823300198E+04  0.25500000920E-02 0. -1.
       -2    1    3    3    0  502 -0.10933047391E+04  0.19628833611E+03 -0.57471531616E+02  0.11122712531E+04  0.25500000920E-02 0.  1.
</event>
<event>
 5   0  0.5981239E-05  0.2257763E+04  0.7818609E-02  0.8494763E-01
       -1   -1    0    0    0  501  0.00000000000E+00  0.00000000000E+00  0.73914488973E+03  0.73914488974E+03  0.50400001928E-02 0.  1.
        1   -1    0    0  501    0  0.00000000000E+00  0.00000000000E+00 -0.17241189896E+04  0.17241189896E+04  0.50400001928E-02 0. -1.
    10030    2    1    2    0    0  0.00000000000E+00  0.00000000000E+00 -0.98497409988E+03  0.24632638794E+04  0.22577632653E+04 0.  0.
        4    1    3    3  502    0 -0.10745147279E+03 -0.21037262043E+02  0.73333726700E+03  0.74146715737E+03  0.12699999809E+01 0.  1.
       -4    1    3    3    0  502  0.10745147279E+03  0.21037262043E+02 -0.17183113669E+04  0.17217967220E+04  0.12699999809E+01 0. -1.
</event>
<event>
 5   0  0.5861816E-05  0.2162864E+04  0.7818609E-02  0.8534046E-01
        1   -1    0    0  501    0  0.00000000000E+00  0.00000000000E+00  0.13463665163E+04  0.13463665163E+04  0.50400001928E-02 0.  1.
       -1   -1    0    0    0  501  0.00000000000E+00  0.00000000000E+00 -0.86863095248E+03  0.86863095249E+03  0.50400001928E-02 0. -1.
    10030    2    1    2    0    0  0.00000000000E+00  0.00000000000E+00  0.47773556379E+03  0.22149974688E+04  0.21628644243E+04 0.  0.
        1    1    3    3  502    0  0.87983179544E+03 -0.43010878371E+03  0.70861565062E+03  0.12088149959E+04  0.50400001928E-02 0.  1.
       -1    1    3    3    0  502 -0.87983179544E+03  0.43010878371E+03 -0.23088008683E+03  0.10061824728E+04  0.50400001928E-02 0. -1.
</event>
<event>
 5   0  0.5861816E-05  0.2184553E+04  0.7818609E-02  0.8524885E-01
       -1   -1    0    0    0  501  0.00000000000E+00  0.00000000000E+00  0.76092972363E+03  0.76092972365E+03  0.50400001928E-02 0.  1.
        1   -1    0    0  501    0  0.00000000000E+00  0.00000000000E+00 -0.15679085337E+04  0.15679085337E+04  0.50400001928E-02 0. -1.
    10030    2    1    2    0    0  0.00000000000E+00  0.00000000000E+00 -0.80697881004E+03  0.23288382573E+04  0.21845532333E+04 0.  0.
        1    1    3    3  502    0 -0.81212452524E+03 -0.48677266163E+03 -0.98404455257E+03  0.13655905499E+04  0.50400001928E-02 0. -1.
       -1    1    3    3    0  502  0.81212452524E+03  0.48677266163E+03  0.17706574253E+03  0.96324770740E+03  0.50400001928E-02 0.  1.
</event>
<event>
 5   0  0.5895063E-05  0.2534811E+04  0.7818609E-02  0.8390688E-01
        1   -1    0    0  501    0  0.00000000000E+00  0.00000000000E+00  0.19628022109E+04  0.19628022109E+04  0.50400001928E-02 0. -1.
       -1   -1    0    0    0  501  0.00000000000E+00  0.00000000000E+00 -0.81837929331E+03  0.81837929333E+03  0.50400001928E-02 0.  1.
    10030    2    1    2    0    0  0.00000000000E+00  0.00000000000E+00  0.11444229176E+04  0.27811815042E+04  0.25348109881E+04 0.  0.
        5    1    3    3  502    0 -0.95582700358E+03  0.67568594465E+03  0.39040428163E+02  0.11711972514E+04  0.46999998093E+01 0.  1.
       -5    1    3    3    0  502  0.95582700358E+03 -0.67568594465E+03  0.11053824894E+04  0.16099842529E+04  0.46999998093E+01 0. -1.
</event>
<event>
 5   0  0.1311472E-04  0.2198955E+04  0.7818609E-02  0.8518863E-01
       -2   -1    0    0    0  501  0.00000000000E+00  0.00000000000E+00  0.46933927146E+03  0.46933927146E+03  0.25500000920E-02 0.  1.
        2   -1    0    0  501    0  0.00000000000E+00  0.00000000000E+00 -0.25756443025E+04  0.25756443025E+04  0.25500000920E-02 0. -1.
    10030    2    1    2    0    0  0.00000000000E+00  0.00000000000E+00 -0.21063050310E+04  0.30449835739E+04  0.21989552251E+04 0.  0.
        4    1    3    3  502    0 -0.28819364345E+03  0.40404938232E+03  0.30540332415E+03  0.58273860588E+03  0.12699999809E+01 0.  1.
       -4    1    3    3    0  502  0.28819364345E+03 -0.40404938232E+03 -0.24117083552E+04  0.24622449681E+04  0.12699999809E+01 0. -1.
</event>
<event>
 5   0  0.1252124E-04  0.2177878E+04  0.7818609E-02  0.8527692E-01
        2   -1    0    0  501    0  0.00000000000E+00  0.00000000000E+00  0.24695780486E+04  0.24695780486E+04  0.25500000920E-02 0. -1.
       -2   -1    0    0    0  501  0.00000000000E+00  0.00000000000E+00 -0.48015834859E+03  0.48015834860E+03  0.25500000920E-02 0.  1.
    10030    2    1    2    0    0  0.00000000000E+00  0.00000000000E+00  0.19894197000E+04  0.29497363972E+04  0.21778783415E+04 0.  0.
        3    1    3    3  502    0 -0.80400455528E+03 -0.70058912961E+03  0.69630923200E+03  0.12736149380E+04  0.10100000352E+00 0.  1.
       -3    1    3    3    0  502  0.80400455528E+03  0.70058912961E+03  0.12931104680E+04  0.16761214593E+04  0.10100000352E+00 0. -1.
</event>
<event>
 5   0  0.1241430E-04  0.2209018E+04  0.7818609E-02  0.8514684E-01
        2   -1    0    0  501    0  0.00000000000E+00  0.00000000000E+00  0.84869863285E+03  0.84869863285E+03  0.25500000920E-02 0. -1.
       -2   -1    0    0    0  501  0.00000000000E+00  0.00000000000E+00 -0.14374249573E+04  0.14374249573E+04  0.25500000920E-02 0.  1.
    10030    2    1    2    0    0  0.00000000000E+00  0.00000000000E+00 -0.58872632447E+03  0.22861235902E+04  0.22090184210E+04 0.  0.
        1    1    3    3  502    0 -0.84314264405E+03 -0.63657453138E+03 -0.62782729525E+03  0.12289360296E+04  0.50400001928E-02 0. -1.
       -1    1    3    3    0  502  0.84314264405E+03  0.63657453138E+03  0.39100970778E+02  0.10571875605E+04  0.50400001928E-02 0.  1.
</event>
<event>
 5   0  0.1252124E-04  0.2004936E+04  0.7818609E-02  0.8604316E-01
        2   -1    0    0  501    0  0.00000000000E+00  0.00000000000E+00  0.18130620317E+04  0.18130620317E+04  0.25500000920E-02 0.  1.
       -2   -1    0    0    0  501  0.00000000000E+00  0.00000000000E+00 -0.55427911264E+03  0.55427911265E+03  0.25500000920E-02 0. -1.
    10030    2    1    2    0    0  0.00000000000E+00  0.00000000000E+00  0.12587829190E+04  0.23673411443E+04  0.20049363223E+04 0.  0.
        3    1    3    3  502    0  0.32449366135E+03  0.24172423332E+00 -0.49055210771E+03  0.58816458178E+03  0.10100000352E+00 0. -1.
       -3    1    3    3    0  502 -0.32449366135E+03 -0.24172423332E+00  0.17493350267E+04  0.17791765625E+04  0.10100000352E+00 0.  1.
</event>
<event>
 5   0  0.1252124E-04  0.2394723E+04  0.7818609E-02  0.8441482E-01
        2   -1    0    0  501    0  0.00000000000E+00  0.00000000000E+00  0.10693669537E+04  0.10693669537E+04  0.25500000920E-02 0. -1.
       -2   -1    0    0    0  501  0.00000000000E+00  0.00000000000E+00 -0.13406763475E+04  0.13406763475E+04  0.25500000920E-02 0.  1.
    10030    2    1    2    0    0  0.00000000000E+00  0.00000000000E+00 -0.27130939381E+03  0.24100433012E+04  0.23947233507E+04 0.  0.
        3    1    3    3  502    0  0.22315329215E+03  0.61143127516E+03  0.87577685868E+03  0.10911602597E+04  0.10100000352E+00 0. -1.
       -3    1    3    3    0  502 -0.22315329215E+03 -0.61143127516E+03 -0.11470862525E+04  0.13188830414E+04  0.10100000352E+00 0.  1.
</event>
<event>
 5   0  0.1404159E-04  0.2201300E+04  0.7818609E-02  0.8517887E-01
       -2   -1    0    0    0  501  0.00000000000E+00  0.00000000000E+00  0.19259899023E+04  0.19259899023E+04  0.25500000920E-02 0. -1.
        2   -1    0    0  501    0  0.00000000000E+00  0.00000000000E+00 -0.62899086085E+03  0.62899086086E+03  0.25500000920E-02 0.  1.
    10030    2    1    2    0    0  0.00000000000E+00  0.00000000000E+00  0.12969990415E+04  0.25549807632E+04  0.22012996585E+04 0.  0.
        5    1    3    3  502    0  0.57408690631E+03 -0.35199689404E+03  0.16589688184E+04  0.17904405100E+04  0.46999998093E+01 0. -1.
       -5    1    3    3    0  502 -0.57408690631E+03  0.35199689404E+03 -0.36196977689E+03  0.76454025322E+03  0.46999998093E+01 0.  1.
</event>
<event>
 5   0  0.5861816E-05  0.2203863E+04  0.7818609E-02  0.8516822E-01
       -1   -1    0    0    0  501  0.00000000000E+00  0.00000000000E+00  0.94623871575E+03  0.94623871577E+03  0.50400001928E-02 0.  1.
        1   -1    0    0  501    0  0.00000000000E+00  0.00000000000E+00 -0.12832413566E+04  0.12832413566E+04  0.50400001928E-02 0. -1.
    10030    2    1    2    0    0  0.00000000000E+00  0.00000000000E+00 -0.33700264082E+03  0.22294800723E+04  0.22038626575E+04 0.  0.
        1    1    3    3  502    0 -0.88208707452E+02 -0.81293321143E+03 -0.91574253005E+03  0.12276911516E+04  0.50400001928E-02 0. -1.
       -1    1    3    3    0  502  0.88208707452E+02  0.81293321143E+03  0.57873988924E+03  0.10017889208E+04  0.50400001928E-02 0.  1.
</event>
<event>
 5   0  0.1311472E-04  0.2184412E+04  0.7818609E-02  0.8524944E-01
        2   -1    0    0  501    0  0.00000000000E+00  0.00000000000E+00  0.25941583952E+04  0.25941583952E+04  0.25500000920E-02 0. -1.
       -2   -1    0    0    0  501  0.00000000000E+00  0.00000000000E+00 -0.45984629841E+03  0.45984629842E+03  0.25500000920E-02 0.  1.
    10030    2    1    2    0    0  0.00000000000E+00  0.00000000000E+00  0.21343120968E+04  0.30540046937E+04  0.21844121732E+04 0.  0.
        4    1    3    3  502    0 -0.53608915958E+03  0.62634531920E+03  0.65580496331E+02  0.82704441253E+03  0.12699999809E+01 0.  1.
       -4    1    3    3    0  502  0.53608915958E+03 -0.62634531920E+03  0.20687316005E+04  0.22269602811E+04  0.12699999809E+01 0. -1.
</event>
<event>
 5   0  0.6263558E-05  0.1921592E+04  0.7818609E-02  0.8644183E-01
       -1   -1    0    0    0  501  0.00000000000E+00  0.00000000000E+00  0.49257348277E+03  0.49257348279E+03  0.50400001928E-02 0. -1.
        1   -1    0    0  501    0  0.00000000000E+00  0.00000000000E+00 -0.18740935057E+04  0.18740935057E+04  0.50400001928E-02 0.  1.
    10030    2    1    2    0    0  0.00000000000E+00  0.00000000000E+00 -0.13815200230E+04  0.23666669885E+04  0.19215918039E+04 0.  0.
        3    1    3    3  502    0 -0.18356015796E+03 -0.69524328517E+03 -0.14755927459E+04  0.16414723632E+04  0.10100000352E+00 0.  1.
       -3    1    3    3    0  502  0.18356015796E+03  0.69524328517E+03  0.94072722981E+02  0.72519462530E+03  0.10100000352E+00 0. -1.
</event>
<event>
 5   0  0.5849604E-05  0.2178893E+04  0.7818609E-02  0.8527265E-01
        1   -1    0    0  501    0  0.00000000000E+00  0.00000000000E+00  0.14177264135E+04  0.14177264135E+04  0.50400001928E-02 0. -1.
       -1   -1    0    0    0  501  0.00000000000E+00  0.00000000000E+00 -0.83718114224E+03  0.83718114226E+03  0.50400001928E-02 0.  1.
    10030    2    1    2    0    0  0.00000000000E+00  0.00000000000E+00  0.58054527122E+03  0.22549075557E+04  0.21788931302E+04 0.  0.
        2    1    3    3  502    0  0.33716618647E+03  0.98200938737E+03  0.63173874785E+03  0.12153671543E+04  0.25500000920E-02 0. -1.
       -2    1    3    3    0  502 -0.33716618647E+03 -0.98200938737E+03 -0.51193476626E+02  0.10395404014E+04  0.25500000920E-02 0.  1.
</event>
<event>
 5   0  0.5981239E-05  0.2167413E+04  0.7818609E-02  0.8532115E-01
       -1   -1    0    0    0  501  0.00000000000E+00  0.00000000000E+00  0.15581862062E+04  0.15581862062E+04  0.50400001928E-02 0.  1.
        1   -1    0    0  501    0  0.00000000000E+00  0.00000000000E+00 -0.75370939893E+03  0.75370939895E+03  0.50400001928E-02 0. -1.
    10030    2    1    2    0    0  0.00000000000E+00  0.00000000000E+00  0.80447680724E+03  0.23118956051E+04  0.21674128254E+04 0.  0.
        4    1    3    3  502    0  0.82378948600E+03  0.68187779585E+03  0.21494429317E+03  0.10907745449E+04  0.12699999809E+01 0.  1.
       -4    1    3    3    0  502 -0.82378948600E+03 -0.68187779585E+03  0.58953251407E+03  0.12211210602E+04  0.12699999809E+01 0. -1.
</event>
<event>
 5   0  0.1311472E-04  0.2213386E+04  0.7818609E-02  0.8512877E-01
        2   -1    0    0  501    0  0.00000000000E+00  0.00000000000E+00  0.11989153134E+04  0.11989153134E+04  0.25500000920E-02 0.  1.
       -2   -1    0    0    0  501  0.00000000000E+00  0.00000000000E+00 -0.10215641098E+04  0.10215641098E+04  0.25500000920E-02 0. -1.
    10030    2    1    2    0    0  0.00000000000E+00  0.00000000000E+00  0.17735120366E+03  0.22204794232E+04  0.22133855108E+04 0.  0.
        4    1    3    3  502    0  0.34609780932E+03 -0.79629997252E+03 -0.59973789920E+03  0.10552556565E+04  0.12699999809E+01 0.  1.
       -4    1    3    3    0  502 -0.34609780932E+03  0.79629997252E+03  0.77708910286E+03  0.11652237667E+04  0.12699999809E+01 0. -1.
</event>
<event>
 5   0  0.5895063E-05  0.2192287E+04  0.7818609E-02  0.8521645E-01
       -1   -1    0    0    0  501  0.00000000000E+00  0.00000000000E+00  0.13155974052E+04  0.13155974052E+04  0.50400001928E-02 0. -1.
        1   -1    0    0  501    0  0.00000000000E+00  0.00000000000E+00 -0.91329662958E+03  0.91329662959E+03  0.50400001928E-02 0.  1.
    10030    2    1    2    0    0  0.00000000000E+00  0.00000000000E+00  0.40230077561E+03  0.22288940348E+04  0.21922870944E+04 0.  0.
        5    1    3    3  502    0  0.12150318430E+03  0.87307723595E+03  0.86355215410E+03  0.12340061980E+04  0.46999998093E+01 0. -1.
       -5    1    3    3    0  502 -0.12150318430E+03 -0.87307723595E+03 -0.46125137849E+03  0.99488783684E+03  0.46999998093E+01 0.  1.
</event>
<event>
 5   0  0.5895063E-05  0.2149171E+04  0.7818609E-02  0.8539887E-01
       -1   -1    0    0    0  501  0.00000000000E+00  0.00000000000E+00  0.13644372944E+04  0.13644372944E+04  0.50400001928E-02 0.  1.
        1   -1    0    0  501    0  0.00000000000E+00  0.00000000000E+00 -0.84630804979E+03  0.84630804980E+03  0.50400001928E-02 0. -1.
    10030    2    1    2    0    0  0.00000000000E+00  0.00000000000E+00  0.51812924456E+03  0.22107453442E+04  0.21491712502E+04 0.  0.
        5    1    3    3  502    0 -0.56444354115E+03  0.61408446104E+03 -0.43785321471E+03  0.94203702903E+03  0.46999998093E+01 0. -1.
       -5    1    3    3    0  502  0.56444354115E+03 -0.61408446104E+03  0.95598245927E+03  0.12687083151E+04  0.46999998093E+01 0.  1.
</event>
<event>
 5   0  0.5895063E-05  0.2212047E+04  0.7818609E-02  0.8513431E-01
        1   -1    0    0  501    0  0.00000000000E+00  0.00000000000E+00  0.20815872925E+04  0.20815872925E+04  0.50400001928E-02 0. -1.
       -1   -1    0    0    0  501  0.00000000000E+00  0.00000000000E+00 -0.58767073056E+03  0.58767073058E+03  0.50400001928E-02 0.  1.
    10030    2    1    2    0    0  0.00000000000E+00  0.00000000000E+00  0.14939165619E+04  0.26692580231E+04  0.22120469479E+04 0.  0.
        5    1    3    3  502    0 -0.26580285107E+03 -0.24790458775E+03  0.20074501141E+04  0.20400945789E+04  0.46999998093E+01 0. -1.
       -5    1    3    3    0  502  0.26580285107E+03  0.24790458775E+03 -0.51353355218E+03  0.62916344417E+03  0.46999998093E+01 0.  1.
</event>
<event>
 5   0  0.1404159E-04  0.2217033E+04  0.7818609E-02  0.8511372E-01
       -2   -1    0    0    0  501  0.00000000000E+00  0.00000000000E+00  0.11064588617E+04  0.11064588617E+04  0.25500000920E-02 0.  1.
        2   -1    0    0  501    0  0.00000000000E+00  0.00000000000E+00 -0.11105776437E+04  0.11105776437E+04  0.25500000920E-02 0. -1.
    10030    2    1    2    0    0  0.00000000000E+00  0.00000000000E+00 -0.41187820262E+01  0.22170365054E+04  0.22170326794E+04 0.  0.
        5    1    3    3  502    0  0.22206787149E+03  0.22449303015E+03  0.10605219104E+04  0.11065442027E+04  0.46999998093E+01 0.  1.
       -5    1    3    3    0  502 -0.22206787149E+03 -0.22449303015E+03 -0.10646406925E+04  0.11104923026E+04  0.46999998093E+01 0. -1.
</event>
<event>
 5   0  0.1241430E-04  0.2173174E+04  0.7818609E-02  0.8529677E-01
       -2   -1    0    0    0  501  0.00000000000E+00  0.00000000000E+00  0.83544071779E+03  0.83544071779E+03  0.25500000920E-02 0.  1.
        2   -1    0    0  501    0  0.00000000000E+00  0.00000000000E+00 -0.14132315573E+04  0.14132315573E+04  0.25500000920E-02 0. -1.
    10030    2    1    2    0    0  0.00000000000E+00  0.00000000000E+00 -0.57779083953E+03  0.22486722751E+04  0.21731738878E+04 0.  0.
        1    1    3    3  502    0 -0.50212840329E+03 -0.95487828263E+03 -0.15499449338E+03  0.10899306221E+04  0.50400001928E-02 0. -1.
       -1    1    3    3    0  502  0.50212840329E+03  0.95487828263E+03 -0.42279634615E+03  0.11587416530E+04  0.50400001928E-02 0.  1.
</event>
<event>
 5   0  0.5849604E-05  0.2203086E+04  0.7818609E-02  0.8517145E-01
        1   -1    0    0  501    0  0.00000000000E+00  0.00000000000E+00  0.13360974590E+04  0.13360974590E+04  0.50400001928E-02 0. -1.
       -1   -1    0    0    0  501  0.00000000000E+00  0.00000000000E+00 -0.90816516180E+03  0.90816516182E+03  0.50400001928E-02 0.  1.
    10030    2    1    2    0    0  0.00000000000E+00  0.00000000000E+00  0.42793229715E+03  0.22442626208E+04  0.22030861672E+04 0.  0.
        2    1    3    3  502    0 -0.45572873747E+03  0.74961053320E+03  0.89259479326E+03  0.12515311017E+04  0.25500000920E-02 0. -1.
       -2    1    3    3    0  502  0.45572873747E+03 -0.74961053320E+03 -0.46466249611E+03  0.99273151906E+03  0.25500000920E-02 0.  1.
</event>
<event>
 5   0  0.1404159E-04  0.2261856E+04  0.7818609E-02  0.8493114E-01
       -2   -1    0    0    0  501  0.00000000000E+00  0.00000000000E+00  0.13774124236E+04  0.13774124236E+04  0.25500000920E-02 0.  1.
        2   -1    0    0  501    0  0.00000000000E+00  0.00000000000E+00 -0.92855149797E+03  0.92855149797E+03  0.25500000920E-02 0. -1.
    10030    2    1    2    0    0  0.00000000000E+00  0.00000000000E+00  0.44886092567E+03  0.23059639216E+04  0.22618562017E+04 0.  0.
        5    1    3    3  502    0 -0.37889884605E+03  0.17615469252E+03  0.12958191895E+04  0.13615301220E+04  0.46999998093E+01 0.  1.
       -5    1    3    3    0  502  0.37889884605E+03 -0.17615469252E+03 -0.84695826381E+03  0.94443379963E+03  0.46999998093E+01 0. -1.
</event>
<event>
 5   0  0.1241430E-04  0.2211564E+04  0.7818609E-02  0.8513630E-01
        2   -1    0    0  501    0  0.00000000000E+00  0.00000000000E+00  0.12697381683E+04  0.12697381683E+04  0.25500000920E-02 0. -1.
       -2   -1    0    0    0  501  0.00000000000E+00  0.00000000000E+00 -0.96299641106E+03  0.96299641107E+03  0.25500000920E-02 0.  1.
    10030    2    1    2    0    0  0.00000000000E+00  0.00000000000E+00  0.30674175726E+03  0.22327345794E+04  0.22115635185E+04 0.  0.
        1    1    3    3  502    0  0.90206742867E+03  0.57925633154E+03 -0.12031417637E+03  0.10787673728E+04  0.50400001928E-02 0.  1.
       -1    1    3    3    0  502 -0.90206742867E+03 -0.57925633154E+03  0.42705593363E+03  0.11539672066E+04  0.50400001928E-02 0. -1.
</event>
<event>
 5   0  0.4586375E-05  0.2215839E+04  0.7818609E-02  0.8511864E-01
       -3   -1    0    0    0  501  0.00000000000E+00  0.00000000000E+00  0.24557257698E+04  0.24557257718E+04  0.10100000352E+00 0. -1.
        3   -1    0    0  501    0  0.00000000000E+00  0.00000000000E+00 -0.49984649125E+03  0.49984650145E+03  0.10100000352E+00 0.  1.
    10030    2    1    2    0    0  0.00000000000E+00  0.00000000000E+00  0.19558792785E+04  0.29555722733E+04  0.22158392790E+04 0.  0.
        5    1    3    3  502    0  0.92175893064E+03  0.53704171321E+03  0.13767786335E+04  0.17417217986E+04  0.46999998093E+01 0.  1.
       -5    1    3    3    0  502 -0.92175893064E+03 -0.53704171321E+03  0.57910064499E+03  0.12138504747E+04  0.46999998093E+01 0. -1.
</event>
<event>
 5   0  0.1241430E-04  0.2121097E+04  0.7818609E-02  0.8552006E-01
        2   -1    0    0  501    0  0.00000000000E+00  0.00000000000E+00  0.17972944025E+04  0.17972944025E+04  0.25500000920E-02 0.  1.
       -2   -1    0    0    0  501  0.00000000000E+00  0.00000000000E+00 -0.62580921361E+03  0.62580921361E+03  0.25500000920E-02 0. -1.
    10030    2    1    2    0    0  0.00000000000E+00  0.00000000000E+00  0.11714851889E+04  0.24231036161E+04  0.21210972600E+04 0.  0.
        1    1    3    3  502    0  0.15568196537E+03 -0.61617712365E+03  0.15556595228E+04  0.16804724553E+04  0.50400001928E-02 0.  1.
       -1    1    3    3    0  502 -0.15568196537E+03  0.61617712365E+03 -0.38417433396E+03  0.74263116077E+03  0.50400001928E-02 0. -1.
</event>
<event>
 5   0  0.1252124E-04  0.2209070E+04  0.7818609E-02  0.8514663E-01
       -2   -1    0    0    0  501  0.00000000000E+00  0.00000000000E+00  0.11710866200E+04  0.11710866200E+04  0.25500000920E-02 0.  1.
        2   -1    0    0  501    0  0.00000000000E+00  0.00000000000E+00 -0.10417653059E+04  0.10417653059E+04  0.25500000920E-02 0. -1.
    10030    2    1    2    0    0  0.00000000000E+00  0.00000000000E+00  0.12932131413E+03  0.22128519258E+04  0.22090698593E+04 0.  0.
        3    1    3    3  502    0  0.64359645442E+03  0.46489760674E+03 -0.70454151925E+03  0.10614730065E+04  0.10100000352E+00 0. -1.
       -3    1    3    3    0  502 -0.64359645442E+03 -0.46489760674E+03  0.83386283338E+03  0.11513789194E+04  0.10100000352E+00 0.  1.
</event>
<event>
 5   0  0.5981239E-05  0.2075470E+04  0.7818609E-02  0.8572127E-01
        1   -1    0    0  501    0  0.00000000000E+00  0.00000000000E+00  0.18853084900E+04  0.18853084901E+04  0.50400001928E-02 0.  1.
       -1   -1    0    0    0  501  0.00000000000E+00  0.00000000000E+00 -0.57120307622E+03  0.57120307624E+03  0.50400001928E-02 0. -1.
    10030    2    1    2    0    0  0.00000000000E+00  0.00000000000E+00  0.13141054138E+04  0.24565115663E+04  0.20754700761E+04 0.  0.
        4    1    3    3  502    0 -0.33807905680E+03 -0.50985000811E+03  0.16491887303E+04  0.17589967483E+04  0.12699999809E+01 0.  1.
       -4    1    3    3    0  502  0.33807905680E+03  0.50985000811E+03 -0.33508331649E+03  0.69751481799E+03  0.12699999809E+01 0. -1.
</event>
<event>
 5   0  0.5981239E-05  0.1946730E+04  0.7818609E-02  0.8631939E-01
       -1   -1    0    0    0  501  0.00000000000E+00  0.00000000000E+00  0.12776402753E+04  0.12776402753E+04  0.50400001928E-02 0. -1.
        1   -1    0    0  501    0  0.00000000000E+00  0.00000000000E+00 -0.74155422328E+03  0.74155422329E+03  0.50400001928E-02 0.  1.
    10030    2    1    2    0    0  0.00000000000E+00  0.00000000000E+00  0.53608605201E+03  0.20191944986E+04  0.19467301220E+04 0.  0.
        4    1    3    3  502    0  0.30770681048E+03 -0.88321063385E+02  0.12214732101E+04  0.12627282001E+04  0.12699999809E+01 0. -1.
       -4    1    3    3    0  502 -0.30770681048E+03  0.88321063385E+02 -0.68538715806E+03  0.75646629851E+03  0.12699999809E+01 0.  1.
</event>
<event>
 5   0  0.5861816E-05  0.2208433E+04  0.7818609E-02  0.8514926E-01
        1   -1    0    0  501    0  0.00000000000E+00  0.00000000000E+00  0.15696646047E+04  0.15696646047E+04  0.50400001928E-02 0. -1.
       -1   -1    0    0    0  501  0.00000000000E+00  0.00000000000E+00 -0.77678614882E+03  0.77678614883E+03  0.50400001928E-02 0.  1.
    10030    2    1    2    0    0  0.00000000000E+00  0.00000000000E+00  0.79287845585E+03  0.23464507535E+04  0.22084326779E+04 0.  0.
        1    1    3    3  502    0 -0.10150838374E+01  0.97682571311E+03 -0.15062157530E+03  0.98837055963E+03  0.50400001928E-02 0.  1.
       -1    1    3    3    0  502  0.10150838374E+01 -0.97682571311E+03  0.94350003115E+03  0.13580801939E+04  0.50400001928E-02 0. -1.
</event>
<event>
 5   0  0.1404159E-04  0.2251910E+04  0.7818609E-02  0.8497127E-01
       -2   -1    0    0    0  501  0.00000000000E+00  0.00000000000E+00  0.56537138654E+03  0.56537138655E+03  0.25500000920E-02 0. -1.
        2   -1    0    0  501    0  0.00000000000E+00  0.00000000000E+00 -0.22423759627E+04  0.22423759627E+04  0.25500000920E-02 0.  1.
    10030    2    1    2    0    0  0.00000000000E+00  0.00000000000E+00 -0.16770045762E+04  0.28077473493E+04  0.22519104842E+04 0.  0.
        5    1    3    3  502    0 -0.74063687558E+03 -0.60325922284E+02  0.21620815029E+03  0.77391876357E+03  0.46999998093E+01 0. -1.
       -5    1    3    3    0  502  0.74063687558E+03  0.60325922284E+02 -0.18932127264E+04  0.20338285857E+04  0.46999998093E+01 0.  1.
</event>
<event>
 5   0  0.5861816E-05  0.2162129E+04  0.7818609E-02  0.8534358E-01
        1   -1    0    0  501    0  0.00000000000E+00  0.00000000000E+00  0.87297612455E+03  0.87297612456E+03  0.50400001928E-02 0. -1.
       -1   -1    0    0    0  501  0.00000000000E+00  0.00000000000E+00 -0.13387543611E+04  0.13387543611E+04  0.50400001928E-02 0.  1.
    10030    2    1    2    0    0  0.00000000000E+00  0.00000000000E+00 -0.46577823651E+03  0.22117304856E+04  0.21621291302E+04 0.  0.
        1    1    3    3  502    0  0.58391186094E+03  0.31800428109E+03  0.63908680169E+03  0.92223192541E+03  0.50400001928E-02 0. -1.
       -1    1    3    3    0  502 -0.58391186094E+03 -0.31800428109E+03 -0.11048650382E+04  0.12894985602E+04  0.50400001928E-02 0.  1.
</event>
<event>
 5   0  0.1404159E-04  0.2231311E+04  0.7818609E-02  0.8505508E-01
       -2   -1    0    0    0  501  0.00000000000E+00  0.00000000000E+00  0.10512489574E+04  0.10512489574E+04  0.25500000920E-02 0. -1.
        2   -1    0    0  501    0  0.00000000000E+00  0.00000000000E+00 -0.11840075186E+04  0.11840075186E+04  0.25500000920E-02 0.  1.
    10030    2    1    2    0    0  0.00000000000E+00  0.00000000000E+00 -0.13275856124E+03  0.22352564760E+04  0.22313105292E+04 0.  0.
        5    1    3    3  502    0 -0.83515352345E+03 -0.20952907513E+03  0.64429811420E+03  0.10754189839E+04  0.46999998093E+01 0. -1.
       -5    1    3    3    0  502  0.83515352345E+03  0.20952907513E+03 -0.77705667544E+03  0.11598374920E+04  0.46999998093E+01 0.  1.
</event>
<event>
 5   0  0.1241430E-04  0.2230421E+04  0.7818609E-02  0.8505872E-01
        2   -1    0    0  501    0  0.00000000000E+00  0.00000000000E+00  0.24615349328E+04  0.24615349328E+04  0.25500000920E-02 0.  1.
       -2   -1    0    0    0  501  0.00000000000E+00  0.00000000000E+00 -0.50525152169E+03  0.50525152170E+03  0.25500000920E-02 0. -1.
    10030    2    1    2    0    0  0.00000000000E+00  0.00000000000E+00  0.19562834112E+04  0.29667864545E+04  0.22304208307E+04 0.  0.
        1    1    3    3  502    0  0.95381079753E+03  0.16629645885E+03  0.17142846283E+04  0.19688020055E+04  0.50400001928E-02 0. -1.
       -1    1    3    3    0  502 -0.95381079753E+03 -0.16629645885E+03  0.24199878281E+03  0.99798444909E+03  0.50400001928E-02 0.  1.
</event>
<event>
 5   0  0.1311472E-04  0.2292038E+04  0.7818609E-02  0.8481067E-01
        2   -1    0    0  501    0  0.00000000000E+00  0.00000000000E+00  0.17370945589E+04  0.17370945589E+04  0.25500000920E-02 0.  1.
       -2   -1    0    0    0  501  0.00000000000E+00  0.00000000000E+00 -0.75606705442E+03  0.75606705442E+03  0.25500000920E-02 0. -1.
    10030    2    1    2    0    0  0.00000000000E+00  0.00000000000E+00  0.98102750449E+03  0.24931616133E+04  0.22920383648E+04 0.  0.
        4    1    3    3  502    0 -0.20248121317E+03  0.61097237762E+03  0.15219108323E+04  0.16524224890E+04  0.12699999809E+01 0.  1.
       -4    1    3    3    0  502  0.20248121317E+03 -0.61097237762E+03 -0.54088332782E+03  0.84073912429E+03  0.12699999809E+01 0. -1.
</event>
<event>
 5   0  0.1404159E-04  0.2178305E+04  0.7818609E-02  0.8527513E-01
        2   -1    0    0  501    0  0.00000000000E+00  0.00000000000E+00  0.15416058484E+04  0.15416058484E+04  0.25500000920E-02 0. -1.
       -2   -1    0    0    0  501  0.00000000000E+00  0.00000000000E+00 -0.76949180011E+03  0.76949180011E+03  0.25500000920E-02 0.  1.
    10030    2    1    2    0    0  0.00000000000E+00  0.00000000000E+00  0.77211404827E+03  0.23110976485E+04  0.21783049000E+04 0.  0.
        5    1    3    3  502    0 -0.60136110605E+03  0.33441582571E+03  0.12817761528E+04  0.14547994089E+04  0.46999998093E+01 0. -1.
       -5    1    3    3    0  502  0.60136110605E+03 -0.33441582571E+03 -0.50966210450E+03  0.85629823958E+03  0.46999998093E+01 0.  1.
</event>
<event>
 5   0  0.5981239E-05  0.2253025E+04  0.7818609E-02  0.8496676E-01
       -1   -1    0    0    0  501  0.00000000000E+00  0.00000000000E+00  0.13604444112E+04  0.13604444112E+04  0.50400001928E-02 0. -1.
        1   -1    0    0  501    0  0.00000000000E+00  0.00000000000E+00 -0.93280617344E+03  0.93280617346E+03  0.50400001928E-02 0.  1.
    10030    2    1    2    0    0  0.00000000000E+00  0.00000000000E+00  0.42763823776E+03  0.22932505847E+04  0.22530254729E+04 0.  0.
        4    1    3    3  502    0  0.19727663833E+03 -0.64512189160E+03 -0.70446838340E+03  0.97538589449E+03  0.12699999809E+01 0.  1.
       -4    1    3    3    0  502 -0.19727663833E+03  0.64512189160E+03  0.11321066212E+04  0.13178646902E+04  0.12699999809E+01 0. -1.
</event>
<event>
 5   0  0.1241430E-04  0.2186354E+04  0.7818609E-02  0.8524129E-01
        2   -1    0    0  501    0  0.00000000000E+00  0.00000000000E+00  0.10663587679E+04  0.10663587679E+04  0.25500000920E-02 0.  1.
       -2   -1    0    0    0  501  0.00000000000E+00  0.00000000000E+00 -0.11206700754E+04  0.11206700754E+04  0.25500000920E-02 0. -1.
    10030    2    1    2    0    0  0.00000000000E+00  0.00000000000E+00 -0.54311307509E+02  0.21870288433E+04  0.21863543728E+04 0.  0.
        1    1    3    3  502    0  0.10652130709E+04  0.16360994534E+03 -0.21048592236E+03  0.10980671310E+04  0.50400001928E-02 0. -1.
       -1    1    3    3    0  502 -0.10652130709E+04 -0.16360994534E+03  0.15617461485E+03  0.10889617124E+04  0.50400001928E-02 0.  1.
</event>
<event>
 5   0  0.5981239E-05  0.2086242E+04  0.7818609E-02  0.8567328E-01
       -1   -1    0    0    0  501  0.00000000000E+00  0.00000000000E+00  0.80349564255E+03  0.80349564256E+03  0.50400001928E-02 0. -1.
        1   -1    0    0  501    0  0.00000000000E+00  0.00000000000E+00 -0.13542095742E+04  0.13542095742E+04  0.50400001928E-02 0.  1.
    10030    2    1    2    0    0  0.00000000000E+00  0.00000000000E+00 -0.55071393163E+03  0.21577052168E+04  0.20862420684E+04 0.  0.
        4    1    3    3  502    0  0.12317157696E+03  0.21940953586E+02 -0.13464208620E+04  0.13522216510E+04  0.12699999809E+01 0.  1.
       -4    1    3    3    0  502 -0.12317157696E+03 -0.21940953586E+02  0.79570693037E+03  0.80548356579E+03  0.12699999809E+01 0. -1.
</event>
<event>
 5   0  0.5849604E-05  0.2193275E+04  0.7818609E-02  0.8521232E-01
       -1   -1    0    0    0  501  0.00000000000E+00  0.00000000000E+00  0.91128552961E+03  0.91128552962E+03  0.50400001928E-02 0.  1.
        1   -1    0    0  501    0  0.00000000000E+00  0.00000000000E+00 -0.13196893274E+04  0.13196893274E+04  0.50400001928E-02 0. -1.
    10030    2    1    2    0    0  0.00000000000E+00  0.00000000000E+00 -0.40840379781E+03  0.22309748570E+04  0.21932749829E+04 0.  0.
        2    1    3    3  502    0 -0.79155374460E+02 -0.53350925160E+03 -0.11754527250E+04  0.12932852754E+04  0.25500000920E-02 0. -1.
       -2    1    3    3    0  502  0.79155374460E+02  0.53350925160E+03  0.76704892718E+03  0.93768958166E+03  0.25500000920E-02 0.  1.
</event>
<event>
 5   0  0.4586375E-05  0.2015633E+04  0.7818609E-02  0.8599346E-01
       -4   -1    0    0    0  501  0.00000000000E+00  0.00000000000E+00  0.13594879300E+04  0.13594885232E+04  0.12699999809E+01 0. -1.
        4   -1    0    0  501    0  0.00000000000E+00  0.00000000000E+00 -0.74711390056E+03  0.74711497998E+03  0.12699999809E+01 0.  1.
    10030    2    1    2    0    0  0.00000000000E+00  0.00000000000E+00  0.61237402942E+03  0.21066035032E+04  0.20156329943E+04 0.  0.
        5    1    3    3  502    0  0.85529671571E+03 -0.43963664382E+03  0.62121974814E+03  0.11448794329E+04  0.46999998093E+01 0.  1.
       -5    1    3    3    0  502 -0.85529671571E+03  0.43963664382E+03 -0.88457187230E+01  0.96172407022E+03  0.46999998093E+01 0. -1.
</event>
<event>
 5   0  0.5861816E-05  0.2205252E+04  0.7818609E-02  0.8516245E-01
       -1   -1    0    0    0  501  0.00000000000E+00  0.00000000000E+00  0.77080336769E+03  0.77080336771E+03  0.50400001928E-02 0. -1.
        1   -1    0    0  501    0  0.00000000000E+00  0.00000000000E+00 -0.15772942458E+04  0.15772942458E+04  0.50400001928E-02 0.  1.
    10030    2    1    2    0    0  0.00000000000E+00  0.00000000000E+00 -0.80649087809E+03  0.23480976135E+04  0.22052516560E+04 0.  0.
        1    1    3    3  502    0  0.13935701663E+03 -0.75433574972E+03  0.44010834290E+03  0.88438575005E+03  0.50400001928E-02 0. -1.
       -1    1    3    3    0  502 -0.13935701663E+03  0.75433574972E+03 -0.12465992210E+04  0.14637118634E+04  0.50400001928E-02 0.  1.
</event>
<event>
 5   0  0.5981239E-05  0.1720022E+04  0.7818609E-02  0.8750027E-01
       -1   -1    0    0    0  501  0.00000000000E+00  0.00000000000E+00  0.34655971188E+03  0.34655971191E+03  0.50400001928E-02 0. -1.
        1   -1    0    0  501    0  0.00000000000E+00  0.00000000000E+00 -0.21341751160E+04  0.21341751160E+04  0.50400001928E-02 0.  1.
    10030    2    1    2    0    0  0.00000000000E+00  0.00000000000E+00 -0.17876154041E+04  0.24807348279E+04  0.17200222247E+04 0.  0.
        4    1    3    3  502    0 -0.24209164689E+03  0.12007052885E+03 -0.20713496854E+04  0.20889031642E+04  0.12699999809E+01 0.  1.
       -4    1    3    3    0  502  0.24209164689E+03 -0.12007052885E+03  0.28373428129E+03  0.39183166369E+03  0.12699999809E+01 0. -1.
</event>
<event>
 5   0  0.1311472E-04  0.2078871E+04  0.7818609E-02  0.8570609E-01
       -2   -1    0    0    0  501  0.00000000000E+00  0.00000000000E+00  0.10657818699E+04  0.10657818699E+04  0.25500000920E-02 0.  1.
        2   -1    0    0  501    0  0.00000000000E+00  0.00000000000E+00 -0.10137400571E+04  0.10137400571E+04  0.25500000920E-02 0. -1.
    10030    2    1    2    0    0  0.00000000000E+00  0.00000000000E+00  0.52041812761E+02  0.20795219270E+04  0.20788706296E+04 0.  0.
        4    1    3    3  502    0 -0.51513523827E+03 -0.87923867377E+03  0.23102217938E+03  0.10448912955E+04  0.12699999809E+01 0.  1.
       -4    1    3    3    0  502  0.51513523827E+03  0.87923867377E+03 -0.17898036662E+03  0.10346306315E+04  0.12699999809E+01 0. -1.
</event>
<event>
 5   0  0.1226021E-04  0.2206292E+04  0.7818609E-02  0.8515814E-01
        2   -1    0    0  501    0  0.00000000000E+00  0.00000000000E+00  0.26313791507E+04  0.26313791507E+04  0.25500000920E-02 0. -1.
       -2   -1    0    0    0  501  0.00000000000E+00  0.00000000000E+00 -0.46246898156E+03  0.46246898156E+03  0.25500000920E-02 0.  1.
    10030    2    1    2    0    0  0.00000000000E+00  0.00000000000E+00  0.21689101691E+04  0.30938481323E+04  0.22062921256E+04 0.  0.
        2    1    3    3  502    0  0.24863108143E+03  0.43736584912E+03 -0.29223142155E+03  0.58181225870E+03  0.25500000920E-02 0.  1.
       -2    1    3    3    0  502 -0.24863108143E+03 -0.43736584912E+03  0.24611415907E+04  0.25120358736E+04  0.25500000920E-02 0. -1.
</event>
<event>
 5   0  0.5895063E-05  0.2158221E+04  0.7818609E-02  0.8536022E-01
       -1   -1    0    0    0  501  0.00000000000E+00  0.00000000000E+00  0.11703431315E+04  0.11703431315E+04  0.50400001928E-02 0.  1.
        1   -1    0    0  501    0  0.00000000000E+00  0.00000000000E+00 -0.99498963779E+03  0.99498963780E+03  0.50400001928E-02 0. -1.
    10030    2    1    2    0    0  0.00000000000E+00  0.00000000000E+00  0.17535349373E+03  0.21653327693E+04  0.21582208307E+04 0.  0.
        5    1    3    3  502    0  0.49432533912E+03 -0.64311720910E+03 -0.62635653633E+03  0.10248423714E+04  0.46999998093E+01 0. -1.
       -5    1    3    3    0  502 -0.49432533912E+03  0.64311720910E+03  0.80171003006E+03  0.11404903980E+04  0.46999998093E+01 0.  1.
</event>
<event>
 5   0  0.1226021E-04  0.2123317E+04  0.7818609E-02  0.8551041E-01
        2   -1    0    0  501    0  0.00000000000E+00  0.00000000000E+00  0.68186632405E+03  0.68186632405E+03  0.25500000920E-02 0. -1.
       -2   -1    0    0    0  501  0.00000000000E+00  0.00000000000E+00 -0.16529905626E+04  0.16529905626E+04  0.25500000920E-02 0.  1.
    10030    2    1    2    0    0  0.00000000000E+00  0.00000000000E+00 -0.97112423858E+03  0.23348568867E+04  0.21233168380E+04 0.  0.
        2    1    3    3  502    0  0.11904812491E+03 -0.10255315758E+04 -0.75766403413E+03  0.12806023027E+04  0.25500000920E-02 0.  1.
       -2    1    3    3    0  502 -0.11904812491E+03  0.10255315758E+04 -0.21346020445E+03  0.10542545840E+04  0.25500000920E-02 0. -1.
</event>
<event>
 5   0  0.5895063E-05  0.1943955E+04  0.7818609E-02  0.8633282E-01
        1   -1    0    0  501    0  0.00000000000E+00  0.00000000000E+00  0.61067393288E+03  0.61067393290E+03  0.50400001928E-02 0. -1.
       -1   -1    0    0    0  501  0.00000000000E+00  0.00000000000E+00 -0.15470445878E+04  0.15470445878E+04  0.50400001928E-02 0.  1.
    10030    2    1    2    0    0  0.00000000000E+00  0.00000000000E+00 -0.93637065489E+03  0.21577185207E+04  0.19439545291E+04 0.  0.
        5    1    3    3  502    0 -0.62202418625E+03 -0.61387358621E+03  0.39901133919E+01  0.87395244672E+03  0.46999998093E+01 0. -1.
       -5    1    3    3    0  502  0.62202418625E+03  0.61387358621E+03 -0.94036076828E+03  0.12837660740E+04  0.46999998093E+01 0.  1.
</event>
<event>
 5   0  0.1241430E-04  0.2190507E+04  0.7818609E-02  0.8522390E-01
       -2   -1    0    0    0  501  0.00000000000E+00  0.00000000000E+00  0.40510583451E+03  0.40510583451E+03  0.25500000920E-02 0.  1.
        2   -1    0    0  501    0  0.00000000000E+00  0.00000000000E+00 -0.29611522819E+04  0.29611522819E+04  0.25500000920E-02 0. -1.
    10030    2    1    2    0    0  0.00000000000E+00  0.00000000000E+00 -0.25560464474E+04  0.33662581164E+04  0.21905068512E+04 0.  0.
        1    1    3    3  502    0  0.89574161419E+03  0.20298145130E+03 -0.36107801579E+03  0.98687985209E+03  0.50400001928E-02 0.  1.
       -1    1    3    3    0  502 -0.89574161419E+03 -0.20298145130E+03 -0.21949684316E+04  0.23793782643E+04  0.50400001928E-02 0. -1.
</event>
<event>
 5   0  0.1311472E-04  0.2212328E+04  0.7818609E-02  0.8513315E-01
       -2   -1    0    0    0  501  0.00000000000E+00  0.00000000000E+00  0.58695750992E+03  0.58695750992E+03  0.25500000920E-02 0. -1.
        2   -1    0    0  501    0  0.00000000000E+00  0.00000000000E+00 -0.20846455448E+04  0.20846455448E+04  0.25500000920E-02 0.  1.
    10030    2    1    2    0    0  0.00000000000E+00  0.00000000000E+00 -0.14976880348E+04  0.26716030547E+04  0.22123276051E+04 0.  0.
        4    1    3    3  502    0 -0.44233629645E+03  0.62299574534E+03 -0.17147804878E+04  0.18773009434E+04  0.12699999809E+01 0.  1.
       -4    1    3    3    0  502  0.44233629645E+03 -0.62299574534E+03  0.21709245300E+03  0.79430211124E+03  0.12699999809E+01 0. -1.
</event>
<event>
 5   0  0.6263558E-05  0.2084465E+04  0.7818609E-02  0.8568118E-01
        1   -1    0    0  501    0  0.00000000000E+00  0.00000000000E+00  0.11262828240E+04  0.11262828240E+04  0.50400001928E-02 0. -1.
       -1   -1    0    0    0  501  0.00000000000E+00  0.00000000000E+00 -0.96445481166E+03  0.96445481167E+03  0.50400001928E-02 0.  1.
    10030    2    1    2    0    0  0.00000000000E+00  0.00000000000E+00  0.16182801231E+03  0.20907376357E+04  0.20844652925E+04 0.  0.
        3    1    3    3  502    0  0.93898825564E+02 -0.44393618766E+03 -0.86018037885E+03  0.97252589812E+03  0.10100000352E+00 0.  1.
       -3    1    3    3    0  502 -0.93898825564E+02  0.44393618766E+03  0.10220083912E+04  0.11182117375E+04  0.10100000352E+00 0. -1.
</event>
<event>
 5   0  0.1311472E-04  0.2211381E+04  0.7818609E-02  0.8513706E-01
       -2   -1    0    0    0  501  0.00000000000E+00  0.00000000000E+00  0.82004365940E+03  0.82004365940E+03  0.25500000920E-02 0.  1.
        2   -1    0    0  501    0  0.00000000000E+00  0.00000000000E+00 -0.14908364297E+04  0.14908364297E+04  0.25500000920E-02 0. -1.
    10030    2    1    2    0    0  0.00000000000E+00  0.00000000000E+00 -0.67079277031E+03  0.23108800891E+04  0.22113805293E+04 0.  0.
        4    1    3    3  502    0 -0.53500462282E+03  0.68472817717E+03 -0.10498750762E+04  0.13628359812E+04  0.12699999809E+01 0. -1.
       -4    1    3    3    0  502  0.53500462282E+03 -0.68472817717E+03  0.37908230590E+03  0.94804410794E+03  0.12699999809E+01 0.  1.
</event>
<event>
 5   0  0.1404159E-04  0.1548542E+04  0.7818609E-02  0.8852800E-01
        2   -1    0    0  501    0  0.00000000000E+00  0.00000000000E+00  0.68485379191E+03  0.68485379191E+03  0.25500000920E-02 0. -1.
       -2   -1    0    0    0  501  0.00000000000E+00  0.00000000000E+00 -0.87536280412E+03  0.87536280413E+03  0.25500000920E-02 0.  1.
    10030    2    1    2    0    0  0.00000000000E+00  0.00000000000E+00 -0.19050901221E+03  0.15602165960E+04  0.15485419409E+04 0.  0.
        5    1    3    3  502    0  0.42357364574E+03 -0.64561713291E+03 -0.37928008553E+02  0.77310849142E+03  0.46999998093E+01 0. -1.
       -5    1    3    3    0  502 -0.42357364574E+03  0.64561713291E+03 -0.15258100366E+03  0.78710810462E+03  0.46999998093E+01 0.  1.
</event>
<event>
 5   0  0.1241430E-04  0.2077709E+04  0.7818609E-02  0.8571127E-01
        2   -1    0    0  501    0  0.00000000000E+00  0.00000000000E+00  0.19389148399E+04  0.19389148399E+04  0.25500000920E-02 0.  1.
       -2   -1    0    0    0  501  0.00000000000E+00  0.00000000000E+00 -0.55660947926E+03  0.55660947926E+03  0.25500000920E-02 0. -1.
    10030    2    1    2    0    0  0.00000000000E+00  0.00000000000E+00  0.13823053606E+04  0.24955243191E+04  0.20777087181E+04 0.  0.
        1    1    3    3  502    0  0.34584137281E+03  0.97687076983E+03  0.77888704226E+03  0.12963594335E+04  0.50400001928E-02 0.  1.
       -1    1    3    3    0  502 -0.34584137281E+03 -0.97687076983E+03  0.60341831835E+03  0.11991648857E+04  0.50400001928E-02 0. -1.
</event>
<event>
 5   0  0.5981239E-05  0.2242619E+04  0.7818609E-02  0.8500896E-01
        1   -1    0    0  501    0  0.00000000000E+00  0.00000000000E+00  0.11740397043E+04  0.11740397043E+04  0.50400001928E-02 0. -1.
       -1   -1    0    0    0  501  0.00000000000E+00  0.00000000000E+00 -0.10709471615E+04  0.10709471615E+04  0.50400001928E-02 0.  1.
    10030    2    1    2    0    0  0.00000000000E+00  0.00000000000E+00  0.10309254276E+03  0.22449868658E+04  0.22426185488E+04 0.  0.
        4    1    3    3  502    0  0.95335147336E+03  0.31876769710E+03  0.54890190628E+03  0.11453326120E+04  0.12699999809E+01 0. -1.
       -4    1    3    3    0  502 -0.95335147336E+03 -0.31876769710E+03 -0.44580936352E+03  0.10996542538E+04  0.12699999809E+01 0.  1.
</event>
<event>
 5   0  0.1241430E-04  0.2210484E+04  0.7818609E-02  0.8514077E-01
        2   -1    0    0  501    0  0.00000000000E+00  0.00000000000E+00  0.21541972456E+04  0.21541972456E+04  0.25500000920E-02 0.  1.
       -2   -1    0    0    0  501  0.00000000000E+00  0.00000000000E+00 -0.56706030508E+03  0.56706030508E+03  0.25500000920E-02 0. -1.
    10030    2    1    2    0    0  0.00000000000E+00  0.00000000000E+00  0.15871369405E+04  0.27212575507E+04  0.22104838812E+04 0.  0.
        1    1    3    3  502    0 -0.88011489250E+02  0.44501880975E+03 -0.44717046208E+03  0.63698444680E+03  0.50400001928E-02 0. -1.
       -1    1    3    3    0  502  0.88011489250E+02 -0.44501880975E+03  0.20343074026E+04  0.20842731039E+04  0.50400001928E-02 0.  1.
</event>
<event>
 5   0  0.5849604E-05  0.2087806E+04  0.7818609E-02  0.8566634E-01
       -1   -1    0    0    0  501  0.00000000000E+00  0.00000000000E+00  0.11629215666E+04  0.11629215666E+04  0.50400001928E-02 0.  1.
        1   -1    0    0  501    0  0.00000000000E+00  0.00000000000E+00 -0.93706501399E+03  0.93706501401E+03  0.50400001928E-02 0. -1.
    10030    2    1    2    0    0  0.00000000000E+00  0.00000000000E+00  0.22585655259E+03  0.20999865806E+04  0.20878056558E+04 0.  0.
        2    1    3    3  502    0 -0.10254431760E+04  0.12758889861E+03  0.26184774510E+03  0.10660097916E+04  0.25500000920E-02 0.  1.
       -2    1    3    3    0  502  0.10254431760E+04 -0.12758889861E+03 -0.35991192508E+02  0.10339767890E+04  0.25500000920E-02 0. -1.
</event>
<event>
 5   0  0.1252124E-04  0.1613402E+04  0.7818609E-02  0.8812357E-01
        2   -1    0    0  501    0  0.00000000000E+00  0.00000000000E+00  0.13860277910E+04  0.13860277910E+04  0.25500000920E-02 0.  1.
       -2   -1    0    0    0  501  0.00000000000E+00  0.00000000000E+00 -0.46951900658E+03  0.46951900659E+03  0.25500000920E-02 0. -1.
    10030    2    1    2    0    0  0.00000000000E+00  0.00000000000E+00  0.91650878441E+03  0.18555467976E+04  0.16134018613E+04 0.  0.
        3    1    3    3  502    0  0.73624450704E+03 -0.14826471296E+03  0.79694954324E+03  0.10950648309E+04  0.10100000352E+00 0.  1.
       -3    1    3    3    0  502 -0.73624450704E+03  0.14826471296E+03  0.11955924117E+03  0.76048196665E+03  0.10100000352E+00 0. -1.
</event>
<event>
 5   0  0.5981239E-05  0.2160626E+04  0.7818609E-02  0.8534997E-01
       -1   -1    0    0    0  501  0.00000000000E+00  0.00000000000E+00  0.10907866790E+04  0.10907866790E+04  0.50400001928E-02 0. -1.
        1   -1    0    0  501    0  0.00000000000E+00  0.00000000000E+00 -0.10699401811E+04  0.10699401812E+04  0.50400001928E-02 0.  1.
    10030    2    1    2    0    0  0.00000000000E+00  0.00000000000E+00  0.20846497854E+02  0.21607268602E+04  0.21606262952E+04 0.  0.
        4    1    3    3  502    0 -0.82731409351E+03 -0.38525597343E+03 -0.56770755028E+03  0.10747856763E+04  0.12699999809E+01 0.  1.
       -4    1    3    3    0  502  0.82731409351E+03  0.38525597343E+03  0.58855404813E+03  0.10859411839E+04  0.12699999809E+01 0. -1.
</event>
<event>
 5   0  0.5981239E-05  0.2201745E+04  0.7818609E-02  0.8517702E-01
       -1   -1    0    0    0  501  0.00000000000E+00  0.00000000000E+00  0.89000237419E+03  0.89000237420E+03  0.50400001928E-02 0.  1.
        1   -1    0    0  501    0  0.00000000000E+00  0.00000000000E+00 -0.13617041689E+04  0.13617041689E+04  0.50400001928E-02 0. -1.
    10030    2    1    2    0    0  0.00000000000E+00  0.00000000000E+00 -0.47170179469E+03  0.22517065431E+04  0.22017447112E+04 0.  0.
        4    1    3    3  502    0  0.50508480572E+03  0.68095382721E+01  0.76448678321E+03  0.91629617777E+03  0.12699999809E+01 0.  1.
       -4    1    3    3    0  502 -0.50508480572E+03 -0.68095382721E+01 -0.12361885779E+04  0.13354103653E+04  0.12699999809E+01 0. -1.
</event>
<event>
 5   0  0.1241430E-04  0.2115661E+04  0.7818609E-02  0.8554376E-01
        2   -1    0    0  501    0  0.00000000000E+00  0.00000000000E+00  0.29823402460E+04  0.29823402460E+04  0.25500000920E-02 0.  1.
       -2   -1    0    0    0  501  0.00000000000E+00  0.00000000000E+00 -0.37521060331E+03  0.37521060332E+03  0.25500000920E-02 0. -1.
    10030    2    1    2    0    0  0.00000000000E+00  0.00000000000E+00  0.26071296427E+04  0.33575508493E+04  0.21156612990E+04 0.  0.
        1    1    3    3  502    0  0.50363769054E+03 -0.39319445712E+03 -0.34372506627E+02  0.63987051321E+03  0.50400001928E-02 0. -1.
       -1    1    3    3    0  502 -0.50363769054E+03  0.39319445712E+03  0.26415021493E+04  0.27176803361E+04  0.50400001928E-02 0.  1.
</event>
<event>
 5   0  0.1311472E-04  0.2183110E+04  0.7818609E-02  0.8525491E-01
        2   -1    0    0  501    0  0.00000000000E+00  0.00000000000E+00  0.92437705892E+03  0.92437705893E+03  0.25500000920E-02 0. -1.
       -2   -1    0    0    0  501  0.00000000000E+00  0.00000000000E+00 -0.12889681064E+04  0.12889681064E+04  0.25500000920E-02 0.  1.
    10030    2    1    2    0    0  0.00000000000E+00  0.00000000000E+00 -0.36459104744E+03  0.22133451653E+04  0.21831102100E+04 0.  0.
        4    1    3    3  502    0 -0.11635079011E+02  0.96845111749E+03 -0.69271411046E+03  0.11907507690E+04  0.12699999809E+01 0.  1.
       -4    1    3    3    0  502  0.11635079011E+02 -0.96845111749E+03  0.32812306302E+03  0.10225943963E+04  0.12699999809E+01 0. -1.
</event>
<event>
 5   0  0.5895063E-05  0.2188678E+04  0.7818609E-02  0.8523155E-01
       -1   -1    0    0    0  501  0.00000000000E+00  0.00000000000E+00  0.10754875818E+04  0.10754875818E+04  0.50400001928E-02 0. -1.
        1   -1    0    0  501    0  0.00000000000E+00  0.00000000000E+00 -0.11135211307E+04  0.11135211307E+04  0.50400001928E-02 0.  1.
    10030    2    1    2    0    0  0.00000000000E+00  0.00000000000E+00 -0.38033548928E+02  0.21890087125E+04  0.21886782752E+04 0.  0.
        5    1    3    3  502    0  0.34461224931E+03 -0.52794816345E+03  0.87558413809E+03  0.10789608605E+04  0.46999998093E+01 0. -1.
       -5    1    3    3    0  502 -0.34461224931E+03  0.52794816345E+03 -0.91361768702E+03  0.11100478520E+04  0.46999998093E+01 0.  1.
</event>
<event>
 5   0  0.1241430E-04  0.2191093E+04  0.7818609E-02  0.8522144E-01
       -2   -1    0    0    0  501  0.00000000000E+00  0.00000000000E+00  0.16203766093E+04  0.16203766093E+04  0.25500000920E-02 0.  1.
        2   -1    0    0  501    0  0.00000000000E+00  0.00000000000E+00 -0.74070597662E+03  0.74070597662E+03  0.25500000920E-02 0. -1.
    10030    2    1    2    0    0  0.00000000000E+00  0.00000000000E+00  0.87967063264E+03  0.23610825859E+04  0.21910934611E+04 0.  0.
        1    1    3    3  502    0 -0.13761357175E+03  0.85552979842E+03  0.11621800930E+04  0.14496659269E+04  0.50400001928E-02 0.  1.
       -1    1    3    3    0  502  0.13761357175E+03 -0.85552979842E+03 -0.28250946031E+03  0.91141665900E+03  0.50400001928E-02 0. -1.
</event>
<event>
 5   0  0.1252124E-04  0.2204836E+04  0.7818609E-02  0.8516418E-01
        2   -1    0    0  501    0  0.00000000000E+00  0.00000000000E+00  0.23465671605E+04  0.23465671605E+04  0.25500000920E-02 0. -1.
       -2   -1    0    0    0  501  0.00000000000E+00  0.00000000000E+00 -0.51791632466E+03  0.51791632466E+03  0.25500000920E-02 0.  1.
    10030    2    1    2    0    0  0.00000000000E+00  0.00000000000E+00  0.18286508358E+04  0.28644834851E+04  0.22048359933E+04 0.  0.
        3    1    3    3  502    0  0.27359057112E+03 -0.10235460045E+04  0.13101544735E+04  0.16849341170E+04  0.10100000352E+00 0. -1.
       -3    1    3    3    0  502 -0.27359057112E+03  0.10235460045E+04  0.51849636236E+03  0.11795493682E+04  0.10100000352E+00 0.  1.
</event>
<event>
 5   0  0.5861816E-05  0.1757822E+04  0.7818609E-02  0.8729056E-01
       -1   -1    0    0    0  501  0.00000000000E+00  0.00000000000E+00  0.50736465536E+03  0.50736465538E+03  0.50400001928E-02 0.  1.
        1   -1    0    0  501    0  0.00000000000E+00  0.00000000000E+00 -0.15225438928E+04  0.15225438928E+04  0.50400001928E-02 0. -1.
    10030    2    1    2    0    0  0.00000000000E+00  0.00000000000E+00 -0.10151792375E+04  0.20299085482E+04  0.17578224683E+04 0.  0.
        1    1    3    3  502    0  0.19560824354E+03  0.85572250698E+03 -0.45644728837E+03  0.98937744111E+03  0.50400001928E-02 0. -1.
       -1    1    3    3    0  502 -0.19560824354E+03 -0.85572250698E+03 -0.55873194910E+03  0.10405311071E+04  0.50400001928E-02 0.  1.
</event>
<event>
 5   0  0.5981239E-05  0.2185364E+04  0.7818609E-02  0.8524545E-01
        1   -1    0    0  501    0  0.00000000000E+00  0.00000000000E+00  0.64094792625E+03  0.64094792627E+03  0.50400001928E-02 0.  1.
       -1   -1    0    0    0  501  0.00000000000E+00  0.00000000000E+00 -0.18627932700E+04  0.18627932700E+04  0.50400001928E-02 0. -1.
    10030    2    1    2    0    0  0.00000000000E+00  0.00000000000E+00 -0.12218453437E+04  0.25037411963E+04  0.21853635702E+04 0.  0.
        4    1    3    3  502    0 -0.42594394550E+03 -0.80709345230E+03  0.77561218817E+02  0.91588505884E+03  0.12699999809E+01 0.  1.
       -4    1    3    3    0  502  0.42594394550E+03  0.80709345230E+03 -0.12994065625E+04  0.15878561374E+04  0.12699999809E+01 0. -1.
</event>
<event>
 5   0  0.6263558E-05  0.2183629E+04  0.7818609E-02  0.8525273E-01
        1   -1    0    0  501    0  0.00000000000E+00  0.00000000000E+00  0.11794404951E+04  0.11794404952E+04  0.50400001928E-02 0.  1.
       -1   -1    0    0    0  501  0.00000000000E+00  0.00000000000E+00 -0.10106986774E+04  0.10106986774E+04  0.50400001928E-02 0. -1.
    10030    2    1    2    0    0  0.00000000000E+00  0.00000000000E+00  0.16874181777E+03  0.21901391725E+04  0.21836290422E+04 0.  0.
        3    1    3    3  502    0  0.54555722254E+03  0.81956071645E+03 -0.38899642319E+03  0.10585984501E+04  0.10100000352E+00 0. -1.
       -3    1    3    3    0  502 -0.54555722254E+03 -0.81956071645E+03  0.55773824095E+03  0.11315407225E+04  0.10100000352E+00 0.  1.
</event>
<event>
 5   0  0.5895063E-05  0.2236055E+04  0.7818609E-02  0.8503569E-01
       -1   -1    0    0    0  501  0.00000000000E+00  0.00000000000E+00  0.95416887288E+03  0.95416887289E+03  0.50400001928E-02 0.  1.
        1   -1    0    0  501    0  0.00000000000E+00  0.00000000000E+00 -0.13100254400E+04  0.13100254400E+04  0.50400001928E-02 0. -1.
    10030    2    1    2    0    0  0.00000000000E+00  0.00000000000E+00 -0.35585656715E+03  0.22641943129E+04  0.22360550061E+04 0.  0.
        5    1    3    3  502    0  0.88780189728E+02 -0.28236824643E+03  0.91376241150E+03  0.96051943413E+03  0.46999998093E+01 0.  1.
       -5    1    3    3    0  502 -0.88780189728E+02  0.28236824643E+03 -0.12696189786E+04  0.13036748788E+04  0.46999998093E+01 0. -1.
</event>
<event>
 5   0  0.6263558E-05  0.1891528E+04  0.7818609E-02  0.8659085E-01
        1   -1    0    0  501    0  0.00000000000E+00  0.00000000000E+00  0.86269191756E+03  0.86269191758E+03  0.50400001928E-02 0.  1.
       -1   -1    0    0    0  501  0.00000000000E+00  0.00000000000E+00 -0.10368354603E+04  0.10368354603E+04  0.50400001928E-02 0. -1.
    10030    2    1    2    0    0  0.00000000000E+00  0.00000000000E+00 -0.17414354270E+03  0.18995273778E+04  0.18915280293E+04 0.  0.
        3    1    3    3  502    0  0.79162292695E+02  0.39005377258E+03 -0.94863997785E+03  0.10287499365E+04  0.10100000352E+00 0. -1.
       -3    1    3    3    0  502 -0.79162292695E+02 -0.39005377258E+03  0.77449643515E+03  0.87077744134E+03  0.10100000352E+00 0.  1.
</event>
<event>
 5   0  0.1311472E-04  0.2247704E+04  0.7818609E-02  0.8498831E-01
        2   -1    0    0  501    0  0.00000000000E+00  0.00000000000E+00  0.10855311607E+04  0.10855311607E+04  0.25500000920E-02 0.  1.
       -2   -1    0    0    0  501  0.00000000000E+00  0.00000000000E+00 -0.11635255233E+04  0.11635255233E+04  0.25500000920E-02 0. -1.
    10030    2    1    2    0    0  0.00000000000E+00  0.00000000000E+00 -0.77994362655E+02  0.22490566840E+04  0.22477039056E+04 0.  0.
        4    1    3    3  502    0  0.62083583863E+03 -0.79312416708E+03  0.45985930644E+03  0.11072286474E+04  0.12699999809E+01 0.  1.
       -4    1    3    3    0  502 -0.62083583863E+03  0.79312416708E+03 -0.53785366910E+03  0.11418280366E+04  0.12699999809E+01 0. -1.
</event>
<event>
 5   0  0.1241430E-04  0.2191101E+04  0.7818609E-02  0.8522141E-01
        2   -1    0    0  501    0  0.00000000000E+00  0.00000000000E+00  0.84803869870E+03  0.84803869871E+03  0.25500000920E-02 0.  1.
       -2   -1    0    0    0  501  0.00000000000E+00  0.00000000000E+00 -0.14153019667E+04  0.14153019667E+04  0.25500000920E-02 0. -1.
    10030    2    1    2    0    0  0.00000000000E+00  0.00000000000E+00 -0.56726326800E+03  0.22633406654E+04  0.21911009453E+04 0.  0.
        1    1    3    3  502    0 -0.61584644687E+03  0.34460737627E+02 -0.12188978763E+04  0.13660770189E+04  0.50400001928E-02 0. -1.
       -1    1    3    3    0  502  0.61584644687E+03 -0.34460737627E+02  0.65163460834E+03  0.89726364652E+03  0.50400001928E-02 0.  1.
</event>
<event>
 5   0  0.5849604E-05  0.1695450E+04  0.7818609E-02  0.8763963E-01
        1   -1    0    0  501    0  0.00000000000E+00  0.00000000000E+00  0.21086622783E+04  0.21086622783E+04  0.50400001928E-02 0. -1.
       -1   -1    0    0    0  501  0.00000000000E+00  0.00000000000E+00 -0.34080278793E+03  0.34080278797E+03  0.50400001928E-02 0.  1.
    10030    2    1    2    0    0  0.00000000000E+00  0.00000000000E+00  0.17678594904E+04  0.24494650663E+04  0.16954503629E+04 0.  0.
        2    1    3    3  502    0  0.79343594173E+03 -0.29001746823E+03  0.98595720606E+03  0.12983691069E+04  0.25500000920E-02 0.  1.
       -2    1    3    3    0  502 -0.79343594173E+03  0.29001746823E+03  0.78190228431E+03  0.11510959594E+04  0.25500000920E-02 0. -1.
</event>
<event>
 5   0  0.1404159E-04  0.2169342E+04  0.7818609E-02  0.8531298E-01
       -2   -1    0    0    0  501  0.00000000000E+00  0.00000000000E+00  0.68647980799E+03  0.68647980799E+03  0.25500000920E-02 0. -1.
        2   -1    0    0  501    0  0.00000000000E+00  0.00000000000E+00 -0.17138327141E+04  0.17138327141E+04  0.25500000920E-02 0.  1.
    10030    2    1    2    0    0  0.00000000000E+00  0.00000000000E+00 -0.10273529062E+04  0.24003125221E+04  0.21693423451E+04 0.  0.
        5    1    3    3  502    0 -0.69524955987E+03 -0.49433426917E+03  0.22753561331E+03  0.88291158419E+03  0.46999998093E+01 0. -1.
       -5    1    3    3    0  502  0.69524955987E+03  0.49433426917E+03 -0.12548885195E+04  0.15174009379E+04  0.46999998093E+01 0.  1.
</event>
<event>
 5   0  0.5849604E-05  0.2216954E+04  0.7818609E-02  0.8511404E-01
        1   -1    0    0  501    0  0.00000000000E+00  0.00000000000E+00  0.10664683285E+04  0.10664683285E+04  0.50400001928E-02 0. -1.
       -1   -1    0    0    0  501  0.00000000000E+00  0.00000000000E+00 -0.11521407902E+04  0.11521407902E+04  0.50400001928E-02 0.  1.
    10030    2    1    2    0    0  0.00000000000E+00  0.00000000000E+00 -0.85672461664E+02  0.22186091187E+04  0.22169543637E+04 0.  0.
        2    1    3    3  502    0 -0.40004497778E+03 -0.24986501620E+03  0.96103421191E+03  0.10705397083E+04  0.25500000920E-02 0. -1.
       -2    1    3    3    0  502  0.40004497778E+03  0.24986501620E+03 -0.10467066736E+04  0.11480694104E+04  0.25500000920E-02 0.  1.
</event>
<event>
 5   0  0.1226021E-04  0.2183811E+04  0.7818609E-02  0.8525197E-01
       -2   -1    0    0    0  501  0.00000000000E+00  0.00000000000E+00  0.10021421284E+04  0.10021421285E+04  0.25500000920E-02 0.  1.
        2   -1    0    0  501    0  0.00000000000E+00  0.00000000000E+00 -0.11897089652E+04  0.11897089652E+04  0.25500000920E-02 0. -1.
    10030    2    1    2    0    0  0.00000000000E+00  0.00000000000E+00 -0.18756683676E+03  0.21918510937E+04  0.21838108660E+04 0.  0.
        2    1    3    3  502    0  0.45853360758E+03 -0.77066743261E+03  0.53146770413E+03  0.10424199161E+04  0.25500000920E-02 0.  1.
       -2    1    3    3    0  502 -0.45853360758E+03  0.77066743261E+03 -0.71903454089E+03  0.11494311776E+04  0.25500000920E-02 0. -1.
</event>
<event>
 5   0  0.1252124E-04  0.2214212E+04  0.7818609E-02  0.8512536E-01
        2   -1    0    0  501    0  0.00000000000E+00  0.00000000000E+00  0.11780122951E+04  0.11780122951E+04  0.25500000920E-02 0. -1.
       -2   -1    0    0    0  501  0.00000000000E+00  0.00000000000E+00 -0.10404679418E+04  0.10404679419E+04  0.25500000920E-02 0.  1.
    10030    2    1    2    0    0  0.00000000000E+00  0.00000000000E+00  0.13754435322E+03  0.22184802369E+04  0.22142123007E+04 0.  0.
        3    1    3    3  502    0  0.22237583494E+03  0.51620809305E+03  0.10244252301E+04  0.11684899955E+04  0.10100000352E+00 0. -1.
       -3    1    3    3    0  502 -0.22237583494E+03 -0.51620809305E+03 -0.88688087684E+03  0.10499902415E+04  0.10100000352E+00 0.  1.
</event>
<event>
 5   0  0.4586375E-05  0.2071027E+04  0.7818609E-02  0.8574115E-01
        3   -1    0    0  501    0  0.00000000000E+00  0.00000000000E+00  0.11562826420E+04  0.11562826464E+04  0.10100000352E+00 0. -1.
       -3   -1    0    0    0  501  0.00000000000E+00  0.00000000000E+00 -0.92735846925E+03  0.92735847475E+03  0.10100000352E+00 0.  1.
    10030    2    1    2    0    0  0.00000000000E+00  0.00000000000E+00  0.22892417273E+03  0.20836411211E+04  0.20710272921E+04 0.  0.
        5    1    3    3  502    0  0.14681420351E+02 -0.93290767440E+03 -0.33742174990E+03  0.99217327134E+03  0.46999998093E+01 0.  1.
       -5    1    3    3    0  502 -0.14681420351E+02  0.93290767440E+03  0.56634592263E+03  0.10914678498E+04  0.46999998093E+01 0. -1.
</event>
<event>
 5   0  0.1241430E-04  0.1906106E+04  0.7818609E-02  0.8651823E-01
        2   -1    0    0  501    0  0.00000000000E+00  0.00000000000E+00  0.90092103070E+03  0.90092103071E+03  0.25500000920E-02 0.  1.
       -2   -1    0    0    0  501  0.00000000000E+00  0.00000000000E+00 -0.10082019775E+04  0.10082019775E+04  0.25500000920E-02 0. -1.
    10030    2    1    2    0    0  0.00000000000E+00  0.00000000000E+00 -0.10728094679E+03  0.19091230082E+04  0.19061063609E+04 0.  0.
        1    1    3    3  502    0 -0.46907514944E+03  0.58639189906E+03 -0.64144525131E+03  0.98759250987E+03  0.50400001928E-02 0. -1.
       -1    1    3    3    0  502  0.46907514944E+03 -0.58639189906E+03  0.53416430452E+03  0.92153049833E+03  0.50400001928E-02 0.  1.
</event>
<event>
 5   0  0.1311472E-04  0.2265059E+04  0.7818609E-02  0.8491827E-01
        2   -1    0    0  501    0  0.00000000000E+00  0.00000000000E+00  0.99264153694E+03  0.99264153694E+03  0.25500000920E-02 0.  1.
       -2   -1    0    0    0  501  0.00000000000E+00  0.00000000000E+00 -0.12921309267E+04  0.12921309267E+04  0.25500000920E-02 0. -1.
    10030    2    1    2    0    0  0.00000000000E+00  0.00000000000E+00 -0.29948938976E+03  0.22847724636E+04  0.22650587886E+04 0.  0.
        4    1    3    3  502    0 -0.24203809240E+03  0.67800374005E+03  0.73213537752E+03  0.10267888457E+04  0.12699999809E+01 0.  1.
       -4    1    3    3    0  502  0.24203809240E+03 -0.67800374005E+03 -0.10316247673E+04  0.12579836180E+04  0.12699999809E+01 0. -1.
</event>
<event>
 5   0  0.5895063E-05  0.2153972E+04  0.7818609E-02  0.8537834E-01
        1   -1    0    0  501    0  0.00000000000E+00  0.00000000000E+00  0.10751490817E+04  0.10751490818E+04  0.50400001928E-02 0.  1.
       -1   -1    0    0    0  501  0.00000000000E+00  0.00000000000E+00 -0.10788256255E+04  0.10788256255E+04  0.50400001928E-02 0. -1.
    10030    2    1    2    0    0  0.00000000000E+00  0.00000000000E+00 -0.36765437372E+01  0.21539747073E+04  0.21539715696E+04 0.  0.
        5    1    3    3  502    0  0.35639969345E+03  0.97792462119E+03 -0.27845932555E+03  0.10774595084E+04  0.46999998093E+01 0. -1.
       -5    1    3    3    0  502 -0.35639969345E+03 -0.97792462119E+03  0.27478278182E+03  0.10765151989E+04  0.46999998093E+01 0.  1.
</event>
<event>
 5   0  0.5981239E-05  0.1931317E+04  0.7818609E-02  0.8639423E-01
        1   -1    0    0  501    0  0.00000000000E+00  0.00000000000E+00  0.84667517425E+03  0.84667517426E+03  0.50400001928E-02 0.  1.
       -1   -1    0    0    0  501  0.00000000000E+00  0.00000000000E+00 -0.11013620082E+04  0.11013620082E+04  0.50400001928E-02 0. -1.
    10030    2    1    2    0    0  0.00000000000E+00  0.00000000000E+00 -0.25468683393E+03  0.19480371824E+04  0.19313165149E+04 0.  0.
        4    1    3    3  502    0 -0.92744153615E+03 -0.20191976075E+03 -0.30657499803E+03  0.99745136978E+03  0.12699999809E+01 0. -1.
       -4    1    3    3    0  502  0.92744153615E+03  0.20191976075E+03  0.51888164105E+02  0.95058581266E+03  0.12699999809E+01 0.  1.
</event>
<event>
 5   0  0.5895063E-05  0.2154627E+04  0.7818609E-02  0.8537554E-01
        1   -1    0    0  501    0  0.00000000000E+00  0.00000000000E+00  0.16381987873E+04  0.16381987873E+04  0.50400001928E-02 0. -1.
       -1   -1    0    0    0  501  0.00000000000E+00  0.00000000000E+00 -0.70846363946E+03  0.70846363948E+03  0.50400001928E-02 0.  1.
    10030    2    1    2    0    0  0.00000000000E+00  0.00000000000E+00  0.92973514781E+03  0.23466624268E+04  0.21546269051E+04 0.  0.
        5    1    3    3  502    0  0.31227382681E+03 -0.31594423425E+03  0.15337926296E+04  0.15968336240E+04  0.46999998093E+01 0. -1.
       -5    1    3    3    0  502 -0.31227382681E+03  0.31594423425E+03 -0.60405748182E+03  0.74982880274E+03  0.46999998093E+01 0.  1.
</event>
<event>
 5   0  0.1252124E-04  0.2146729E+04  0.7818609E-02  0.8540934E-01
       -2   -1    0    0    0  501  0.00000000000E+00  0.00000000000E+00  0.66550870083E+03  0.66550870083E+03  0.25500000920E-02 0. -1.
        2   -1    0    0  501    0  0.00000000000E+00  0.00000000000E+00 -0.17311742724E+04  0.17311742724E+04  0.25500000920E-02 0.  1.
    10030    2    1    2    0    0  0.00000000000E+00  0.00000000000E+00 -0.10656655716E+04  0.23966829733E+04  0.21467291780E+04 0.  0.
        3    1    3    3  502    0  0.22273632836E+03  0.71958397386E+03 -0.13865214080E+04  0.15779271822E+04  0.10100000352E+00 0.  1.
       -3    1    3    3    0  502 -0.22273632836E+03 -0.71958397386E+03  0.32085583638E+03  0.81875579104E+03  0.10100000352E+00 0. -1.
</event>
<event>
 5   0  0.1226021E-04  0.2175275E+04  0.7818609E-02  0.8528790E-01
       -2   -1    0    0    0  501  0.00000000000E+00  0.00000000000E+00  0.17427250631E+04  0.17427250631E+04  0.25500000920E-02 0. -1.
        2   -1    0    0  501    0  0.00000000000E+00  0.00000000000E+00 -0.67879629065E+03  0.67879629066E+03  0.25500000920E-02 0.  1.
    10030    2    1    2    0    0  0.00000000000E+00  0.00000000000E+00  0.10639287724E+04  0.24215213537E+04  0.21752749789E+04 0.  0.
        2    1    3    3  502    0  0.52877253782E+03  0.93640136905E+03  0.35072290447E+03  0.11311297346E+04  0.25500000920E-02 0.  1.
       -2    1    3    3    0  502 -0.52877253782E+03 -0.93640136905E+03  0.71320586793E+03  0.12903916191E+04  0.25500000920E-02 0. -1.
</event>
<event>
 5   0  0.1404159E-04  0.2072778E+04  0.7818609E-02  0.8573330E-01
        2   -1    0    0  501    0  0.00000000000E+00  0.00000000000E+00  0.17448315654E+04  0.17448315654E+04  0.25500000920E-02 0.  1.
       -2   -1    0    0    0  501  0.00000000000E+00  0.00000000000E+00 -0.61559103057E+03  0.61559103057E+03  0.25500000920E-02 0. -1.
    10030    2    1    2    0    0  0.00000000000E+00  0.00000000000E+00  0.11292405349E+04  0.23604225960E+04  0.20727784846E+04 0.  0.
        5    1    3    3  502    0 -0.25079226863E+03  0.45740123015E+03 -0.45518058492E+03  0.69233236399E+03  0.46999998093E+01 0. -1.
       -5    1    3    3    0  502  0.25079226863E+03 -0.45740123015E+03  0.15844211198E+04  0.16680902320E+04  0.46999998093E+01 0.  1.
</event>
<event>
 5   0  0.5981239E-05  0.2272877E+04  0.7818609E-02  0.8488693E-01
        1   -1    0    0  501    0  0.00000000000E+00  0.00000000000E+00  0.18418727010E+04  0.18418727010E+04  0.50400001928E-02 0. -1.
       -1   -1    0    0    0  501  0.00000000000E+00  0.00000000000E+00 -0.70118458139E+03  0.70118458141E+03  0.50400001928E-02 0.  1.
    10030    2    1    2    0    0  0.00000000000E+00  0.00000000000E+00  0.11406881196E+04  0.25430572824E+04  0.22728772416E+04 0.  0.
        4    1    3    3  502    0 -0.75616407165E+03  0.77982927480E+03  0.19661200354E+03  0.11038911604E+04  0.12699999809E+01 0. -1.
       -4    1    3    3    0  502  0.75616407165E+03 -0.77982927480E+03  0.94407611610E+03  0.14391661221E+04  0.12699999809E+01 0.  1.
</event>
<event>
 5   0  0.5861816E-05  0.2105097E+04  0.7818609E-02  0.8559001E-01
       -1   -1    0    0    0  501  0.00000000000E+00  0.00000000000E+00  0.10205799573E+04  0.10205799573E+04  0.50400001928E-02 0. -1.
        1   -1    0    0  501    0  0.00000000000E+00  0.00000000000E+00 -0.10855187214E+04  0.10855187214E+04  0.50400001928E-02 0.  1.
    10030    2    1    2    0    0  0.00000000000E+00  0.00000000000E+00 -0.64938764166E+02  0.21060986787E+04  0.21050972902E+04 0.  0.
        1    1    3    3  502    0 -0.69298488062E+02  0.71952817656E+03  0.73296682701E+03  0.10294481273E+04  0.50400001928E-02 0. -1.
       -1    1    3    3    0  502  0.69298488062E+02 -0.71952817656E+03 -0.79790559118E+03  0.10766505514E+04  0.50400001928E-02 0.  1.
</event>
<event>
 5   0  0.1226021E-04  0.2190931E+04  0.7818609E-02  0.8522212E-01
       -2   -1    0    0    0  501  0.00000000000E+00  0.00000000000E+00  0.88654557901E+03  0.88654557902E+03  0.25500000920E-02 0. -1.
        2   -1    0    0  501    0  0.00000000000E+00  0.00000000000E+00 -0.13536182623E+04  0.13536182623E+04  0.25500000920E-02 0.  1.
    10030    2    1    2    0    0  0.00000000000E+00  0.00000000000E+00 -0.46707268325E+03  0.22401638413E+04  0.21909306571E+04 0.  0.
        2    1    3    3  502    0  0.59931304423E+03 -0.86382266636E+03  0.81076885549E+02  0.10544852703E+04  0.25500000920E-02 0. -1.
       -2    1    3    3    0  502 -0.59931304423E+03  0.86382266636E+03 -0.54814956880E+03  0.11856785710E+04  0.25500000920E-02 0.  1.
</event>
<event>
 5   0  0.4586375E-05  0.1953354E+04  0.7818609E-02  0.8628745E-01
        3   -1    0    0  501    0  0.00000000000E+00  0.00000000000E+00  0.11921703423E+04  0.11921703466E+04  0.10100000352E+00 0.  1.
       -3   -1    0    0    0  501  0.00000000000E+00  0.00000000000E+00 -0.80013544267E+03  0.80013544905E+03  0.10100000352E+00 0. -1.
    10030    2    1    2    0    0  0.00000000000E+00  0.00000000000E+00  0.39203489963E+03  0.19923057956E+04  0.19533537879E+04 0.  0.
        3    1    3    3  502    0  0.76427074345E+03  0.60740215908E+03  0.22576395503E+03  0.10020062504E+04  0.10100000352E+00 0.  1.
       -3    1    3    3    0  502 -0.76427074345E+03 -0.60740215908E+03  0.16627094459E+03  0.99029954527E+03  0.10100000352E+00 0. -1.
</event>
<event>
 5   0  0.5981239E-05  0.2176025E+04  0.7818609E-02  0.8528474E-01
       -1   -1    0    0    0  501  0.00000000000E+00  0.00000000000E+00  0.83477588504E+03  0.83477588506E+03  0.50400001928E-02 0. -1.
        1   -1    0    0  501    0  0.00000000000E+00  0.00000000000E+00 -0.14180711458E+04  0.14180711459E+04  0.50400001928E-02 0.  1.
    10030    2    1    2    0    0  0.00000000000E+00  0.00000000000E+00 -0.58329526080E+03  0.22528470309E+04  0.21760253637E+04 0.  0.
        4    1    3    3  502    0  0.71712348549E+03  0.47944778075E+03 -0.97810448515E+03  0.13041573006E+04  0.12699999809E+01 0.  1.
       -4    1    3    3    0  502 -0.71712348549E+03 -0.47944778075E+03  0.39480922435E+03  0.94868973033E+03  0.12699999809E+01 0. -1.
</event>
<event>
 5   0  0.1311472E-04  0.2362212E+04  0.7818609E-02  0.8453788E-01
       -2   -1    0    0    0  501  0.00000000000E+00  0.00000000000E+00  0.85386874946E+03  0.85386874946E+03  0.25500000920E-02 0. -1.
        2   -1    0    0  501    0  0.00000000000E+00  0.00000000000E+00 -0.16337536734E+04  0.16337536734E+04  0.25500000920E-02 0.  1.
    10030    2    1    2    0    0  0.00000000000E+00  0.00000000000E+00 -0.77988492395E+03  0.24876224229E+04  0.23622118500E+04 0.  0.
        4    1    3    3  502    0  0.45877490811E+03 -0.81605296314E+03  0.36842350412E+03  0.10060588185E+04  0.12699999809E+01 0. -1.
       -4    1    3    3    0  502 -0.45877490811E+03  0.81605296314E+03 -0.11483084281E+04  0.14815636044E+04  0.12699999809E+01 0.  1.
</event>
<event>
 5   0  0.5895063E-05  0.2188832E+04  0.7818609E-02  0.8523091E-01
        1   -1    0    0  501    0  0.00000000000E+00  0.00000000000E+00  0.11032153580E+04  0.11032153580E+04  0.50400001928E-02 0. -1.
       -1   -1    0    0    0  501  0.00000000000E+00  0.00000000000E+00 -0.10856869434E+04  0.10856869434E+04  0.50400001928E-02 0.  1.
    10030    2    1    2    0    0  0.00000000000E+00  0.00000000000E+00  0.17528414652E+02  0.21889023014E+04  0.21888321178E+04 0.  0.
        5    1    3    3  502    0  0.65701562803E+03  0.68556143712E+03 -0.53536756600E+03  0.10900938218E+04  0.46999998093E+01 0.  1.
       -5    1    3    3    0  502 -0.65701562803E+03 -0.68556143712E+03  0.55289598065E+03  0.10988084797E+04  0.46999998093E+01 0. -1.
</event>
<event>
 5   0  0.1252124E-04  0.1836225E+04  0.7818609E-02  0.8687269E-01
        2   -1    0    0  501    0  0.00000000000E+00  0.00000000000E+00  0.12054709502E+04  0.12054709502E+04  0.25500000920E-02 0. -1.
       -2   -1    0    0    0  501  0.00000000000E+00  0.00000000000E+00 -0.69925386280E+03  0.69925386281E+03  0.25500000920E-02 0.  1.
    10030    2    1    2    0    0  0.00000000000E+00  0.00000000000E+00  0.50621708744E+03  0.19047248130E+04  0.18362246251E+04 0.  0.
        3    1    3    3  502    0 -0.72262083818E+03  0.11170486603E+03  0.82904294213E+03  0.11054279999E+04  0.10100000352E+00 0. -1.
       -3    1    3    3    0  502  0.72262083818E+03 -0.11170486603E+03 -0.32282585469E+03  0.79929681315E+03  0.10100000352E+00 0.  1.
</event>
<event>
 5   0  0.1241430E-04  0.2253178E+04  0.7818609E-02  0.8496615E-01
       -2   -1    0    0    0  501  0.00000000000E+00  0.00000000000E+00  0.15493487944E+04  0.15493487944E+04  0.25500000920E-02 0. -1.
        2   -1    0    0  501    0  0.00000000000E+00  0.00000000000E+00 -0.81918455890E+03  0.81918455890E+03  0.25500000920E-02 0.  1.
    10030    2    1    2    0    0  0.00000000000E+00  0.00000000000E+00  0.73016423554E+03  0.23685333533E+04  0.22531778525E+04 0.  0.
        1    1    3    3  502    0  0.94967961666E+03  0.57480836234E+03  0.56702843530E+03  0.12465220713E+04  0.50400001928E-02 0. -1.
       -1    1    3    3    0  502 -0.94967961666E+03 -0.57480836234E+03  0.16313580024E+03  0.11220112821E+04  0.50400001928E-02 0.  1.
</event>
<event>
 5   0  0.6263558E-05  0.2266964E+04  0.7818609E-02  0.8491062E-01
        1   -1    0    0  501    0  0.00000000000E+00  0.00000000000E+00  0.10989123923E+04  0.10989123923E+04  0.50400001928E-02 0.  1.
       -1   -1    0    0    0  501  0.00000000000E+00  0.00000000000E+00 -0.11691394038E+04  0.11691394038E+04  0.50400001928E-02 0. -1.
    10030    2    1    2    0    0  0.00000000000E+00  0.00000000000E+00 -0.70227011497E+02  0.22680517961E+04  0.22669642954E+04 0.  0.
        3    1    3    3  502    0  0.57733481934E+03 -0.67315762468E+03 -0.74137359388E+03  0.11558942414E+04  0.10100000352E+00 0. -1.
       -3    1    3    3    0  502 -0.57733481934E+03  0.67315762468E+03  0.67114658239E+03  0.11121575547E+04  0.10100000352E+00 0.  1.
</event>
<event>
 5   0  0.5849604E-05  0.2215845E+04  0.7818609E-02  0.8511862E-01
        1   -1    0    0  501    0  0.00000000000E+00  0.00000000000E+00  0.10074557659E+04  0.10074557659E+04  0.50400001928E-02 0. -1.
       -1   -1    0    0    0  501  0.00000000000E+00  0.00000000000E+00 -0.12184083989E+04  0.12184083989E+04  0.50400001928E-02 0.  1.
    10030    2    1    2    0    0  0.00000000000E+00  0.00000000000E+00 -0.21095263294E+03  0.22258641648E+04  0.22158452714E+04 0.  0.
        2    1    3    3  502    0  0.56814459602E+02  0.10195779733E+04 -0.53721660920E+03  0.11538495620E+04  0.25500000920E-02 0. -1.
       -2    1    3    3    0  502 -0.56814459602E+02 -0.10195779733E+04  0.32626397626E+03  0.10720146028E+04  0.25500000920E-02 0.  1.
</event>
<event>
 5   0  0.5981239E-05  0.2261031E+04  0.7818609E-02  0.8493446E-01
       -1   -1    0    0    0  501  0.00000000000E+00  0.00000000000E+00  0.75104861862E+03  0.75104861864E+03  0.50400001928E-02 0. -1.
        1   -1    0    0  501    0  0.00000000000E+00  0.00000000000E+00 -0.17017083576E+04  0.17017083576E+04  0.50400001928E-02 0.  1.
    10030    2    1    2    0    0  0.00000000000E+00  0.00000000000E+00 -0.95065973901E+03  0.24527569763E+04  0.22610313676E+04 0.  0.
        4    1    3    3  502    0  0.16882602591E+03  0.55259732696E+03  0.57876448026E+03  0.81782392316E+03  0.12699999809E+01 0. -1.
       -4    1    3    3    0  502 -0.16882602591E+03 -0.55259732696E+03 -0.15294242193E+04  0.16349330531E+04  0.12699999809E+01 0.  1.
</event>
<event>
 5   0  0.5981239E-05  0.2144866E+04  0.7818609E-02  0.8541733E-01
       -1   -1    0    0    0  501  0.00000000000E+00  0.00000000000E+00  0.10519265273E+04  0.10519265273E+04  0.50400001928E-02 0. -1.
        1   -1    0    0  501    0  0.00000000000E+00  0.00000000000E+00 -0.10933390196E+04  0.10933390196E+04  0.50400001928E-02 0.  1.
    10030    2    1    2    0    0  0.00000000000E+00  0.00000000000E+00 -0.41412492255E+02  0.21452655469E+04  0.21448657935E+04 0.  0.
        4    1    3    3  502    0  0.30216692789E+03  0.64251374881E+03 -0.82458605682E+03  0.10881509765E+04  0.12699999809E+01 0.  1.
       -4    1    3    3    0  502 -0.30216692789E+03 -0.64251374881E+03  0.78317356456E+03  0.10571145704E+04  0.12699999809E+01 0. -1.
</event>
<event>
 5   0  0.5861816E-05  0.2208687E+04  0.7818609E-02  0.8514821E-01
        1   -1    0    0  501    0  0.00000000000E+00  0.00000000000E+00  0.16147859166E+04  0.16147859166E+04  0.50400001928E-02 0. -1.
       -1   -1    0    0    0  501  0.00000000000E+00  0.00000000000E+00 -0.75525497473E+03  0.75525497474E+03  0.50400001928E-02 0.  1.
    10030    2    1    2    0    0  0.00000000000E+00  0.00000000000E+00  0.85953094186E+03  0.23700408913E+04  0.22086874805E+04 0.  0.
        1    1    3    3  502    0 -0.25487745226E+03 -0.10715905075E+04  0.51497950552E+03  0.12159245958E+04  0.50400001928E-02 0. -1.
       -1    1    3    3    0  502  0.25487745226E+03  0.10715905075E+04  0.34455143634E+03  0.11541162956E+04  0.50400001928E-02 0.  1.
</event>
<event>
 5   0  0.1252124E-04  0.2212036E+04  0.7818609E-02  0.8513435E-01
        2   -1    0    0  501    0  0.00000000000E+00  0.00000000000E+00  0.78158833865E+03  0.78158833866E+03  0.25500000920E-02 0. -1.
       -2   -1    0    0    0  501  0.00000000000E+00  0.00000000000E+00 -0.15651157123E+04  0.15651157123E+04  0.25500000920E-02 0.  1.
    10030    2    1    2    0    0  0.00000000000E+00  0.00000000000E+00 -0.78352737366E+03  0.23467040510E+04  0.22120363373E+04 0.  0.
        3    1    3    3  502    0  0.93813168038E+03  0.16873368702E+03 -0.98691054803E+03  0.13720621513E+04  0.10100000352E+00 0.  1.
       -3    1    3    3    0  502 -0.93813168038E+03 -0.16873368702E+03  0.20338317437E+03  0.97464189972E+03  0.10100000352E+00 0. -1.
</event>
<event>
 5   0  0.1226021E-04  0.2150770E+04  0.7818609E-02  0.8539203E-01
        2   -1    0    0  501    0  0.00000000000E+00  0.00000000000E+00  0.25338656371E+04  0.25338656371E+04  0.25500000920E-02 0.  1.
       -2   -1    0    0    0  501  0.00000000000E+00  0.00000000000E+00 -0.45639861366E+03  0.45639861367E+03  0.25500000920E-02 0. -1.
    10030    2    1    2    0    0  0.00000000000E+00  0.00000000000E+00  0.20774670234E+04  0.29902642507E+04  0.21507698752E+04 0.  0.
        2    1    3    3  502    0 -0.21822082718E+03 -0.96530972805E+03  0.45378991735E+03  0.10887462926E+04  0.25500000920E-02 0. -1.
       -2    1    3    3    0  502  0.21822082718E+03  0.96530972805E+03  0.16236771061E+04  0.19015179582E+04  0.25500000920E-02 0.  1.
</event>
<event>
 5   0  0.5849604E-05  0.2205062E+04  0.7818609E-02  0.8516324E-01
       -1   -1    0    0    0  501  0.00000000000E+00  0.00000000000E+00  0.82310448135E+03  0.82310448137E+03  0.50400001928E-02 0. -1.
        1   -1    0    0  501    0  0.00000000000E+00  0.00000000000E+00 -0.14768173580E+04  0.14768173580E+04  0.50400001928E-02 0.  1.
    10030    2    1    2    0    0  0.00000000000E+00  0.00000000000E+00 -0.65371287662E+03  0.22999218393E+04  0.22050623442E+04 0.  0.
        2    1    3    3  502    0 -0.66386699882E+03  0.56231970617E+03 -0.10332291560E+04  0.13507351083E+04  0.25500000920E-02 0. -1.
       -2    1    3    3    0  502  0.66386699882E+03 -0.56231970617E+03  0.37951627935E+03  0.94918673103E+03  0.25500000920E-02 0.  1.
</event>
<event>
 5   0  0.5861816E-05  0.2168876E+04  0.7818609E-02  0.8531495E-01
       -1   -1    0    0    0  501  0.00000000000E+00  0.00000000000E+00  0.10202580923E+04  0.10202580923E+04  0.50400001928E-02 0. -1.
        1   -1    0    0  501    0  0.00000000000E+00  0.00000000000E+00 -0.11526551844E+04  0.11526551844E+04  0.50400001928E-02 0.  1.
    10030    2    1    2    0    0  0.00000000000E+00  0.00000000000E+00 -0.13239709218E+03  0.21729132767E+04  0.21688760034E+04 0.  0.
        1    1    3    3  502    0  0.84467399069E+03 -0.24669921061E+03  0.56875649857E+03  0.10477683932E+04  0.50400001928E-02 0. -1.
       -1    1    3    3    0  502 -0.84467399069E+03  0.24669921061E+03 -0.70115359075E+03  0.11251448835E+04  0.50400001928E-02 0.  1.
</event>
<event>
 5   0  0.6263558E-05  0.2201786E+04  0.7818609E-02  0.8517685E-01
       -1   -1    0    0    0  501  0.00000000000E+00  0.00000000000E+00  0.10170539859E+04  0.10170539860E+04  0.50400001928E-02 0. -1.
        1   -1    0    0  501    0  0.00000000000E+00  0.00000000000E+00 -0.11916433897E+04  0.11916433897E+04  0.50400001928E-02 0.  1.
    10030    2    1    2    0    0  0.00000000000E+00  0.00000000000E+00 -0.17458940378E+03  0.22086973757E+04  0.22017862379E+04 0.  0.
        3    1    3    3  502    0 -0.75818049810E+03 -0.32696983558E+03 -0.81774149356E+03  0.11620878201E+04  0.10100000352E+00 0.  1.
       -3    1    3    3    0  502  0.75818049810E+03  0.32696983558E+03  0.64315208978E+03  0.10466095556E+04  0.10100000352E+00 0. -1.
</event>
<event>
 5   0  0.5861816E-05  0.2209020E+04  0.7818609E-02  0.8514683E-01
       -1   -1    0    0    0  501  0.00000000000E+00  0.00000000000E+00  0.14146433699E+04  0.14146433700E+04  0.50400001928E-02 0.  1.
        1   -1    0    0  501    0  0.00000000000E+00  0.00000000000E+00 -0.86236764185E+03  0.86236764187E+03  0.50400001928E-02 0. -1.
    10030    2    1    2    0    0  0.00000000000E+00  0.00000000000E+00  0.55227572810E+03  0.22770110118E+04  0.22090202960E+04 0.  0.
        1    1    3    3  502    0 -0.34379411487E+03  0.85566171113E+03 -0.35051394869E+03  0.98651476702E+03  0.50400001928E-02 0. -1.
       -1    1    3    3    0  502  0.34379411487E+03 -0.85566171113E+03  0.90278967679E+03  0.12904962448E+04  0.50400001928E-02 0.  1.
</event>
<event>
 5   0  0.5981239E-05  0.2222511E+04  0.7818609E-02  0.8509116E-01
       -1   -1    0    0    0  501  0.00000000000E+00  0.00000000000E+00  0.49532993419E+03  0.49532993421E+03  0.50400001928E-02 0.  1.
        1   -1    0    0  501    0  0.00000000000E+00  0.00000000000E+00 -0.24930640970E+04  0.24930640970E+04  0.50400001928E-02 0. -1.
    10030    2    1    2    0    0  0.00000000000E+00  0.00000000000E+00 -0.19977341628E+04  0.29883940312E+04  0.22225114399E+04 0.  0.
        4    1    3    3  502    0  0.74892348633E+02 -0.61658332425E+03  0.24014131118E+03  0.66592290985E+03  0.12699999809E+01 0.  1.
       -4    1    3    3    0  502 -0.74892348633E+02  0.61658332425E+03 -0.22378754740E+04  0.23224711214E+04  0.12699999809E+01 0. -1.
</event>
<event>
 5   0  0.5981239E-05  0.2194129E+04  0.7818609E-02  0.8520876E-01
        1   -1    0    0  501    0  0.00000000000E+00  0.00000000000E+00  0.10724491522E+04  0.10724491523E+04  0.50400001928E-02 0.  1.
       -1   -1    0    0    0  501  0.00000000000E+00  0.00000000000E+00 -0.11222446254E+04  0.11222446254E+04  0.50400001928E-02 0. -1.
    10030    2    1    2    0    0  0.00000000000E+00  0.00000000000E+00 -0.49795473138E+02  0.21946937776E+04  0.21941287994E+04 0.  0.
        4    1    3    3  502    0 -0.10675787149E+03 -0.85522384718E+03  0.65405802167E+03  0.10819420412E+04  0.12699999809E+01 0.  1.
       -4    1    3    3    0  502  0.10675787149E+03  0.85522384718E+03 -0.70385349481E+03  0.11127517364E+04  0.12699999809E+01 0. -1.
</event>
<event>
 5   0  0.6263558E-05  0.1984807E+04  0.7818609E-02  0.8613757E-01
        1   -1    0    0  501    0  0.00000000000E+00  0.00000000000E+00  0.11511985378E+04  0.11511985378E+04  0.50400001928E-02 0.  1.
       -1   -1    0    0    0  501  0.00000000000E+00  0.00000000000E+00 -0.85551272401E+03  0.85551272402E+03  0.50400001928E-02 0. -1.
    10030    2    1    2    0    0  0.00000000000E+00  0.00000000000E+00  0.29568581378E+03  0.20067112618E+04  0.19848072924E+04 0.  0.
        3    1    3    3  502    0 -0.86760282900E+03  0.13471156742E+03  0.61553097505E+03  0.10722687474E+04  0.10100000352E+00 0.  1.
       -3    1    3    3    0  502  0.86760282900E+03 -0.13471156742E+03 -0.31984516127E+03  0.93444251438E+03  0.10100000352E+00 0. -1.
</event>
<event>
 5   0  0.1226021E-04  0.2382111E+04  0.7818609E-02  0.8446231E-01
       -2   -1    0    0    0  501  0.00000000000E+00  0.00000000000E+00  0.79308916931E+03  0.79308916931E+03  0.25500000920E-02 0.  1.
        2   -1    0    0  501    0  0.00000000000E+00  0.00000000000E+00 -0.17887188322E+04  0.17887188322E+04  0.25500000920E-02 0. -1.
    10030    2    1    2    0    0  0.00000000000E+00  0.00000000000E+00 -0.99562966285E+03  0.25818080015E+04  0.23821112759E+04 0.  0.
        2    1    3    3  502    0  0.14705861667E+03  0.11597869471E+04 -0.74468482092E+03  0.13861051483E+04  0.25500000920E-02 0. -1.
       -2    1    3    3    0  502 -0.14705861667E+03 -0.11597869471E+04 -0.25094484193E+03  0.11957028532E+04  0.25500000920E-02 0.  1.
</event>
<event>
 5   0  0.5895063E-05  0.2176440E+04  0.7818609E-02  0.8528299E-01
       -1   -1    0    0    0  501  0.00000000000E+00  0.00000000000E+00  0.11221211897E+04  0.11221211897E+04  0.50400001928E-02 0.  1.
        1   -1    0    0  501    0  0.00000000000E+00  0.00000000000E+00 -0.10553432726E+04  0.10553432726E+04  0.50400001928E-02 0. -1.
    10030    2    1    2    0    0  0.00000000000E+00  0.00000000000E+00  0.66777917129E+02  0.21774644623E+04  0.21764402575E+04 0.  0.
        5    1    3    3  502    0 -0.62469124076E+03  0.18023007782E+03  0.90642720766E+03  0.11155063424E+04  0.46999998093E+01 0.  1.
       -5    1    3    3    0  502  0.62469124076E+03 -0.18023007782E+03 -0.83964929053E+03  0.10619581199E+04  0.46999998093E+01 0. -1.
</event>
<event>
 5   0  0.1241430E-04  0.2187800E+04  0.7818609E-02  0.8523523E-01
        2   -1    0    0  501    0  0.00000000000E+00  0.00000000000E+00  0.13262280079E+04  0.13262280079E+04  0.25500000920E-02 0. -1.
       -2   -1    0    0    0  501  0.00000000000E+00  0.00000000000E+00 -0.90227072059E+03  0.90227072060E+03  0.25500000920E-02 0.  1.
    10030    2    1    2    0    0  0.00000000000E+00  0.00000000000E+00  0.42395728733E+03  0.22284987285E+04  0.21877995341E+04 0.  0.
        1    1    3    3  502    0 -0.42329097883E+03 -0.52944246376E+03  0.10865143269E+04  0.12806240501E+04  0.50400001928E-02 0. -1.
       -1    1    3    3    0  502  0.42329097883E+03  0.52944246376E+03 -0.66255703958E+03  0.94787467838E+03  0.50400001928E-02 0.  1.
</event>
<event>
 5   0  0.6263558E-05  0.2188025E+04  0.7818609E-02  0.8523429E-01
       -1   -1    0    0    0  501  0.00000000000E+00  0.00000000000E+00  0.82705595244E+03  0.82705595245E+03  0.50400001928E-02 0.  1.
        1   -1    0    0  501    0  0.00000000000E+00  0.00000000000E+00 -0.14471368290E+04  0.14471368290E+04  0.50400001928E-02 0. -1.
    10030    2    1    2    0    0  0.00000000000E+00  0.00000000000E+00 -0.62008087653E+03  0.22741927814E+04  0.21880247973E+04 0.  0.
        3    1    3    3  502    0  0.23561009561E+02  0.34607135627E+03  0.76838630659E+03  0.84305280449E+03  0.10100000352E+00 0.  1.
       -3    1    3    3    0  502 -0.23561009561E+02 -0.34607135627E+03 -0.13884671831E+04  0.14311399769E+04  0.10100000352E+00 0. -1.
</event>
<event>
 5   0  0.1241430E-04  0.2190920E+04  0.7818609E-02  0.8522217E-01
       -2   -1    0    0    0  501  0.00000000000E+00  0.00000000000E+00  0.74058814895E+03  0.74058814896E+03  0.25500000920E-02 0.  1.
        2   -1    0    0  501    0  0.00000000000E+00  0.00000000000E+00 -0.16203782738E+04  0.16203782738E+04  0.25500000920E-02 0. -1.
    10030    2    1    2    0    0  0.00000000000E+00  0.00000000000E+00 -0.87979012480E+03  0.23609664227E+04  0.21909203056E+04 0.  0.
        1    1    3    3  502    0  0.62616484083E+03  0.61280321389E+03 -0.11485217465E+04  0.14445457380E+04  0.50400001928E-02 0. -1.
       -1    1    3    3    0  502 -0.62616484083E+03 -0.61280321389E+03  0.26873162174E+03  0.91642068473E+03  0.50400001928E-02 0.  1.
</event>
<event>
 5   0  0.5861816E-05  0.2192674E+04  0.7818609E-02  0.8521483E-01
        1   -1    0    0  501    0  0.00000000000E+00  0.00000000000E+00  0.68465696063E+03  0.68465696065E+03  0.50400001928E-02 0. -1.
       -1   -1    0    0    0  501  0.00000000000E+00  0.00000000000E+00 -0.17555580826E+04  0.17555580826E+04  0.50400001928E-02 0.  1.
    10030    2    1    2    0    0  0.00000000000E+00  0.00000000000E+00 -0.10709011220E+04  0.24402150433E+04  0.21926742221E+04 0.  0.
        1    1    3    3  502    0 -0.53900178911E+03 -0.11298819847E+03  0.51955098540E+03  0.75711458057E+03  0.50400001928E-02 0. -1.
       -1    1    3    3    0  502  0.53900178911E+03  0.11298819847E+03 -0.15904521074E+04  0.16831004627E+04  0.50400001928E-02 0.  1.
</event>
<event>
 5   0  0.1404159E-04  0.2255117E+04  0.7818609E-02  0.8495831E-01
        2   -1    0    0  501    0  0.00000000000E+00  0.00000000000E+00  0.26769668804E+04  0.26769668805E+04  0.25500000920E-02 0.  1.
       -2   -1    0    0    0  501  0.00000000000E+00  0.00000000000E+00 -0.47493618301E+03  0.47493618302E+03  0.25500000920E-02 0. -1.
    10030    2    1    2    0    0  0.00000000000E+00  0.00000000000E+00  0.22020306974E+04  0.31519030635E+04  0.22551172318E+04 0.  0.
        5    1    3    3  502    0 -0.74023807892E+03 -0.24001327447E+03 -0.39439481287E+02  0.77918954568E+03  0.46999998093E+01 0. -1.
       -5    1    3    3    0  502  0.74023807892E+03  0.24001327447E+03  0.22414701787E+04  0.23727135178E+04  0.46999998093E+01 0.  1.
</event>
<event>
 5   0  0.5849604E-05  0.2212904E+04  0.7818609E-02  0.8513076E-01
       -1   -1    0    0    0  501  0.00000000000E+00  0.00000000000E+00  0.70317811764E+03  0.70317811766E+03  0.50400001928E-02 0. -1.
        1   -1    0    0  501    0  0.00000000000E+00  0.00000000000E+00 -0.17410048315E+04  0.17410048315E+04  0.50400001928E-02 0.  1.
    10030    2    1    2    0    0  0.00000000000E+00  0.00000000000E+00 -0.10378267138E+04  0.24441829491E+04  0.22129044265E+04 0.  0.
        2    1    3    3  502    0 -0.75158630245E+03 -0.40819910936E+03 -0.12942220998E+04  0.15512960151E+04  0.25500000920E-02 0.  1.
       -2    1    3    3    0  502  0.75158630245E+03  0.40819910936E+03  0.25639538602E+03  0.89288693399E+03  0.25500000920E-02 0. -1.
</event>
<event>
 5   0  0.1252124E-04  0.2186298E+04  0.7818609E-02  0.8524153E-01
       -2   -1    0    0    0  501  0.00000000000E+00  0.00000000000E+00  0.48214333384E+03  0.48214333384E+03  0.25500000920E-02 0.  1.
        2   -1    0    0  501    0  0.00000000000E+00  0.00000000000E+00 -0.24784641369E+04  0.24784641369E+04  0.25500000920E-02 0. -1.
    10030    2    1    2    0    0  0.00000000000E+00  0.00000000000E+00 -0.19963208031E+04  0.29606074708E+04  0.21862982064E+04 0.  0.
        3    1    3    3  502    0  0.82384704616E+03 -0.69375397127E+03 -0.74497717620E+03  0.13095837245E+04  0.10100000352E+00 0.  1.
       -3    1    3    3    0  502 -0.82384704616E+03  0.69375397127E+03 -0.12513436269E+04  0.16510237463E+04  0.10100000352E+00 0. -1.
</event>
<event>
 5   0  0.1226021E-04  0.2173360E+04  0.7818609E-02  0.8529599E-01
        2   -1    0    0  501    0  0.00000000000E+00  0.00000000000E+00  0.13703694526E+04  0.13703694526E+04  0.25500000920E-02 0. -1.
       -2   -1    0    0    0  501  0.00000000000E+00  0.00000000000E+00 -0.86171903500E+03  0.86171903501E+03  0.25500000920E-02 0.  1.
    10030    2    1    2    0    0  0.00000000000E+00  0.00000000000E+00  0.50865041757E+03  0.22320884876E+04  0.21733600183E+04 0.  0.
        2    1    3    3  502    0 -0.57249219304E+03 -0.81272938882E+03  0.70504286784E+03  0.12187542066E+04  0.25500000920E-02 0. -1.
       -2    1    3    3    0  502  0.57249219304E+03  0.81272938882E+03 -0.19639245027E+03  0.10133342810E+04  0.25500000920E-02 0.  1.
</event>
<event>
 5   0  0.5849604E-05  0.2269229E+04  0.7818609E-02  0.8490153E-01
        1   -1    0    0  501    0  0.00000000000E+00  0.00000000000E+00  0.19632926759E+04  0.19632926759E+04  0.50400001928E-02 0.  1.
       -1   -1    0    0    0  501  0.00000000000E+00  0.00000000000E+00 -0.65570997387E+03  0.65570997389E+03  0.50400001928E-02 0. -1.
    10030    2    1    2    0    0  0.00000000000E+00  0.00000000000E+00  0.13075827020E+04  0.26190026498E+04  0.22692294633E+04 0.  0.
        2    1    3    3  502    0 -0.99117498147E+03  0.28925329532E+03  0.11091072592E+03  0.10384587146E+04  0.25500000920E-02 0.  1.
       -2    1    3    3    0  502  0.99117498147E+03 -0.28925329532E+03  0.11966719761E+04  0.15805439352E+04  0.25500000920E-02 0. -1.
</event>
<event>
 5   0  0.1404159E-04  0.2163487E+04  0.7818609E-02  0.8533781E-01
        2   -1    0    0  501    0  0.00000000000E+00  0.00000000000E+00  0.10554867392E+04  0.10554867392E+04  0.25500000920E-02 0. -1.
       -2   -1    0    0    0  501  0.00000000000E+00  0.00000000000E+00 -0.11086531894E+04  0.11086531894E+04  0.25500000920E-02 0.  1.
    10030    2    1    2    0    0  0.00000000000E+00  0.00000000000E+00 -0.53166450205E+02  0.21641399286E+04  0.21634867596E+04 0.  0.
        5    1    3    3  502    0  0.69071893422E+03  0.73103480315E+03  0.37183605737E+03  0.10722819933E+04  0.46999998093E+01 0. -1.
       -5    1    3    3    0  502 -0.69071893422E+03 -0.73103480315E+03 -0.42500250758E+03  0.10918579353E+04  0.46999998093E+01 0.  1.
</event>
<event>
 5   0  0.1404159E-04  0.2202067E+04  0.7818609E-02  0.8517568E-01
        2   -1    0    0  501    0  0.00000000000E+00  0.00000000000E+00  0.98156213134E+03  0.98156213135E+03  0.25500000920E-02 0.  1.
       -2   -1    0    0    0  501  0.00000000000E+00  0.00000000000E+00 -0.12350458522E+04  0.12350458522E+04  0.25500000920E-02 0. -1.
    10030    2    1    2    0    0  0.00000000000E+00  0.00000000000E+00 -0.25348372089E+03  0.22166079836E+04  0.22020665195E+04 0.  0.
        5    1    3    3  502    0  0.65828147006E+03 -0.66791317462E+03 -0.70744799250E+03  0.11747115624E+04  0.46999998093E+01 0.  1.
       -5    1    3    3    0  502 -0.65828147006E+03  0.66791317462E+03  0.45396427161E+03  0.10418964212E+04  0.46999998093E+01 0. -1.
</event>
<event>
 5   0  0.1252124E-04  0.2189920E+04  0.7818609E-02  0.8522635E-01
       -2   -1    0    0    0  501  0.00000000000E+00  0.00000000000E+00  0.18023556901E+04  0.18023556901E+04  0.25500000920E-02 0.  1.
        2   -1    0    0  501    0  0.00000000000E+00  0.00000000000E+00 -0.66520558905E+03  0.66520558905E+03  0.25500000920E-02 0. -1.
    10030    2    1    2    0    0  0.00000000000E+00  0.00000000000E+00  0.11371501010E+04  0.24675612791E+04  0.21899197049E+04 0.  0.
        3    1    3    3  502    0  0.21435376205E+03 -0.39136551315E+03  0.16952567055E+04  0.17530002304E+04  0.10100000352E+00 0.  1.
       -3    1    3    3    0  502 -0.21435376205E+03  0.39136551315E+03 -0.55810660446E+03  0.71456104870E+03  0.10100000352E+00 0. -1.
</event>
<event>
 5   0  0.1241430E-04  0.2132442E+04  0.7818609E-02  0.8547085E-01
       -2   -1    0    0    0  501  0.00000000000E+00  0.00000000000E+00  0.62914362550E+03  0.62914362550E+03  0.25500000920E-02 0. -1.
        2   -1    0    0  501    0  0.00000000000E+00  0.00000000000E+00 -0.18069440789E+04  0.18069440789E+04  0.25500000920E-02 0.  1.
    10030    2    1    2    0    0  0.00000000000E+00  0.00000000000E+00 -0.11778004534E+04  0.24360877044E+04  0.21324421201E+04 0.  0.
        1    1    3    3  502    0  0.12717067588E+03  0.10479215791E+03 -0.17923093208E+04  0.17998684614E+04  0.50400001928E-02 0.  1.
       -1    1    3    3    0  502 -0.12717067588E+03 -0.10479215791E+03  0.61450886731E+03  0.63621924302E+03  0.50400001928E-02 0. -1.
</event>
<event>
 5   0  0.5895063E-05  0.1924434E+04  0.7818609E-02  0.8642788E-01
        1   -1    0    0  501    0  0.00000000000E+00  0.00000000000E+00  0.57452614115E+03  0.57452614117E+03  0.50400001928E-02 0. -1.
       -1   -1    0    0    0  501  0.00000000000E+00  0.00000000000E+00 -0.16115228544E+04  0.16115228544E+04  0.50400001928E-02 0.  1.
    10030    2    1    2    0    0  0.00000000000E+00  0.00000000000E+00 -0.10369967132E+04  0.21860489955E+04  0.19244344696E+04 0.  0.
        5    1    3    3  502    0 -0.11395752528E+03 -0.68844339844E+03 -0.12710550135E+04  0.14500150233E+04  0.46999998093E+01 0.  1.
       -5    1    3    3    0  502  0.11395752528E+03  0.68844339844E+03  0.23405830026E+03  0.73603397228E+03  0.46999998093E+01 0. -1.
</event>
<event>
 5   0  0.5861816E-05  0.2220183E+04  0.7818609E-02  0.8510074E-01
        1   -1    0    0  501    0  0.00000000000E+00  0.00000000000E+00  0.30606171039E+04  0.30606171040E+04  0.50400001928E-02 0. -1.
       -1   -1    0    0    0  501  0.00000000000E+00  0.00000000000E+00 -0.40263235443E+03  0.40263235446E+03  0.50400001928E-02 0.  1.
    10030    2    1    2    0    0  0.00000000000E+00  0.00000000000E+00  0.26579847495E+04  0.34632494584E+04  0.22201832993E+04 0.  0.
        1    1    3    3  502    0 -0.32159966296E+03 -0.36974143712E+03  0.28827656176E+04  0.29241191289E+04  0.50400001928E-02 0. -1.
       -1    1    3    3    0  502  0.32159966296E+03  0.36974143712E+03 -0.22478086812E+03  0.53913032954E+03  0.50400001928E-02 0.  1.
</event>
<event>
 5   0  0.1226021E-04  0.2103248E+04  0.7818609E-02  0.8559814E-01
       -2   -1    0    0    0  501  0.00000000000E+00  0.00000000000E+00  0.32289948594E+03  0.32289948595E+03  0.25500000920E-02 0.  1.
        2   -1    0    0  501    0  0.00000000000E+00  0.00000000000E+00 -0.34249439059E+04  0.34249439059E+04  0.25500000920E-02 0. -1.
    10030    2    1    2    0    0  0.00000000000E+00  0.00000000000E+00 -0.31020444200E+04  0.37478433919E+04  0.21032476094E+04 0.  0.
        2    1    3    3  502    0 -0.87345975035E+03 -0.25047622694E+03 -0.60770465892E+03  0.10931492250E+04  0.25500000920E-02 0.  1.
       -2    1    3    3    0  502  0.87345975035E+03  0.25047622694E+03 -0.24943397611E+04  0.26546941668E+04  0.25500000920E-02 0. -1.
</event>
<event>
 5   0  0.5849604E-05  0.2227647E+04  0.7818609E-02  0.8507008E-01
       -1   -1    0    0    0  501  0.00000000000E+00  0.00000000000E+00  0.54936970805E+03  0.54936970808E+03  0.50400001928E-02 0.  1.
        1   -1    0    0  501    0  0.00000000000E+00  0.00000000000E+00 -0.22582299999E+04  0.22582300000E+04  0.50400001928E-02 0. -1.
    10030    2    1    2    0    0  0.00000000000E+00  0.00000000000E+00 -0.17088602919E+04  0.28075997080E+04  0.22276473292E+04 0.  0.
        2    1    3    3  502    0 -0.26441338137E+03  0.59057681999E+03  0.28818581693E+03  0.70834065367E+03  0.25500000920E-02 0.  1.
       -2    1    3    3    0  502  0.26441338137E+03 -0.59057681999E+03 -0.19970461088E+04  0.20992590544E+04  0.25500000920E-02 0. -1.
</event>
<event>
 5   0  0.1241430E-04  0.2184976E+04  0.7818609E-02  0.8524708E-01
        2   -1    0    0  501    0  0.00000000000E+00  0.00000000000E+00  0.15162025009E+04  0.15162025009E+04  0.25500000920E-02 0.  1.
       -2   -1    0    0    0  501  0.00000000000E+00  0.00000000000E+00 -0.78718376859E+03  0.78718376859E+03  0.25500000920E-02 0. -1.
    10030    2    1    2    0    0  0.00000000000E+00  0.00000000000E+00  0.72901873229E+03  0.23033862695E+04  0.21849759711E+04 0.  0.
        1    1    3    3  502    0 -0.60845087743E+03 -0.68567698073E+03  0.99099150664E+03  0.13499739103E+04  0.50400001928E-02 0.  1.
       -1    1    3    3    0  502  0.60845087743E+03  0.68567698073E+03 -0.26197277435E+03  0.95341235920E+03  0.50400001928E-02 0. -1.
</event>
<event>
 5   0  0.1404159E-04  0.2215042E+04  0.7818609E-02  0.8512193E-01
        2   -1    0    0  501    0  0.00000000000E+00  0.00000000000E+00  0.22375923774E+04  0.22375923774E+04  0.25500000920E-02 0. -1.
       -2   -1    0    0    0  501  0.00000000000E+00  0.00000000000E+00 -0.54817992461E+03  0.54817992462E+03  0.25500000920E-02 0.  1.
    10030    2    1    2    0    0  0.00000000000E+00  0.00000000000E+00  0.16894124528E+04  0.27857723020E+04  0.22150424111E+04 0.  0.
        5    1    3    3  502    0  0.17736202372E+03  0.22341643505E+03  0.21905849723E+04  0.22090850599E+04  0.46999998093E+01 0. -1.
       -5    1    3    3    0  502 -0.17736202372E+03 -0.22341643505E+03 -0.50117251952E+03  0.57668724213E+03  0.46999998093E+01 0.  1.
</event>
<event>
 5   0  0.6263558E-05  0.2211982E+04  0.7818609E-02  0.8513458E-01
        1   -1    0    0  501    0  0.00000000000E+00  0.00000000000E+00  0.67399798997E+03  0.67399798998E+03  0.50400001928E-02 0.  1.
       -1   -1    0    0    0  501  0.00000000000E+00  0.00000000000E+00 -0.18148655634E+04  0.18148655634E+04  0.50400001928E-02 0. -1.
    10030    2    1    2    0    0  0.00000000000E+00  0.00000000000E+00 -0.11408675734E+04  0.24888635534E+04  0.22119816833E+04 0.  0.
        3    1    3    3  502    0  0.17228044309E+03 -0.69156678834E+03 -0.15220344499E+04  0.16806350141E+04  0.10100000352E+00 0. -1.
       -3    1    3    3    0  502 -0.17228044309E+03  0.69156678834E+03  0.38116687646E+03  0.80822853928E+03  0.10100000352E+00 0.  1.
</event>
<event>
 5   0  0.5895063E-05  0.2191177E+04  0.7818609E-02  0.8522110E-01
        1   -1    0    0  501    0  0.00000000000E+00  0.00000000000E+00  0.18367092371E+04  0.18367092371E+04  0.50400001928E-02 0.  1.
       -1   -1    0    0    0  501  0.00000000000E+00  0.00000000000E+00 -0.65351320377E+03  0.65351320379E+03  0.50400001928E-02 0. -1.
    10030    2    1    2    0    0  0.00000000000E+00  0.00000000000E+00  0.11831960333E+04  0.24902224408E+04  0.21911766135E+04 0.  0.
        5    1    3    3  502    0 -0.67687396862E+03  0.22610040517E+03  0.15363189030E+04  0.16939827698E+04  0.46999998093E+01 0.  1.
       -5    1    3    3    0  502  0.67687396862E+03 -0.22610040517E+03 -0.35312286973E+03  0.79623967104E+03  0.46999998093E+01 0. -1.
</event>
<event>
 5   0  0.1241430E-04  0.2040564E+04  0.7818609E-02  0.8587887E-01
        2   -1    0    0  501    0  0.00000000000E+00  0.00000000000E+00  0.18275219843E+04  0.18275219843E+04  0.25500000920E-02 0.  1.
       -2   -1    0    0    0  501  0.00000000000E+00  0.00000000000E+00 -0.56961050817E+03  0.56961050818E+03  0.25500000920E-02 0. -1.
    10030    2    1    2    0    0  0.00000000000E+00  0.00000000000E+00  0.12579114761E+04  0.23971324924E+04  0.20405643593E+04 0.  0.
        1    1    3    3  502    0 -0.62757157705E+03 -0.80358487543E+03  0.67261103794E+03  0.12214746599E+04  0.50400001928E-02 0.  1.
       -1    1    3    3    0  502  0.62757157705E+03  0.80358487543E+03  0.58530043814E+03  0.11756578326E+04  0.50400001928E-02 0. -1.
</event>
<event>
 5   0  0.1311472E-04  0.2190087E+04  0.7818609E-02  0.8522565E-01
        2   -1    0    0  501    0  0.00000000000E+00  0.00000000000E+00  0.36430032091E+04  0.36430032091E+04  0.25500000920E-02 0.  1.
       -2   -1    0    0    0  501  0.00000000000E+00  0.00000000000E+00 -0.32915713109E+03  0.32915713110E+03  0.25500000920E-02 0. -1.
    10030    2    1    2    0    0  0.00000000000E+00  0.00000000000E+00  0.33138460780E+04  0.39721603402E+04  0.21900871991E+04 0.  0.
        4    1    3    3  502    0  0.88203106122E+03 -0.19717955674E+03  0.53556329006E+03  0.10505656672E+04  0.12699999809E+01 0. -1.
       -4    1    3    3    0  502 -0.88203106122E+03  0.19717955674E+03  0.27782827879E+04  0.29215946730E+04  0.12699999809E+01 0.  1.
</event>
<event>
 5   0  0.4586375E-05  0.2224634E+04  0.7818609E-02  0.8508244E-01
       -4   -1    0    0    0  501  0.00000000000E+00  0.00000000000E+00  0.98093223198E+03  0.98093305411E+03  0.12699999809E+01 0.  1.
        4   -1    0    0  501    0  0.00000000000E+00  0.00000000000E+00 -0.12612979513E+04  0.12612985907E+04  0.12699999809E+01 0. -1.
    10030    2    1    2    0    0  0.00000000000E+00  0.00000000000E+00 -0.28036571936E+03  0.22422316448E+04  0.22246343098E+04 0.  0.
        1    1    3    3  502    0 -0.34208672589E+03 -0.34803970303E+03 -0.11476366347E+04  0.12470865280E+04  0.50400001928E-02 0. -1.
       -1    1    3    3    0  502  0.34208672589E+03  0.34803970303E+03  0.86727091536E+03  0.99514511684E+03  0.50400001928E-02 0.  1.
</event>
<event>
 5   0  0.5981239E-05  0.2170520E+04  0.7818609E-02  0.8530800E-01
        1   -1    0    0  501    0  0.00000000000E+00  0.00000000000E+00  0.21001925389E+04  0.21001925389E+04  0.50400001928E-02 0.  1.
       -1   -1    0    0    0  501  0.00000000000E+00  0.00000000000E+00 -0.56080054898E+03  0.56080054901E+03  0.50400001928E-02 0. -1.
    10030    2    1    2    0    0  0.00000000000E+00  0.00000000000E+00  0.15393919899E+04  0.26609930879E+04  0.21705198721E+04 0.  0.
        4    1    3    3  502    0 -0.94406992644E+03  0.51106318570E+03  0.96482916189E+03  0.14433816302E+04  0.12699999809E+01 0.  1.
       -4    1    3    3    0  502  0.94406992644E+03 -0.51106318570E+03  0.57456282803E+03  0.12176114577E+04  0.12699999809E+01 0. -1.
</event>
<event>
 5   0  0.1252124E-04  0.2173400E+04  0.7818609E-02  0.8529582E-01
        2   -1    0    0  501    0  0.00000000000E+00  0.00000000000E+00  0.10500844477E+04  0.10500844477E+04  0.25500000920E-02 0.  1.
       -2   -1    0    0    0  501  0.00000000000E+00  0.00000000000E+00 -0.11245918918E+04  0.11245918918E+04  0.25500000920E-02 0. -1.
    10030    2    1    2    0    0  0.00000000000E+00  0.00000000000E+00 -0.74507444042E+02  0.21746763395E+04  0.21733996002E+04 0.  0.
        3    1    3    3  502    0 -0.46615679311E+03 -0.92541111018E+03 -0.36490381616E+03  0.10985639189E+04  0.10100000352E+00 0. -1.
       -3    1    3    3    0  502  0.46615679311E+03  0.92541111018E+03  0.29039637212E+03  0.10761124206E+04  0.10100000352E+00 0.  1.
</event>
<event>
 5   0  0.5861816E-05  0.2192137E+04  0.7818609E-02  0.8521708E-01
       -1   -1    0    0    0  501  0.00000000000E+00  0.00000000000E+00  0.18572483386E+04  0.18572483386E+04  0.50400001928E-02 0.  1.
        1   -1    0    0  501    0  0.00000000000E+00  0.00000000000E+00 -0.64685296635E+03  0.64685296637E+03  0.50400001928E-02 0. -1.
    10030    2    1    2    0    0  0.00000000000E+00  0.00000000000E+00  0.12103953723E+04  0.25041013050E+04  0.21921374018E+04 0.  0.
        1    1    3    3  502    0 -0.36239262974E+02 -0.70901361132E+03 -0.34871903826E+03  0.79096052550E+03  0.50400001928E-02 0. -1.
       -1    1    3    3    0  502  0.36239262974E+02  0.70901361132E+03  0.15591144105E+04  0.17131407795E+04  0.50400001928E-02 0.  1.
</event>
<event>
 5   0  0.1252124E-04  0.2163532E+04  0.7818609E-02  0.8533762E-01
       -2   -1    0    0    0  501  0.00000000000E+00  0.00000000000E+00  0.84120227138E+03  0.84120227138E+03  0.25500000920E-02 0.  1.
        2   -1    0    0  501    0  0.00000000000E+00  0.00000000000E+00 -0.13911250279E+04  0.13911250279E+04  0.25500000920E-02 0. -1.
    10030    2    1    2    0    0  0.00000000000E+00  0.00000000000E+00 -0.54992275653E+03  0.22323272993E+04  0.21635318655E+04 0.  0.
        3    1    3    3  502    0 -0.83770324053E+03  0.14290023577E+03 -0.96561131012E+03  0.12863018343E+04  0.10100000352E+00 0. -1.
       -3    1    3    3    0  502  0.83770324053E+03 -0.14290023577E+03  0.41568855359E+03  0.94602546496E+03  0.10100000352E+00 0.  1.
</event>
<event>
 5   0  0.5849604E-05  0.2184763E+04  0.7818609E-02  0.8524797E-01
       -1   -1    0    0    0  501  0.00000000000E+00  0.00000000000E+00  0.10267849559E+04  0.10267849559E+04  0.50400001928E-02 0.  1.
        1   -1    0    0  501    0  0.00000000000E+00  0.00000000000E+00 -0.11621692347E+04  0.11621692348E+04  0.50400001928E-02 0. -1.
    10030    2    1    2    0    0  0.00000000000E+00  0.00000000000E+00 -0.13538427889E+03  0.21889541906E+04  0.21847634988E+04 0.  0.
        2    1    3    3  502    0 -0.59707806838E+03 -0.91418120489E+03 -0.34943186999E+02  0.10924516106E+04  0.25500000920E-02 0. -1.
       -2    1    3    3    0  502  0.59707806838E+03  0.91418120489E+03 -0.10044109189E+03  0.10965025801E+04  0.25500000920E-02 0.  1.
</event>
<event>
 5   0  0.1241430E-04  0.1998617E+04  0.7818609E-02  0.8607268E-01
        2   -1    0    0  501    0  0.00000000000E+00  0.00000000000E+00  0.21440812561E+04  0.21440812561E+04  0.25500000920E-02 0.  1.
       -2   -1    0    0    0  501  0.00000000000E+00  0.00000000000E+00 -0.46575537981E+03  0.46575537981E+03  0.25500000920E-02 0. -1.
    10030    2    1    2    0    0  0.00000000000E+00  0.00000000000E+00  0.16783258763E+04  0.26098366359E+04  0.19986169015E+04 0.  0.
        1    1    3    3  502    0  0.65087410218E+03  0.81336587098E+02  0.18236211682E+04  0.19380007488E+04  0.50400001928E-02 0.  1.
       -1    1    3    3    0  502 -0.65087410218E+03 -0.81336587098E+02 -0.14529529192E+03  0.67183588708E+03  0.50400001928E-02 0. -1.
</event>
<event>
 5   0  0.1226021E-04  0.2177027E+04  0.7818609E-02  0.8528051E-01
       -2   -1    0    0    0  501  0.00000000000E+00  0.00000000000E+00  0.89358232514E+03  0.89358232514E+03  0.25500000920E-02 0.  1.
        2   -1    0    0  501    0  0.00000000000E+00  0.00000000000E+00 -0.13259680640E+04  0.13259680640E+04  0.25500000920E-02 0. -1.
    10030    2    1    2    0    0  0.00000000000E+00  0.00000000000E+00 -0.43238573887E+03  0.22195503891E+04  0.21770269871E+04 0.  0.
        2    1    3    3  502    0 -0.36953007761E+02  0.13080200119E+03 -0.13172821125E+04  0.13242759729E+04  0.25500000920E-02 0. -1.
       -2    1    3    3    0  502  0.36953007761E+02 -0.13080200119E+03  0.88489637367E+03  0.89527441628E+03  0.25500000920E-02 0.  1.
</event>
<event>
 5   0  0.4586375E-05  0.2198233E+04  0.7818609E-02  0.8519164E-01
        3   -1    0    0  501    0  0.00000000000E+00  0.00000000000E+00  0.11138669315E+04  0.11138669361E+04  0.10100000352E+00 0.  1.
       -3   -1    0    0    0  501  0.00000000000E+00  0.00000000000E+00 -0.10845610344E+04  0.10845610391E+04  0.10100000352E+00 0. -1.
    10030    2    1    2    0    0  0.00000000000E+00  0.00000000000E+00  0.29305897055E+02  0.21984279752E+04  0.21982326370E+04 0.  0.
        4    1    3    3  502    0 -0.53552744017E+02 -0.87722909783E+03 -0.64544834053E+03  0.10904145816E+04  0.12699999809E+01 0. -1.
       -4    1    3    3    0  502  0.53552744017E+02  0.87722909783E+03  0.67475423759E+03  0.11080133937E+04  0.12699999809E+01 0.  1.
</event>
<event>
 5   0  0.5981239E-05  0.2125411E+04  0.7818609E-02  0.8550132E-01
       -1   -1    0    0    0  501  0.00000000000E+00  0.00000000000E+00  0.12443421383E+04  0.12443421383E+04  0.50400001928E-02 0. -1.
        1   -1    0    0  501    0  0.00000000000E+00  0.00000000000E+00 -0.90758198109E+03  0.90758198110E+03  0.50400001928E-02 0.  1.
    10030    2    1    2    0    0  0.00000000000E+00  0.00000000000E+00  0.33676015723E+03  0.21519241194E+04  0.21254105515E+04 0.  0.
        4    1    3    3  502    0 -0.66724122258E+03  0.23806948149E+03 -0.63362054925E+03  0.95045491237E+03  0.12699999809E+01 0.  1.
       -4    1    3    3    0  502  0.66724122258E+03 -0.23806948149E+03  0.97038070648E+03  0.12014692071E+04  0.12699999809E+01 0. -1.
</event>
<event>
 5   0  0.1311472E-04  0.2262508E+04  0.7818609E-02  0.8492852E-01
       -2   -1    0    0    0  501  0.00000000000E+00  0.00000000000E+00  0.11609864509E+04  0.11609864509E+04  0.25500000920E-02 0. -1.
        2   -1    0    0  501    0  0.00000000000E+00  0.00000000000E+00 -0.11022826793E+04  0.11022826793E+04  0.25500000920E-02 0.  1.
    10030    2    1    2    0    0  0.00000000000E+00  0.00000000000E+00  0.58703771574E+02  0.22632691303E+04  0.22625076847E+04 0.  0.
        4    1    3    3  502    0 -0.56061091908E+03  0.20894127958E+03 -0.93107153328E+03  0.11067234857E+04  0.12699999809E+01 0.  1.
       -4    1    3    3    0  502  0.56061091908E+03 -0.20894127958E+03  0.98977530485E+03  0.11565456445E+04  0.12699999809E+01 0. -1.
</event>
<event>
 5   0  0.1404159E-04  0.2219025E+04  0.7818609E-02  0.8510551E-01
       -2   -1    0    0    0  501  0.00000000000E+00  0.00000000000E+00  0.76646111637E+03  0.76646111637E+03  0.25500000920E-02 0. -1.
        2   -1    0    0  501    0  0.00000000000E+00  0.00000000000E+00 -0.16061059622E+04  0.16061059622E+04  0.25500000920E-02 0.  1.
    10030    2    1    2    0    0  0.00000000000E+00  0.00000000000E+00 -0.83964484583E+03  0.23725670786E+04  0.22190248027E+04 0.  0.
        5    1    3    3  502    0  0.35440910730E+03 -0.12009224834E+03 -0.15365887044E+04  0.15815039993E+04  0.46999998093E+01 0.  1.
       -5    1    3    3    0  502 -0.35440910730E+03  0.12009224834E+03  0.69694385853E+03  0.79106307927E+03  0.46999998093E+01 0. -1.
</event>
<event>
 5   0  0.5861816E-05  0.2294720E+04  0.7818609E-02  0.8480006E-01
       -1   -1    0    0    0  501  0.00000000000E+00  0.00000000000E+00  0.17854598417E+04  0.17854598417E+04  0.50400001928E-02 0.  1.
        1   -1    0    0  501    0  0.00000000000E+00  0.00000000000E+00 -0.73730871683E+03  0.73730871685E+03  0.50400001928E-02 0. -1.
    10030    2    1    2    0    0  0.00000000000E+00  0.00000000000E+00  0.10481511248E+04  0.25227685585E+04  0.22947201179E+04 0.  0.
        1    1    3    3  502    0 -0.18121068532E+03  0.97924346754E+03 -0.10235865366E+03  0.10011155654E+04  0.50400001928E-02 0. -1.
       -1    1    3    3    0  502  0.18121068532E+03 -0.97924346754E+03  0.11505097785E+04  0.15216529932E+04  0.50400001928E-02 0.  1.
</event>
<event>
 5   0  0.1311472E-04  0.2099641E+04  0.7818609E-02  0.8561401E-01
        2   -1    0    0  501    0  0.00000000000E+00  0.00000000000E+00  0.14331978087E+04  0.14331978087E+04  0.25500000920E-02 0.  1.
       -2   -1    0    0    0  501  0.00000000000E+00  0.00000000000E+00 -0.76899604194E+03  0.76899604194E+03  0.25500000920E-02 0. -1.
    10030    2    1    2    0    0  0.00000000000E+00  0.00000000000E+00  0.66420176681E+03  0.22021938507E+04  0.20996413429E+04 0.  0.
        4    1    3    3  502    0  0.25401887575E+03 -0.28632054983E+03 -0.69320231970E+03  0.79185612041E+03  0.12699999809E+01 0. -1.
       -4    1    3    3    0  502 -0.25401887575E+03  0.28632054983E+03  0.13574040865E+04  0.14103377303E+04  0.12699999809E+01 0.  1.
</event>
<event>
 5   0  0.4586375E-05  0.2234972E+04  0.7818609E-02  0.8504011E-01
        3   -1    0    0  501    0  0.00000000000E+00  0.00000000000E+00  0.10240938161E+04  0.10240938211E+04  0.10100000352E+00 0. -1.
       -3   -1    0    0    0  501  0.00000000000E+00  0.00000000000E+00 -0.12193953151E+04  0.12193953193E+04  0.10100000352E+00 0.  1.
    10030    2    1    2    0    0  0.00000000000E+00  0.00000000000E+00 -0.19530149896E+03  0.22434891404E+04  0.22349722252E+04 0.  0.
        5    1    3    3  502    0 -0.73270976532E+03 -0.78993501127E+03  0.19994519472E+03  0.10958380780E+04  0.46999998093E+01 0. -1.
       -5    1    3    3    0  502  0.73270976532E+03  0.78993501127E+03 -0.39524669368E+03  0.11476510624E+04  0.46999998093E+01 0.  1.
</event>
<event>
 5   0  0.6263558E-05  0.2220603E+04  0.7818609E-02  0.8509901E-01
        1   -1    0    0  501    0  0.00000000000E+00  0.00000000000E+00  0.14541603205E+04  0.14541603205E+04  0.50400001928E-02 0. -1.
       -1   -1    0    0    0  501  0.00000000000E+00  0.00000000000E+00 -0.84775319043E+03  0.84775319045E+03  0.50400001928E-02 0.  1.
    10030    2    1    2    0    0  0.00000000000E+00  0.00000000000E+00  0.60640713007E+03  0.23019135110E+04  0.22206026670E+04 0.  0.
        3    1    3    3  502    0 -0.98492343037E+03 -0.32815734773E+03  0.71132996310E+03  0.12584719843E+04  0.10100000352E+00 0. -1.
       -3    1    3    3    0  502  0.98492343037E+03  0.32815734773E+03 -0.10492283303E+03  0.10434415267E+04  0.10100000352E+00 0.  1.
</event>
<event>
 5   0  0.5849604E-05  0.2230148E+04  0.7818609E-02  0.8505984E-01
       -1   -1    0    0    0  501  0.00000000000E+00  0.00000000000E+00  0.63402933593E+03  0.63402933595E+03  0.50400001928E-02 0. -1.
        1   -1    0    0  501    0  0.00000000000E+00  0.00000000000E+00 -0.19610920711E+04  0.19610920711E+04  0.50400001928E-02 0.  1.
    10030    2    1    2    0    0  0.00000000000E+00  0.00000000000E+00 -0.13270627352E+04  0.25951214071E+04  0.22301478907E+04 0.  0.
        2    1    3    3  502    0 -0.75603213250E+03  0.34126103159E+03 -0.15307047300E+04  0.17410056426E+04  0.25500000920E-02 0.  1.
       -2    1    3    3    0  502  0.75603213250E+03 -0.34126103159E+03  0.20364199483E+03  0.85411576447E+03  0.25500000920E-02 0. -1.
</event>
<event>
 5   0  0.5849604E-05  0.2194525E+04  0.7818609E-02  0.8520710E-01
        1   -1    0    0  501    0  0.00000000000E+00  0.00000000000E+00  0.15045059639E+04  0.15045059639E+04  0.50400001928E-02 0.  1.
       -1   -1    0    0    0  501  0.00000000000E+00  0.00000000000E+00 -0.80025255072E+03  0.80025255074E+03  0.50400001928E-02 0. -1.
    10030    2    1    2    0    0  0.00000000000E+00  0.00000000000E+00  0.70425341316E+03  0.23047585146E+04  0.21945247642E+04 0.  0.
        2    1    3    3  502    0 -0.79390508492E+03  0.55991675878E+03 -0.18358665032E+03  0.98868403385E+03  0.25500000920E-02 0.  1.
       -2    1    3    3    0  502  0.79390508492E+03 -0.55991675878E+03  0.88784006348E+03  0.13160744808E+04  0.25500000920E-02 0. -1.
</event>
<event>
 5   0  0.5861816E-05  0.2132184E+04  0.7818609E-02  0.8547197E-01
       -1   -1    0    0    0  501  0.00000000000E+00  0.00000000000E+00  0.11585681835E+04  0.11585681835E+04  0.50400001928E-02 0. -1.
        1   -1    0    0  501    0  0.00000000000E+00  0.00000000000E+00 -0.98099726700E+03  0.98099726701E+03  0.50400001928E-02 0.  1.
    10030    2    1    2    0    0  0.00000000000E+00  0.00000000000E+00  0.17757091649E+03  0.21395654505E+04  0.21321840649E+04 0.  0.
        1    1    3    3  502    0  0.81887484473E+03  0.92640155946E+01 -0.59615383298E+03  0.10129369309E+04  0.50400001928E-02 0.  1.
       -1    1    3    3    0  502 -0.81887484473E+03 -0.92640155946E+01  0.77372474948E+03  0.11266285197E+04  0.50400001928E-02 0. -1.
</event>
<event>
 5   0  0.5895063E-05  0.1528464E+04  0.7818609E-02  0.8865742E-01
       -1   -1    0    0    0  501  0.00000000000E+00  0.00000000000E+00  0.81393335157E+03  0.81393335158E+03  0.50400001928E-02 0. -1.
        1   -1    0    0  501    0  0.00000000000E+00  0.00000000000E+00 -0.71756523813E+03  0.71756523815E+03  0.50400001928E-02 0.  1.
    10030    2    1    2    0    0  0.00000000000E+00  0.00000000000E+00  0.96368113438E+02  0.15314985897E+04  0.15284636460E+04 0.  0.
        5    1    3    3  502    0  0.69118503994E+03  0.15162303069E+03  0.33737780865E+03  0.78394654067E+03  0.46999998093E+01 0. -1.
       -5    1    3    3    0  502 -0.69118503994E+03 -0.15162303069E+03 -0.24100969521E+03  0.74755204906E+03  0.46999998093E+01 0.  1.
</event>
<event>
 5   0  0.5849604E-05  0.2221901E+04  0.7818609E-02  0.8509367E-01
       -1   -1    0    0    0  501  0.00000000000E+00  0.00000000000E+00  0.94054715278E+03  0.94054715279E+03  0.50400001928E-02 0.  1.
        1   -1    0    0  501    0  0.00000000000E+00  0.00000000000E+00 -0.13122268780E+04  0.13122268780E+04  0.50400001928E-02 0. -1.
    10030    2    1    2    0    0  0.00000000000E+00  0.00000000000E+00 -0.37167972524E+03  0.22527740308E+04  0.22219012165E+04 0.  0.
        2    1    3    3  502    0 -0.39944502039E+03  0.86385979194E+02  0.86156417726E+03  0.95357836242E+03  0.25500000920E-02 0.  1.
       -2    1    3    3    0  502  0.39944502039E+03 -0.86385979194E+02 -0.12332439025E+04  0.12991956684E+04  0.25500000920E-02 0. -1.
</event>
<event>
 5   0  0.1311472E-04  0.2140833E+04  0.7818609E-02  0.8543466E-01
        2   -1    0    0  501    0  0.00000000000E+00  0.00000000000E+00  0.16497998431E+04  0.16497998431E+04  0.25500000920E-02 0.  1.
       -2   -1    0    0    0  501  0.00000000000E+00  0.00000000000E+00 -0.69450331709E+03  0.69450331709E+03  0.25500000920E-02 0. -1.
    10030    2    1    2    0    0  0.00000000000E+00  0.00000000000E+00  0.95529652602E+03  0.23443031602E+04  0.21408329814E+04 0.  0.
        4    1    3    3  502    0 -0.69002750725E+03  0.78679419763E+03  0.72398849198E+03  0.12725344866E+04  0.12699999809E+01 0.  1.
       -4    1    3    3    0  502  0.69002750725E+03 -0.78679419763E+03  0.23130803404E+03  0.10717686736E+04  0.12699999809E+01 0. -1.
</event>
<event>
 5   0  0.1311472E-04  0.2173804E+04  0.7818609E-02  0.8529411E-01
       -2   -1    0    0    0  501  0.00000000000E+00  0.00000000000E+00  0.75299493515E+03  0.75299493515E+03  0.25500000920E-02 0. -1.
        2   -1    0    0  501    0  0.00000000000E+00  0.00000000000E+00 -0.15688765109E+04  0.15688765109E+04  0.25500000920E-02 0.  1.
    10030    2    1    2    0    0  0.00000000000E+00  0.00000000000E+00 -0.81588157574E+03  0.23218714460E+04  0.21738041003E+04 0.  0.
        4    1    3    3  502    0 -0.92754542224E+03 -0.55412228164E+03 -0.28172943193E+03  0.11165863599E+04  0.12699999809E+01 0. -1.
       -4    1    3    3    0  502  0.92754542224E+03  0.55412228164E+03 -0.53415214382E+03  0.12052850862E+04  0.12699999809E+01 0.  1.
</event>
<event>
 5   0  0.1241430E-04  0.2235800E+04  0.7818609E-02  0.8503673E-01
        2   -1    0    0  501    0  0.00000000000E+00  0.00000000000E+00  0.11717823023E+04  0.11717823023E+04  0.25500000920E-02 0. -1.
       -2   -1    0    0    0  501  0.00000000000E+00  0.00000000000E+00 -0.10664956117E+04  0.10664956117E+04  0.25500000920E-02 0.  1.
    10030    2    1    2    0    0  0.00000000000E+00  0.00000000000E+00  0.10528669062E+03  0.22382779140E+04  0.22358002444E+04 0.  0.
        1    1    3    3  502    0 -0.88730981020E+03 -0.59453723766E+03 -0.27773366492E+03  0.11035983032E+04  0.50400001928E-02 0.  1.
       -1    1    3    3    0  502  0.88730981020E+03  0.59453723766E+03  0.38302035554E+03  0.11346796107E+04  0.50400001928E-02 0. -1.
</event>
<event>
 5   0  0.5981239E-05  0.2172281E+04  0.7818609E-02  0.8530055E-01
        1   -1    0    0  501    0  0.00000000000E+00  0.00000000000E+00  0.18252240549E+04  0.18252240549E+04  0.50400001928E-02 0.  1.
       -1   -1    0    0    0  501  0.00000000000E+00  0.00000000000E+00 -0.64633205410E+03  0.64633205412E+03  0.50400001928E-02 0. -1.
    10030    2    1    2    0    0  0.00000000000E+00  0.00000000000E+00  0.11788920008E+04  0.24715561091E+04  0.21722806565E+04 0.  0.
        4    1    3    3  502    0 -0.98112440198E+03  0.43293823091E+03  0.39350296482E+03  0.11423164186E+04  0.12699999809E+01 0. -1.
       -4    1    3    3    0  502  0.98112440198E+03 -0.43293823091E+03  0.78538903602E+03  0.13292396905E+04  0.12699999809E+01 0.  1.
</event>
<event>
 5   0  0.5981239E-05  0.2217210E+04  0.7818609E-02  0.8511299E-01
       -1   -1    0    0    0  501  0.00000000000E+00  0.00000000000E+00  0.12712312976E+04  0.12712312976E+04  0.50400001928E-02 0.  1.
        1   -1    0    0  501    0  0.00000000000E+00  0.00000000000E+00 -0.96678326121E+03  0.96678326122E+03  0.50400001928E-02 0. -1.
    10030    2    1    2    0    0  0.00000000000E+00  0.00000000000E+00  0.30444803638E+03  0.22380145588E+04  0.22172100845E+04 0.  0.
        4    1    3    3  502    0  0.16331700520E+03 -0.10287890648E+04 -0.23070906454E+03  0.10669150244E+04  0.12699999809E+01 0. -1.
       -4    1    3    3    0  502 -0.16331700520E+03  0.10287890648E+04  0.53515710091E+03  0.11710995344E+04  0.12699999809E+01 0.  1.
</event>
<event>
 5   0  0.1404159E-04  0.2124331E+04  0.7818609E-02  0.8550600E-01
       -2   -1    0    0    0  501  0.00000000000E+00  0.00000000000E+00  0.95094131986E+03  0.95094131986E+03  0.25500000920E-02 0. -1.
        2   -1    0    0  501    0  0.00000000000E+00  0.00000000000E+00 -0.11863987285E+04  0.11863987285E+04  0.25500000920E-02 0.  1.
    10030    2    1    2    0    0  0.00000000000E+00  0.00000000000E+00 -0.23545740861E+03  0.21373400483E+04  0.21243310220E+04 0.  0.
        5    1    3    3  502    0 -0.61978032753E+02 -0.80806324558E+03 -0.80849407520E+03  0.11447673323E+04  0.46999998093E+01 0.  1.
       -5    1    3    3    0  502  0.61978032753E+02  0.80806324558E+03  0.57303666660E+03  0.99257271606E+03  0.46999998093E+01 0. -1.
</event>
<event>
 5   0  0.5895063E-05  0.2151421E+04  0.7818609E-02  0.8538924E-01
       -1   -1    0    0    0  501  0.00000000000E+00  0.00000000000E+00  0.71473204345E+03  0.71473204347E+03  0.50400001928E-02 0. -1.
        1   -1    0    0  501    0  0.00000000000E+00  0.00000000000E+00 -0.16190030598E+04  0.16190030598E+04  0.50400001928E-02 0.  1.
    10030    2    1    2    0    0  0.00000000000E+00  0.00000000000E+00 -0.90427101636E+03  0.23337351033E+04  0.21514212654E+04 0.  0.
        5    1    3    3  502    0  0.60117797833E+03 -0.56980130908E+03  0.29235005132E+03  0.87839577410E+03  0.46999998093E+01 0. -1.
       -5    1    3    3    0  502 -0.60117797833E+03  0.56980130908E+03 -0.11966210677E+04  0.14553393292E+04  0.46999998093E+01 0.  1.
</event>
<event>
 5   0  0.5895063E-05  0.2179643E+04  0.7818609E-02  0.8526949E-01
        1   -1    0    0  501    0  0.00000000000E+00  0.00000000000E+00  0.14212972539E+04  0.14212972539E+04  0.50400001928E-02 0.  1.
       -1   -1    0    0    0  501  0.00000000000E+00  0.00000000000E+00 -0.83565286866E+03  0.83565286868E+03  0.50400001928E-02 0. -1.
    10030    2    1    2    0    0  0.00000000000E+00  0.00000000000E+00  0.58564438523E+03  0.22569501226E+04  0.21796432070E+04 0.  0.
        5    1    3    3  502    0 -0.63931164927E+03 -0.85526832886E+03  0.51846326244E+03  0.11870255026E+04  0.46999998093E+01 0.  1.
       -5    1    3    3    0  502  0.63931164927E+03  0.85526832886E+03  0.67181122789E+02  0.10699246200E+04  0.46999998093E+01 0. -1.
</event>
<event>
 5   0  0.1226021E-04  0.2191545E+04  0.7818609E-02  0.8521955E-01
       -2   -1    0    0    0  501  0.00000000000E+00  0.00000000000E+00  0.77644867505E+03  0.77644867505E+03  0.25500000920E-02 0. -1.
        2   -1    0    0  501    0  0.00000000000E+00  0.00000000000E+00 -0.15464222660E+04  0.15464222660E+04  0.25500000920E-02 0.  1.
    10030    2    1    2    0    0  0.00000000000E+00  0.00000000000E+00 -0.76997359100E+03  0.23228709411E+04  0.21915451349E+04 0.  0.
        2    1    3    3  502    0  0.13557713994E+02 -0.10953699967E+04 -0.41299523647E+03  0.11707195679E+04  0.25500000920E-02 0.  1.
       -2    1    3    3    0  502 -0.13557713994E+02  0.10953699967E+04 -0.35697835453E+03  0.11521513732E+04  0.25500000920E-02 0. -1.
</event>
<event>
 5   0  0.6263558E-05  0.1704073E+04  0.7818609E-02  0.8759045E-01
        1   -1    0    0  501    0  0.00000000000E+00  0.00000000000E+00  0.16980840132E+04  0.16980840132E+04  0.50400001928E-02 0. -1.
       -1   -1    0    0    0  501  0.00000000000E+00  0.00000000000E+00 -0.42752075912E+03  0.42752075915E+03  0.50400001928E-02 0.  1.
    10030    2    1    2    0    0  0.00000000000E+00  0.00000000000E+00  0.12705632541E+04  0.21256047723E+04  0.17040729637E+04 0.  0.
        3    1    3    3  502    0 -0.37265563539E+03  0.29082468207E+03  0.15195189017E+04  0.15913481458E+04  0.10100000352E+00 0. -1.
       -3    1    3    3    0  502  0.37265563539E+03 -0.29082468207E+03 -0.24895564765E+03  0.53425662653E+03  0.10100000352E+00 0.  1.
</event>
<event>
 5   0  0.1252124E-04  0.2222006E+04  0.7818609E-02  0.8509324E-01
        2   -1    0    0  501    0  0.00000000000E+00  0.00000000000E+00  0.16551211701E+04  0.16551211701E+04  0.25500000920E-02 0.  1.
       -2   -1    0    0    0  501  0.00000000000E+00  0.00000000000E+00 -0.74576263512E+03  0.74576263513E+03  0.25500000920E-02 0. -1.
    10030    2    1    2    0    0  0.00000000000E+00  0.00000000000E+00  0.90935853497E+03  0.24008838052E+04  0.22220058733E+04 0.  0.
        3    1    3    3  502    0  0.26206495302E+03  0.60486666147E+03 -0.51162252112E+03  0.83444552373E+03  0.10100000352E+00 0. -1.
       -3    1    3    3    0  502 -0.26206495302E+03 -0.60486666147E+03  0.14209810561E+04  0.15664382815E+04  0.10100000352E+00 0.  1.
</event>
<event>
 5   0  0.1311472E-04  0.2181476E+04  0.7818609E-02  0.8526178E-01
       -2   -1    0    0    0  501  0.00000000000E+00  0.00000000000E+00  0.55717836210E+03  0.55717836210E+03  0.25500000920E-02 0. -1.
        2   -1    0    0  501    0  0.00000000000E+00  0.00000000000E+00 -0.21352388157E+04  0.21352388157E+04  0.25500000920E-02 0.  1.
    10030    2    1    2    0    0  0.00000000000E+00  0.00000000000E+00 -0.15780604536E+04  0.26924171778E+04  0.21814755245E+04 0.  0.
        4    1    3    3  502    0  0.33421514717E+03  0.84781053546E+03 -0.49296952296E+02  0.91264137045E+03  0.12699999809E+01 0. -1.
       -4    1    3    3    0  502 -0.33421514717E+03 -0.84781053546E+03 -0.15287635013E+04  0.17797758074E+04  0.12699999809E+01 0.  1.
</event>
<event>
 5   0  0.1311472E-04  0.2224144E+04  0.7818609E-02  0.8508446E-01
       -2   -1    0    0    0  501  0.00000000000E+00  0.00000000000E+00  0.96035868610E+03  0.96035868611E+03  0.25500000920E-02 0.  1.
        2   -1    0    0  501    0  0.00000000000E+00  0.00000000000E+00 -0.12877522485E+04  0.12877522485E+04  0.25500000920E-02 0. -1.
    10030    2    1    2    0    0  0.00000000000E+00  0.00000000000E+00 -0.32739356239E+03  0.22481109346E+04  0.22241439318E+04 0.  0.
        4    1    3    3  502    0  0.55917841711E+03 -0.84407350048E+03 -0.62861176798E+03  0.11917612782E+04  0.12699999809E+01 0. -1.
       -4    1    3    3    0  502 -0.55917841711E+03  0.84407350048E+03  0.30121820559E+03  0.10563496564E+04  0.12699999809E+01 0.  1.
</event>
<event>
 5   0  0.5849604E-05  0.2211255E+04  0.7818609E-02  0.8513758E-01
       -1   -1    0    0    0  501  0.00000000000E+00  0.00000000000E+00  0.87882717868E+03  0.87882717870E+03  0.50400001928E-02 0.  1.
        1   -1    0    0  501    0  0.00000000000E+00  0.00000000000E+00 -0.13909590439E+04  0.13909590439E+04  0.50400001928E-02 0. -1.
    10030    2    1    2    0    0  0.00000000000E+00  0.00000000000E+00 -0.51213186525E+03  0.22697862226E+04  0.22112554011E+04 0.  0.
        2    1    3    3  502    0 -0.14704684689E+03 -0.40060518922E+03 -0.13030171795E+04  0.13711167211E+04  0.25500000920E-02 0. -1.
       -2    1    3    3    0  502  0.14704684689E+03  0.40060518922E+03  0.79088531421E+03  0.89866950157E+03  0.25500000920E-02 0.  1.
</event>
<event>
 5   0  0.1241430E-04  0.2184039E+04  0.7818609E-02  0.8525101E-01
        2   -1    0    0  501    0  0.00000000000E+00  0.00000000000E+00  0.10176098802E+04  0.10176098802E+04  0.25500000920E-02 0. -1.
       -2   -1    0    0    0  501  0.00000000000E+00  0.00000000000E+00 -0.11718696714E+04  0.11718696714E+04  0.25500000920E-02 0.  1.
    10030    2    1    2    0    0  0.00000000000E+00  0.00000000000E+00 -0.15425979115E+03  0.21894795516E+04  0.21840386040E+04 0.  0.
        1    1    3    3  502    0 -0.71852282491E+03 -0.13576088932E+03  0.73593937274E+03  0.10374549770E+04  0.50400001928E-02 0. -1.
       -1    1    3    3    0  502  0.71852282491E+03  0.13576088932E+03 -0.89019916389E+03  0.11520245746E+04  0.50400001928E-02 0.  1.
</event>
<event>
 5   0  0.5861816E-05  0.2063735E+04  0.7818609E-02  0.8577389E-01
       -1   -1    0    0    0  501  0.00000000000E+00  0.00000000000E+00  0.60160222479E+03  0.60160222481E+03  0.50400001928E-02 0. -1.
        1   -1    0    0  501    0  0.00000000000E+00  0.00000000000E+00 -0.17698580261E+04  0.17698580262E+04  0.50400001928E-02 0.  1.
    10030    2    1    2    0    0  0.00000000000E+00  0.00000000000E+00 -0.11682558014E+04  0.23714602510E+04  0.20637349889E+04 0.  0.
        1    1    3    3  502    0 -0.28410989699E+03  0.11372417226E+03 -0.17165117187E+04  0.17435779596E+04  0.50400001928E-02 0.  1.
       -1    1    3    3    0  502  0.28410989699E+03 -0.11372417226E+03  0.54825591730E+03  0.62788229136E+03  0.50400001928E-02 0. -1.
</event>
<event>
 5   0  0.5895063E-05  0.2179553E+04  0.7818609E-02  0.8526987E-01
        1   -1    0    0  501    0  0.00000000000E+00  0.00000000000E+00  0.21460601976E+04  0.21460601976E+04  0.50400001928E-02 0.  1.
       -1   -1    0    0    0  501  0.00000000000E+00  0.00000000000E+00 -0.55339204428E+03  0.55339204430E+03  0.50400001928E-02 0. -1.
    10030    2    1    2    0    0  0.00000000000E+00  0.00000000000E+00  0.15926681533E+04  0.26994522419E+04  0.21795528348E+04 0.  0.
        5    1    3    3  502    0  0.39584525438E+03  0.10152741850E+04  0.78302840221E+03  0.13418758158E+04  0.46999998093E+01 0. -1.
       -5    1    3    3    0  502 -0.39584525438E+03 -0.10152741850E+04  0.80963975109E+03  0.13575764261E+04  0.46999998093E+01 0.  1.
</event>
<event>
 5   0  0.1241430E-04  0.2218219E+04  0.7818609E-02  0.8510883E-01
        2   -1    0    0  501    0  0.00000000000E+00  0.00000000000E+00  0.97890735928E+03  0.97890735928E+03  0.25500000920E-02 0. -1.
       -2   -1    0    0    0  501  0.00000000000E+00  0.00000000000E+00 -0.12566295327E+04  0.12566295327E+04  0.25500000920E-02 0.  1.
    10030    2    1    2    0    0  0.00000000000E+00  0.00000000000E+00 -0.27772217345E+03  0.22355368920E+04  0.22182190131E+04 0.  0.
        1    1    3    3  502    0  0.30694574221E+03 -0.98350427799E+03  0.27498768930E+03  0.10663557487E+04  0.50400001928E-02 0. -1.
       -1    1    3    3    0  502 -0.30694574221E+03  0.98350427799E+03 -0.55270986276E+03  0.11691811433E+04  0.50400001928E-02 0.  1.
</event>
<event>
 5   0  0.5895063E-05  0.2207236E+04  0.7818609E-02  0.8515422E-01
        1   -1    0    0  501    0  0.00000000000E+00  0.00000000000E+00  0.13344395570E+04  0.13344395570E+04  0.50400001928E-02 0.  1.
       -1   -1    0    0    0  501  0.00000000000E+00  0.00000000000E+00 -0.91272216680E+03  0.91272216681E+03  0.50400001928E-02 0. -1.
    10030    2    1    2    0    0  0.00000000000E+00  0.00000000000E+00  0.42171739024E+03  0.22471617239E+04  0.22072358859E+04 0.  0.
        5    1    3    3  502    0 -0.20172273567E+03  0.67643182697E+03  0.10745545746E+04  0.12856678040E+04  0.46999998093E+01 0.  1.
       -5    1    3    3    0  502  0.20172273567E+03 -0.67643182697E+03 -0.65283718432E+03  0.96149391983E+03  0.46999998093E+01 0. -1.
</event>
<event>
 5   0  0.6263558E-05  0.2215805E+04  0.7818609E-02  0.8511878E-01
        1   -1    0    0  501    0  0.00000000000E+00  0.00000000000E+00  0.86983357739E+03  0.86983357740E+03  0.50400001928E-02 0. -1.
       -1   -1    0    0    0  501  0.00000000000E+00  0.00000000000E+00 -0.14111301931E+04  0.14111301932E+04  0.50400001928E-02 0.  1.
    10030    2    1    2    0    0  0.00000000000E+00  0.00000000000E+00 -0.54129661575E+03  0.22809637706E+04  0.22158054284E+04 0.  0.
        3    1    3    3  502    0  0.59027541725E+02 -0.17212379080E+03  0.85434596401E+03  0.87350895042E+03  0.10100000352E+00 0. -1.
       -3    1    3    3    0  502 -0.59027541725E+02  0.17212379080E+03 -0.13956425798E+04  0.14074548201E+04  0.10100000352E+00 0.  1.
</event>
<event>
 5   0  0.5981239E-05  0.2206333E+04  0.7818609E-02  0.8515797E-01
        1   -1    0    0  501    0  0.00000000000E+00  0.00000000000E+00  0.99881898305E+03  0.99881898306E+03  0.50400001928E-02 0.  1.
       -1   -1    0    0    0  501  0.00000000000E+00  0.00000000000E+00 -0.12184153290E+04  0.12184153290E+04  0.50400001928E-02 0. -1.
    10030    2    1    2    0    0  0.00000000000E+00  0.00000000000E+00 -0.21959634594E+03  0.22172343121E+04  0.22063330300E+04 0.  0.
        4    1    3    3  502    0  0.89462141533E+03  0.64531062625E+03 -0.95534176087E+02  0.11072044404E+04  0.12699999809E+01 0.  1.
       -4    1    3    3    0  502 -0.89462141533E+03 -0.64531062625E+03 -0.12406216985E+03  0.11100298717E+04  0.12699999809E+01 0. -1.
</event>
<event>
 5   0  0.1404159E-04  0.1398217E+04  0.7818609E-02  0.8955110E-01
       -2   -1    0    0    0  501  0.00000000000E+00  0.00000000000E+00  0.40057474906E+03  0.40057474907E+03  0.25500000920E-02 0. -1.
        2   -1    0    0  501    0  0.00000000000E+00  0.00000000000E+00 -0.12201286833E+04  0.12201286833E+04  0.25500000920E-02 0.  1.
    10030    2    1    2    0    0  0.00000000000E+00  0.00000000000E+00 -0.81955393425E+03  0.16207034324E+04  0.13982170663E+04 0.  0.
        5    1    3    3  502    0 -0.19626888738E+02  0.50877981497E+03  0.14549973380E+03  0.52956055123E+03  0.46999998093E+01 0. -1.
       -5    1    3    3    0  502  0.19626888738E+02 -0.50877981497E+03 -0.96505366805E+03  0.10911428812E+04  0.46999998093E+01 0.  1.
</event>
<event>
 5   0  0.1241430E-04  0.2181340E+04  0.7818609E-02  0.8526235E-01
        2   -1    0    0  501    0  0.00000000000E+00  0.00000000000E+00  0.16707319104E+04  0.16707319104E+04  0.25500000920E-02 0. -1.
       -2   -1    0    0    0  501  0.00000000000E+00  0.00000000000E+00 -0.71199972239E+03  0.71199972239E+03  0.25500000920E-02 0.  1.
    10030    2    1    2    0    0  0.00000000000E+00  0.00000000000E+00  0.95873218798E+03  0.23827316328E+04  0.21813396401E+04 0.  0.
        1    1    3    3  502    0  0.52083305828E+03 -0.49829778314E+03 -0.41473564478E+03  0.83160892874E+03  0.50400001928E-02 0.  1.
       -1    1    3    3    0  502 -0.52083305828E+03  0.49829778314E+03  0.13734678328E+04  0.15511227040E+04  0.50400001928E-02 0. -1.
</event>
<event>
 5   0  0.5849604E-05  0.2216953E+04  0.7818609E-02  0.8511405E-01
       -1   -1    0    0    0  501  0.00000000000E+00  0.00000000000E+00  0.37239058697E+03  0.37239058701E+03  0.50400001928E-02 0. -1.
        1   -1    0    0  501    0  0.00000000000E+00  0.00000000000E+00 -0.32995456358E+04  0.32995456358E+04  0.50400001928E-02 0.  1.
    10030    2    1    2    0    0  0.00000000000E+00  0.00000000000E+00 -0.29271550489E+04  0.36719362228E+04  0.22169526257E+04 0.  0.
        2    1    3    3  502    0 -0.67557671456E+03 -0.43546441839E+02 -0.29173698203E+04  0.29948867855E+04  0.25500000920E-02 0.  1.
       -2    1    3    3    0  502  0.67557671456E+03  0.43546441839E+02 -0.97852285682E+01  0.67704943730E+03  0.25500000920E-02 0. -1.
</event>
<event>
 5   0  0.5895063E-05  0.1765395E+04  0.7818609E-02  0.8724922E-01
       -1   -1    0    0    0  501  0.00000000000E+00  0.00000000000E+00  0.50528070546E+03  0.50528070549E+03  0.50400001928E-02 0.  1.
        1   -1    0    0  501    0  0.00000000000E+00  0.00000000000E+00 -0.15420238505E+04  0.15420238505E+04  0.50400001928E-02 0. -1.
    10030    2    1    2    0    0  0.00000000000E+00  0.00000000000E+00 -0.10367431451E+04  0.20473045560E+04  0.17653950255E+04 0.  0.
        5    1    3    3  502    0  0.37877503618E+03 -0.13964155441E+03 -0.14286792219E+04  0.14846267884E+04  0.46999998093E+01 0. -1.
       -5    1    3    3    0  502 -0.37877503618E+03  0.13964155441E+03  0.39193607688E+03  0.56267776757E+03  0.46999998093E+01 0.  1.
</event>
<event>
 5   0  0.1252124E-04  0.2186862E+04  0.7818609E-02  0.8523916E-01
       -2   -1    0    0    0  501  0.00000000000E+00  0.00000000000E+00  0.46987311010E+03  0.46987311011E+03  0.25500000920E-02 0. -1.
        2   -1    0    0  501    0  0.00000000000E+00  0.00000000000E+00 -0.25444985697E+04  0.25444985697E+04  0.25500000920E-02 0.  1.
    10030    2    1    2    0    0  0.00000000000E+00  0.00000000000E+00 -0.20746254596E+04  0.30143716798E+04  0.21868620959E+04 0.  0.
        3    1    3    3  502    0 -0.13878136864E+03 -0.50794057953E+03  0.28360025520E+03  0.59807442310E+03  0.10100000352E+00 0. -1.
       -3    1    3    3    0  502  0.13878136864E+03  0.50794057953E+03 -0.23582257148E+04  0.24162972567E+04  0.10100000352E+00 0.  1.
</event>
<event>
 5   0  0.1241430E-04  0.2249508E+04  0.7818609E-02  0.8498100E-01
       -2   -1    0    0    0  501  0.00000000000E+00  0.00000000000E+00  0.11522846972E+04  0.11522846972E+04  0.25500000920E-02 0. -1.
        2   -1    0    0  501    0  0.00000000000E+00  0.00000000000E+00 -0.10978806031E+04  0.10978806031E+04  0.25500000920E-02 0.  1.
    10030    2    1    2    0    0  0.00000000000E+00  0.00000000000E+00  0.54404094105E+02  0.22501653003E+04  0.22495075180E+04 0.  0.
        1    1    3    3  502    0  0.97192688690E+03  0.56413541893E+03 -0.19506081214E+02  0.11239533494E+04  0.50400001928E-02 0.  1.
       -1    1    3    3    0  502 -0.97192688690E+03 -0.56413541893E+03  0.73910175319E+02  0.11262119509E+04  0.50400001928E-02 0. -1.
</event>
<event>
 5   0  0.5895063E-05  0.2296630E+04  0.7818609E-02  0.8479251E-01
       -1   -1    0    0    0  501  0.00000000000E+00  0.00000000000E+00  0.10620183877E+04  0.10620183878E+04  0.50400001928E-02 0.  1.
        1   -1    0    0  501    0  0.00000000000E+00  0.00000000000E+00 -0.12416242246E+04  0.12416242246E+04  0.50400001928E-02 0. -1.
    10030    2    1    2    0    0  0.00000000000E+00  0.00000000000E+00 -0.17960583682E+03  0.23036426123E+04  0.22966303640E+04 0.  0.
        5    1    3    3  502    0  0.14506645459E+03 -0.19540575249E+03  0.10358436437E+04  0.10640591283E+04  0.46999998093E+01 0.  1.
       -5    1    3    3    0  502 -0.14506645459E+03  0.19540575249E+03 -0.12154494805E+04  0.12395834841E+04  0.46999998093E+01 0. -1.
</event>
<event>
 5   0  0.5849604E-05  0.2246649E+04  0.7818609E-02  0.8499259E-01
        1   -1    0    0  501    0  0.00000000000E+00  0.00000000000E+00  0.18304172804E+04  0.18304172804E+04  0.50400001928E-02 0. -1.
       -1   -1    0    0    0  501  0.00000000000E+00  0.00000000000E+00 -0.68938258076E+03  0.68938258078E+03  0.50400001928E-02 0.  1.
    10030    2    1    2    0    0  0.00000000000E+00  0.00000000000E+00  0.11410346996E+04  0.25197998612E+04  0.22466488721E+04 0.  0.
        2    1    3    3  502    0 -0.86582111692E+03 -0.70648297395E+03  0.69885583003E+03  0.13180151252E+04  0.25500000920E-02 0. -1.
       -2    1    3    3    0  502  0.86582111692E+03  0.70648297395E+03  0.44217886958E+03  0.12017847360E+04  0.25500000920E-02 0.  1.
</event>
<event>
 5   0  0.5895063E-05  0.2188779E+04  0.7818609E-02  0.8523113E-01
       -1   -1    0    0    0  501  0.00000000000E+00  0.00000000000E+00  0.48307876913E+03  0.48307876915E+03  0.50400001928E-02 0. -1.
        1   -1    0    0  501    0  0.00000000000E+00  0.00000000000E+00 -0.24792817098E+04  0.24792817098E+04  0.50400001928E-02 0.  1.
    10030    2    1    2    0    0  0.00000000000E+00  0.00000000000E+00 -0.19962029406E+04  0.29623604789E+04  0.21887789808E+04 0.  0.
        5    1    3    3  502    0 -0.27027868046E+03  0.77940598241E+03 -0.19713884371E+04  0.21370350279E+04  0.46999998093E+01 0. -1.
       -5    1    3    3    0  502  0.27027868046E+03 -0.77940598241E+03 -0.24814503541E+02  0.82532545103E+03  0.46999998093E+01 0.  1.
</event>
<event>
 5   0  0.5849604E-05  0.2206668E+04  0.7818609E-02  0.8515658E-01
        1   -1    0    0  501    0  0.00000000000E+00  0.00000000000E+00  0.19773574079E+04  0.19773574079E+04  0.50400001928E-02 0.  1.
       -1   -1    0    0    0  501  0.00000000000E+00  0.00000000000E+00 -0.61564279179E+03  0.61564279181E+03  0.50400001928E-02 0. -1.
    10030    2    1    2    0    0  0.00000000000E+00  0.00000000000E+00  0.13617146161E+04  0.25930001997E+04  0.22066679270E+04 0.  0.
        2    1    3    3  502    0  0.41473897740E+03  0.14133956061E+03 -0.50902461961E+03  0.67163334800E+03  0.25500000920E-02 0. -1.
       -2    1    3    3    0  502 -0.41473897740E+03 -0.14133956061E+03  0.18707392357E+04  0.19213668517E+04  0.25500000920E-02 0.  1.
</event>
<event>
 5   0  0.5895063E-05  0.2596256E+04  0.7818609E-02  0.8369474E-01
        1   -1    0    0  501    0  0.00000000000E+00  0.00000000000E+00  0.15364479734E+04  0.15364479734E+04  0.50400001928E-02 0.  1.
       -1   -1    0    0    0  501  0.00000000000E+00  0.00000000000E+00 -0.10967738488E+04  0.10967738488E+04  0.50400001928E-02 0. -1.
    10030    2    1    2    0    0  0.00000000000E+00  0.00000000000E+00  0.43967412466E+03  0.26332218222E+04  0.25962557326E+04 0.  0.
        5    1    3    3  502    0 -0.10825601922E+04  0.53683270897E+03 -0.26124547937E+03  0.12362836316E+04  0.46999998093E+01 0. -1.
       -5    1    3    3    0  502  0.10825601922E+04 -0.53683270897E+03  0.70091960403E+03  0.13969381907E+04  0.46999998093E+01 0.  1.
</event>
<event>
 5   0  0.5849604E-05  0.2247872E+04  0.7818609E-02  0.8498763E-01
        1   -1    0    0  501    0  0.00000000000E+00  0.00000000000E+00  0.15436015418E+04  0.15436015419E+04  0.50400001928E-02 0.  1.
       -1   -1    0    0    0  501  0.00000000000E+00  0.00000000000E+00 -0.81836643820E+03  0.81836643822E+03  0.50400001928E-02 0. -1.
    10030    2    1    2    0    0  0.00000000000E+00  0.00000000000E+00  0.72523510365E+03  0.23619679801E+04  0.22478716118E+04 0.  0.
        2    1    3    3  502    0  0.47327540659E+03 -0.52001924565E+02 -0.70716397257E+03  0.85251081797E+03  0.25500000920E-02 0. -1.
       -2    1    3    3    0  502 -0.47327540659E+03  0.52001924565E+02  0.14323990762E+04  0.15094571621E+04  0.25500000920E-02 0.  1.
</event>
<event>
 5   0  0.1252124E-04  0.2183443E+04  0.7818609E-02  0.8525351E-01
        2   -1    0    0  501    0  0.00000000000E+00  0.00000000000E+00  0.22239492282E+04  0.22239492282E+04  0.25500000920E-02 0.  1.
       -2   -1    0    0    0  501  0.00000000000E+00  0.00000000000E+00 -0.53591885720E+03  0.53591885720E+03  0.25500000920E-02 0. -1.
    10030    2    1    2    0    0  0.00000000000E+00  0.00000000000E+00  0.16880303710E+04  0.27598680854E+04  0.21834434537E+04 0.  0.
        3    1    3    3  502    0  0.10420761174E+04 -0.29510003537E+03  0.67047579877E+03  0.12737913771E+04  0.10100000352E+00 0. -1.
       -3    1    3    3    0  502 -0.10420761174E+04  0.29510003537E+03  0.10175545722E+04  0.14860767083E+04  0.10100000352E+00 0.  1.
</event>
<event>
 5   0  0.1226021E-04  0.2336307E+04  0.7818609E-02  0.8463742E-01
       -2   -1    0    0    0  501  0.00000000000E+00  0.00000000000E+00  0.92457658219E+03  0.92457658219E+03  0.25500000920E-02 0.  1.
        2   -1    0    0  501    0  0.00000000000E+00  0.00000000000E+00 -0.14758998882E+04  0.14758998882E+04  0.25500000920E-02 0. -1.
    10030    2    1    2    0    0  0.00000000000E+00  0.00000000000E+00 -0.55132330599E+03  0.24004764704E+04  0.23363068927E+04 0.  0.
        2    1    3    3  502    0  0.77378820646E+03 -0.16987021840E+02  0.62332476711E+03  0.99376582386E+03  0.25500000920E-02 0.  1.
       -2    1    3    3    0  502 -0.77378820646E+03  0.16987021840E+02 -0.11746480731E+04  0.14067106465E+04  0.25500000920E-02 0. -1.
</event>
<event>
 5   0  0.1241430E-04  0.2190142E+04  0.7818609E-02  0.8522543E-01
       -2   -1    0    0    0  501  0.00000000000E+00  0.00000000000E+00  0.13854299472E+04  0.13854299472E+04  0.25500000920E-02 0.  1.
        2   -1    0    0  501    0  0.00000000000E+00  0.00000000000E+00 -0.86556524322E+03  0.86556524322E+03  0.25500000920E-02 0. -1.
    10030    2    1    2    0    0  0.00000000000E+00  0.00000000000E+00  0.51986470396E+03  0.22509951904E+04  0.21901415563E+04 0.  0.
        1    1    3    3  502    0 -0.71710460833E+03 -0.68967817418E+03  0.73012024131E+03  0.12340869378E+04  0.50400001928E-02 0.  1.
       -1    1    3    3    0  502  0.71710460833E+03  0.68967817418E+03 -0.21025553735E+03  0.10169082526E+04  0.50400001928E-02 0. -1.
</event>
<event>
 5   0  0.5849604E-05  0.2190512E+04  0.7818609E-02  0.8522388E-01
       -1   -1    0    0    0  501  0.00000000000E+00  0.00000000000E+00  0.59049342819E+03  0.59049342821E+03  0.50400001928E-02 0.  1.
        1   -1    0    0  501    0  0.00000000000E+00  0.00000000000E+00 -0.20314973767E+04  0.20314973768E+04  0.50400001928E-02 0. -1.
    10030    2    1    2    0    0  0.00000000000E+00  0.00000000000E+00 -0.14410039486E+04  0.26219908050E+04  0.21905121323E+04 0.  0.
        2    1    3    3  502    0  0.32605260838E+02  0.10605387596E+04 -0.39537300255E+03  0.11323097522E+04  0.25500000920E-02 0.  1.
       -2    1    3    3    0  502 -0.32605260838E+02 -0.10605387596E+04 -0.10456309460E+04  0.14896810528E+04  0.25500000920E-02 0. -1.
</event>
<event>
 5   0  0.1311472E-04  0.2088102E+04  0.7818609E-02  0.8566503E-01
        2   -1    0    0  501    0  0.00000000000E+00  0.00000000000E+00  0.97501319824E+03  0.97501319824E+03  0.25500000920E-02 0.  1.
       -2   -1    0    0    0  501  0.00000000000E+00  0.00000000000E+00 -0.11179766845E+04  0.11179766845E+04  0.25500000920E-02 0. -1.
    10030    2    1    2    0    0  0.00000000000E+00  0.00000000000E+00 -0.14296348628E+03  0.20929898828E+04  0.20881015519E+04 0.  0.
        4    1    3    3  502    0  0.55273751385E+03  0.86274498396E+03  0.12946887081E+03  0.10327688357E+04  0.12699999809E+01 0.  1.
       -4    1    3    3    0  502 -0.55273751385E+03 -0.86274498396E+03 -0.27243235709E+03  0.10602210471E+04  0.12699999809E+01 0. -1.
</event>
<event>
 5   0  0.5861816E-05  0.2200611E+04  0.7818609E-02  0.8518174E-01
        1   -1    0    0  501    0  0.00000000000E+00  0.00000000000E+00  0.14445959517E+04  0.14445959517E+04  0.50400001928E-02 0.  1.
       -1   -1    0    0    0  501  0.00000000000E+00  0.00000000000E+00 -0.83806977677E+03  0.83806977678E+03  0.50400001928E-02 0. -1.
    10030    2    1    2    0    0  0.00000000000E+00  0.00000000000E+00  0.60652617495E+03  0.22826657285E+04  0.22006110122E+04 0.  0.
        1    1    3    3  502    0 -0.26721553781E+03 -0.87286591533E+03  0.94047595784E+03  0.13106464348E+04  0.50400001928E-02 0.  1.
       -1    1    3    3    0  502  0.26721553781E+03  0.87286591533E+03 -0.33394978290E+03  0.97201929369E+03  0.50400001928E-02 0. -1.
</event>
<event>
 5   0  0.5981239E-05  0.2172928E+04  0.7818609E-02  0.8529781E-01
        1   -1    0    0  501    0  0.00000000000E+00  0.00000000000E+00  0.15686319364E+04  0.15686319364E+04  0.50400001928E-02 0.  1.
       -1   -1    0    0    0  501  0.00000000000E+00  0.00000000000E+00 -0.75250571682E+03  0.75250571684E+03  0.50400001928E-02 0. -1.
    10030    2    1    2    0    0  0.00000000000E+00  0.00000000000E+00  0.81612621959E+03  0.23211376532E+04  0.21729284385E+04 0.  0.
        4    1    3    3  502    0 -0.23691777937E+03  0.10528874310E+04  0.54191295995E+03  0.12076312540E+04  0.12699999809E+01 0.  1.
       -4    1    3    3    0  502  0.23691777937E+03 -0.10528874310E+04  0.27421325964E+03  0.11135063993E+04  0.12699999809E+01 0. -1.
</event>
<event>
 5   0  0.1252124E-04  0.2181005E+04  0.7818609E-02  0.8526376E-01
        2   -1    0    0  501    0  0.00000000000E+00  0.00000000000E+00  0.12724299675E+04  0.12724299675E+04  0.25500000920E-02 0. -1.
       -2   -1    0    0    0  501  0.00000000000E+00  0.00000000000E+00 -0.93458659416E+03  0.93458659416E+03  0.25500000920E-02 0.  1.
    10030    2    1    2    0    0  0.00000000000E+00  0.00000000000E+00  0.33784337336E+03  0.22070165617E+04  0.21810052633E+04 0.  0.
        3    1    3    3  502    0 -0.38012908061E+03  0.10220896490E+04  0.16332297886E+03  0.11026512477E+04  0.10100000352E+00 0.  1.
       -3    1    3    3    0  502  0.38012908061E+03 -0.10220896490E+04  0.17452039450E+03  0.11043653140E+04  0.10100000352E+00 0. -1.
</event>
<event>
 5   0  0.5895063E-05  0.1708018E+04  0.7818609E-02  0.8756805E-01
        1   -1    0    0  501    0  0.00000000000E+00  0.00000000000E+00  0.14555914052E+04  0.14555914053E+04  0.50400001928E-02 0. -1.
       -1   -1    0    0    0  501  0.00000000000E+00  0.00000000000E+00 -0.50105481757E+03  0.50105481759E+03  0.50400001928E-02 0.  1.
    10030    2    1    2    0    0  0.00000000000E+00  0.00000000000E+00  0.95453658768E+03  0.19566462228E+04  0.17080176651E+04 0.  0.
        5    1    3    3  502    0 -0.73114213164E+03 -0.44091662680E+03  0.49816372342E+03  0.98851680501E+03  0.46999998093E+01 0. -1.
       -5    1    3    3    0  502  0.73114213164E+03  0.44091662680E+03  0.45637286426E+03  0.96812941784E+03  0.46999998093E+01 0.  1.
</event>
<event>
 5   0  0.1252124E-04  0.2161054E+04  0.7818609E-02  0.8534815E-01
       -2   -1    0    0    0  501  0.00000000000E+00  0.00000000000E+00  0.15246964782E+04  0.15246964782E+04  0.25500000920E-02 0. -1.
        2   -1    0    0  501    0  0.00000000000E+00  0.00000000000E+00 -0.76575173225E+03  0.76575173225E+03  0.25500000920E-02 0.  1.
    10030    2    1    2    0    0  0.00000000000E+00  0.00000000000E+00  0.75894474593E+03  0.22904482104E+04  0.21610543439E+04 0.  0.
        3    1    3    3  502    0 -0.56905368406E+03 -0.84819758696E+03  0.58340433001E+01  0.10214182729E+04  0.10100000352E+00 0.  1.
       -3    1    3    3    0  502  0.56905368406E+03  0.84819758696E+03  0.75311070263E+03  0.12690299376E+04  0.10100000352E+00 0. -1.
</event>
<event>
 5   0  0.5981239E-05  0.2207070E+04  0.7818609E-02  0.8515491E-01
       -1   -1    0    0    0  501  0.00000000000E+00  0.00000000000E+00  0.89980058317E+03  0.89980058318E+03  0.50400001928E-02 0. -1.
        1   -1    0    0  501    0  0.00000000000E+00  0.00000000000E+00 -0.13533989128E+04  0.13533989128E+04  0.50400001928E-02 0.  1.
    10030    2    1    2    0    0  0.00000000000E+00  0.00000000000E+00 -0.45359832965E+03  0.22531994960E+04  0.22070696691E+04 0.  0.
        4    1    3    3  502    0 -0.59119098551E+03  0.58649585533E+02 -0.11762046331E+04  0.13177274024E+04  0.12699999809E+01 0.  1.
       -4    1    3    3    0  502  0.59119098551E+03 -0.58649585533E+02  0.72260630345E+03  0.93547209360E+03  0.12699999809E+01 0. -1.
</event>
<event>
 5   0  0.5895063E-05  0.2150466E+04  0.7818609E-02  0.8539333E-01
        1   -1    0    0  501    0  0.00000000000E+00  0.00000000000E+00  0.23971089548E+04  0.23971089548E+04  0.50400001928E-02 0. -1.
       -1   -1    0    0    0  501  0.00000000000E+00  0.00000000000E+00 -0.48230014820E+03  0.48230014822E+03  0.50400001928E-02 0.  1.
    10030    2    1    2    0    0  0.00000000000E+00  0.00000000000E+00  0.19148088066E+04  0.28794091031E+04  0.21504659999E+04 0.  0.
        5    1    3    3  502    0  0.11207052182E+03 -0.61002435780E+02 -0.47211306168E+03  0.48907456696E+03  0.46999998093E+01 0.  1.
       -5    1    3    3    0  502 -0.11207052182E+03  0.61002435780E+02  0.23869218683E+04  0.23903345361E+04  0.46999998093E+01 0. -1.
</event>
<event>
 5   0  0.1252124E-04  0.2196995E+04  0.7818609E-02  0.8519680E-01
       -2   -1    0    0    0  501  0.00000000000E+00  0.00000000000E+00  0.88101365876E+03  0.88101365876E+03  0.25500000920E-02 0. -1.
        2   -1    0    0  501    0  0.00000000000E+00  0.00000000000E+00 -0.13696682819E+04  0.13696682819E+04  0.25500000920E-02 0.  1.
    10030    2    1    2    0    0  0.00000000000E+00  0.00000000000E+00 -0.48865462312E+03  0.22506819406E+04  0.21969947331E+04 0.  0.
        3    1    3    3  502    0 -0.66558530897E+03  0.25866111413E+03 -0.10994632419E+04  0.13110029771E+04  0.10100000352E+00 0.  1.
       -3    1    3    3    0  502  0.66558530897E+03 -0.25866111413E+03  0.61080861880E+03  0.93967896352E+03  0.10100000352E+00 0. -1.
</event>
<event>
 5   0  0.5861816E-05  0.1401125E+04  0.7818609E-02  0.8953005E-01
       -1   -1    0    0    0  501  0.00000000000E+00  0.00000000000E+00  0.36193315036E+03  0.36193315039E+03  0.50400001928E-02 0. -1.
        1   -1    0    0  501    0  0.00000000000E+00  0.00000000000E+00 -0.13560172545E+04  0.13560172545E+04  0.50400001928E-02 0.  1.
    10030    2    1    2    0    0  0.00000000000E+00  0.00000000000E+00 -0.99408410412E+03  0.17179504049E+04  0.14011246867E+04 0.  0.
        1    1    3    3  502    0 -0.20111671860E+03  0.65556816267E+03 -0.32118836704E+03  0.75721827603E+03  0.50400001928E-02 0. -1.
       -1    1    3    3    0  502  0.20111671860E+03 -0.65556816267E+03 -0.67289573709E+03  0.96073212886E+03  0.50400001928E-02 0.  1.
</event>
<event>
 5   0  0.1404159E-04  0.2183478E+04  0.7818609E-02  0.8525336E-01
       -2   -1    0    0    0  501  0.00000000000E+00  0.00000000000E+00  0.12846110741E+04  0.12846110741E+04  0.25500000920E-02 0.  1.
        2   -1    0    0  501    0  0.00000000000E+00  0.00000000000E+00 -0.92782521144E+03  0.92782521144E+03  0.25500000920E-02 0. -1.
    10030    2    1    2    0    0  0.00000000000E+00  0.00000000000E+00  0.35678586265E+03  0.22124362855E+04  0.21834784555E+04 0.  0.
        5    1    3    3  502    0 -0.14150497369E+03 -0.40569473643E+03 -0.83854109576E+03  0.94222350640E+03  0.46999998093E+01 0. -1.
       -5    1    3    3    0  502  0.14150497369E+03  0.40569473643E+03  0.11953269584E+04  0.12702127791E+04  0.46999998093E+01 0.  1.
</event>
<event>
 5   0  0.5849604E-05  0.2183080E+04  0.7818609E-02  0.8525504E-01
        1   -1    0    0  501    0  0.00000000000E+00  0.00000000000E+00  0.14018899869E+04  0.14018899869E+04  0.50400001928E-02 0.  1.
       -1   -1    0    0    0  501  0.00000000000E+00  0.00000000000E+00 -0.84989483202E+03  0.84989483203E+03  0.50400001928E-02 0. -1.
    10030    2    1    2    0    0  0.00000000000E+00  0.00000000000E+00  0.55199515488E+03  0.22517848189E+04  0.21830795267E+04 0.  0.
        2    1    3    3  502    0 -0.95103175537E+03 -0.76630913322E+02 -0.27090168935E+03  0.99182731456E+03  0.25500000920E-02 0. -1.
       -2    1    3    3    0  502  0.95103175537E+03  0.76630913322E+02  0.82289684423E+03  0.12599575044E+04  0.25500000920E-02 0.  1.
</event>
<event>
 5   0  0.6263558E-05  0.2240824E+04  0.7818609E-02  0.8501626E-01
        1   -1    0    0  501    0  0.00000000000E+00  0.00000000000E+00  0.87626517361E+03  0.87626517362E+03  0.50400001928E-02 0. -1.
       -1   -1    0    0    0  501  0.00000000000E+00  0.00000000000E+00 -0.14325834674E+04  0.14325834675E+04  0.50400001928E-02 0.  1.
    10030    2    1    2    0    0  0.00000000000E+00  0.00000000000E+00 -0.55631829384E+03  0.23088486411E+04  0.22408239563E+04 0.  0.
        3    1    3    3  502    0 -0.64375263632E+03 -0.90881292981E+03 -0.40420256488E+03  0.11847945484E+04  0.10100000352E+00 0. -1.
       -3    1    3    3    0  502  0.64375263632E+03  0.90881292981E+03 -0.15211572896E+03  0.11240540927E+04  0.10100000352E+00 0.  1.
</event>
<event>
 5   0  0.5895063E-05  0.2151078E+04  0.7818609E-02  0.8539071E-01
       -1   -1    0    0    0  501  0.00000000000E+00  0.00000000000E+00  0.87233965799E+03  0.87233965801E+03  0.50400001928E-02 0. -1.
        1   -1    0    0  501    0  0.00000000000E+00  0.00000000000E+00 -0.13260706878E+04  0.13260706878E+04  0.50400001928E-02 0.  1.
    10030    2    1    2    0    0  0.00000000000E+00  0.00000000000E+00 -0.45373102980E+03  0.21984103458E+04  0.21510779161E+04 0.  0.
        5    1    3    3  502    0  0.20844311669E+03 -0.43674786651E+03  0.75477175940E+03  0.89660455641E+03  0.46999998093E+01 0. -1.
       -5    1    3    3    0  502 -0.20844311669E+03  0.43674786651E+03 -0.12085027892E+04  0.13018057894E+04  0.46999998093E+01 0.  1.
</event>
<event>
 5   0  0.1226021E-04  0.2183754E+04  0.7818609E-02  0.8525221E-01
        2   -1    0    0  501    0  0.00000000000E+00  0.00000000000E+00  0.19838868086E+04  0.19838868086E+04  0.25500000920E-02 0.  1.
       -2   -1    0    0    0  501  0.00000000000E+00  0.00000000000E+00 -0.60093913369E+03  0.60093913369E+03  0.25500000920E-02 0. -1.
    10030    2    1    2    0    0  0.00000000000E+00  0.00000000000E+00  0.13829476749E+04  0.25848259423E+04  0.21837538507E+04 0.  0.
        2    1    3    3  502    0  0.49127551312E+03 -0.97417050634E+03  0.64076370517E+03  0.12652817596E+04  0.25500000920E-02 0.  1.
       -2    1    3    3    0  502 -0.49127551312E+03  0.97417050634E+03  0.74218396975E+03  0.13195441827E+04  0.25500000920E-02 0. -1.
</event>
<event>
 5   0  0.1241430E-04  0.2190086E+04  0.7818609E-02  0.8522566E-01
       -2   -1    0    0    0  501  0.00000000000E+00  0.00000000000E+00  0.83021405035E+03  0.83021405036E+03  0.25500000920E-02 0. -1.
        2   -1    0    0  501    0  0.00000000000E+00  0.00000000000E+00 -0.14443490708E+04  0.14443490708E+04  0.25500000920E-02 0.  1.
    10030    2    1    2    0    0  0.00000000000E+00  0.00000000000E+00 -0.61413502044E+03  0.22745631212E+04  0.21900857446E+04 0.  0.
        1    1    3    3  502    0 -0.10963298418E+02 -0.38704468617E+03  0.75674478087E+03  0.85005084930E+03  0.50400001928E-02 0. -1.
       -1    1    3    3    0  502  0.10963298418E+02  0.38704468617E+03 -0.13708798013E+04  0.14245122719E+04  0.50400001928E-02 0.  1.
</event>
<event>
 5   0  0.5861816E-05  0.2198288E+04  0.7818609E-02  0.8519141E-01
       -1   -1    0    0    0  501  0.00000000000E+00  0.00000000000E+00  0.97704493663E+03  0.97704493664E+03  0.50400001928E-02 0. -1.
        1   -1    0    0  501    0  0.00000000000E+00  0.00000000000E+00 -0.12365019783E+04  0.12365019783E+04  0.50400001928E-02 0.  1.
    10030    2    1    2    0    0  0.00000000000E+00  0.00000000000E+00 -0.25945704165E+03  0.22135469149E+04  0.21982884224E+04 0.  0.
        1    1    3    3  502    0 -0.37263330313E+03 -0.31723514084E+02 -0.11704672979E+04  0.12287618384E+04  0.50400001928E-02 0.  1.
       -1    1    3    3    0  502  0.37263330313E+03  0.31723514084E+02  0.91101025626E+03  0.98478507655E+03  0.50400001928E-02 0. -1.
</event>
<event>
 5   0  0.6263558E-05  0.2210772E+04  0.7818609E-02  0.8513958E-01
        1   -1    0    0  501    0  0.00000000000E+00  0.00000000000E+00  0.12551867543E+04  0.12551867544E+04  0.50400001928E-02 0. -1.
       -1   -1    0    0    0  501  0.00000000000E+00  0.00000000000E+00 -0.97346366197E+03  0.97346366198E+03  0.50400001928E-02 0.  1.
    10030    2    1    2    0    0  0.00000000000E+00  0.00000000000E+00  0.28172309237E+03  0.22286504163E+04  0.22107724391E+04 0.  0.
        3    1    3    3  502    0 -0.16150153123E+03  0.29550746348E+03 -0.92049213721E+03  0.98015977801E+03  0.10100000352E+00 0.  1.
       -3    1    3    3    0  502  0.16150153123E+03 -0.29550746348E+03  0.12022152296E+04  0.12484906383E+04  0.10100000352E+00 0. -1.
</event>
<event>
 5   0  0.6263558E-05  0.2217964E+04  0.7818609E-02  0.8510988E-01
       -1   -1    0    0    0  501  0.00000000000E+00  0.00000000000E+00  0.11441501364E+04  0.11441501364E+04  0.50400001928E-02 0.  1.
        1   -1    0    0  501    0  0.00000000000E+00  0.00000000000E+00 -0.10748944534E+04  0.10748944534E+04  0.50400001928E-02 0. -1.
    10030    2    1    2    0    0  0.00000000000E+00  0.00000000000E+00  0.69255682976E+02  0.22190445898E+04  0.22179636025E+04 0.  0.
        3    1    3    3  502    0  0.54091654278E+03 -0.49423778711E+03  0.86748712086E+03  0.11355155708E+04  0.10100000352E+00 0.  1.
       -3    1    3    3    0  502 -0.54091654278E+03  0.49423778711E+03 -0.79823143788E+03  0.10835290190E+04  0.10100000352E+00 0. -1.
</event>
<event>
 5   0  0.5849604E-05  0.2200649E+04  0.7818609E-02  0.8518158E-01
        1   -1    0    0  501    0  0.00000000000E+00  0.00000000000E+00  0.13538076141E+04  0.13538076142E+04  0.50400001928E-02 0.  1.
       -1   -1    0    0    0  501  0.00000000000E+00  0.00000000000E+00 -0.89430318003E+03  0.89430318005E+03  0.50400001928E-02 0. -1.
    10030    2    1    2    0    0  0.00000000000E+00  0.00000000000E+00  0.45950443411E+03  0.22481107942E+04  0.22006494082E+04 0.  0.
        2    1    3    3  502    0 -0.61005620078E+02  0.39423015025E+03  0.12773318630E+04  0.13381762908E+04  0.25500000920E-02 0.  1.
       -2    1    3    3    0  502  0.61005620078E+02 -0.39423015025E+03 -0.81782742887E+03  0.90993450340E+03  0.25500000920E-02 0. -1.
</event>
<event>
 5   0  0.1241430E-04  0.2318063E+04  0.7818609E-02  0.8470833E-01
       -2   -1    0    0    0  501  0.00000000000E+00  0.00000000000E+00  0.10041186788E+04  0.10041186788E+04  0.25500000920E-02 0.  1.
        2   -1    0    0  501    0  0.00000000000E+00  0.00000000000E+00 -0.13378438979E+04  0.13378438979E+04  0.25500000920E-02 0. -1.
    10030    2    1    2    0    0  0.00000000000E+00  0.00000000000E+00 -0.33372521916E+03  0.23419625767E+04  0.23180630252E+04 0.  0.
        1    1    3    3  502    0  0.80068156353E+03 -0.76593020432E+03 -0.51038886129E+03  0.12199331268E+04  0.50400001928E-02 0. -1.
       -1    1    3    3    0  502 -0.80068156353E+03  0.76593020432E+03  0.17666364214E+03  0.11220294499E+04  0.50400001928E-02 0.  1.
</event>
<event>
 5   0  0.1252124E-04  0.2142963E+04  0.7818609E-02  0.8542550E-01
        2   -1    0    0  501    0  0.00000000000E+00  0.00000000000E+00  0.76545961637E+03  0.76545961637E+03  0.25500000920E-02 0.  1.
       -2   -1    0    0    0  501  0.00000000000E+00  0.00000000000E+00 -0.14998475520E+04  0.14998475520E+04  0.25500000920E-02 0. -1.
    10030    2    1    2    0    0  0.00000000000E+00  0.00000000000E+00 -0.73438793562E+03  0.22653071684E+04  0.21429631185E+04 0.  0.
        3    1    3    3  502    0 -0.77384066581E+03 -0.67740474403E+03 -0.68496573734E+03  0.12356717343E+04  0.10100000352E+00 0. -1.
       -3    1    3    3    0  502  0.77384066581E+03  0.67740474403E+03 -0.49422198274E+02  0.10296354341E+04  0.10100000352E+00 0.  1.
</event>
<event>
 5   0  0.6263558E-05  0.2208678E+04  0.7818609E-02  0.8514825E-01
       -1   -1    0    0    0  501  0.00000000000E+00  0.00000000000E+00  0.18501221516E+04  0.18501221517E+04  0.50400001928E-02 0. -1.
        1   -1    0    0  501    0  0.00000000000E+00  0.00000000000E+00 -0.65918047301E+03  0.65918047303E+03  0.50400001928E-02 0.  1.
    10030    2    1    2    0    0  0.00000000000E+00  0.00000000000E+00  0.11909416786E+04  0.25093026247E+04  0.22086777901E+04 0.  0.
        3    1    3    3  502    0  0.14749224236E+03 -0.87271458882E+03  0.13458026976E+04  0.16107667821E+04  0.10100000352E+00 0. -1.
       -3    1    3    3    0  502 -0.14749224236E+03  0.87271458882E+03 -0.15486101898E+03  0.89853584263E+03  0.10100000352E+00 0.  1.
</event>
<event>
 5   0  0.1311472E-04  0.2322693E+04  0.7818609E-02  0.8469027E-01
       -2   -1    0    0    0  501  0.00000000000E+00  0.00000000000E+00  0.17820355811E+04  0.17820355811E+04  0.25500000920E-02 0.  1.
        2   -1    0    0  501    0  0.00000000000E+00  0.00000000000E+00 -0.75684586443E+03  0.75684586444E+03  0.25500000920E-02 0. -1.
    10030    2    1    2    0    0  0.00000000000E+00  0.00000000000E+00  0.10251897167E+04  0.25388814456E+04  0.23226934880E+04 0.  0.
        4    1    3    3  502    0  0.10840863777E+04  0.36561766969E+03  0.73067686593E+03  0.13575013260E+04  0.12699999809E+01 0.  1.
       -4    1    3    3    0  502 -0.10840863777E+04 -0.36561766969E+03  0.29451285077E+03  0.11813801196E+04  0.12699999809E+01 0. -1.
</event>
<event>
 5   0  0.6263558E-05  0.2016271E+04  0.7818609E-02  0.8599051E-01
       -1   -1    0    0    0  501  0.00000000000E+00  0.00000000000E+00  0.83056890513E+03  0.83056890514E+03  0.50400001928E-02 0.  1.
        1   -1    0    0  501    0  0.00000000000E+00  0.00000000000E+00 -0.12236639822E+04  0.12236639822E+04  0.50400001928E-02 0. -1.
    10030    2    1    2    0    0  0.00000000000E+00  0.00000000000E+00 -0.39309507703E+03  0.20542328873E+04  0.20162710670E+04 0.  0.
        3    1    3    3  502    0  0.51668079056E+03  0.13623129740E+03 -0.10675226504E+04  0.11937849995E+04  0.10100000352E+00 0. -1.
       -3    1    3    3    0  502 -0.51668079056E+03 -0.13623129740E+03  0.67442757336E+03  0.86044788781E+03  0.10100000352E+00 0.  1.
</event>
<event>
 5   0  0.6263558E-05  0.2185795E+04  0.7818609E-02  0.8524364E-01
        1   -1    0    0  501    0  0.00000000000E+00  0.00000000000E+00  0.12797452067E+04  0.12797452067E+04  0.50400001928E-02 0.  1.
       -1   -1    0    0    0  501  0.00000000000E+00  0.00000000000E+00 -0.93333018210E+03  0.93333018211E+03  0.50400001928E-02 0. -1.
    10030    2    1    2    0    0  0.00000000000E+00  0.00000000000E+00  0.34641502458E+03  0.22130753888E+04  0.21857948914E+04 0.  0.
        3    1    3    3  502    0  0.10433863683E+04 -0.32499074898E+03  0.18563738851E+03  0.11084833560E+04  0.10100000352E+00 0.  1.
       -3    1    3    3    0  502 -0.10433863683E+04  0.32499074898E+03  0.16077763607E+03  0.11045920328E+04  0.10100000352E+00 0. -1.
</event>
<event>
 5   0  0.1252124E-04  0.2207319E+04  0.7818609E-02  0.8515388E-01
       -2   -1    0    0    0  501  0.00000000000E+00  0.00000000000E+00  0.17903827902E+04  0.17903827902E+04  0.25500000920E-02 0.  1.
        2   -1    0    0  501    0  0.00000000000E+00  0.00000000000E+00 -0.68033737264E+03  0.68033737265E+03  0.25500000920E-02 0. -1.
    10030    2    1    2    0    0  0.00000000000E+00  0.00000000000E+00  0.11100454176E+04  0.24707201629E+04  0.22073190286E+04 0.  0.
        3    1    3    3  502    0 -0.43723506341E+03 -0.37264771198E+03 -0.49977864968E+03  0.76145881490E+03  0.10100000352E+00 0. -1.
       -3    1    3    3    0  502  0.43723506341E+03  0.37264771198E+03  0.16098240673E+04  0.17092613480E+04  0.10100000352E+00 0.  1.
</event>
<event>
 5   0  0.5981239E-05  0.2208576E+04  0.7818609E-02  0.8514867E-01
        1   -1    0    0  501    0  0.00000000000E+00  0.00000000000E+00  0.98192666018E+03  0.98192666019E+03  0.50400001928E-02 0.  1.
       -1   -1    0    0    0  501  0.00000000000E+00  0.00000000000E+00 -0.12418969551E+04  0.12418969551E+04  0.50400001928E-02 0. -1.
    10030    2    1    2    0    0  0.00000000000E+00  0.00000000000E+00 -0.25997029495E+03  0.22238236153E+04  0.22085757668E+04 0.  0.
        4    1    3    3  502    0 -0.23751445313E+03  0.17712719173E+03 -0.12011260059E+04  0.12371307337E+04  0.12699999809E+01 0. -1.
       -4    1    3    3    0  502  0.23751445313E+03 -0.17712719173E+03  0.94115571091E+03  0.98669288159E+03  0.12699999809E+01 0.  1.
</event>
<event>
 5   0  0.6263558E-05  0.2075448E+04  0.7818609E-02  0.8572136E-01
       -1   -1    0    0    0  501  0.00000000000E+00  0.00000000000E+00  0.57858102826E+03  0.57858102828E+03  0.50400001928E-02 0. -1.
        1   -1    0    0  501    0  0.00000000000E+00  0.00000000000E+00 -0.18612281118E+04  0.18612281118E+04  0.50400001928E-02 0.  1.
    10030    2    1    2    0    0  0.00000000000E+00  0.00000000000E+00 -0.12826470835E+04  0.24398091401E+04  0.20754481683E+04 0.  0.
        3    1    3    3  502    0  0.65712625683E+02  0.28678683942E+02  0.57566583517E+03  0.58011359239E+03  0.10100000352E+00 0. -1.
       -3    1    3    3    0  502 -0.65712625683E+02 -0.28678683942E+02 -0.18583129187E+04  0.18596955477E+04  0.10100000352E+00 0.  1.
</event>
<event>
 5   0  0.1226021E-04  0.2233560E+04  0.7818609E-02  0.8504588E-01
       -2   -1    0    0    0  501  0.00000000000E+00  0.00000000000E+00  0.73126753783E+03  0.73126753784E+03  0.25500000920E-02 0. -1.
        2   -1    0    0  501    0  0.00000000000E+00  0.00000000000E+00 -0.17055291433E+04  0.17055291433E+04  0.25500000920E-02 0.  1.
    10030    2    1    2    0    0  0.00000000000E+00  0.00000000000E+00 -0.97426160545E+03  0.24367966811E+04  0.22335604736E+04 0.  0.
        2    1    3    3  502    0  0.89930190428E+00  0.48268435835E+03  0.61158706352E+03  0.77911727924E+03  0.25500000920E-02 0. -1.
       -2    1    3    3    0  502 -0.89930190428E+00 -0.48268435835E+03 -0.15858486690E+04  0.16576794019E+04  0.25500000920E-02 0.  1.
</event>
<event>
 5   0  0.5981239E-05  0.2191185E+04  0.7818609E-02  0.8522106E-01
       -1   -1    0    0    0  501  0.00000000000E+00  0.00000000000E+00  0.97246858988E+03  0.97246858989E+03  0.50400001928E-02 0. -1.
        1   -1    0    0  501    0  0.00000000000E+00  0.00000000000E+00 -0.12343051365E+04  0.12343051365E+04  0.50400001928E-02 0.  1.
    10030    2    1    2    0    0  0.00000000000E+00  0.00000000000E+00 -0.26183654666E+03  0.22067737264E+04  0.21911850453E+04 0.  0.
        4    1    3    3  502    0 -0.81957736670E+03  0.36899826986E+03  0.50000049973E+03  0.10285275377E+04  0.12699999809E+01 0. -1.
       -4    1    3    3    0  502  0.81957736670E+03 -0.36899826986E+03 -0.76183704638E+03  0.11782461888E+04  0.12699999809E+01 0.  1.
</event>
<event>
 5   0  0.1241430E-04  0.2196072E+04  0.7818609E-02  0.8520065E-01
        2   -1    0    0  501    0  0.00000000000E+00  0.00000000000E+00  0.26279744816E+04  0.26279744816E+04  0.25500000920E-02 0.  1.
       -2   -1    0    0    0  501  0.00000000000E+00  0.00000000000E+00 -0.45878793813E+03  0.45878793814E+03  0.25500000920E-02 0. -1.
    10030    2    1    2    0    0  0.00000000000E+00  0.00000000000E+00  0.21691865435E+04  0.30867624198E+04  0.21960719423E+04 0.  0.
        1    1    3    3  502    0  0.42463011047E+03 -0.48806321766E+03 -0.16247422134E+03  0.66701897108E+03  0.50400001928E-02 0. -1.
       -1    1    3    3    0  502 -0.42463011047E+03  0.48806321766E+03  0.23316607648E+04  0.24197434487E+04  0.50400001928E-02 0.  1.
</event>
<event>
 5   0  0.5849604E-05  0.2208729E+04  0.7818609E-02  0.8514804E-01
       -1   -1    0    0    0  501  0.00000000000E+00  0.00000000000E+00  0.11498302777E+04  0.11498302777E+04  0.50400001928E-02 0. -1.
        1   -1    0    0  501    0  0.00000000000E+00  0.00000000000E+00 -0.10606968536E+04  0.10606968537E+04  0.50400001928E-02 0.  1.
    10030    2    1    2    0    0  0.00000000000E+00  0.00000000000E+00  0.89133424078E+02  0.22105271314E+04  0.22087293703E+04 0.  0.
        2    1    3    3  502    0 -0.87045882973E+03  0.67819458807E+03  0.89042553259E+02  0.11070569316E+04  0.25500000920E-02 0. -1.
       -2    1    3    3    0  502  0.87045882973E+03 -0.67819458807E+03  0.90870819215E-01  0.11034701998E+04  0.25500000920E-02 0.  1.
</event>
<event>
 5   0  0.5981239E-05  0.2263174E+04  0.7818609E-02  0.8492584E-01
        1   -1    0    0  501    0  0.00000000000E+00  0.00000000000E+00  0.12497615280E+04  0.12497615280E+04  0.50400001928E-02 0.  1.
       -1   -1    0    0    0  501  0.00000000000E+00  0.00000000000E+00 -0.10245872133E+04  0.10245872133E+04  0.50400001928E-02 0. -1.
    10030    2    1    2    0    0  0.00000000000E+00  0.00000000000E+00  0.22517431471E+03  0.22743487413E+04  0.22631744796E+04 0.  0.
        4    1    3    3  502    0  0.10995586341E+04  0.18579906768E+03 -0.80553306415E+02  0.11180522937E+04  0.12699999809E+01 0. -1.
       -4    1    3    3    0  502 -0.10995586341E+04 -0.18579906768E+03  0.30572762112E+03  0.11562964476E+04  0.12699999809E+01 0.  1.
</event>
<event>
 5   0  0.1252124E-04  0.1395503E+04  0.7818609E-02  0.8957080E-01
        2   -1    0    0  501    0  0.00000000000E+00  0.00000000000E+00  0.39861579623E+03  0.39861579624E+03  0.25500000920E-02 0. -1.
       -2   -1    0    0    0  501  0.00000000000E+00  0.00000000000E+00 -0.12213689838E+04  0.12213689838E+04  0.25500000920E-02 0.  1.
    10030    2    1    2    0    0  0.00000000000E+00  0.00000000000E+00 -0.82275318758E+03  0.16199847800E+04  0.13955027338E+04 0.  0.
        3    1    3    3  502    0 -0.47834738941E+03  0.66003990958E+02  0.17331514707E+03  0.51304083871E+03  0.10100000352E+00 0. -1.
       -3    1    3    3    0  502  0.47834738941E+03 -0.66003990958E+02 -0.99606833465E+03  0.11069439413E+04  0.10100000352E+00 0.  1.
</event>
<event>
 5   0  0.6263558E-05  0.2199948E+04  0.7818609E-02  0.8518450E-01
        1   -1    0    0  501    0  0.00000000000E+00  0.00000000000E+00  0.17390064604E+04  0.17390064604E+04  0.50400001928E-02 0. -1.
       -1   -1    0    0    0  501  0.00000000000E+00  0.00000000000E+00 -0.69576684044E+03  0.69576684045E+03  0.50400001928E-02 0.  1.
    10030    2    1    2    0    0  0.00000000000E+00  0.00000000000E+00  0.10432396199E+04  0.24347733008E+04  0.21999482089E+04 0.  0.
        3    1    3    3  502    0 -0.10400776979E+04 -0.29406409602E+03  0.29559597094E+03  0.11205410739E+04  0.10100000352E+00 0.  1.
       -3    1    3    3    0  502  0.10400776979E+04  0.29406409602E+03  0.74764364901E+03  0.13142322269E+04  0.10100000352E+00 0. -1.
</event>
<event>
 5   0  0.1226021E-04  0.2212281E+04  0.7818609E-02  0.8513334E-01
       -2   -1    0    0    0  501  0.00000000000E+00  0.00000000000E+00  0.10517031480E+04  0.10517031480E+04  0.25500000920E-02 0.  1.
        2   -1    0    0  501    0  0.00000000000E+00  0.00000000000E+00 -0.11633951841E+04  0.11633951841E+04  0.25500000920E-02 0. -1.
    10030    2    1    2    0    0  0.00000000000E+00  0.00000000000E+00 -0.11169203610E+03  0.22150983322E+04  0.22122806129E+04 0.  0.
        2    1    3    3  502    0 -0.15477427703E+03  0.24167926363E+03  0.10137760036E+04  0.10536155507E+04  0.25500000920E-02 0.  1.
       -2    1    3    3    0  502  0.15477427703E+03 -0.24167926363E+03 -0.11254680397E+04  0.11614827815E+04  0.25500000920E-02 0. -1.
</event>
<event>
 5   0  0.1252124E-04  0.2021101E+04  0.7818609E-02  0.8596818E-01
       -2   -1    0    0    0  501  0.00000000000E+00  0.00000000000E+00  0.63520488985E+03  0.63520488986E+03  0.25500000920E-02 0. -1.
        2   -1    0    0  501    0  0.00000000000E+00  0.00000000000E+00 -0.16076893788E+04  0.16076893788E+04  0.25500000920E-02 0.  1.
    10030    2    1    2    0    0  0.00000000000E+00  0.00000000000E+00 -0.97248448894E+03  0.22428942687E+04  0.20211008434E+04 0.  0.
        3    1    3    3  502    0  0.85653825359E+03  0.53592501097E+03 -0.50666708932E+03  0.11303030332E+04  0.10100000352E+00 0. -1.
       -3    1    3    3    0  502 -0.85653825359E+03 -0.53592501097E+03 -0.46581739962E+03  0.11125912355E+04  0.10100000352E+00 0.  1.
</event>
<event>
 5   0  0.1226021E-04  0.2169547E+04  0.7818609E-02  0.8531211E-01
        2   -1    0    0  501    0  0.00000000000E+00  0.00000000000E+00  0.36152076801E+03  0.36152076802E+03  0.25500000920E-02 0.  1.
       -2   -1    0    0    0  501  0.00000000000E+00  0.00000000000E+00 -0.32549542060E+04  0.32549542060E+04  0.25500000920E-02 0. -1.
    10030    2    1    2    0    0  0.00000000000E+00  0.00000000000E+00 -0.28934334380E+04  0.36164749740E+04  0.21695469983E+04 0.  0.
        2    1    3    3  502    0 -0.11541859359E+03  0.78505446249E+03 -0.26796806940E+04  0.27946950787E+04  0.25500000920E-02 0. -1.
       -2    1    3    3    0  502  0.11541859359E+03 -0.78505446249E+03 -0.21375274394E+03  0.82177989534E+03  0.25500000920E-02 0.  1.
</event>
<event>
 5   0  0.1226021E-04  0.2188782E+04  0.7818609E-02  0.8523112E-01
       -2   -1    0    0    0  501  0.00000000000E+00  0.00000000000E+00  0.98293638140E+03  0.98293638141E+03  0.25500000920E-02 0. -1.
        2   -1    0    0  501    0  0.00000000000E+00  0.00000000000E+00 -0.12184834449E+04  0.12184834449E+04  0.25500000920E-02 0.  1.
    10030    2    1    2    0    0  0.00000000000E+00  0.00000000000E+00 -0.23554706353E+03  0.22014198263E+04  0.21887820432E+04 0.  0.
        2    1    3    3  502    0 -0.73400902166E+03 -0.32058543672E+02 -0.93356386516E+03  0.11879976786E+04  0.25500000920E-02 0.  1.
       -2    1    3    3    0  502  0.73400902166E+03  0.32058543672E+02  0.69801680163E+03  0.10134221477E+04  0.25500000920E-02 0. -1.
</event>
<event>
 5   0  0.5895063E-05  0.2211305E+04  0.7818609E-02  0.8513737E-01
       -1   -1    0    0    0  501  0.00000000000E+00  0.00000000000E+00  0.64402079816E+03  0.64402079818E+03  0.50400001928E-02 0. -1.
        1   -1    0    0  501    0  0.00000000000E+00  0.00000000000E+00 -0.18981807026E+04  0.18981807026E+04  0.50400001928E-02 0.  1.
    10030    2    1    2    0    0  0.00000000000E+00  0.00000000000E+00 -0.12541599045E+04  0.25422015008E+04  0.22113053622E+04 0.  0.
        5    1    3    3  502    0  0.44529659326E+03  0.10091428672E+04 -0.53962141506E+03  0.12279542923E+04  0.46999998093E+01 0.  1.
       -5    1    3    3    0  502 -0.44529659326E+03 -0.10091428672E+04 -0.71453848940E+03  0.13142472085E+04  0.46999998093E+01 0. -1.
</event>
<event>
 5   0  0.5981239E-05  0.2181191E+04  0.7818609E-02  0.8526298E-01
        1   -1    0    0  501    0  0.00000000000E+00  0.00000000000E+00  0.12798491956E+04  0.12798491956E+04  0.50400001928E-02 0. -1.
       -1   -1    0    0    0  501  0.00000000000E+00  0.00000000000E+00 -0.92932688175E+03  0.92932688176E+03  0.50400001928E-02 0.  1.
    10030    2    1    2    0    0  0.00000000000E+00  0.00000000000E+00  0.35052231389E+03  0.22091760774E+04  0.21811907410E+04 0.  0.
        4    1    3    3  502    0 -0.42851284808E+03 -0.32665199547E+02 -0.83994972619E+03  0.94350804536E+03  0.12699999809E+01 0.  1.
       -4    1    3    3    0  502  0.42851284808E+03  0.32665199547E+02  0.11904720401E+04  0.12656680320E+04  0.12699999809E+01 0. -1.
</event>
<event>
 5   0  0.1226021E-04  0.2219357E+04  0.7818609E-02  0.8510414E-01
        2   -1    0    0  501    0  0.00000000000E+00  0.00000000000E+00  0.93098015669E+03  0.93098015670E+03  0.25500000920E-02 0. -1.
       -2   -1    0    0    0  501  0.00000000000E+00  0.00000000000E+00 -0.13226774751E+04  0.13226774751E+04  0.25500000920E-02 0.  1.
    10030    2    1    2    0    0  0.00000000000E+00  0.00000000000E+00 -0.39169731840E+03  0.22536576318E+04  0.22193570988E+04 0.  0.
        2    1    3    3  502    0 -0.22079631314E+03 -0.63478773561E+03 -0.10924903970E+04  0.12826697739E+04  0.25500000920E-02 0.  1.
       -2    1    3    3    0  502  0.22079631314E+03  0.63478773561E+03  0.70079307863E+03  0.97098785793E+03  0.25500000920E-02 0. -1.
</event>
<event>
 5   0  0.1226021E-04  0.2201212E+04  0.7818609E-02  0.8517924E-01
       -2   -1    0    0    0  501  0.00000000000E+00  0.00000000000E+00  0.86416430913E+03  0.86416430914E+03  0.25500000920E-02 0.  1.
        2   -1    0    0  501    0  0.00000000000E+00  0.00000000000E+00 -0.14017400629E+04  0.14017400629E+04  0.25500000920E-02 0. -1.
    10030    2    1    2    0    0  0.00000000000E+00  0.00000000000E+00 -0.53757575378E+03  0.22659043720E+04  0.22012121507E+04 0.  0.
        2    1    3    3  502    0  0.10275413926E+04 -0.32906051717E+03 -0.45119794157E+02  0.10798879263E+04  0.25500000920E-02 0. -1.
       -2    1    3    3    0  502 -0.10275413926E+04  0.32906051717E+03 -0.49245595962E+03  0.11860164458E+04  0.25500000920E-02 0.  1.
</event>
<event>
 5   0  0.4586375E-05  0.2090865E+04  0.7818609E-02  0.8565278E-01
        3   -1    0    0  501    0  0.00000000000E+00  0.00000000000E+00  0.83119118216E+03  0.83119118830E+03  0.10100000352E+00 0. -1.
       -3   -1    0    0    0  501  0.00000000000E+00  0.00000000000E+00 -0.13148948193E+04  0.13148948232E+04  0.10100000352E+00 0.  1.
    10030    2    1    2    0    0  0.00000000000E+00  0.00000000000E+00 -0.48370363714E+03  0.21460860115E+04  0.20908648833E+04 0.  0.
        3    1    3    3  502    0  0.29572396303E+03  0.92659062263E+03  0.15155431118E+03  0.98437369108E+03  0.10100000352E+00 0. -1.
       -3    1    3    3    0  502 -0.29572396303E+03 -0.92659062263E+03 -0.63525794832E+03  0.11617123204E+04  0.10100000352E+00 0.  1.
</event>
<event>
 5   0  0.1252124E-04  0.2082127E+04  0.7818609E-02  0.8569158E-01
        2   -1    0    0  501    0  0.00000000000E+00  0.00000000000E+00  0.88799618886E+03  0.88799618887E+03  0.25500000920E-02 0. -1.
       -2   -1    0    0    0  501  0.00000000000E+00  0.00000000000E+00 -0.12205160589E+04  0.12205160589E+04  0.25500000920E-02 0.  1.
    10030    2    1    2    0    0  0.00000000000E+00  0.00000000000E+00 -0.33251987000E+03  0.21085122477E+04  0.20821273820E+04 0.  0.
        3    1    3    3  502    0  0.39914473773E+02  0.12029162120E+03 -0.12126743063E+04  0.12192793866E+04  0.10100000352E+00 0.  1.
       -3    1    3    3    0  502 -0.39914473773E+02 -0.12029162120E+03  0.88015443629E+03  0.88923286110E+03  0.10100000352E+00 0. -1.
</event>
<event>
 5   0  0.4586375E-05  0.2208403E+04  0.7818609E-02  0.8514939E-01
        4   -1    0    0  501    0  0.00000000000E+00  0.00000000000E+00  0.77521883686E+03  0.77521987714E+03  0.12699999809E+01 0. -1.
       -4   -1    0    0    0  501  0.00000000000E+00  0.00000000000E+00 -0.15727932115E+04  0.15727937242E+04  0.12699999809E+01 0.  1.
    10030    2    1    2    0    0  0.00000000000E+00  0.00000000000E+00 -0.79757437462E+03  0.23480136014E+04  0.22084028141E+04 0.  0.
        1    1    3    3  502    0  0.71039705446E+03 -0.61832056066E+03  0.21408808846E+03  0.96582503610E+03  0.50400001928E-02 0. -1.
       -1    1    3    3    0  502 -0.71039705446E+03  0.61832056066E+03 -0.10116624631E+04  0.13821885653E+04  0.50400001928E-02 0.  1.
</event>
<event>
 5   0  0.5861816E-05  0.2211499E+04  0.7818609E-02  0.8513657E-01
       -1   -1    0    0    0  501  0.00000000000E+00  0.00000000000E+00  0.10431344742E+04  0.10431344742E+04  0.50400001928E-02 0.  1.
        1   -1    0    0  501    0  0.00000000000E+00  0.00000000000E+00 -0.11721232818E+04  0.11721232818E+04  0.50400001928E-02 0. -1.
    10030    2    1    2    0    0  0.00000000000E+00  0.00000000000E+00 -0.12898880766E+03  0.22152577560E+04  0.22114992230E+04 0.  0.
        1    1    3    3  502    0 -0.25985070027E+03  0.59717710605E+03  0.83063459672E+03  0.10555077999E+04  0.50400001928E-02 0.  1.
       -1    1    3    3    0  502  0.25985070027E+03 -0.59717710605E+03 -0.95962340438E+03  0.11597499561E+04  0.50400001928E-02 0. -1.
</event>
<event>
 5   0  0.1226021E-04  0.2084105E+04  0.7818609E-02  0.8568278E-01
        2   -1    0    0  501    0  0.00000000000E+00  0.00000000000E+00  0.11609096376E+04  0.11609096376E+04  0.25500000920E-02 0. -1.
       -2   -1    0    0    0  501  0.00000000000E+00  0.00000000000E+00 -0.93536463989E+03  0.93536463989E+03  0.25500000920E-02 0.  1.
    10030    2    1    2    0    0  0.00000000000E+00  0.00000000000E+00  0.22554499769E+03  0.20962742775E+04  0.20841053957E+04 0.  0.
        2    1    3    3  502    0  0.36898373141E+03 -0.94824311552E+03 -0.11339552743E+03  0.10238029819E+04  0.25500000920E-02 0.  1.
       -2    1    3    3    0  502 -0.36898373141E+03  0.94824311552E+03  0.33894052512E+03  0.10724712955E+04  0.25500000920E-02 0. -1.
</event>
<event>
 5   0  0.1252124E-04  0.2229905E+04  0.7818609E-02  0.8506083E-01
       -2   -1    0    0    0  501  0.00000000000E+00  0.00000000000E+00  0.71097486765E+03  0.71097486766E+03  0.25500000920E-02 0. -1.
        2   -1    0    0  501    0  0.00000000000E+00  0.00000000000E+00 -0.17484706004E+04  0.17484706004E+04  0.25500000920E-02 0.  1.
    10030    2    1    2    0    0  0.00000000000E+00  0.00000000000E+00 -0.10374957328E+04  0.24594454681E+04  0.22299046201E+04 0.  0.
        3    1    3    3  502    0  0.43289053094E+03 -0.35547564137E+02 -0.16513206745E+04  0.17074887470E+04  0.10100000352E+00 0.  1.
       -3    1    3    3    0  502 -0.43289053094E+03  0.35547564137E+02  0.61382494169E+03  0.75195672106E+03  0.10100000352E+00 0. -1.
</event>
<event>
 5   0  0.4586375E-05  0.1943713E+04  0.7818609E-02  0.8633399E-01
        4   -1    0    0  501    0  0.00000000000E+00  0.00000000000E+00  0.78884430690E+03  0.78884532921E+03  0.12699999809E+01 0.  1.
       -4   -1    0    0    0  501  0.00000000000E+00  0.00000000000E+00 -0.11973251056E+04  0.11973257791E+04  0.12699999809E+01 0. -1.
    10030    2    1    2    0    0  0.00000000000E+00  0.00000000000E+00 -0.40848079870E+03  0.19861711084E+04  0.19437127125E+04 0.  0.
        4    1    3    3  502    0 -0.79280667517E+02 -0.25318461873E+03 -0.11596045558E+04  0.11895680788E+04  0.12699999809E+01 0. -1.
       -4    1    3    3    0  502  0.79280667517E+02  0.25318461873E+03  0.75112375706E+03  0.79660302957E+03  0.12699999809E+01 0.  1.
</event>
<event>
 5   0  0.5895063E-05  0.2290775E+04  0.7818609E-02  0.8481567E-01
       -1   -1    0    0    0  501  0.00000000000E+00  0.00000000000E+00  0.10482149811E+04  0.10482149811E+04  0.50400001928E-02 0.  1.
        1   -1    0    0  501    0  0.00000000000E+00  0.00000000000E+00 -0.12515677983E+04  0.12515677983E+04  0.50400001928E-02 0. -1.
    10030    2    1    2    0    0  0.00000000000E+00  0.00000000000E+00 -0.20335281721E+03  0.22997827794E+04  0.22907746428E+04 0.  0.
        5    1    3    3  502    0 -0.22044216585E+02  0.84450516358E+03 -0.87816153063E+03  0.12185502381E+04  0.46999998093E+01 0. -1.
       -5    1    3    3    0  502  0.22044216585E+02 -0.84450516358E+03  0.67480871341E+03  0.10812325414E+04  0.46999998093E+01 0.  1.
</event>
<event>
 5   0  0.1311472E-04  0.2169988E+04  0.7818609E-02  0.8531024E-01
        2   -1    0    0  501    0  0.00000000000E+00  0.00000000000E+00  0.24070779805E+04  0.24070779805E+04  0.25500000920E-02 0.  1.
       -2   -1    0    0    0  501  0.00000000000E+00  0.00000000000E+00 -0.48906278398E+03  0.48906278398E+03  0.25500000920E-02 0. -1.
    10030    2    1    2    0    0  0.00000000000E+00  0.00000000000E+00  0.19180151965E+04  0.28961407645E+04  0.21699882566E+04 0.  0.
        4    1    3    3  502    0 -0.22984820659E+02 -0.10653468871E+04  0.68640759035E+03  0.12675366996E+04  0.12699999809E+01 0.  1.
       -4    1    3    3    0  502  0.22984820659E+02  0.10653468871E+04  0.12316076061E+04  0.16286040649E+04  0.12699999809E+01 0. -1.
</event>
<event>
 5   0  0.6263558E-05  0.2127100E+04  0.7818609E-02  0.8549399E-01
       -1   -1    0    0    0  501  0.00000000000E+00  0.00000000000E+00  0.18370588305E+04  0.18370588305E+04  0.50400001928E-02 0.  1.
        1   -1    0    0  501    0  0.00000000000E+00  0.00000000000E+00 -0.61573337351E+03  0.61573337353E+03  0.50400001928E-02 0. -1.
    10030    2    1    2    0    0  0.00000000000E+00  0.00000000000E+00  0.12213254570E+04  0.24527922040E+04  0.21270998388E+04 0.  0.
        3    1    3    3  502    0 -0.19520149740E+03 -0.41918734908E+03 -0.49375290925E+03  0.67647143606E+03  0.10100000352E+00 0. -1.
       -3    1    3    3    0  502  0.19520149740E+03  0.41918734908E+03  0.17150783662E+04  0.17763207680E+04  0.10100000352E+00 0.  1.
</event>
<event>
 5   0  0.5849604E-05  0.2189326E+04  0.7818609E-02  0.8522884E-01
       -1   -1    0    0    0  501  0.00000000000E+00  0.00000000000E+00  0.47757401980E+03  0.47757401983E+03  0.50400001928E-02 0.  1.
        1   -1    0    0  501    0  0.00000000000E+00  0.00000000000E+00 -0.25091132848E+04  0.25091132848E+04  0.50400001928E-02 0. -1.
    10030    2    1    2    0    0  0.00000000000E+00  0.00000000000E+00 -0.20315392650E+04  0.29866873046E+04  0.21893262138E+04 0.  0.
        2    1    3    3  502    0 -0.67238705072E+03  0.47047989725E+03 -0.20040707410E+04  0.21655842663E+04  0.25500000920E-02 0. -1.
       -2    1    3    3    0  502  0.67238705072E+03 -0.47047989725E+03 -0.27468524012E+02  0.82110303831E+03  0.25500000920E-02 0.  1.
</event>
<event>
 5   0  0.1226021E-04  0.2190377E+04  0.7818609E-02  0.8522444E-01
       -2   -1    0    0    0  501  0.00000000000E+00  0.00000000000E+00  0.95682873384E+03  0.95682873385E+03  0.25500000920E-02 0.  1.
        2   -1    0    0  501    0  0.00000000000E+00  0.00000000000E+00 -0.12535557405E+04  0.12535557405E+04  0.25500000920E-02 0. -1.
    10030    2    1    2    0    0  0.00000000000E+00  0.00000000000E+00 -0.29672700668E+03  0.22103844744E+04  0.21903772753E+04 0.  0.
        2    1    3    3  502    0 -0.67414082505E+03 -0.37365717483E+03  0.63678735178E+03  0.99979181218E+03  0.25500000920E-02 0.  1.
       -2    1    3    3    0  502  0.67414082505E+03  0.37365717483E+03 -0.93351435845E+03  0.12105926622E+04  0.25500000920E-02 0. -1.
</event>
<event>
 5   0  0.1252124E-04  0.2199110E+04  0.7818609E-02  0.8518799E-01
        2   -1    0    0  501    0  0.00000000000E+00  0.00000000000E+00  0.84935614121E+03  0.84935614121E+03  0.25500000920E-02 0.  1.
       -2   -1    0    0    0  501  0.00000000000E+00  0.00000000000E+00 -0.14234562188E+04  0.14234562188E+04  0.25500000920E-02 0. -1.
    10030    2    1    2    0    0  0.00000000000E+00  0.00000000000E+00 -0.57410007756E+03  0.22728123600E+04  0.21991100756E+04 0.  0.
        3    1    3    3  502    0 -0.73671429554E+02  0.10006641758E+04 -0.75186166483E+03  0.12538150762E+04  0.10100000352E+00 0. -1.
       -3    1    3    3    0  502  0.73671429554E+02 -0.10006641758E+04  0.17776158727E+03  0.10189972837E+04  0.10100000352E+00 0.  1.
</event>
<event>
 5   0  0.5981239E-05  0.2294195E+04  0.7818609E-02  0.8480214E-01
       -1   -1    0    0    0  501  0.00000000000E+00  0.00000000000E+00  0.16759120229E+04  0.16759120230E+04  0.50400001928E-02 0. -1.
        1   -1    0    0  501    0  0.00000000000E+00  0.00000000000E+00 -0.78514406936E+03  0.78514406937E+03  0.50400001928E-02 0.  1.
    10030    2    1    2    0    0  0.00000000000E+00  0.00000000000E+00  0.89076795359E+03  0.24610560923E+04  0.22941947481E+04 0.  0.
        4    1    3    3  502    0 -0.12942714707E+03 -0.31082865580E+03  0.16217092857E+04  0.16562935910E+04  0.12699999809E+01 0. -1.
       -4    1    3    3    0  502  0.12942714707E+03  0.31082865580E+03 -0.73094133206E+03  0.80476250129E+03  0.12699999809E+01 0.  1.
</event>
<event>
 5   0  0.1252124E-04  0.1992133E+04  0.7818609E-02  0.8610307E-01
        2   -1    0    0  501    0  0.00000000000E+00  0.00000000000E+00  0.11553891251E+04  0.11553891251E+04  0.25500000920E-02 0.  1.
       -2   -1    0    0    0  501  0.00000000000E+00  0.00000000000E+00 -0.85871410708E+03  0.85871410709E+03  0.25500000920E-02 0. -1.
    10030    2    1    2    0    0  0.00000000000E+00  0.00000000000E+00  0.29667501797E+03  0.20141032321E+04  0.19921334703E+04 0.  0.
        3    1    3    3  502    0 -0.36535382512E+03 -0.35265931216E+03 -0.71802399840E+03  0.87943759328E+03  0.10100000352E+00 0. -1.
       -3    1    3    3    0  502  0.36535382512E+03  0.35265931216E+03  0.10146990164E+04  0.11346656389E+04  0.10100000352E+00 0.  1.
</event>
<event>
 5   0  0.6263558E-05  0.2181087E+04  0.7818609E-02  0.8526342E-01
       -1   -1    0    0    0  501  0.00000000000E+00  0.00000000000E+00  0.97542885603E+03  0.97542885604E+03  0.50400001928E-02 0.  1.
        1   -1    0    0  501    0  0.00000000000E+00  0.00000000000E+00 -0.12192429456E+04  0.12192429456E+04  0.50400001928E-02 0. -1.
    10030    2    1    2    0    0  0.00000000000E+00  0.00000000000E+00 -0.24381408961E+03  0.21946718017E+04  0.21810866573E+04 0.  0.
        3    1    3    3  502    0 -0.78770374136E+03  0.26134065845E+03  0.58996582583E+03  0.10182513490E+04  0.10100000352E+00 0.  1.
       -3    1    3    3    0  502  0.78770374136E+03 -0.26134065845E+03 -0.83377991543E+03  0.11764204527E+04  0.10100000352E+00 0. -1.
</event>
<event>
 5   0  0.1226021E-04  0.2183259E+04  0.7818609E-02  0.8525429E-01
       -2   -1    0    0    0  501  0.00000000000E+00  0.00000000000E+00  0.96954634177E+03  0.96954634178E+03  0.25500000920E-02 0. -1.
        2   -1    0    0  501    0  0.00000000000E+00  0.00000000000E+00 -0.12290846105E+04  0.12290846105E+04  0.25500000920E-02 0.  1.
    10030    2    1    2    0    0  0.00000000000E+00  0.00000000000E+00 -0.25953826875E+03  0.21986309523E+04  0.21832585627E+04 0.  0.
        2    1    3    3  502    0 -0.81699894691E+03  0.88301685191E+02 -0.85341765024E+03  0.11847388542E+04  0.25500000920E-02 0.  1.
       -2    1    3    3    0  502  0.81699894691E+03 -0.88301685191E+02  0.59387938149E+03  0.10138920981E+04  0.25500000920E-02 0. -1.
</event>
<event>
 5   0  0.1252124E-04  0.2208261E+04  0.7818609E-02  0.8514998E-01
       -2   -1    0    0    0  501  0.00000000000E+00  0.00000000000E+00  0.81123381522E+03  0.81123381522E+03  0.25500000920E-02 0. -1.
        2   -1    0    0  501    0  0.00000000000E+00  0.00000000000E+00 -0.15027773712E+04  0.15027773712E+04  0.25500000920E-02 0.  1.
    10030    2    1    2    0    0  0.00000000000E+00  0.00000000000E+00 -0.69154355601E+03  0.23140111864E+04  0.22082606914E+04 0.  0.
        3    1    3    3  502    0 -0.72881792452E+03  0.70666909866E+03 -0.80078598601E+03  0.12929868475E+04  0.10100000352E+00 0.  1.
       -3    1    3    3    0  502  0.72881792452E+03 -0.70666909866E+03  0.10924243000E+03  0.10210243390E+04  0.10100000352E+00 0. -1.
</event>
<event>
 5   0  0.1241430E-04  0.2112279E+04  0.7818609E-02  0.8555854E-01
       -2   -1    0    0    0  501  0.00000000000E+00  0.00000000000E+00  0.17791679505E+04  0.17791679505E+04  0.25500000920E-02 0.  1.
        2   -1    0    0  501    0  0.00000000000E+00  0.00000000000E+00 -0.62693950258E+03  0.62693950258E+03  0.25500000920E-02 0. -1.
    10030    2    1    2    0    0  0.00000000000E+00  0.00000000000E+00  0.11522284479E+04  0.24061074531E+04  0.21122790250E+04 0.  0.
        1    1    3    3  502    0 -0.74624146960E+03 -0.74511403354E+03  0.64213727985E+03  0.12346706201E+04  0.50400001928E-02 0.  1.
       -1    1    3    3    0  502  0.74624146960E+03  0.74511403354E+03  0.51009116807E+03  0.11714368330E+04  0.50400001928E-02 0. -1.
</event>
<event>
 5   0  0.5861816E-05  0.2152239E+04  0.7818609E-02  0.8538574E-01
       -1   -1    0    0    0  501  0.00000000000E+00  0.00000000000E+00  0.10347035270E+04  0.10347035270E+04  0.50400001928E-02 0.  1.
        1   -1    0    0  501    0  0.00000000000E+00  0.00000000000E+00 -0.11191935754E+04  0.11191935754E+04  0.50400001928E-02 0. -1.
    10030    2    1    2    0    0  0.00000000000E+00  0.00000000000E+00 -0.84490048322E+02  0.21538971024E+04  0.21522393360E+04 0.  0.
        1    1    3    3  502    0 -0.26756567605E+02  0.10482080064E+04  0.19996949848E+03  0.10674473003E+04  0.50400001928E-02 0.  1.
       -1    1    3    3    0  502  0.26756567605E+02 -0.10482080064E+04 -0.28445954681E+03  0.10864498021E+04  0.50400001928E-02 0. -1.
</event>
<event>
 5   0  0.1241430E-04  0.1803792E+04  0.7818609E-02  0.8704285E-01
       -2   -1    0    0    0  501  0.00000000000E+00  0.00000000000E+00  0.49084916518E+03  0.49084916519E+03  0.25500000920E-02 0.  1.
        2   -1    0    0  501    0  0.00000000000E+00  0.00000000000E+00 -0.16571619382E+04  0.16571619382E+04  0.25500000920E-02 0. -1.
    10030    2    1    2    0    0  0.00000000000E+00  0.00000000000E+00 -0.11663127730E+04  0.21480111034E+04  0.18037921764E+04 0.  0.
        1    1    3    3  502    0 -0.34023251382E+03  0.83321335144E+03 -0.65273495850E+03  0.11117848616E+04  0.50400001928E-02 0. -1.
       -1    1    3    3    0  502  0.34023251382E+03 -0.83321335144E+03 -0.51357781448E+03  0.10362262417E+04  0.50400001928E-02 0.  1.
</event>
<event>
 5   0  0.5981239E-05  0.2212604E+04  0.7818609E-02  0.8513200E-01
        1   -1    0    0  501    0  0.00000000000E+00  0.00000000000E+00  0.17256960931E+04  0.17256960931E+04  0.50400001928E-02 0. -1.
       -1   -1    0    0    0  501  0.00000000000E+00  0.00000000000E+00 -0.70922356069E+03  0.70922356071E+03  0.50400001928E-02 0.  1.
    10030    2    1    2    0    0  0.00000000000E+00  0.00000000000E+00  0.10164725324E+04  0.24349196539E+04  0.22126041922E+04 0.  0.
        4    1    3    3  502    0  0.12115175912E+03  0.26192309914E+02 -0.70155717706E+03  0.71242394080E+03  0.12699999809E+01 0.  1.
       -4    1    3    3    0  502 -0.12115175912E+03 -0.26192309914E+02  0.17180297095E+04  0.17224957131E+04  0.12699999809E+01 0. -1.
</event>
<event>
 5   0  0.1404159E-04  0.1687398E+04  0.7818609E-02  0.8768584E-01
       -2   -1    0    0    0  501  0.00000000000E+00  0.00000000000E+00  0.41429123179E+03  0.41429123180E+03  0.25500000920E-02 0.  1.
        2   -1    0    0  501    0  0.00000000000E+00  0.00000000000E+00 -0.17181833108E+04  0.17181833108E+04  0.25500000920E-02 0. -1.
    10030    2    1    2    0    0  0.00000000000E+00  0.00000000000E+00 -0.13038920790E+04  0.21324745426E+04  0.16873983291E+04 0.  0.
        5    1    3    3  502    0  0.67059317525E+03  0.30233500967E+03 -0.12980388370E+03  0.74697577135E+03  0.46999998093E+01 0.  1.
       -5    1    3    3    0  502 -0.67059317525E+03 -0.30233500967E+03 -0.11740881953E+04  0.13854987712E+04  0.46999998093E+01 0. -1.
</event>
<event>
 5   0  0.5981239E-05  0.2112126E+04  0.7818609E-02  0.8555920E-01
       -1   -1    0    0    0  501  0.00000000000E+00  0.00000000000E+00  0.14798841995E+04  0.14798841995E+04  0.50400001928E-02 0.  1.
        1   -1    0    0  501    0  0.00000000000E+00  0.00000000000E+00 -0.75361926780E+03  0.75361926782E+03  0.50400001928E-02 0. -1.
    10030    2    1    2    0    0  0.00000000000E+00  0.00000000000E+00  0.72626493173E+03  0.22335034674E+04  0.21121261770E+04 0.  0.
        4    1    3    3  502    0 -0.28053920030E+03 -0.57716766454E+03 -0.52378088089E+03  0.82835546717E+03  0.12699999809E+01 0. -1.
       -4    1    3    3    0  502  0.28053920030E+03  0.57716766454E+03  0.12500458126E+04  0.14051480002E+04  0.12699999809E+01 0.  1.
</event>
<event>
 5   0  0.6263558E-05  0.2183057E+04  0.7818609E-02  0.8525513E-01
       -1   -1    0    0    0  501  0.00000000000E+00  0.00000000000E+00  0.71756752169E+03  0.71756752170E+03  0.50400001928E-02 0. -1.
        1   -1    0    0  501    0  0.00000000000E+00  0.00000000000E+00 -0.16603792459E+04  0.16603792459E+04  0.50400001928E-02 0.  1.
    10030    2    1    2    0    0  0.00000000000E+00  0.00000000000E+00 -0.94281172425E+03  0.23779467676E+04  0.21830567749E+04 0.  0.
        3    1    3    3  502    0 -0.31838835567E+03  0.76428010806E+03  0.30338799528E+03  0.88178201075E+03  0.10100000352E+00 0. -1.
       -3    1    3    3    0  502  0.31838835567E+03 -0.76428010806E+03 -0.12461997195E+04  0.14961647569E+04  0.10100000352E+00 0.  1.
</event>
<event>
 5   0  0.1241430E-04  0.2150055E+04  0.7818609E-02  0.8539509E-01
       -2   -1    0    0    0  501  0.00000000000E+00  0.00000000000E+00  0.89055690525E+03  0.89055690525E+03  0.25500000920E-02 0.  1.
        2   -1    0    0  501    0  0.00000000000E+00  0.00000000000E+00 -0.12977096671E+04  0.12977096671E+04  0.25500000920E-02 0. -1.
    10030    2    1    2    0    0  0.00000000000E+00  0.00000000000E+00 -0.40715276188E+03  0.21882665724E+04  0.21500551668E+04 0.  0.
        1    1    3    3  502    0 -0.98602308866E+03 -0.23038323644E+03 -0.57105608344E+03  0.11625072118E+04  0.50400001928E-02 0. -1.
       -1    1    3    3    0  502  0.98602308866E+03  0.23038323644E+03  0.16390332156E+03  0.10257593606E+04  0.50400001928E-02 0.  1.
</event>
<event>
 5   0  0.1311472E-04  0.2162487E+04  0.7818609E-02  0.8534206E-01
        2   -1    0    0  501    0  0.00000000000E+00  0.00000000000E+00  0.84262148674E+03  0.84262148674E+03  0.25500000920E-02 0.  1.
       -2   -1    0    0    0  501  0.00000000000E+00  0.00000000000E+00 -0.13874403337E+04  0.13874403337E+04  0.25500000920E-02 0. -1.
    10030    2    1    2    0    0  0.00000000000E+00  0.00000000000E+00 -0.54481884695E+03  0.22300618204E+04  0.21624865657E+04 0.  0.
        4    1    3    3  502    0 -0.63920102088E+03  0.34347964736E+03 -0.10990370630E+04  0.13169815079E+04  0.12699999809E+01 0. -1.
       -4    1    3    3    0  502  0.63920102088E+03 -0.34347964736E+03  0.55421821608E+03  0.91308031256E+03  0.12699999809E+01 0.  1.
</event>
<event>
 5   0  0.1252124E-04  0.2133608E+04  0.7818609E-02  0.8546582E-01
       -2   -1    0    0    0  501  0.00000000000E+00  0.00000000000E+00  0.71961509989E+03  0.71961509989E+03  0.25500000920E-02 0. -1.
        2   -1    0    0  501    0  0.00000000000E+00  0.00000000000E+00 -0.15814995316E+04  0.15814995316E+04  0.25500000920E-02 0.  1.
    10030    2    1    2    0    0  0.00000000000E+00  0.00000000000E+00 -0.86188443170E+03  0.23011146315E+04  0.21336081584E+04 0.  0.
        3    1    3    3  502    0 -0.41587909077E+03  0.64453245527E+03  0.36867818044E+03  0.85105881993E+03  0.10100000352E+00 0. -1.
       -3    1    3    3    0  502  0.41587909077E+03 -0.64453245527E+03 -0.12305626121E+04  0.14500558116E+04  0.10100000352E+00 0.  1.
</event>
<event>
 5   0  0.5849604E-05  0.2171441E+04  0.7818609E-02  0.8530410E-01
       -1   -1    0    0    0  501  0.00000000000E+00  0.00000000000E+00  0.13607225483E+04  0.13607225483E+04  0.50400001928E-02 0. -1.
        1   -1    0    0  501    0  0.00000000000E+00  0.00000000000E+00 -0.86629604435E+03  0.86629604436E+03  0.50400001928E-02 0.  1.
    10030    2    1    2    0    0  0.00000000000E+00  0.00000000000E+00  0.49442650391E+03  0.22270185926E+04  0.21714405919E+04 0.  0.
        2    1    3    3  502    0 -0.10693397199E+04  0.13766979444E+03  0.37834571716E+03  0.11426223745E+04  0.25500000920E-02 0. -1.
       -2    1    3    3    0  502  0.10693397199E+04 -0.13766979444E+03  0.11608078675E+03  0.10843962182E+04  0.25500000920E-02 0.  1.
</event>
<event>
 5   0  0.5849604E-05  0.2242261E+04  0.7818609E-02  0.8501041E-01
       -1   -1    0    0    0  501  0.00000000000E+00  0.00000000000E+00  0.12888352182E+04  0.12888352182E+04  0.50400001928E-02 0. -1.
        1   -1    0    0  501    0  0.00000000000E+00  0.00000000000E+00 -0.97524745057E+03  0.97524745058E+03  0.50400001928E-02 0.  1.
    10030    2    1    2    0    0  0.00000000000E+00  0.00000000000E+00  0.31358776762E+03  0.22640826688E+04  0.22422606992E+04 0.  0.
        2    1    3    3  502    0 -0.46612215849E+03 -0.83179124388E+03  0.75226770468E+03  0.12145176983E+04  0.25500000920E-02 0.  1.
       -2    1    3    3    0  502  0.46612215849E+03  0.83179124388E+03 -0.43867993706E+03  0.10495649705E+04  0.25500000920E-02 0. -1.
</event>
<event>
 5   0  0.1404159E-04  0.2239718E+04  0.7818609E-02  0.8502076E-01
        2   -1    0    0  501    0  0.00000000000E+00  0.00000000000E+00  0.15178301629E+04  0.15178301629E+04  0.25500000920E-02 0. -1.
       -2   -1    0    0    0  501  0.00000000000E+00  0.00000000000E+00 -0.82623467159E+03  0.82623467159E+03  0.25500000920E-02 0.  1.
    10030    2    1    2    0    0  0.00000000000E+00  0.00000000000E+00  0.69159549134E+03  0.23440648345E+04  0.22397177556E+04 0.  0.
        5    1    3    3  502    0  0.15953264692E+03  0.11013198283E+04  0.47695918439E+03  0.12107304338E+04  0.46999998093E+01 0.  1.
       -5    1    3    3    0  502 -0.15953264692E+03 -0.11013198283E+04  0.21463630695E+03  0.11333344008E+04  0.46999998093E+01 0. -1.
</event>
<event>
 5   0  0.5861816E-05  0.2130803E+04  0.7818609E-02  0.8547794E-01
       -1   -1    0    0    0  501  0.00000000000E+00  0.00000000000E+00  0.81808162014E+03  0.81808162015E+03  0.50400001928E-02 0. -1.
        1   -1    0    0  501    0  0.00000000000E+00  0.00000000000E+00 -0.13874909096E+04  0.13874909096E+04  0.50400001928E-02 0.  1.
    10030    2    1    2    0    0  0.00000000000E+00  0.00000000000E+00 -0.56940928951E+03  0.22055725298E+04  0.21308034272E+04 0.  0.
        1    1    3    3  502    0 -0.27410599506E+03  0.89532997417E+03  0.24139278457E+03  0.96696449554E+03  0.50400001928E-02 0.  1.
       -1    1    3    3    0  502  0.27410599506E+03 -0.89532997417E+03 -0.81080207408E+03  0.12386080343E+04  0.50400001928E-02 0. -1.
</event>
<event>
 5   0  0.1241430E-04  0.2179183E+04  0.7818609E-02  0.8527143E-01
        2   -1    0    0  501    0  0.00000000000E+00  0.00000000000E+00  0.15513235879E+04  0.15513235879E+04  0.25500000920E-02 0. -1.
       -2   -1    0    0    0  501  0.00000000000E+00  0.00000000000E+00 -0.76528837280E+03  0.76528837280E+03  0.25500000920E-02 0.  1.
    10030    2    1    2    0    0  0.00000000000E+00  0.00000000000E+00  0.78603521507E+03  0.23166119607E+04  0.21791832454E+04 0.  0.
        1    1    3    3  502    0 -0.39746468147E+03  0.10015445276E+04  0.22114180145E+03  0.10999878682E+04  0.50400001928E-02 0.  1.
       -1    1    3    3    0  502  0.39746468147E+03 -0.10015445276E+04  0.56489341363E+03  0.12166240925E+04  0.50400001928E-02 0. -1.
</event>
<event>
 5   0  0.5849604E-05  0.2214936E+04  0.7818609E-02  0.8512237E-01
       -1   -1    0    0    0  501  0.00000000000E+00  0.00000000000E+00  0.14900802448E+04  0.14900802448E+04  0.50400001928E-02 0. -1.
        1   -1    0    0  501    0  0.00000000000E+00  0.00000000000E+00 -0.82309998966E+03  0.82309998968E+03  0.50400001928E-02 0.  1.
    10030    2    1    2    0    0  0.00000000000E+00  0.00000000000E+00  0.66698025513E+03  0.23131802345E+04  0.22149356958E+04 0.  0.
        2    1    3    3  502    0  0.57402368262E+03  0.49576462693E+03 -0.50927257371E+03  0.91358869732E+03  0.25500000920E-02 0.  1.
       -2    1    3    3    0  502 -0.57402368262E+03 -0.49576462693E+03  0.11762528288E+04  0.13995915372E+04  0.25500000920E-02 0. -1.
</event>
<event>
 5   0  0.5981239E-05  0.2188559E+04  0.7818609E-02  0.8523205E-01
        1   -1    0    0  501    0  0.00000000000E+00  0.00000000000E+00  0.85385917061E+03  0.85385917062E+03  0.50400001928E-02 0. -1.
       -1   -1    0    0    0  501  0.00000000000E+00  0.00000000000E+00 -0.14023951255E+04  0.14023951256E+04  0.50400001928E-02 0.  1.
    10030    2    1    2    0    0  0.00000000000E+00  0.00000000000E+00 -0.54853595494E+03  0.22562542962E+04  0.21885592876E+04 0.  0.
        4    1    3    3  502    0  0.78693161651E+03 -0.38654853577E+03 -0.94932348971E+03  0.12922452711E+04  0.12699999809E+01 0.  1.
       -4    1    3    3    0  502 -0.78693161651E+03  0.38654853577E+03  0.40078753477E+03  0.96400902511E+03  0.12699999809E+01 0. -1.
</event>
<event>
 5   0  0.4586375E-05  0.2167188E+04  0.7818609E-02  0.8532211E-01
        3   -1    0    0  501    0  0.00000000000E+00  0.00000000000E+00  0.11954047082E+04  0.11954047125E+04  0.10100000352E+00 0. -1.
       -3   -1    0    0    0  501  0.00000000000E+00  0.00000000000E+00 -0.98224138049E+03  0.98224138569E+03  0.10100000352E+00 0.  1.
    10030    2    1    2    0    0  0.00000000000E+00  0.00000000000E+00  0.21316332775E+03  0.21776460982E+04  0.21671880225E+04 0.  0.
        2    1    3    3  502    0 -0.48385483336E+03 -0.26921079093E+03 -0.82935613092E+03  0.99720687002E+03  0.25500000920E-02 0.  1.
       -2    1    3    3    0  502  0.48385483336E+03  0.26921079093E+03  0.10425194587E+04  0.11804392282E+04  0.25500000920E-02 0. -1.
</event>
<event>
 5   0  0.1311472E-04  0.2211905E+04  0.7818609E-02  0.8513489E-01
       -2   -1    0    0    0  501  0.00000000000E+00  0.00000000000E+00  0.34017980959E+04  0.34017980959E+04  0.25500000920E-02 0. -1.
        2   -1    0    0  501    0  0.00000000000E+00  0.00000000000E+00 -0.35955439387E+03  0.35955439388E+03  0.25500000920E-02 0.  1.
    10030    2    1    2    0    0  0.00000000000E+00  0.00000000000E+00  0.30422437020E+04  0.37613524898E+04  0.22119054704E+04 0.  0.
        4    1    3    3  502    0  0.31129631379E+03  0.10334276771E+04  0.11106988396E+04  0.15487193690E+04  0.12699999809E+01 0.  1.
       -4    1    3    3    0  502 -0.31129631379E+03 -0.10334276771E+04  0.19315448624E+04  0.22126331207E+04  0.12699999809E+01 0. -1.
</event>
<event>
 5   0  0.5895063E-05  0.2173598E+04  0.7818609E-02  0.8529498E-01
       -1   -1    0    0    0  501  0.00000000000E+00  0.00000000000E+00  0.89460616605E+03  0.89460616606E+03  0.50400001928E-02 0. -1.
        1   -1    0    0  501    0  0.00000000000E+00  0.00000000000E+00 -0.13202816505E+04  0.13202816505E+04  0.50400001928E-02 0.  1.
    10030    2    1    2    0    0  0.00000000000E+00  0.00000000000E+00 -0.42567548441E+03  0.22148878165E+04  0.21735980359E+04 0.  0.
        5    1    3    3  502    0 -0.70592962887E+03 -0.79424128353E+03 -0.44510214642E+03  0.11520824051E+04  0.46999998093E+01 0.  1.
       -5    1    3    3    0  502  0.70592962887E+03  0.79424128353E+03  0.19426662012E+02  0.10628054114E+04  0.46999998093E+01 0. -1.
</event>
<event>
 5   0  0.1226021E-04  0.2224598E+04  0.7818609E-02  0.8508259E-01
       -2   -1    0    0    0  501  0.00000000000E+00  0.00000000000E+00  0.90592401187E+03  0.90592401188E+03  0.25500000920E-02 0.  1.
        2   -1    0    0  501    0  0.00000000000E+00  0.00000000000E+00 -0.13656876122E+04  0.13656876123E+04  0.25500000920E-02 0. -1.
    10030    2    1    2    0    0  0.00000000000E+00  0.00000000000E+00 -0.45976360037E+03  0.22716116241E+04  0.22245981216E+04 0.  0.
        2    1    3    3  502    0  0.32142055768E+03 -0.42994142743E+03  0.76489739909E+03  0.93446714071E+03  0.25500000920E-02 0.  1.
       -2    1    3    3    0  502 -0.32142055768E+03  0.42994142743E+03 -0.12246609995E+04  0.13371444834E+04  0.25500000920E-02 0. -1.
</event>
<event>
 5   0  0.5849604E-05  0.2182830E+04  0.7818609E-02  0.8525609E-01
        1   -1    0    0  501    0  0.00000000000E+00  0.00000000000E+00  0.20136834144E+04  0.20136834144E+04  0.50400001928E-02 0. -1.
       -1   -1    0    0    0  501  0.00000000000E+00  0.00000000000E+00 -0.59154609099E+03  0.59154609101E+03  0.50400001928E-02 0.  1.
    10030    2    1    2    0    0  0.00000000000E+00  0.00000000000E+00  0.14221373234E+04  0.26052295054E+04  0.21828298627E+04 0.  0.
        2    1    3    3  502    0 -0.55721148054E+03  0.67000971841E+03  0.14953318600E+04  0.17307267341E+04  0.25500000920E-02 0. -1.
       -2    1    3    3    0  502  0.55721148054E+03 -0.67000971841E+03 -0.73194536549E+02  0.87450277129E+03  0.25500000920E-02 0.  1.
</event>
<event>
 5   0  0.5861816E-05  0.2218132E+04  0.7818609E-02  0.8510919E-01
        1   -1    0    0  501    0  0.00000000000E+00  0.00000000000E+00  0.78043965965E+03  0.78043965966E+03  0.50400001928E-02 0.  1.
       -1   -1    0    0    0  501  0.00000000000E+00  0.00000000000E+00 -0.15760704517E+04  0.15760704517E+04  0.50400001928E-02 0. -1.
    10030    2    1    2    0    0  0.00000000000E+00  0.00000000000E+00 -0.79563079205E+03  0.23565101114E+04  0.22181324459E+04 0.  0.
        1    1    3    3  502    0 -0.85924988597E+02  0.32698958585E+03  0.72435794451E+03  0.79937458348E+03  0.50400001928E-02 0.  1.
       -1    1    3    3    0  502  0.85924988597E+02 -0.32698958585E+03 -0.15199887366E+04  0.15571355279E+04  0.50400001928E-02 0. -1.
</event>
<event>
 5   0  0.1226021E-04  0.2206610E+04  0.7818609E-02  0.8515682E-01
       -2   -1    0    0    0  501  0.00000000000E+00  0.00000000000E+00  0.15082750761E+04  0.15082750761E+04  0.25500000920E-02 0.  1.
        2   -1    0    0  501    0  0.00000000000E+00  0.00000000000E+00 -0.80706906426E+03  0.80706906426E+03  0.25500000920E-02 0. -1.
    10030    2    1    2    0    0  0.00000000000E+00  0.00000000000E+00  0.70120601181E+03  0.23153441403E+04  0.22066102096E+04 0.  0.
        2    1    3    3  502    0 -0.17672070044E+03  0.30708876441E+03 -0.74575203540E+03  0.82563903341E+03  0.25500000920E-02 0. -1.
       -2    1    3    3    0  502  0.17672070044E+03 -0.30708876441E+03  0.14469580472E+04  0.14897051069E+04  0.25500000920E-02 0.  1.
</event>
<event>
 5   0  0.1311472E-04  0.2212482E+04  0.7818609E-02  0.8513251E-01
        2   -1    0    0  501    0  0.00000000000E+00  0.00000000000E+00  0.16758858456E+04  0.16758858456E+04  0.25500000920E-02 0.  1.
       -2   -1    0    0    0  501  0.00000000000E+00  0.00000000000E+00 -0.73022201699E+03  0.73022201699E+03  0.25500000920E-02 0. -1.
    10030    2    1    2    0    0  0.00000000000E+00  0.00000000000E+00  0.94566382861E+03  0.24061078626E+04  0.22124816315E+04 0.  0.
        4    1    3    3  502    0 -0.10745098839E+04  0.18155867280E+03  0.67983751453E+03  0.12844125900E+04  0.12699999809E+01 0.  1.
       -4    1    3    3    0  502  0.10745098839E+04 -0.18155867280E+03  0.26582631407E+03  0.11216952726E+04  0.12699999809E+01 0. -1.
</event>
<event>
 5   0  0.5849604E-05  0.2194412E+04  0.7818609E-02  0.8520758E-01
        1   -1    0    0  501    0  0.00000000000E+00  0.00000000000E+00  0.75595355422E+03  0.75595355424E+03  0.50400001928E-02 0. -1.
       -1   -1    0    0    0  501  0.00000000000E+00  0.00000000000E+00 -0.15925063656E+04  0.15925063656E+04  0.50400001928E-02 0.  1.
    10030    2    1    2    0    0  0.00000000000E+00  0.00000000000E+00 -0.83655281139E+03  0.23484599198E+04  0.21944118549E+04 0.  0.
        2    1    3    3  502    0 -0.53736464542E+01 -0.80681549360E+03  0.37748109101E+03  0.89077050404E+03  0.25500000920E-02 0. -1.
       -2    1    3    3    0  502  0.53736464542E+01  0.80681549360E+03 -0.12140339024E+04  0.14576894158E+04  0.25500000920E-02 0.  1.
</event>
<event>
 5   0  0.5861816E-05  0.2232995E+04  0.7818609E-02  0.8504819E-01
       -1   -1    0    0    0  501  0.00000000000E+00  0.00000000000E+00  0.14063037406E+04  0.14063037406E+04  0.50400001928E-02 0. -1.
        1   -1    0    0  501    0  0.00000000000E+00  0.00000000000E+00 -0.88641353604E+03  0.88641353605E+03  0.50400001928E-02 0.  1.
    10030    2    1    2    0    0  0.00000000000E+00  0.00000000000E+00  0.51989020456E+03  0.22927172767E+04  0.22329950036E+04 0.  0.
        1    1    3    3  502    0 -0.42638619350E+03  0.10028076991E+04  0.10257592345E+02  0.10897401918E+04  0.50400001928E-02 0.  1.
       -1    1    3    3    0  502  0.42638619350E+03 -0.10028076991E+04  0.50963261222E+03  0.12029770849E+04  0.50400001928E-02 0. -1.
</event>
<event>
 5   0  0.5981239E-05  0.2188084E+04  0.7818609E-02  0.8523404E-01
        1   -1    0    0  501    0  0.00000000000E+00  0.00000000000E+00  0.23440158819E+04  0.23440158819E+04  0.50400001928E-02 0. -1.
       -1   -1    0    0    0  501  0.00000000000E+00  0.00000000000E+00 -0.51063128851E+03  0.51063128854E+03  0.50400001928E-02 0.  1.
    10030    2    1    2    0    0  0.00000000000E+00  0.00000000000E+00  0.18333845934E+04  0.28546471705E+04  0.21880839565E+04 0.  0.
        4    1    3    3  502    0 -0.70018773011E+03  0.71567317959E+03  0.14920271164E+04  0.17968298434E+04  0.12699999809E+01 0. -1.
       -4    1    3    3    0  502  0.70018773011E+03 -0.71567317959E+03  0.34135747708E+03  0.10578173271E+04  0.12699999809E+01 0.  1.
</event>
<event>
 5   0  0.1311472E-04  0.2180954E+04  0.7818609E-02  0.8526398E-01
        2   -1    0    0  501    0  0.00000000000E+00  0.00000000000E+00  0.18530490993E+04  0.18530490993E+04  0.25500000920E-02 0.  1.
       -2   -1    0    0    0  501  0.00000000000E+00  0.00000000000E+00 -0.64172072197E+03  0.64172072198E+03  0.25500000920E-02 0. -1.
    10030    2    1    2    0    0  0.00000000000E+00  0.00000000000E+00  0.12113283773E+04  0.24947698213E+04  0.21809539251E+04 0.  0.
        4    1    3    3  502    0  0.62304670455E+03 -0.71370683216E+03  0.12233366028E+04  0.15472939911E+04  0.12699999809E+01 0.  1.
       -4    1    3    3    0  502 -0.62304670455E+03  0.71370683216E+03 -0.12008225488E+02  0.94747583014E+03  0.12699999809E+01 0. -1.
</event>
<event>
 5   0  0.6263558E-05  0.2275093E+04  0.7818609E-02  0.8487807E-01
        1   -1    0    0  501    0  0.00000000000E+00  0.00000000000E+00  0.19394693932E+04  0.19394693932E+04  0.50400001928E-02 0. -1.
       -1   -1    0    0    0  501  0.00000000000E+00  0.00000000000E+00 -0.66719905227E+03  0.66719905229E+03  0.50400001928E-02 0.  1.
    10030    2    1    2    0    0  0.00000000000E+00  0.00000000000E+00  0.12722703409E+04  0.26066684455E+04  0.22750930891E+04 0.  0.
        3    1    3    3  502    0  0.45915990570E+03 -0.95392832457E+03  0.11129688420E+04  0.15360685925E+04  0.10100000352E+00 0. -1.
       -3    1    3    3    0  502 -0.45915990570E+03  0.95392832457E+03  0.15930149891E+03  0.10705998530E+04  0.10100000352E+00 0.  1.
</event>
<event>
 5   0  0.5861816E-05  0.2181240E+04  0.7818609E-02  0.8526277E-01
        1   -1    0    0  501    0  0.00000000000E+00  0.00000000000E+00  0.19508673606E+04  0.19508673606E+04  0.50400001928E-02 0. -1.
       -1   -1    0    0    0  501  0.00000000000E+00  0.00000000000E+00 -0.60970413450E+03  0.60970413452E+03  0.50400001928E-02 0.  1.
    10030    2    1    2    0    0  0.00000000000E+00  0.00000000000E+00  0.13411632261E+04  0.25605714951E+04  0.21812399186E+04 0.  0.
        1    1    3    3  502    0  0.57367118433E+03 -0.40256864513E+03  0.16515430302E+04  0.17940887721E+04  0.50400001928E-02 0. -1.
       -1    1    3    3    0  502 -0.57367118433E+03  0.40256864513E+03 -0.31037980410E+03  0.76648272296E+03  0.50400001928E-02 0.  1.
</event>
<event>
 5   0  0.5861816E-05  0.2247960E+04  0.7818609E-02  0.8498727E-01
        1   -1    0    0  501    0  0.00000000000E+00  0.00000000000E+00  0.17836262469E+04  0.17836262469E+04  0.50400001928E-02 0.  1.
       -1   -1    0    0    0  501  0.00000000000E+00  0.00000000000E+00 -0.70829390245E+03  0.70829390247E+03  0.50400001928E-02 0. -1.
    10030    2    1    2    0    0  0.00000000000E+00  0.00000000000E+00  0.10753323444E+04  0.24919201493E+04  0.22479604934E+04 0.  0.
        1    1    3    3  502    0  0.21090255849E+03 -0.97310936610E+03  0.11157062240E+04  0.14954003163E+04  0.50400001928E-02 0.  1.
       -1    1    3    3    0  502 -0.21090255849E+03  0.97310936610E+03 -0.40373879580E+02  0.99651983309E+03  0.50400001928E-02 0. -1.
</event>
<event>
 5   0  0.1311472E-04  0.2198669E+04  0.7818609E-02  0.8518983E-01
        2   -1    0    0  501    0  0.00000000000E+00  0.00000000000E+00  0.14681200682E+04  0.14681200682E+04  0.25500000920E-02 0.  1.
       -2   -1    0    0    0  501  0.00000000000E+00  0.00000000000E+00 -0.82318595156E+03  0.82318595156E+03  0.25500000920E-02 0. -1.
    10030    2    1    2    0    0  0.00000000000E+00  0.00000000000E+00  0.64493411659E+03  0.22913060197E+04  0.21986685201E+04 0.  0.
        4    1    3    3  502    0 -0.58025298085E+02  0.97429775123E+02 -0.81707368801E+03  0.82490637095E+03  0.12699999809E+01 0. -1.
       -4    1    3    3    0  502  0.58025298085E+02 -0.97429775123E+02  0.14620078046E+04  0.14663996488E+04  0.12699999809E+01 0.  1.
</event>
<event>
 5   0  0.1252124E-04  0.2203784E+04  0.7818609E-02  0.8516855E-01
        2   -1    0    0  501    0  0.00000000000E+00  0.00000000000E+00  0.95485705049E+03  0.95485705049E+03  0.25500000920E-02 0.  1.
       -2   -1    0    0    0  501  0.00000000000E+00  0.00000000000E+00 -0.12715678802E+04  0.12715678802E+04  0.25500000920E-02 0. -1.
    10030    2    1    2    0    0  0.00000000000E+00  0.00000000000E+00 -0.31671082971E+03  0.22264249307E+04  0.22037836151E+04 0.  0.
        3    1    3    3  502    0 -0.64660449422E+03  0.87196699499E+03  0.32641745404E+02  0.10860429577E+04  0.10100000352E+00 0.  1.
       -3    1    3    3    0  502  0.64660449422E+03 -0.87196699499E+03 -0.34935257511E+03  0.11403819730E+04  0.10100000352E+00 0. -1.
</event>
<event>
 5   0  0.1404159E-04  0.2169768E+04  0.7818609E-02  0.8531118E-01
       -2   -1    0    0    0  501  0.00000000000E+00  0.00000000000E+00  0.48092361959E+03  0.48092361960E+03  0.25500000920E-02 0. -1.
        2   -1    0    0  501    0  0.00000000000E+00  0.00000000000E+00 -0.24473185947E+04  0.24473185947E+04  0.25500000920E-02 0.  1.
    10030    2    1    2    0    0  0.00000000000E+00  0.00000000000E+00 -0.19663949751E+04  0.29282422143E+04  0.21697680216E+04 0.  0.
        5    1    3    3  502    0 -0.94084557406E+03  0.48154153785E+03 -0.65295766734E+03  0.12423560087E+04  0.46999998093E+01 0. -1.
       -5    1    3    3    0  502  0.94084557406E+03 -0.48154153785E+03 -0.13134373077E+04  0.16858862056E+04  0.46999998093E+01 0.  1.
</event>
<event>
 5   0  0.1252124E-04  0.2154645E+04  0.7818609E-02  0.8537547E-01
       -2   -1    0    0    0  501  0.00000000000E+00  0.00000000000E+00  0.64997891832E+03  0.64997891832E+03  0.25500000920E-02 0. -1.
        2   -1    0    0  501    0  0.00000000000E+00  0.00000000000E+00 -0.17856325387E+04  0.17856325387E+04  0.25500000920E-02 0.  1.
    10030    2    1    2    0    0  0.00000000000E+00  0.00000000000E+00 -0.11356536203E+04  0.24356114570E+04  0.21546447559E+04 0.  0.
        3    1    3    3  502    0  0.63584457276E+03  0.81931632121E+03 -0.89748139988E+03  0.13715139184E+04  0.10100000352E+00 0.  1.
       -3    1    3    3    0  502 -0.63584457276E+03 -0.81931632121E+03 -0.23817222046E+03  0.10640975386E+04  0.10100000352E+00 0. -1.
</event>
<event>
 5   0  0.5895063E-05  0.2230410E+04  0.7818609E-02  0.8505876E-01
       -1   -1    0    0    0  501  0.00000000000E+00  0.00000000000E+00  0.76636405551E+03  0.76636405553E+03  0.50400001928E-02 0. -1.
        1   -1    0    0  501    0  0.00000000000E+00  0.00000000000E+00 -0.16228345643E+04  0.16228345643E+04  0.50400001928E-02 0.  1.
    10030    2    1    2    0    0  0.00000000000E+00  0.00000000000E+00 -0.85647050883E+03  0.23891986199E+04  0.22304098979E+04 0.  0.
        5    1    3    3  502    0  0.39073714323E+03 -0.88340707497E+03 -0.10252042917E+04  0.14085984186E+04  0.46999998093E+01 0.  1.
       -5    1    3    3    0  502 -0.39073714323E+03  0.88340707497E+03  0.16873378288E+03  0.98060020125E+03  0.46999998093E+01 0. -1.
</event>
<event>
 5   0  0.1404159E-04  0.2199529E+04  0.7818609E-02  0.8518624E-01
        2   -1    0    0  501    0  0.00000000000E+00  0.00000000000E+00  0.23287910066E+04  0.23287910066E+04  0.25500000920E-02 0. -1.
       -2   -1    0    0    0  501  0.00000000000E+00  0.00000000000E+00 -0.51936067900E+03  0.51936067901E+03  0.25500000920E-02 0.  1.
    10030    2    1    2    0    0  0.00000000000E+00  0.00000000000E+00  0.18094303276E+04  0.28481516856E+04  0.21995294755E+04 0.  0.
        5    1    3    3  502    0 -0.75092767530E+03  0.78586108825E+03  0.68807568174E+03  0.12864448132E+04  0.46999998093E+01 0. -1.
       -5    1    3    3    0  502  0.75092767530E+03 -0.78586108825E+03  0.11213546458E+04  0.15617068724E+04  0.46999998093E+01 0.  1.
</event>
<event>
 5   0  0.1226021E-04  0.2206092E+04  0.7818609E-02  0.8515897E-01
        2   -1    0    0  501    0  0.00000000000E+00  0.00000000000E+00  0.15398439787E+04  0.15398439787E+04  0.25500000920E-02 0. -1.
       -2   -1    0    0    0  501  0.00000000000E+00  0.00000000000E+00 -0.79015158443E+03  0.79015158443E+03  0.25500000920E-02 0.  1.
    10030    2    1    2    0    0  0.00000000000E+00  0.00000000000E+00  0.74969239430E+03  0.23299955632E+04  0.22060917112E+04 0.  0.
        2    1    3    3  502    0 -0.40368042930E+02  0.98064401149E+02  0.15344473686E+04  0.15381075816E+04  0.25500000920E-02 0. -1.
       -2    1    3    3    0  502  0.40368042930E+02 -0.98064401149E+02 -0.78475497428E+03  0.79188798155E+03  0.25500000920E-02 0.  1.
</event>
<event>
 5   0  0.1404159E-04  0.2054693E+04  0.7818609E-02  0.8581468E-01
       -2   -1    0    0    0  501  0.00000000000E+00  0.00000000000E+00  0.40051799038E+03  0.40051799039E+03  0.25500000920E-02 0.  1.
        2   -1    0    0  501    0  0.00000000000E+00  0.00000000000E+00 -0.26351907663E+04  0.26351907663E+04  0.25500000920E-02 0. -1.
    10030    2    1    2    0    0  0.00000000000E+00  0.00000000000E+00 -0.22346727759E+04  0.30357087567E+04  0.20546934662E+04 0.  0.
        5    1    3    3  502    0 -0.12900860764E+03  0.70496263741E+03 -0.22048483391E+04  0.23184032931E+04  0.46999998093E+01 0. -1.
       -5    1    3    3    0  502  0.12900860764E+03 -0.70496263741E+03 -0.29824436754E+02  0.71730546353E+03  0.46999998093E+01 0.  1.
</event>
<event>
 5   0  0.5861816E-05  0.2167526E+04  0.7818609E-02  0.8532067E-01
        1   -1    0    0  501    0  0.00000000000E+00  0.00000000000E+00  0.10000830939E+04  0.10000830939E+04  0.50400001928E-02 0.  1.
       -1   -1    0    0    0  501  0.00000000000E+00  0.00000000000E+00 -0.11744449140E+04  0.11744449140E+04  0.50400001928E-02 0. -1.
    10030    2    1    2    0    0  0.00000000000E+00  0.00000000000E+00 -0.17436182011E+03  0.21745280079E+04  0.21675262427E+04 0.  0.
        1    1    3    3  502    0 -0.77819499335E+03  0.75408299570E+03 -0.69406707902E+02  0.10858388017E+04  0.50400001928E-02 0.  1.
       -1    1    3    3    0  502  0.77819499335E+03 -0.75408299570E+03 -0.10495511221E+03  0.10886892062E+04  0.50400001928E-02 0. -1.
</event>
<event>
 5   0  0.1226021E-04  0.2200906E+04  0.7818609E-02  0.8518051E-01
       -2   -1    0    0    0  501  0.00000000000E+00  0.00000000000E+00  0.15636959034E+04  0.15636959034E+04  0.25500000920E-02 0.  1.
        2   -1    0    0  501    0  0.00000000000E+00  0.00000000000E+00 -0.77444507343E+03  0.77444507343E+03  0.25500000920E-02 0. -1.
    10030    2    1    2    0    0  0.00000000000E+00  0.00000000000E+00  0.78925082997E+03  0.23381409768E+04  0.22009058033E+04 0.  0.
        2    1    3    3  502    0 -0.23967384157E+03  0.10690403513E+04  0.28470506489E+03  0.11319663410E+04  0.25500000920E-02 0.  1.
       -2    1    3    3    0  502  0.23967384157E+03 -0.10690403513E+04  0.50454576509E+03  0.12061746359E+04  0.25500000920E-02 0. -1.
</event>
<event>
 5   0  0.5895063E-05  0.2180013E+04  0.7818609E-02  0.8526793E-01
        1   -1    0    0  501    0  0.00000000000E+00  0.00000000000E+00  0.13050333077E+04  0.13050333077E+04  0.50400001928E-02 0. -1.
       -1   -1    0    0    0  501  0.00000000000E+00  0.00000000000E+00 -0.91040915168E+03  0.91040915169E+03  0.50400001928E-02 0.  1.
    10030    2    1    2    0    0  0.00000000000E+00  0.00000000000E+00  0.39462415602E+03  0.22154424594E+04  0.21800130886E+04 0.  0.
        5    1    3    3  502    0 -0.57219136652E+03  0.47547570996E+03  0.10068841845E+04  0.12519257013E+04  0.46999998093E+01 0. -1.
       -5    1    3    3    0  502  0.57219136652E+03 -0.47547570996E+03 -0.61226002844E+03  0.96351675808E+03  0.46999998093E+01 0.  1.
</event>
<event>
 5   0  0.6263558E-05  0.2068319E+04  0.7818609E-02  0.8575329E-01
        1   -1    0    0  501    0  0.00000000000E+00  0.00000000000E+00  0.19994407844E+04  0.19994407844E+04  0.50400001928E-02 0.  1.
       -1   -1    0    0    0  501  0.00000000000E+00  0.00000000000E+00 -0.53489251181E+03  0.53489251183E+03  0.50400001928E-02 0. -1.
    10030    2    1    2    0    0  0.00000000000E+00  0.00000000000E+00  0.14645482726E+04  0.25343332963E+04  0.20683190309E+04 0.  0.
        3    1    3    3  502    0 -0.72479307723E+03  0.24240273890E+03  0.15859576471E+04  0.17604958850E+04  0.10100000352E+00 0.  1.
       -3    1    3    3    0  502  0.72479307723E+03 -0.24240273890E+03 -0.12140937447E+03  0.77383741124E+03  0.10100000352E+00 0. -1.
</event>
<event>
 5   0  0.1311472E-04  0.2251301E+04  0.7818609E-02  0.8497374E-01
       -2   -1    0    0    0  501  0.00000000000E+00  0.00000000000E+00  0.85893874443E+03  0.85893874443E+03  0.25500000920E-02 0.  1.
        2   -1    0    0  501    0  0.00000000000E+00  0.00000000000E+00 -0.14751802745E+04  0.14751802745E+04  0.25500000920E-02 0. -1.
    10030    2    1    2    0    0  0.00000000000E+00  0.00000000000E+00 -0.61624153004E+03  0.23341190189E+04  0.22513013950E+04 0.  0.
        4    1    3    3  502    0 -0.10928373780E+04  0.19998913877E+02 -0.58708068453E+03  0.12407090047E+04  0.12699999809E+01 0. -1.
       -4    1    3    3    0  502  0.10928373780E+04 -0.19998913877E+02 -0.29160845512E+02  0.10934100142E+04  0.12699999809E+01 0.  1.
</event>
<event>
 5   0  0.6263558E-05  0.1545448E+04  0.7818609E-02  0.8854780E-01
       -1   -1    0    0    0  501  0.00000000000E+00  0.00000000000E+00  0.41061468641E+03  0.41061468644E+03  0.50400001928E-02 0. -1.
        1   -1    0    0  501    0  0.00000000000E+00  0.00000000000E+00 -0.14541674712E+04  0.14541674712E+04  0.50400001928E-02 0.  1.
    10030    2    1    2    0    0  0.00000000000E+00  0.00000000000E+00 -0.10435527848E+04  0.18647821577E+04  0.15454481812E+04 0.  0.
        3    1    3    3  502    0  0.71258175889E+03  0.20704978976E+03 -0.78186053546E+03  0.10779370509E+04  0.10100000352E+00 0. -1.
       -3    1    3    3    0  502 -0.71258175889E+03 -0.20704978976E+03 -0.26169224937E+03  0.78684510681E+03  0.10100000352E+00 0.  1.
</event>
<event>
 5   0  0.5981239E-05  0.2177882E+04  0.7818609E-02  0.8527691E-01
       -1   -1    0    0    0  501  0.00000000000E+00  0.00000000000E+00  0.26537384711E+04  0.26537384711E+04  0.50400001928E-02 0.  1.
        1   -1    0    0  501    0  0.00000000000E+00  0.00000000000E+00 -0.44683866531E+03  0.44683866534E+03  0.50400001928E-02 0. -1.
    10030    2    1    2    0    0  0.00000000000E+00  0.00000000000E+00  0.22068998058E+04  0.31005771364E+04  0.21778824179E+04 0.  0.
        4    1    3    3  502    0 -0.55616262875E+03 -0.26766086406E+03 -0.17375555522E+03  0.64121120829E+03  0.12699999809E+01 0. -1.
       -4    1    3    3    0  502  0.55616262875E+03  0.26766086406E+03  0.23806553610E+04  0.24593659281E+04  0.12699999809E+01 0.  1.
</event>
<event>
 5   0  0.6263558E-05  0.2202737E+04  0.7818609E-02  0.8517290E-01
        1   -1    0    0  501    0  0.00000000000E+00  0.00000000000E+00  0.90434629209E+03  0.90434629211E+03  0.50400001928E-02 0.  1.
       -1   -1    0    0    0  501  0.00000000000E+00  0.00000000000E+00 -0.13413140140E+04  0.13413140140E+04  0.50400001928E-02 0. -1.
    10030    2    1    2    0    0  0.00000000000E+00  0.00000000000E+00 -0.43696772195E+03  0.22456603062E+04  0.22027368024E+04 0.  0.
        3    1    3    3  502    0  0.12881734732E+03 -0.33272235902E+03  0.84379668286E+03  0.91612822758E+03  0.10100000352E+00 0.  1.
       -3    1    3    3    0  502 -0.12881734732E+03  0.33272235902E+03 -0.12807644048E+04  0.13295320786E+04  0.10100000352E+00 0. -1.
</event>
<event>
 5   0  0.1252124E-04  0.2227785E+04  0.7818609E-02  0.8506952E-01
        2   -1    0    0  501    0  0.00000000000E+00  0.00000000000E+00  0.20145071814E+04  0.20145071814E+04  0.25500000920E-02 0.  1.
       -2   -1    0    0    0  501  0.00000000000E+00  0.00000000000E+00 -0.61591042642E+03  0.61591042642E+03  0.25500000920E-02 0. -1.
    10030    2    1    2    0    0  0.00000000000E+00  0.00000000000E+00  0.13985967549E+04  0.26304176078E+04  0.22277845292E+04 0.  0.
        3    1    3    3  502    0  0.23056380770E+03 -0.72640412494E+02  0.19831622449E+04  0.19978410344E+04  0.10100000352E+00 0.  1.
       -3    1    3    3    0  502 -0.23056380770E+03  0.72640412494E+02 -0.58456548996E+03  0.63257657339E+03  0.10100000352E+00 0. -1.
</event>
<event>
 5   0  0.5981239E-05  0.2236405E+04  0.7818609E-02  0.8503427E-01
       -1   -1    0    0    0  501  0.00000000000E+00  0.00000000000E+00  0.77352143847E+03  0.77352143849E+03  0.50400001928E-02 0.  1.
        1   -1    0    0  501    0  0.00000000000E+00  0.00000000000E+00 -0.16164731439E+04  0.16164731439E+04  0.50400001928E-02 0. -1.
    10030    2    1    2    0    0  0.00000000000E+00  0.00000000000E+00 -0.84295170540E+03  0.23899945824E+04  0.22364048216E+04 0.  0.
        4    1    3    3  502    0 -0.53222131892E+03 -0.54222271454E+03  0.45530190193E+03  0.88575755107E+03  0.12699999809E+01 0.  1.
       -4    1    3    3    0  502  0.53222131892E+03  0.54222271454E+03 -0.12982536073E+04  0.15042370313E+04  0.12699999809E+01 0. -1.
</event>
<event>
 5   0  0.5895063E-05  0.2166450E+04  0.7818609E-02  0.8532523E-01
        1   -1    0    0  501    0  0.00000000000E+00  0.00000000000E+00  0.17803778944E+04  0.17803778944E+04  0.50400001928E-02 0.  1.
       -1   -1    0    0    0  501  0.00000000000E+00  0.00000000000E+00 -0.65906037275E+03  0.65906037277E+03  0.50400001928E-02 0. -1.
    10030    2    1    2    0    0  0.00000000000E+00  0.00000000000E+00  0.11213175216E+04  0.24394382671E+04  0.21664501090E+04 0.  0.
        5    1    3    3  502    0  0.10734260232E+04 -0.14296018084E+03  0.53143918891E+03  0.12062880013E+04  0.46999998093E+01 0. -1.
       -5    1    3    3    0  502 -0.10734260232E+04  0.14296018084E+03  0.58987833272E+03  0.12331502658E+04  0.46999998093E+01 0.  1.
</event>
<event>
 5   0  0.1404159E-04  0.2233507E+04  0.7818609E-02  0.8504610E-01
        2   -1    0    0  501    0  0.00000000000E+00  0.00000000000E+00  0.18306601052E+04  0.18306601052E+04  0.25500000920E-02 0.  1.
       -2   -1    0    0    0  501  0.00000000000E+00  0.00000000000E+00 -0.68125058530E+03  0.68125058530E+03  0.25500000920E-02 0. -1.
    10030    2    1    2    0    0  0.00000000000E+00  0.00000000000E+00  0.11494095199E+04  0.25119106905E+04  0.22335069001E+04 0.  0.
        5    1    3    3  502    0 -0.78179601285E+03  0.63534838850E+03  0.32717883153E+02  0.10079509563E+04  0.46999998093E+01 0. -1.
       -5    1    3    3    0  502  0.78179601285E+03 -0.63534838850E+03  0.11166916367E+04  0.15039597342E+04  0.46999998093E+01 0.  1.
</event>
<event>
 5   0  0.5895063E-05  0.2190148E+04  0.7818609E-02  0.8522540E-01
        1   -1    0    0  501    0  0.00000000000E+00  0.00000000000E+00  0.17241313093E+04  0.17241313093E+04  0.50400001928E-02 0. -1.
       -1   -1    0    0    0  501  0.00000000000E+00  0.00000000000E+00 -0.69553110994E+03  0.69553110996E+03  0.50400001928E-02 0.  1.
    10030    2    1    2    0    0  0.00000000000E+00  0.00000000000E+00  0.10286001994E+04  0.24196624193E+04  0.21901479067E+04 0.  0.
        5    1    3    3  502    0 -0.59099164635E+03  0.90508547999E+03  0.70791985808E+03  0.12921391054E+04  0.46999998093E+01 0. -1.
       -5    1    3    3    0  502  0.59099164635E+03 -0.90508547999E+03  0.32068034128E+03  0.11275233139E+04  0.46999998093E+01 0.  1.
</event>
<event>
 5   0  0.1311472E-04  0.2248447E+04  0.7818609E-02  0.8498530E-01
       -2   -1    0    0    0  501  0.00000000000E+00  0.00000000000E+00  0.15634439638E+04  0.15634439638E+04  0.25500000920E-02 0. -1.
        2   -1    0    0  501    0  0.00000000000E+00  0.00000000000E+00 -0.80839362092E+03  0.80839362093E+03  0.25500000920E-02 0.  1.
    10030    2    1    2    0    0  0.00000000000E+00  0.00000000000E+00  0.75505034289E+03  0.23718375847E+04  0.22484466879E+04 0.  0.
        4    1    3    3  502    0 -0.79450745789E+03 -0.98427210184E+02 -0.45505818769E+03  0.92087435811E+03  0.12699999809E+01 0.  1.
       -4    1    3    3    0  502  0.79450745789E+03  0.98427210184E+02  0.12101085306E+04  0.14509632266E+04  0.12699999809E+01 0. -1.
</event>
<event>
 5   0  0.5849604E-05  0.2162446E+04  0.7818609E-02  0.8534224E-01
       -1   -1    0    0    0  501  0.00000000000E+00  0.00000000000E+00  0.55929246407E+03  0.55929246410E+03  0.50400001928E-02 0. -1.
        1   -1    0    0  501    0  0.00000000000E+00  0.00000000000E+00 -0.20902175942E+04  0.20902175942E+04  0.50400001928E-02 0.  1.
    10030    2    1    2    0    0  0.00000000000E+00  0.00000000000E+00 -0.15309251301E+04  0.26495100583E+04  0.21624457901E+04 0.  0.
        2    1    3    3  502    0  0.33844690720E+03  0.70965169187E+03  0.14393382917E+03  0.79929267478E+03  0.25500000920E-02 0. -1.
       -2    1    3    3    0  502 -0.33844690720E+03 -0.70965169187E+03 -0.16748589593E+04  0.18502173835E+04  0.25500000920E-02 0.  1.
</event>
<event>
 5   0  0.5849604E-05  0.2192918E+04  0.7818609E-02  0.8521382E-01
       -1   -1    0    0    0  501  0.00000000000E+00  0.00000000000E+00  0.53845318191E+03  0.53845318193E+03  0.50400001928E-02 0. -1.
        1   -1    0    0  501    0  0.00000000000E+00  0.00000000000E+00 -0.22327333486E+04  0.22327333486E+04  0.50400001928E-02 0.  1.
    10030    2    1    2    0    0  0.00000000000E+00  0.00000000000E+00 -0.16942801667E+04  0.27711865306E+04  0.21929180340E+04 0.  0.
        2    1    3    3  502    0 -0.11313845645E+03 -0.29660336628E+02 -0.22248274858E+04  0.22278997705E+04  0.25500000920E-02 0.  1.
       -2    1    3    3    0  502  0.11313845645E+03  0.29660336628E+02  0.53054731906E+03  0.54328676007E+03  0.25500000920E-02 0. -1.
</event>
<event>
 5   0  0.5861816E-05  0.2197441E+04  0.7818609E-02  0.8519494E-01
        1   -1    0    0  501    0  0.00000000000E+00  0.00000000000E+00  0.13845705941E+04  0.13845705941E+04  0.50400001928E-02 0.  1.
       -1   -1    0    0    0  501  0.00000000000E+00  0.00000000000E+00 -0.87188562149E+03  0.87188562150E+03  0.50400001928E-02 0. -1.
    10030    2    1    2    0    0  0.00000000000E+00  0.00000000000E+00  0.51268497261E+03  0.22564562156E+04  0.21974414149E+04 0.  0.
        1    1    3    3  502    0  0.25177903864E+03 -0.64252403083E+03 -0.62157890817E+03  0.92875731685E+03  0.50400001928E-02 0. -1.
       -1    1    3    3    0  502 -0.25177903864E+03  0.64252403083E+03  0.11342638808E+04  0.13276988988E+04  0.50400001928E-02 0.  1.
</event>
<event>
 5   0  0.1241430E-04  0.2322427E+04  0.7818609E-02  0.8469131E-01
       -2   -1    0    0    0  501  0.00000000000E+00  0.00000000000E+00  0.66307952050E+03  0.66307952050E+03  0.25500000920E-02 0. -1.
        2   -1    0    0  501    0  0.00000000000E+00  0.00000000000E+00 -0.20335673982E+04  0.20335673982E+04  0.25500000920E-02 0.  1.
    10030    2    1    2    0    0  0.00000000000E+00  0.00000000000E+00 -0.13704878777E+04  0.26966469187E+04  0.23224270885E+04 0.  0.
        1    1    3    3  502    0 -0.41085873594E+03 -0.10027877873E+04 -0.20085705916E+03  0.11021487221E+04  0.50400001928E-02 0. -1.
       -1    1    3    3    0  502  0.41085873594E+03  0.10027877873E+04 -0.11696308186E+04  0.15944981967E+04  0.50400001928E-02 0.  1.
</event>
<event>
 5   0  0.5849604E-05  0.2061601E+04  0.7818609E-02  0.8578350E-01
        1   -1    0    0  501    0  0.00000000000E+00  0.00000000000E+00  0.14738957263E+04  0.14738957263E+04  0.50400001928E-02 0. -1.
       -1   -1    0    0    0  501  0.00000000000E+00  0.00000000000E+00 -0.72091223790E+03  0.72091223791E+03  0.50400001928E-02 0.  1.
    10030    2    1    2    0    0  0.00000000000E+00  0.00000000000E+00  0.75298348842E+03  0.21948079642E+04  0.20616008018E+04 0.  0.
        2    1    3    3  502    0  0.22538243895E+03  0.67917942136E+02 -0.69191529542E+03  0.73086036060E+03  0.25500000920E-02 0.  1.
       -2    1    3    3    0  502 -0.22538243895E+03 -0.67917942136E+02  0.14448987838E+04  0.14639476036E+04  0.25500000920E-02 0. -1.
</event>
<event>
 5   0  0.5849604E-05  0.2100635E+04  0.7818609E-02  0.8560964E-01
        1   -1    0    0  501    0  0.00000000000E+00  0.00000000000E+00  0.11608822502E+04  0.11608822502E+04  0.50400001928E-02 0. -1.
       -1   -1    0    0    0  501  0.00000000000E+00  0.00000000000E+00 -0.95028294359E+03  0.95028294360E+03  0.50400001928E-02 0.  1.
    10030    2    1    2    0    0  0.00000000000E+00  0.00000000000E+00  0.21059930661E+03  0.21111651938E+04  0.21006347630E+04 0.  0.
        2    1    3    3  502    0 -0.29566606878E+02 -0.60668899308E+03  0.96646200559E+03  0.11414878566E+04  0.25500000920E-02 0. -1.
       -2    1    3    3    0  502  0.29566606878E+02  0.60668899308E+03 -0.75586269897E+03  0.96967733719E+03  0.25500000920E-02 0.  1.
</event>
<event>
 5   0  0.1404159E-04  0.2292743E+04  0.7818609E-02  0.8480788E-01
        2   -1    0    0  501    0  0.00000000000E+00  0.00000000000E+00  0.65807232539E+03  0.65807232539E+03  0.25500000920E-02 0. -1.
       -2   -1    0    0    0  501  0.00000000000E+00  0.00000000000E+00 -0.19969959047E+04  0.19969959047E+04  0.25500000920E-02 0.  1.
    10030    2    1    2    0    0  0.00000000000E+00  0.00000000000E+00 -0.13389235793E+04  0.26550682301E+04  0.22927431071E+04 0.  0.
        5    1    3    3  502    0 -0.11106732702E+04  0.23010213456E+02 -0.99704561913E+03  0.14927312684E+04  0.46999998093E+01 0.  1.
       -5    1    3    3    0  502  0.11106732702E+04 -0.23010213456E+02 -0.34187796021E+03  0.11623369617E+04  0.46999998093E+01 0. -1.
</event>
<event>
 5   0  0.1311472E-04  0.2197405E+04  0.7818609E-02  0.8519509E-01
       -2   -1    0    0    0  501  0.00000000000E+00  0.00000000000E+00  0.89973983497E+03  0.89973983497E+03  0.25500000920E-02 0. -1.
        2   -1    0    0  501    0  0.00000000000E+00  0.00000000000E+00 -0.13416621493E+04  0.13416621493E+04  0.25500000920E-02 0.  1.
    10030    2    1    2    0    0  0.00000000000E+00  0.00000000000E+00 -0.44192231437E+03  0.22414019843E+04  0.21974047245E+04 0.  0.
        4    1    3    3  502    0  0.16144998556E+03  0.10112340994E+04 -0.62703354585E+03  0.12007635829E+04  0.12699999809E+01 0.  1.
       -4    1    3    3    0  502 -0.16144998556E+03 -0.10112340994E+04  0.18511123149E+03  0.10406384014E+04  0.12699999809E+01 0. -1.
</event>
<event>
 5   0  0.5849604E-05  0.2210582E+04  0.7818609E-02  0.8514036E-01
       -1   -1    0    0    0  501  0.00000000000E+00  0.00000000000E+00  0.86972626012E+03  0.86972626013E+03  0.50400001928E-02 0. -1.
        1   -1    0    0  501    0  0.00000000000E+00  0.00000000000E+00 -0.14046586611E+04  0.14046586611E+04  0.50400001928E-02 0.  1.
    10030    2    1    2    0    0  0.00000000000E+00  0.00000000000E+00 -0.53493240098E+03  0.22743849212E+04  0.22105822980E+04 0.  0.
        2    1    3    3  502    0 -0.17215357567E+03  0.12067815120E+03 -0.13838972847E+04  0.13997756121E+04  0.25500000920E-02 0.  1.
       -2    1    3    3    0  502  0.17215357567E+03 -0.12067815120E+03  0.84896488370E+03  0.87460930910E+03  0.25500000920E-02 0. -1.
</event>
<event>
 5   0  0.5861816E-05  0.2223228E+04  0.7818609E-02  0.8508822E-01
        1   -1    0    0  501    0  0.00000000000E+00  0.00000000000E+00  0.12584243453E+04  0.12584243453E+04  0.50400001928E-02 0. -1.
       -1   -1    0    0    0  501  0.00000000000E+00  0.00000000000E+00 -0.98193110788E+03  0.98193110790E+03  0.50400001928E-02 0.  1.
    10030    2    1    2    0    0  0.00000000000E+00  0.00000000000E+00  0.27649323737E+03  0.22403554532E+04  0.22232282938E+04 0.  0.
        1    1    3    3  502    0  0.42968648865E+03  0.33159721801E+03  0.11158225082E+04  0.12408251542E+04  0.50400001928E-02 0. -1.
       -1    1    3    3    0  502 -0.42968648865E+03 -0.33159721801E+03 -0.83932927085E+03  0.99953029892E+03  0.50400001928E-02 0.  1.
</event>
<event>
 5   0  0.6263558E-05  0.2219684E+04  0.7818609E-02  0.8510280E-01
        1   -1    0    0  501    0  0.00000000000E+00  0.00000000000E+00  0.17258079183E+04  0.17258079183E+04  0.50400001928E-02 0. -1.
       -1   -1    0    0    0  501  0.00000000000E+00  0.00000000000E+00 -0.71372314847E+03  0.71372314849E+03  0.50400001928E-02 0.  1.
    10030    2    1    2    0    0  0.00000000000E+00  0.00000000000E+00  0.10120847698E+04  0.24395310668E+04  0.22196838163E+04 0.  0.
        3    1    3    3  502    0 -0.30111357447E+03  0.75652717476E+03  0.13348896899E+04  0.15636282311E+04  0.10100000352E+00 0. -1.
       -3    1    3    3    0  502  0.30111357447E+03 -0.75652717476E+03 -0.32280492006E+03  0.87590283564E+03  0.10100000352E+00 0.  1.
</event>
<event>
 5   0  0.1226021E-04  0.2161211E+04  0.7818609E-02  0.8534748E-01
       -2   -1    0    0    0  501  0.00000000000E+00  0.00000000000E+00  0.64853681026E+03  0.64853681027E+03  0.25500000920E-02 0. -1.
        2   -1    0    0  501    0  0.00000000000E+00  0.00000000000E+00 -0.18005277893E+04  0.18005277893E+04  0.25500000920E-02 0.  1.
    10030    2    1    2    0    0  0.00000000000E+00  0.00000000000E+00 -0.11519909790E+04  0.24490645995E+04  0.21612112800E+04 0.  0.
        2    1    3    3  502    0  0.39122219750E+03  0.98265014208E+03 -0.32501883755E+03  0.11064779050E+04  0.25500000920E-02 0.  1.
       -2    1    3    3    0  502 -0.39122219750E+03 -0.98265014208E+03 -0.82697214146E+03  0.13425866945E+04  0.25500000920E-02 0. -1.
</event>
<event>
 5   0  0.5861816E-05  0.2121153E+04  0.7818609E-02  0.8551982E-01
       -1   -1    0    0    0  501  0.00000000000E+00  0.00000000000E+00  0.10574326771E+04  0.10574326771E+04  0.50400001928E-02 0. -1.
        1   -1    0    0  501    0  0.00000000000E+00  0.00000000000E+00 -0.10637297315E+04  0.10637297315E+04  0.50400001928E-02 0.  1.
    10030    2    1    2    0    0  0.00000000000E+00  0.00000000000E+00 -0.62970544278E+01  0.21211624087E+04  0.21211530617E+04 0.  0.
        1    1    3    3  502    0 -0.79199137584E+03 -0.61409491794E+03  0.34392600616E+03  0.10595508508E+04  0.50400001928E-02 0. -1.
       -1    1    3    3    0  502  0.79199137584E+03  0.61409491794E+03 -0.35022306058E+03  0.10616115579E+04  0.50400001928E-02 0.  1.
</event>
<event>
 5   0  0.1404159E-04  0.2191214E+04  0.7818609E-02  0.8522094E-01
       -2   -1    0    0    0  501  0.00000000000E+00  0.00000000000E+00  0.66891549315E+03  0.66891549316E+03  0.25500000920E-02 0. -1.
        2   -1    0    0  501    0  0.00000000000E+00  0.00000000000E+00 -0.17944789473E+04  0.17944789473E+04  0.25500000920E-02 0.  1.
    10030    2    1    2    0    0  0.00000000000E+00  0.00000000000E+00 -0.11255634542E+04  0.24633944405E+04  0.21912140653E+04 0.  0.
        5    1    3    3  502    0 -0.38727550814E+03  0.49055710708E+03  0.44882641290E+03  0.76947763673E+03  0.46999998093E+01 0. -1.
       -5    1    3    3    0  502  0.38727550814E+03 -0.49055710708E+03 -0.15743898671E+04  0.16939168038E+04  0.46999998093E+01 0.  1.
</event>
<event>
 5   0  0.6263558E-05  0.2165204E+04  0.7818609E-02  0.8533052E-01
       -1   -1    0    0    0  501  0.00000000000E+00  0.00000000000E+00  0.11844674447E+04  0.11844674447E+04  0.50400001928E-02 0. -1.
        1   -1    0    0  501    0  0.00000000000E+00  0.00000000000E+00 -0.98949743500E+03  0.98949743501E+03  0.50400001928E-02 0.  1.
    10030    2    1    2    0    0  0.00000000000E+00  0.00000000000E+00  0.19497000971E+03  0.21739648797E+04  0.21652043769E+04 0.  0.
        3    1    3    3  502    0  0.20498393797E+03  0.10615757732E+04  0.41889940211E+02  0.10819964484E+04  0.10100000352E+00 0.  1.
       -3    1    3    3    0  502 -0.20498393797E+03 -0.10615757732E+04  0.15308006950E+03  0.10919684313E+04  0.10100000352E+00 0. -1.
</event>
<event>
 5   0  0.1226021E-04  0.2212047E+04  0.7818609E-02  0.8513431E-01
       -2   -1    0    0    0  501  0.00000000000E+00  0.00000000000E+00  0.44623155393E+03  0.44623155394E+03  0.25500000920E-02 0. -1.
        2   -1    0    0  501    0  0.00000000000E+00  0.00000000000E+00 -0.27413748513E+04  0.27413748513E+04  0.25500000920E-02 0.  1.
    10030    2    1    2    0    0  0.00000000000E+00  0.00000000000E+00 -0.22951432974E+04  0.31876064052E+04  0.22120469794E+04 0.  0.
        2    1    3    3  502    0  0.25655860731E+03 -0.24143414495E+03 -0.26583606137E+04  0.26816028635E+04  0.25500000920E-02 0.  1.
       -2    1    3    3    0  502 -0.25655860731E+03  0.24143414495E+03  0.36321731632E+03  0.50600354170E+03  0.25500000920E-02 0. -1.
</event>
<event>
 5   0  0.4586375E-05  0.1569520E+04  0.7818609E-02  0.8839495E-01
       -3   -1    0    0    0  501  0.00000000000E+00  0.00000000000E+00  0.20878649961E+04  0.20878649986E+04  0.10100000352E+00 0. -1.
        3   -1    0    0  501    0  0.00000000000E+00  0.00000000000E+00 -0.29496551638E+03  0.29496553367E+03  0.10100000352E+00 0.  1.
    10030    2    1    2    0    0  0.00000000000E+00  0.00000000000E+00  0.17928994797E+04  0.23828305322E+04  0.15695199269E+04 0.  0.
        1    1    3    3  502    0  0.49817860931E+03 -0.26709094646E+03  0.17228932622E+04  0.18132514148E+04  0.50400001928E-02 0. -1.
       -1    1    3    3    0  502 -0.49817860931E+03  0.26709094646E+03  0.70006217549E+02  0.56957911740E+03  0.50400001928E-02 0.  1.
</event>
<event>
 5   0  0.1252124E-04  0.2234268E+04  0.7818609E-02  0.8504299E-01
       -2   -1    0    0    0  501  0.00000000000E+00  0.00000000000E+00  0.82685302407E+03  0.82685302407E+03  0.25500000920E-02 0.  1.
        2   -1    0    0  501    0  0.00000000000E+00  0.00000000000E+00 -0.15093230781E+04  0.15093230781E+04  0.25500000920E-02 0. -1.
    10030    2    1    2    0    0  0.00000000000E+00  0.00000000000E+00 -0.68247005404E+03  0.23361761022E+04  0.22342679798E+04 0.  0.
        3    1    3    3  502    0  0.93429694442E+03 -0.58760949604E+03 -0.52171325473E+03  0.12208113821E+04  0.10100000352E+00 0. -1.
       -3    1    3    3    0  502 -0.93429694442E+03  0.58760949604E+03 -0.16075679932E+03  0.11153647201E+04  0.10100000352E+00 0.  1.
</event>
<event>
 5   0  0.5861816E-05  0.2203508E+04  0.7818609E-02  0.8516969E-01
        1   -1    0    0  501    0  0.00000000000E+00  0.00000000000E+00  0.19221155548E+04  0.19221155549E+04  0.50400001928E-02 0.  1.
       -1   -1    0    0    0  501  0.00000000000E+00  0.00000000000E+00 -0.63152410202E+03  0.63152410204E+03  0.50400001928E-02 0. -1.
    10030    2    1    2    0    0  0.00000000000E+00  0.00000000000E+00  0.12905914528E+04  0.25536396569E+04  0.22035083842E+04 0.  0.
        1    1    3    3  502    0  0.67350834427E+03  0.87033227533E+03  0.70629535012E+03  0.13076486076E+04  0.50400001928E-02 0. -1.
       -1    1    3    3    0  502 -0.67350834427E+03 -0.87033227533E+03  0.58429610271E+03  0.12459910493E+04  0.50400001928E-02 0.  1.
</event>
<event>
 5   0  0.5849604E-05  0.2357483E+04  0.7818609E-02  0.8455595E-01
        1   -1    0    0  501    0  0.00000000000E+00  0.00000000000E+00  0.10237577260E+04  0.10237577260E+04  0.50400001928E-02 0. -1.
       -1   -1    0    0    0  501  0.00000000000E+00  0.00000000000E+00 -0.13571879720E+04  0.13571879721E+04  0.50400001928E-02 0.  1.
    10030    2    1    2    0    0  0.00000000000E+00  0.00000000000E+00 -0.33343024604E+03  0.23809456981E+04  0.23574831258E+04 0.  0.
        2    1    3    3  502    0  0.62005375124E+03  0.40725679641E+03 -0.10918595754E+04  0.13200310925E+04  0.25500000920E-02 0.  1.
       -2    1    3    3    0  502 -0.62005375124E+03 -0.40725679641E+03  0.75842932941E+03  0.10609146056E+04  0.25500000920E-02 0. -1.
</event>
<event>
 5   0  0.1252124E-04  0.1765624E+04  0.7818609E-02  0.8724797E-01
        2   -1    0    0  501    0  0.00000000000E+00  0.00000000000E+00  0.11933990803E+04  0.11933990803E+04  0.25500000920E-02 0.  1.
       -2   -1    0    0    0  501  0.00000000000E+00  0.00000000000E+00 -0.65305657879E+03  0.65305657879E+03  0.25500000920E-02 0. -1.
    10030    2    1    2    0    0  0.00000000000E+00  0.00000000000E+00  0.54034250152E+03  0.18464556591E+04  0.17656241055E+04 0.  0.
        3    1    3    3  502    0 -0.40433128535E+03  0.15203044117E+03  0.10753273787E+04  0.11588468514E+04  0.10100000352E+00 0.  1.
       -3    1    3    3    0  502  0.40433128535E+03 -0.15203044117E+03 -0.53498487722E+03  0.68760880769E+03  0.10100000352E+00 0. -1.
</event>
<event>
 5   0  0.5895063E-05  0.1952372E+04  0.7818609E-02  0.8629218E-01
       -1   -1    0    0    0  501  0.00000000000E+00  0.00000000000E+00  0.49651177068E+03  0.49651177070E+03  0.50400001928E-02 0. -1.
        1   -1    0    0  501    0  0.00000000000E+00  0.00000000000E+00 -0.19192675437E+04  0.19192675437E+04  0.50400001928E-02 0.  1.
    10030    2    1    2    0    0  0.00000000000E+00  0.00000000000E+00 -0.14227557731E+04  0.24157793144E+04  0.19523718156E+04 0.  0.
        5    1    3    3  502    0 -0.27489438560E+03 -0.77723293344E+03 -0.64560223304E+02  0.82695106777E+03  0.46999998093E+01 0. -1.
       -5    1    3    3    0  502  0.27489438560E+03  0.77723293344E+03 -0.13581955497E+04  0.15888282467E+04  0.46999998093E+01 0.  1.
</event>
<event>
 5   0  0.1241430E-04  0.2200814E+04  0.7818609E-02  0.8518089E-01
       -2   -1    0    0    0  501  0.00000000000E+00  0.00000000000E+00  0.75374600249E+03  0.75374600250E+03  0.25500000920E-02 0.  1.
        2   -1    0    0  501    0  0.00000000000E+00  0.00000000000E+00 -0.16065041824E+04  0.16065041824E+04  0.25500000920E-02 0. -1.
    10030    2    1    2    0    0  0.00000000000E+00  0.00000000000E+00 -0.85275817995E+03  0.23602501849E+04  0.22008144906E+04 0.  0.
        1    1    3    3  502    0  0.62331556900E+03 -0.90654991028E+03 -0.45132504692E+03  0.11891380645E+04  0.50400001928E-02 0. -1.
       -1    1    3    3    0  502 -0.62331556900E+03  0.90654991028E+03 -0.40143313303E+03  0.11711121205E+04  0.50400001928E-02 0.  1.
</event>
<event>
 5   0  0.5861816E-05  0.2168134E+04  0.7818609E-02  0.8531810E-01
        1   -1    0    0  501    0  0.00000000000E+00  0.00000000000E+00  0.12580441108E+04  0.12580441108E+04  0.50400001928E-02 0.  1.
       -1   -1    0    0    0  501  0.00000000000E+00  0.00000000000E+00 -0.93414912744E+03  0.93414912745E+03  0.50400001928E-02 0. -1.
    10030    2    1    2    0    0  0.00000000000E+00  0.00000000000E+00  0.32389498337E+03  0.21921932383E+04  0.21681335830E+04 0.  0.
        1    1    3    3  502    0  0.51253912320E+03  0.93057724172E+03 -0.56155406554E+02  0.10638720719E+04  0.50400001928E-02 0.  1.
       -1    1    3    3    0  502 -0.51253912320E+03 -0.93057724172E+03  0.38005038993E+03  0.11283211664E+04  0.50400001928E-02 0. -1.
</event>
<event>
 5   0  0.1226021E-04  0.2171414E+04  0.7818609E-02  0.8530421E-01
       -2   -1    0    0    0  501  0.00000000000E+00  0.00000000000E+00  0.88751549416E+03  0.88751549416E+03  0.25500000920E-02 0.  1.
        2   -1    0    0  501    0  0.00000000000E+00  0.00000000000E+00 -0.13281570343E+04  0.13281570343E+04  0.25500000920E-02 0. -1.
    10030    2    1    2    0    0  0.00000000000E+00  0.00000000000E+00 -0.44064154011E+03  0.22156725284E+04  0.21714142365E+04 0.  0.
        2    1    3    3  502    0 -0.92133093270E+03 -0.16189125310E+03 -0.78264349153E+03  0.12196681107E+04  0.25500000920E-02 0. -1.
       -2    1    3    3    0  502  0.92133093270E+03  0.16189125310E+03  0.34200195142E+03  0.99600441774E+03  0.25500000920E-02 0.  1.
</event>
<event>
 5   0  0.6263558E-05  0.2204038E+04  0.7818609E-02  0.8516749E-01
       -1   -1    0    0    0  501  0.00000000000E+00  0.00000000000E+00  0.14278178263E+04  0.14278178263E+04  0.50400001928E-02 0.  1.
        1   -1    0    0  501    0  0.00000000000E+00  0.00000000000E+00 -0.85056085248E+03  0.85056085249E+03  0.50400001928E-02 0. -1.
    10030    2    1    2    0    0  0.00000000000E+00  0.00000000000E+00  0.57725697382E+03  0.22783786788E+04  0.22040380646E+04 0.  0.
        3    1    3    3  502    0 -0.76668873560E+03  0.71328050554E+03  0.64352333138E+03  0.12291065800E+04  0.10100000352E+00 0.  1.
       -3    1    3    3    0  502  0.76668873560E+03 -0.71328050554E+03 -0.66266357554E+02  0.10492720988E+04  0.10100000352E+00 0. -1.
</event>
<event>
 5   0  0.1311472E-04  0.2174297E+04  0.7818609E-02  0.8529203E-01
       -2   -1    0    0    0  501  0.00000000000E+00  0.00000000000E+00  0.50858820346E+03  0.50858820346E+03  0.25500000920E-02 0. -1.
        2   -1    0    0  501    0  0.00000000000E+00  0.00000000000E+00 -0.23238681350E+04  0.23238681350E+04  0.25500000920E-02 0.  1.
    10030    2    1    2    0    0  0.00000000000E+00  0.00000000000E+00 -0.18152799316E+04  0.28324563385E+04  0.21742970541E+04 0.  0.
        4    1    3    3  502    0 -0.23714642346E+03 -0.21214053741E+03 -0.22618515625E+04  0.22841226187E+04  0.12699999809E+01 0.  1.
       -4    1    3    3    0  502  0.23714642346E+03  0.21214053741E+03  0.44657163092E+03  0.54833371975E+03  0.12699999809E+01 0. -1.
</event>
<event>
 5   0  0.1241430E-04  0.2143665E+04  0.7818609E-02  0.8542249E-01
       -2   -1    0    0    0  501  0.00000000000E+00  0.00000000000E+00  0.12696050413E+04  0.12696050413E+04  0.25500000920E-02 0.  1.
        2   -1    0    0  501    0  0.00000000000E+00  0.00000000000E+00 -0.90486757682E+03  0.90486757682E+03  0.25500000920E-02 0. -1.
    10030    2    1    2    0    0  0.00000000000E+00  0.00000000000E+00  0.36473746445E+03  0.21744726181E+04  0.21436645607E+04 0.  0.
        1    1    3    3  502    0 -0.84904200256E+03 -0.35322005779E+03  0.74090696738E+03  0.11809233107E+04  0.50400001928E-02 0.  1.
       -1    1    3    3    0  502  0.84904200256E+03  0.35322005779E+03 -0.37616950292E+03  0.99354930743E+03  0.50400001928E-02 0. -1.
</event>
<event>
 5   0  0.6263558E-05  0.2199955E+04  0.7818609E-02  0.8518447E-01
       -1   -1    0    0    0  501  0.00000000000E+00  0.00000000000E+00  0.10476289569E+04  0.10476289569E+04  0.50400001928E-02 0.  1.
        1   -1    0    0  501    0  0.00000000000E+00  0.00000000000E+00 -0.11549418935E+04  0.11549418935E+04  0.50400001928E-02 0. -1.
    10030    2    1    2    0    0  0.00000000000E+00  0.00000000000E+00 -0.10731293654E+03  0.22025708504E+04  0.21999550642E+04 0.  0.
        3    1    3    3  502    0 -0.32848785395E+03  0.78795646496E+03  0.64083314438E+03  0.10674487295E+04  0.10100000352E+00 0.  1.
       -3    1    3    3    0  502  0.32848785395E+03 -0.78795646496E+03 -0.74814608093E+03  0.11351221210E+04  0.10100000352E+00 0. -1.
</event>
<event>
 5   0  0.5895063E-05  0.1995069E+04  0.7818609E-02  0.8608929E-01
       -1   -1    0    0    0  501  0.00000000000E+00  0.00000000000E+00  0.63727646917E+03  0.63727646919E+03  0.50400001928E-02 0. -1.
        1   -1    0    0  501    0  0.00000000000E+00  0.00000000000E+00 -0.15614503091E+04  0.15614503091E+04  0.50400001928E-02 0.  1.
    10030    2    1    2    0    0  0.00000000000E+00  0.00000000000E+00 -0.92417383993E+03  0.21987267783E+04  0.19950694622E+04 0.  0.
        5    1    3    3  502    0 -0.51702897445E+03 -0.80661450194E+02  0.47385651045E+03  0.70596551790E+03  0.46999998093E+01 0. -1.
       -5    1    3    3    0  502  0.51702897445E+03  0.80661450194E+02 -0.13980303504E+04  0.14927612604E+04  0.46999998093E+01 0.  1.
</event>
<event>
 5   0  0.6263558E-05  0.2249437E+04  0.7818609E-02  0.8498129E-01
        1   -1    0    0  501    0  0.00000000000E+00  0.00000000000E+00  0.11657518314E+04  0.11657518314E+04  0.50400001928E-02 0.  1.
       -1   -1    0    0    0  501  0.00000000000E+00  0.00000000000E+00 -0.10851291241E+04  0.10851291241E+04  0.50400001928E-02 0. -1.
    10030    2    1    2    0    0  0.00000000000E+00  0.00000000000E+00  0.80622707287E+02  0.22508809555E+04  0.22494366084E+04 0.  0.
        3    1    3    3  502    0  0.82623133074E+03  0.31660139536E+03 -0.65446623554E+03  0.11005547324E+04  0.10100000352E+00 0. -1.
       -3    1    3    3    0  502 -0.82623133074E+03 -0.31660139536E+03  0.73508894282E+03  0.11503262231E+04  0.10100000352E+00 0.  1.
</event>
<event>
 5   0  0.5895063E-05  0.2149984E+04  0.7818609E-02  0.8539539E-01
        1   -1    0    0  501    0  0.00000000000E+00  0.00000000000E+00  0.26031056340E+04  0.26031056340E+04  0.50400001928E-02 0.  1.
       -1   -1    0    0    0  501  0.00000000000E+00  0.00000000000E+00 -0.44393443680E+03  0.44393443683E+03  0.50400001928E-02 0. -1.
    10030    2    1    2    0    0  0.00000000000E+00  0.00000000000E+00  0.21591711972E+04  0.30470400709E+04  0.21499844033E+04 0.  0.
        5    1    3    3  502    0 -0.37178659039E+03 -0.99632032870E+03  0.13023521742E+04  0.16813752532E+04  0.46999998093E+01 0. -1.
       -5    1    3    3    0  502  0.37178659039E+03  0.99632032870E+03  0.85681902299E+03  0.13656648177E+04  0.46999998093E+01 0.  1.
</event>
<event>
 5   0  0.1226021E-04  0.2087337E+04  0.7818609E-02  0.8566842E-01
       -2   -1    0    0    0  501  0.00000000000E+00  0.00000000000E+00  0.82685949893E+03  0.82685949893E+03  0.25500000920E-02 0. -1.
        2   -1    0    0  501    0  0.00000000000E+00  0.00000000000E+00 -0.13173265129E+04  0.13173265129E+04  0.25500000920E-02 0.  1.
    10030    2    1    2    0    0  0.00000000000E+00  0.00000000000E+00 -0.49046701397E+03  0.21441860118E+04  0.20873370024E+04 0.  0.
        2    1    3    3  502    0  0.69737189937E+03  0.74321977463E+03 -0.14298012369E+02  0.10192681848E+04  0.25500000920E-02 0. -1.
       -2    1    3    3    0  502 -0.69737189937E+03 -0.74321977463E+03 -0.47616900160E+03  0.11249178270E+04  0.25500000920E-02 0.  1.
</event>
<event>
 5   0  0.6263558E-05  0.2143826E+04  0.7818609E-02  0.8542180E-01
        1   -1    0    0  501    0  0.00000000000E+00  0.00000000000E+00  0.21036140173E+04  0.21036140173E+04  0.50400001928E-02 0. -1.
       -1   -1    0    0    0  501  0.00000000000E+00  0.00000000000E+00 -0.54620163675E+03  0.54620163677E+03  0.50400001928E-02 0.  1.
    10030    2    1    2    0    0  0.00000000000E+00  0.00000000000E+00  0.15574123805E+04  0.26498156540E+04  0.21438259438E+04 0.  0.
        3    1    3    3  502    0  0.37361667444E+03  0.16342286664E+03 -0.44657799601E+03  0.60475480112E+03  0.10100000352E+00 0.  1.
       -3    1    3    3    0  502 -0.37361667444E+03 -0.16342286664E+03  0.20039903765E+04  0.20450608529E+04  0.10100000352E+00 0. -1.
</event>
<event>
 5   0  0.1241430E-04  0.2184324E+04  0.7818609E-02  0.8524981E-01
        2   -1    0    0  501    0  0.00000000000E+00  0.00000000000E+00  0.21743014384E+04  0.21743014384E+04  0.25500000920E-02 0. -1.
       -2   -1    0    0    0  501  0.00000000000E+00  0.00000000000E+00 -0.54859838717E+03  0.54859838718E+03  0.25500000920E-02 0.  1.
    10030    2    1    2    0    0  0.00000000000E+00  0.00000000000E+00  0.16257030512E+04  0.27228998256E+04  0.21843243920E+04 0.  0.
        1    1    3    3  502    0  0.28449983004E+03  0.80281438744E+03  0.16650556447E+04  0.18702570395E+04  0.50400001928E-02 0. -1.
       -1    1    3    3    0  502 -0.28449983004E+03 -0.80281438744E+03 -0.39352593460E+02  0.85264278605E+03  0.50400001928E-02 0.  1.
</event>
<event>
 5   0  0.1311472E-04  0.2270418E+04  0.7818609E-02  0.8489677E-01
       -2   -1    0    0    0  501  0.00000000000E+00  0.00000000000E+00  0.99429665583E+03  0.99429665583E+03  0.25500000920E-02 0. -1.
        2   -1    0    0  501    0  0.00000000000E+00  0.00000000000E+00 -0.12960915506E+04  0.12960915506E+04  0.25500000920E-02 0.  1.
    10030    2    1    2    0    0  0.00000000000E+00  0.00000000000E+00 -0.30179489477E+03  0.22903882064E+04  0.22704180183E+04 0.  0.
        4    1    3    3  502    0 -0.53227031043E+03  0.46110659100E+03 -0.10491036116E+04  0.12635469807E+04  0.12699999809E+01 0.  1.
       -4    1    3    3    0  502  0.53227031043E+03 -0.46110659100E+03  0.74730871687E+03  0.10268412257E+04  0.12699999809E+01 0. -1.
</event>
<event>
 5   0  0.6263558E-05  0.1809701E+04  0.7818609E-02  0.8701158E-01
        1   -1    0    0  501    0  0.00000000000E+00  0.00000000000E+00  0.47174273632E+03  0.47174273635E+03  0.50400001928E-02 0.  1.
       -1   -1    0    0    0  501  0.00000000000E+00  0.00000000000E+00 -0.17355949128E+04  0.17355949129E+04  0.50400001928E-02 0. -1.
    10030    2    1    2    0    0  0.00000000000E+00  0.00000000000E+00 -0.12638521765E+04  0.22073376492E+04  0.18097008519E+04 0.  0.
        3    1    3    3  502    0  0.87927818057E+03  0.11292491976E+03 -0.85307045556E+03  0.12302891403E+04  0.10100000352E+00 0. -1.
       -3    1    3    3    0  502 -0.87927818057E+03 -0.11292491976E+03 -0.41078172096E+03  0.97704850893E+03  0.10100000352E+00 0.  1.
</event>
<event>
 5   0  0.1252124E-04  0.2166753E+04  0.7818609E-02  0.8532395E-01
        2   -1    0    0  501    0  0.00000000000E+00  0.00000000000E+00  0.10783654613E+04  0.10783654613E+04  0.25500000920E-02 0.  1.
       -2   -1    0    0    0  501  0.00000000000E+00  0.00000000000E+00 -0.10884109985E+04  0.10884109985E+04  0.25500000920E-02 0. -1.
    10030    2    1    2    0    0  0.00000000000E+00  0.00000000000E+00 -0.10045537247E+02  0.21667764598E+04  0.21667531733E+04 0.  0.
        3    1    3    3  502    0  0.28919507591E+02 -0.22960902554E+03  0.10533591344E+04  0.10784813948E+04  0.10100000352E+00 0.  1.
       -3    1    3    3    0  502 -0.28919507591E+02  0.22960902554E+03 -0.10634046717E+04  0.10882950650E+04  0.10100000352E+00 0. -1.
</event>
<event>
 5   0  0.1241430E-04  0.2204074E+04  0.7818609E-02  0.8516735E-01
        2   -1    0    0  501    0  0.00000000000E+00  0.00000000000E+00  0.25746153604E+04  0.25746153604E+04  0.25500000920E-02 0.  1.
       -2   -1    0    0    0  501  0.00000000000E+00  0.00000000000E+00 -0.47171513721E+03  0.47171513721E+03  0.25500000920E-02 0. -1.
    10030    2    1    2    0    0  0.00000000000E+00  0.00000000000E+00  0.21029002232E+04  0.30463304976E+04  0.22040735360E+04 0.  0.
        1    1    3    3  502    0 -0.60171822640E+03  0.32283995137E+03 -0.14407366309E+03  0.69788801294E+03  0.50400001928E-02 0. -1.
       -1    1    3    3    0  502  0.60171822640E+03 -0.32283995137E+03  0.22469738862E+04  0.23484424846E+04  0.50400001928E-02 0.  1.
</event>
<event>
 5   0  0.5849604E-05  0.2198637E+04  0.7818609E-02  0.8518995E-01
       -1   -1    0    0    0  501  0.00000000000E+00  0.00000000000E+00  0.11352459175E+04  0.11352459175E+04  0.50400001928E-02 0.  1.
        1   -1    0    0  501    0  0.00000000000E+00  0.00000000000E+00 -0.10645285443E+04  0.10645285443E+04  0.50400001928E-02 0. -1.
    10030    2    1    2    0    0  0.00000000000E+00  0.00000000000E+00  0.70717373196E+02  0.21997744618E+04  0.21986374726E+04 0.  0.
        2    1    3    3  502    0  0.69596129769E+03  0.30250283569E+03 -0.76043404376E+03  0.10743044393E+04  0.25500000920E-02 0. -1.
       -2    1    3    3    0  502 -0.69596129769E+03 -0.30250283569E+03  0.83115141695E+03  0.11254700224E+04  0.25500000920E-02 0.  1.
</event>
<event>
 5   0  0.5895063E-05  0.2227404E+04  0.7818609E-02  0.8507108E-01
       -1   -1    0    0    0  501  0.00000000000E+00  0.00000000000E+00  0.13812881124E+04  0.13812881124E+04  0.50400001928E-02 0. -1.
        1   -1    0    0  501    0  0.00000000000E+00  0.00000000000E+00 -0.89795313430E+03  0.89795313431E+03  0.50400001928E-02 0.  1.
    10030    2    1    2    0    0  0.00000000000E+00  0.00000000000E+00  0.48333497809E+03  0.22792412467E+04  0.22274038609E+04 0.  0.
        5    1    3    3  502    0  0.10116937537E+03  0.93775861993E+03 -0.36429947656E+03  0.10111195134E+04  0.46999998093E+01 0.  1.
       -5    1    3    3    0  502 -0.10116937537E+03 -0.93775861993E+03  0.84763445465E+03  0.12681217333E+04  0.46999998093E+01 0. -1.
</event>
<event>
 5   0  0.5861816E-05  0.2103079E+04  0.7818609E-02  0.8559888E-01
       -1   -1    0    0    0  501  0.00000000000E+00  0.00000000000E+00  0.10155397897E+04  0.10155397898E+04  0.50400001928E-02 0.  1.
        1   -1    0    0  501    0  0.00000000000E+00  0.00000000000E+00 -0.10888148463E+04  0.10888148463E+04  0.50400001928E-02 0. -1.
    10030    2    1    2    0    0  0.00000000000E+00  0.00000000000E+00 -0.73275056530E+02  0.21043546360E+04  0.21030785055E+04 0.  0.
        1    1    3    3  502    0 -0.68736873889E+03  0.79100830937E+03  0.50391517209E+02  0.10491469076E+04  0.50400001928E-02 0.  1.
       -1    1    3    3    0  502  0.68736873889E+03 -0.79100830937E+03 -0.12366657374E+03  0.10552077284E+04  0.50400001928E-02 0. -1.
</event>
<event>
 5   0  0.1404159E-04  0.2064248E+04  0.7818609E-02  0.8577158E-01
       -2   -1    0    0    0  501  0.00000000000E+00  0.00000000000E+00  0.10664332474E+04  0.10664332474E+04  0.25500000920E-02 0. -1.
        2   -1    0    0  501    0  0.00000000000E+00  0.00000000000E+00 -0.99891888391E+03  0.99891888391E+03  0.25500000920E-02 0.  1.
    10030    2    1    2    0    0  0.00000000000E+00  0.00000000000E+00  0.67514363538E+02  0.20653521314E+04  0.20642483468E+04 0.  0.
        5    1    3    3  502    0 -0.43783578308E+03  0.71453244199E+03 -0.56906098661E+03  0.10129705228E+04  0.46999998093E+01 0.  1.
       -5    1    3    3    0  502  0.43783578308E+03 -0.71453244199E+03  0.63657535014E+03  0.10523816085E+04  0.46999998093E+01 0. -1.
</event>
<event>
 5   0  0.1252124E-04  0.2180624E+04  0.7818609E-02  0.8526536E-01
        2   -1    0    0  501    0  0.00000000000E+00  0.00000000000E+00  0.87809650600E+03  0.87809650601E+03  0.25500000920E-02 0.  1.
       -2   -1    0    0    0  501  0.00000000000E+00  0.00000000000E+00 -0.13538146291E+04  0.13538146291E+04  0.25500000920E-02 0. -1.
    10030    2    1    2    0    0  0.00000000000E+00  0.00000000000E+00 -0.47571812306E+03  0.22319111351E+04  0.21806236682E+04 0.  0.
        3    1    3    3  502    0  0.31132772961E+03 -0.16440969937E+03  0.81831420500E+03  0.89083873556E+03  0.10100000352E+00 0.  1.
       -3    1    3    3    0  502 -0.31132772961E+03  0.16440969937E+03 -0.12940323281E+04  0.13410723995E+04  0.10100000352E+00 0. -1.
</event>
<event>
 5   0  0.1311472E-04  0.2172899E+04  0.7818609E-02  0.8529793E-01
        2   -1    0    0  501    0  0.00000000000E+00  0.00000000000E+00  0.22734225860E+04  0.22734225860E+04  0.25500000920E-02 0.  1.
       -2   -1    0    0    0  501  0.00000000000E+00  0.00000000000E+00 -0.51920529825E+03  0.51920529826E+03  0.25500000920E-02 0. -1.
    10030    2    1    2    0    0  0.00000000000E+00  0.00000000000E+00  0.17542172877E+04  0.27926278843E+04  0.21728994931E+04 0.  0.
        4    1    3    3  502    0  0.71624018437E+03 -0.22315422425E+03  0.18871003399E+04  0.20307503823E+04  0.12699999809E+01 0.  1.
       -4    1    3    3    0  502 -0.71624018437E+03  0.22315422425E+03 -0.13288305217E+03  0.76187750194E+03  0.12699999809E+01 0. -1.
</event>
<event>
 5   0  0.1252124E-04  0.2244333E+04  0.7818609E-02  0.8500199E-01
        2   -1    0    0  501    0  0.00000000000E+00  0.00000000000E+00  0.13793956524E+04  0.13793956524E+04  0.25500000920E-02 0. -1.
       -2   -1    0    0    0  501  0.00000000000E+00  0.00000000000E+00 -0.91290568959E+03  0.91290568959E+03  0.25500000920E-02 0.  1.
    10030    2    1    2    0    0  0.00000000000E+00  0.00000000000E+00  0.46648996286E+03  0.22923013420E+04  0.22443334327E+04 0.  0.
        3    1    3    3  502    0 -0.37197896851E+03  0.52892708909E+03 -0.70348589449E+03  0.95552322448E+03  0.10100000352E+00 0.  1.
       -3    1    3    3    0  502  0.37197896851E+03 -0.52892708909E+03  0.11699758573E+04  0.13367781176E+04  0.10100000352E+00 0. -1.
</event>
<event>
 5   0  0.5895063E-05  0.2138892E+04  0.7818609E-02  0.8544302E-01
       -1   -1    0    0    0  501  0.00000000000E+00  0.00000000000E+00  0.81634861958E+03  0.81634861959E+03  0.50400001928E-02 0. -1.
        1   -1    0    0  501    0  0.00000000000E+00  0.00000000000E+00 -0.14010125688E+04  0.14010125688E+04  0.50400001928E-02 0.  1.
    10030    2    1    2    0    0  0.00000000000E+00  0.00000000000E+00 -0.58466394918E+03  0.22173611884E+04  0.21388919342E+04 0.  0.
        5    1    3    3  502    0 -0.61426237917E+03 -0.54668021763E+03  0.41650342695E+03  0.92177802397E+03  0.46999998093E+01 0. -1.
       -5    1    3    3    0  502  0.61426237917E+03  0.54668021763E+03 -0.10011673761E+04  0.12955831644E+04  0.46999998093E+01 0.  1.
</event>
<event>
 5   0  0.5981239E-05  0.1598066E+04  0.7818609E-02  0.8821737E-01
       -1   -1    0    0    0  501  0.00000000000E+00  0.00000000000E+00  0.28400306893E+03  0.28400306897E+03  0.50400001928E-02 0.  1.
        1   -1    0    0  501    0  0.00000000000E+00  0.00000000000E+00 -0.22480529332E+04  0.22480529332E+04  0.50400001928E-02 0. -1.
    10030    2    1    2    0    0  0.00000000000E+00  0.00000000000E+00 -0.19640498643E+04  0.25320560022E+04  0.15980662467E+04 0.  0.
        4    1    3    3  502    0  0.78945492711E+03  0.22652169315E+02 -0.11741300423E+04  0.14150389294E+04  0.12699999809E+01 0. -1.
       -4    1    3    3    0  502 -0.78945492711E+03 -0.22652169315E+02 -0.78991982196E+03  0.11170170727E+04  0.12699999809E+01 0.  1.
</event>
<event>
 5   0  0.5895063E-05  0.2137599E+04  0.7818609E-02  0.8544859E-01
       -1   -1    0    0    0  501  0.00000000000E+00  0.00000000000E+00  0.77479308699E+03  0.77479308700E+03  0.50400001928E-02 0. -1.
        1   -1    0    0  501    0  0.00000000000E+00  0.00000000000E+00 -0.14743715532E+04  0.14743715532E+04  0.50400001928E-02 0.  1.
    10030    2    1    2    0    0  0.00000000000E+00  0.00000000000E+00 -0.69957846618E+03  0.22491646402E+04  0.21375994827E+04 0.  0.
        5    1    3    3  502    0  0.54241409345E+03 -0.75936269676E+03  0.19842798039E+03  0.95406525322E+03  0.46999998093E+01 0. -1.
       -5    1    3    3    0  502 -0.54241409345E+03  0.75936269676E+03 -0.89800644657E+03  0.12950993870E+04  0.46999998093E+01 0.  1.
</event>
<event>
 5   0  0.5981239E-05  0.2239604E+04  0.7818609E-02  0.8502122E-01
        1   -1    0    0  501    0  0.00000000000E+00  0.00000000000E+00  0.15343687584E+04  0.15343687584E+04  0.50400001928E-02 0. -1.
       -1   -1    0    0    0  501  0.00000000000E+00  0.00000000000E+00 -0.81724596524E+03  0.81724596525E+03  0.50400001928E-02 0.  1.
    10030    2    1    2    0    0  0.00000000000E+00  0.00000000000E+00  0.71712279318E+03  0.23516147237E+04  0.22396041409E+04 0.  0.
        4    1    3    3  502    0  0.81184412406E+03  0.19397976240E+03  0.11423780838E+04  0.14148315550E+04  0.12699999809E+01 0. -1.
       -4    1    3    3    0  502 -0.81184412406E+03 -0.19397976240E+03 -0.42525529057E+03  0.93678316864E+03  0.12699999809E+01 0.  1.
</event>
<event>
 5   0  0.1252124E-04  0.2214469E+04  0.7818609E-02  0.8512430E-01
       -2   -1    0    0    0  501  0.00000000000E+00  0.00000000000E+00  0.10967043927E+04  0.10967043927E+04  0.25500000920E-02 0.  1.
        2   -1    0    0  501    0  0.00000000000E+00  0.00000000000E+00 -0.11178660178E+04  0.11178660178E+04  0.25500000920E-02 0. -1.
    10030    2    1    2    0    0  0.00000000000E+00  0.00000000000E+00 -0.21161625142E+02  0.22145704105E+04  0.22144693018E+04 0.  0.
        3    1    3    3  502    0 -0.96633033849E+03 -0.42150622893E+03  0.32782307993E+03  0.11040515414E+04  0.10100000352E+00 0.  1.
       -3    1    3    3    0  502  0.96633033849E+03  0.42150622893E+03 -0.34898470507E+03  0.11105188691E+04  0.10100000352E+00 0. -1.
</event>
<event>
 5   0  0.6263558E-05  0.1503502E+04  0.7818609E-02  0.8882128E-01
        1   -1    0    0  501    0  0.00000000000E+00  0.00000000000E+00  0.11785751665E+04  0.11785751665E+04  0.50400001928E-02 0. -1.
       -1   -1    0    0    0  501  0.00000000000E+00  0.00000000000E+00 -0.47950228936E+03  0.47950228938E+03  0.50400001928E-02 0.  1.
    10030    2    1    2    0    0  0.00000000000E+00  0.00000000000E+00  0.69907287711E+03  0.16580774559E+04  0.15035018996E+04 0.  0.
        3    1    3    3  502    0  0.35328940209E+03  0.60046009430E+03  0.66099740410E+03  0.96035582203E+03  0.10100000352E+00 0. -1.
       -3    1    3    3    0  502 -0.35328940209E+03 -0.60046009430E+03  0.38075473008E+02  0.69772163383E+03  0.10100000352E+00 0.  1.
</event>
<event>
 5   0  0.1404159E-04  0.2222286E+04  0.7818609E-02  0.8509209E-01
       -2   -1    0    0    0  501  0.00000000000E+00  0.00000000000E+00  0.12718164965E+04  0.12718164965E+04  0.25500000920E-02 0. -1.
        2   -1    0    0  501    0  0.00000000000E+00  0.00000000000E+00 -0.97076791161E+03  0.97076791161E+03  0.25500000920E-02 0.  1.
    10030    2    1    2    0    0  0.00000000000E+00  0.00000000000E+00  0.30104858491E+03  0.22425844081E+04  0.22222858900E+04 0.  0.
        5    1    3    3  502    0  0.10029669455E+04  0.33764673197E+01  0.63307872058E+03  0.11860711828E+04  0.46999998093E+01 0. -1.
       -5    1    3    3    0  502 -0.10029669455E+04 -0.33764673197E+01 -0.33203013567E+03  0.10565132253E+04  0.46999998093E+01 0.  1.
</event>
<event>
 5   0  0.1252124E-04  0.2196484E+04  0.7818609E-02  0.8519893E-01
       -2   -1    0    0    0  501  0.00000000000E+00  0.00000000000E+00  0.82247174047E+03  0.82247174048E+03  0.25500000920E-02 0. -1.
        2   -1    0    0  501    0  0.00000000000E+00  0.00000000000E+00 -0.14664770983E+04  0.14664770983E+04  0.25500000920E-02 0.  1.
    10030    2    1    2    0    0  0.00000000000E+00  0.00000000000E+00 -0.64400535778E+03  0.22889488387E+04  0.21964844378E+04 0.  0.
        3    1    3    3  502    0  0.38874888708E+03  0.17762043332E+03 -0.13762527919E+04  0.14410921112E+04  0.10100000352E+00 0.  1.
       -3    1    3    3    0  502 -0.38874888708E+03 -0.17762043332E+03  0.73224743409E+03  0.84785672756E+03  0.10100000352E+00 0. -1.
</event>
<event>
 5   0  0.6263558E-05  0.2183573E+04  0.7818609E-02  0.8525297E-01
        1   -1    0    0  501    0  0.00000000000E+00  0.00000000000E+00  0.18931568827E+04  0.18931568827E+04  0.50400001928E-02 0. -1.
       -1   -1    0    0    0  501  0.00000000000E+00  0.00000000000E+00 -0.62963483471E+03  0.62963483473E+03  0.50400001928E-02 0.  1.
    10030    2    1    2    0    0  0.00000000000E+00  0.00000000000E+00  0.12635220480E+04  0.25227917175E+04  0.21835727796E+04 0.  0.
        3    1    3    3  502    0  0.48397930913E+03 -0.73949313153E+03  0.13723680792E+04  0.16323235642E+04  0.10100000352E+00 0. -1.
       -3    1    3    3    0  502 -0.48397930913E+03  0.73949313153E+03 -0.10884603120E+03  0.89046815325E+03  0.10100000352E+00 0.  1.
</event>
<event>
 5   0  0.1311472E-04  0.2102626E+04  0.7818609E-02  0.8560087E-01
        2   -1    0    0  501    0  0.00000000000E+00  0.00000000000E+00  0.11234824602E+04  0.11234824602E+04  0.25500000920E-02 0.  1.
       -2   -1    0    0    0  501  0.00000000000E+00  0.00000000000E+00 -0.98377959642E+03  0.98377959642E+03  0.25500000920E-02 0. -1.
    10030    2    1    2    0    0  0.00000000000E+00  0.00000000000E+00  0.13970286374E+03  0.21072620566E+04  0.21026260925E+04 0.  0.
        4    1    3    3  502    0 -0.11445151142E+03  0.51348710865E+03 -0.84236935141E+03  0.99315451784E+03  0.12699999809E+01 0. -1.
       -4    1    3    3    0  502  0.11445151142E+03 -0.51348710865E+03  0.98207221515E+03  0.11141075387E+04  0.12699999809E+01 0.  1.
</event>
<event>
 5   0  0.1404159E-04  0.2174549E+04  0.7818609E-02  0.8529097E-01
       -2   -1    0    0    0  501  0.00000000000E+00  0.00000000000E+00  0.13046668861E+04  0.13046668861E+04  0.25500000920E-02 0.  1.
        2   -1    0    0  501    0  0.00000000000E+00  0.00000000000E+00 -0.90610509269E+03  0.90610509270E+03  0.25500000920E-02 0. -1.
    10030    2    1    2    0    0  0.00000000000E+00  0.00000000000E+00  0.39856179343E+03  0.22107719788E+04  0.21745485139E+04 0.  0.
        5    1    3    3  502    0 -0.92334637120E+03  0.49900099336E+03 -0.89300830334E+02  0.10533599769E+04  0.46999998093E+01 0. -1.
       -5    1    3    3    0  502  0.92334637120E+03 -0.49900099336E+03  0.48786262376E+03  0.11574120019E+04  0.46999998093E+01 0.  1.
</event>
<event>
 5   0  0.5849604E-05  0.2222701E+04  0.7818609E-02  0.8509039E-01
       -1   -1    0    0    0  501  0.00000000000E+00  0.00000000000E+00  0.60914571873E+03  0.60914571875E+03  0.50400001928E-02 0. -1.
        1   -1    0    0  501    0  0.00000000000E+00  0.00000000000E+00 -0.20275927806E+04  0.20275927806E+04  0.50400001928E-02 0.  1.
    10030    2    1    2    0    0  0.00000000000E+00  0.00000000000E+00 -0.14184470619E+04  0.26367384994E+04  0.22227005751E+04 0.  0.
        2    1    3    3  502    0 -0.37507301936E+03  0.68903229646E+03 -0.16430384165E+04  0.18207197790E+04  0.25500000920E-02 0.  1.
       -2    1    3    3    0  502  0.37507301936E+03 -0.68903229646E+03  0.22459135464E+03  0.81601872038E+03  0.25500000920E-02 0. -1.
</event>
<event>
 5   0  0.5981239E-05  0.2280696E+04  0.7818609E-02  0.8485572E-01
        1   -1    0    0  501    0  0.00000000000E+00  0.00000000000E+00  0.17871646015E+04  0.17871646015E+04  0.50400001928E-02 0.  1.
       -1   -1    0    0    0  501  0.00000000000E+00  0.00000000000E+00 -0.72762917224E+03  0.72762917226E+03  0.50400001928E-02 0. -1.
    10030    2    1    2    0    0  0.00000000000E+00  0.00000000000E+00  0.10595354292E+04  0.25147937737E+04  0.22806955953E+04 0.  0.
        4    1    3    3  502    0  0.13332082135E+03  0.11285734243E+04  0.42551646932E+03  0.12134736479E+04  0.12699999809E+01 0. -1.
       -4    1    3    3    0  502 -0.13332082135E+03 -0.11285734243E+04  0.63401895991E+03  0.13013201259E+04  0.12699999809E+01 0.  1.
</event>
<event>
 5   0  0.6263558E-05  0.2318121E+04  0.7818609E-02  0.8470811E-01
       -1   -1    0    0    0  501  0.00000000000E+00  0.00000000000E+00  0.78749185964E+03  0.78749185966E+03  0.50400001928E-02 0. -1.
        1   -1    0    0  501    0  0.00000000000E+00  0.00000000000E+00 -0.17059486716E+04  0.17059486716E+04  0.50400001928E-02 0.  1.
    10030    2    1    2    0    0  0.00000000000E+00  0.00000000000E+00 -0.91845681195E+03  0.24934405313E+04  0.23181205248E+04 0.  0.
        3    1    3    3  502    0 -0.78974285600E+02  0.11376533508E+04 -0.23636623755E+03  0.11646291653E+04  0.10100000352E+00 0. -1.
       -3    1    3    3    0  502  0.78974285600E+02 -0.11376533508E+04 -0.68209057440E+03  0.13288113659E+04  0.10100000352E+00 0.  1.
</event>
<event>
 5   0  0.5895063E-05  0.1771595E+04  0.7818609E-02  0.8721552E-01
        1   -1    0    0  501    0  0.00000000000E+00  0.00000000000E+00  0.12134737785E+04  0.12134737785E+04  0.50400001928E-02 0. -1.
       -1   -1    0    0    0  501  0.00000000000E+00  0.00000000000E+00 -0.64660423372E+03  0.64660423374E+03  0.50400001928E-02 0.  1.
    10030    2    1    2    0    0  0.00000000000E+00  0.00000000000E+00  0.56686954477E+03  0.18600780122E+04  0.17715950809E+04 0.  0.
        5    1    3    3  502    0  0.69567029615E+03 -0.45613308455E+03 -0.36067307504E+02  0.83266889724E+03  0.46999998093E+01 0.  1.
       -5    1    3    3    0  502 -0.69567029615E+03  0.45613308455E+03  0.60293685227E+03  0.10274091150E+04  0.46999998093E+01 0. -1.
</event>
<event>
 5   0  0.1241430E-04  0.2400221E+04  0.7818609E-02  0.8439421E-01
       -2   -1    0    0    0  501  0.00000000000E+00  0.00000000000E+00  0.61551935132E+03  0.61551935133E+03  0.25500000920E-02 0. -1.
        2   -1    0    0  501    0  0.00000000000E+00  0.00000000000E+00 -0.23399181934E+04  0.23399181934E+04  0.25500000920E-02 0.  1.
    10030    2    1    2    0    0  0.00000000000E+00  0.00000000000E+00 -0.17243988420E+04  0.29554375447E+04  0.24002207636E+04 0.  0.
        1    1    3    3  502    0 -0.86014930276E+03  0.68186493424E+03 -0.26470089600E+03  0.11290983907E+04  0.50400001928E-02 0. -1.
       -1    1    3    3    0  502  0.86014930276E+03 -0.68186493424E+03 -0.14596979460E+04  0.18263391540E+04  0.50400001928E-02 0.  1.
</event>
<event>
 5   0  0.5861816E-05  0.2115092E+04  0.7818609E-02  0.8554624E-01
        1   -1    0    0  501    0  0.00000000000E+00  0.00000000000E+00  0.27209071579E+04  0.27209071579E+04  0.50400001928E-02 0.  1.
       -1   -1    0    0    0  501  0.00000000000E+00  0.00000000000E+00 -0.41104077799E+03  0.41104077802E+03  0.50400001928E-02 0. -1.
    10030    2    1    2    0    0  0.00000000000E+00  0.00000000000E+00  0.23098663799E+04  0.31319479359E+04  0.21150922392E+04 0.  0.
        1    1    3    3  502    0 -0.95359488400E+03 -0.41839056730E+03  0.88185434183E+03  0.13645735414E+04  0.50400001928E-02 0. -1.
       -1    1    3    3    0  502  0.95359488400E+03  0.41839056730E+03  0.14280120381E+04  0.17673743946E+04  0.50400001928E-02 0.  1.
</event>
<event>
 5   0  0.1241430E-04  0.2167082E+04  0.7818609E-02  0.8532255E-01
        2   -1    0    0  501    0  0.00000000000E+00  0.00000000000E+00  0.30602834537E+04  0.30602834537E+04  0.25500000920E-02 0.  1.
       -2   -1    0    0    0  501  0.00000000000E+00  0.00000000000E+00 -0.38364467467E+03  0.38364467468E+03  0.25500000920E-02 0. -1.
    10030    2    1    2    0    0  0.00000000000E+00  0.00000000000E+00  0.26766387790E+04  0.34439281283E+04  0.21670823242E+04 0.  0.
        1    1    3    3  502    0 -0.35738551894E+03 -0.87698068179E+03  0.21750932831E+04  0.23723090683E+04  0.50400001928E-02 0.  1.
       -1    1    3    3    0  502  0.35738551894E+03  0.87698068179E+03  0.50154549592E+03  0.10716190601E+04  0.50400001928E-02 0. -1.
</event>
<event>
 5   0  0.6263558E-05  0.2212601E+04  0.7818609E-02  0.8513202E-01
        1   -1    0    0  501    0  0.00000000000E+00  0.00000000000E+00  0.14094644210E+04  0.14094644210E+04  0.50400001928E-02 0. -1.
       -1   -1    0    0    0  501  0.00000000000E+00  0.00000000000E+00 -0.86834425820E+03  0.86834425822E+03  0.50400001928E-02 0.  1.
    10030    2    1    2    0    0  0.00000000000E+00  0.00000000000E+00  0.54112016280E+03  0.22778086792E+04  0.22126005850E+04 0.  0.
        3    1    3    3  502    0 -0.26284839531E+03 -0.99444054626E+02  0.13721048624E+04  0.14005892198E+04  0.10100000352E+00 0. -1.
       -3    1    3    3    0  502  0.26284839531E+03  0.99444054626E+02 -0.83098469959E+03  0.87721945947E+03  0.10100000352E+00 0.  1.
</event>
<event>
 5   0  0.5849604E-05  0.2164049E+04  0.7818609E-02  0.8533542E-01
        1   -1    0    0  501    0  0.00000000000E+00  0.00000000000E+00  0.74895200251E+03  0.74895200253E+03  0.50400001928E-02 0. -1.
       -1   -1    0    0    0  501  0.00000000000E+00  0.00000000000E+00 -0.15632206447E+04  0.15632206447E+04  0.50400001928E-02 0.  1.
    10030    2    1    2    0    0  0.00000000000E+00  0.00000000000E+00 -0.81426864221E+03  0.23121726473E+04  0.21640491975E+04 0.  0.
        2    1    3    3  502    0  0.85412233545E+03  0.45544277619E+03 -0.92378595577E+03  0.13380334743E+04  0.25500000920E-02 0. -1.
       -2    1    3    3    0  502 -0.85412233545E+03 -0.45544277619E+03  0.10951731357E+03  0.97413917295E+03  0.25500000920E-02 0.  1.
</event>
<event>
 5   0  0.5895063E-05  0.2182329E+04  0.7818609E-02  0.8525819E-01
       -1   -1    0    0    0  501  0.00000000000E+00  0.00000000000E+00  0.90200016643E+03  0.90200016644E+03  0.50400001928E-02 0. -1.
        1   -1    0    0  501    0  0.00000000000E+00  0.00000000000E+00 -0.13200002333E+04  0.13200002333E+04  0.50400001928E-02 0.  1.
    10030    2    1    2    0    0  0.00000000000E+00  0.00000000000E+00 -0.41800006687E+03  0.22220003997E+04  0.21823294253E+04 0.  0.
        5    1    3    3  502    0 -0.75216484938E+03  0.14729215471E+03 -0.99975912697E+03  0.12597568581E+04  0.46999998093E+01 0.  1.
       -5    1    3    3    0  502  0.75216484938E+03 -0.14729215471E+03  0.58175906010E+03  0.96224354168E+03  0.46999998093E+01 0. -1.
</event>
<event>
 5   0  0.1404159E-04  0.2173255E+04  0.7818609E-02  0.8529643E-01
       -2   -1    0    0    0  501  0.00000000000E+00  0.00000000000E+00  0.76588938733E+03  0.76588938734E+03  0.25500000920E-02 0.  1.
        2   -1    0    0  501    0  0.00000000000E+00  0.00000000000E+00 -0.15416838340E+04  0.15416838340E+04  0.25500000920E-02 0. -1.
    10030    2    1    2    0    0  0.00000000000E+00  0.00000000000E+00 -0.77579444671E+03  0.23075732214E+04  0.21732549663E+04 0.  0.
        5    1    3    3  502    0  0.75977051426E+03 -0.16742630151E+03  0.41757443895E+03  0.88299111142E+03  0.46999998093E+01 0.  1.
       -5    1    3    3    0  502 -0.75977051426E+03  0.16742630151E+03 -0.11933688857E+04  0.14245821100E+04  0.46999998093E+01 0. -1.
</event>
<event>
 5   0  0.1404159E-04  0.2169258E+04  0.7818609E-02  0.8531334E-01
        2   -1    0    0  501    0  0.00000000000E+00  0.00000000000E+00  0.17442288384E+04  0.17442288384E+04  0.25500000920E-02 0.  1.
       -2   -1    0    0    0  501  0.00000000000E+00  0.00000000000E+00 -0.67446406139E+03  0.67446406140E+03  0.25500000920E-02 0. -1.
    10030    2    1    2    0    0  0.00000000000E+00  0.00000000000E+00  0.10697647770E+04  0.24186928998E+04  0.21692576300E+04 0.  0.
        5    1    3    3  502    0 -0.23016421490E+03 -0.23765424919E+03 -0.61681954794E+03  0.69995967934E+03  0.46999998093E+01 0. -1.
       -5    1    3    3    0  502  0.23016421490E+03  0.23765424919E+03  0.16865843250E+04  0.17187332205E+04  0.46999998093E+01 0.  1.
</event>
<event>
 5   0  0.1404159E-04  0.2149090E+04  0.7818609E-02  0.8539922E-01
       -2   -1    0    0    0  501  0.00000000000E+00  0.00000000000E+00  0.15546944367E+04  0.15546944367E+04  0.25500000920E-02 0.  1.
        2   -1    0    0  501    0  0.00000000000E+00  0.00000000000E+00 -0.74268388545E+03  0.74268388545E+03  0.25500000920E-02 0. -1.
    10030    2    1    2    0    0  0.00000000000E+00  0.00000000000E+00  0.81201055120E+03  0.22973783221E+04  0.21490895792E+04 0.  0.
        5    1    3    3  502    0 -0.10521302459E+04 -0.20539245803E+03  0.32701271317E+03  0.11207691648E+04  0.46999998093E+01 0.  1.
       -5    1    3    3    0  502  0.10521302459E+04  0.20539245803E+03  0.48499783803E+03  0.11766091573E+04  0.46999998093E+01 0. -1.
</event>
<event>
 5   0  0.5981239E-05  0.1642744E+04  0.7818609E-02  0.8794711E-01
        1   -1    0    0  501    0  0.00000000000E+00  0.00000000000E+00  0.90894218973E+03  0.90894218975E+03  0.50400001928E-02 0.  1.
       -1   -1    0    0    0  501  0.00000000000E+00  0.00000000000E+00 -0.74223834157E+03  0.74223834158E+03  0.50400001928E-02 0. -1.
    10030    2    1    2    0    0  0.00000000000E+00  0.00000000000E+00  0.16670384817E+03  0.16511805313E+04  0.16427437335E+04 0.  0.
        4    1    3    3  502    0 -0.25638705737E+02 -0.62927740426E+03  0.61331946991E+03  0.87909600148E+03  0.12699999809E+01 0.  1.
       -4    1    3    3    0  502  0.25638705737E+02  0.62927740426E+03 -0.44661562175E+03  0.77208452985E+03  0.12699999809E+01 0. -1.
</event>
<event>
 5   0  0.1226021E-04  0.1488267E+04  0.7818609E-02  0.8892293E-01
        2   -1    0    0  501    0  0.00000000000E+00  0.00000000000E+00  0.21561819845E+04  0.21561819845E+04  0.25500000920E-02 0. -1.
       -2   -1    0    0    0  501  0.00000000000E+00  0.00000000000E+00 -0.25681252272E+03  0.25681252273E+03  0.25500000920E-02 0.  1.
    10030    2    1    2    0    0  0.00000000000E+00  0.00000000000E+00  0.18993694618E+04  0.24129945072E+04  0.14882668240E+04 0.  0.
        2    1    3    3  502    0 -0.17863704239E+03 -0.48596171001E+03  0.18162548577E+04  0.18886110464E+04  0.25500000920E-02 0. -1.
       -2    1    3    3    0  502  0.17863704239E+03  0.48596171001E+03  0.83114604028E+02  0.52438346076E+03  0.25500000920E-02 0.  1.
</event>
<event>
 5   0  0.1252124E-04  0.2182755E+04  0.7818609E-02  0.8525641E-01
        2   -1    0    0  501    0  0.00000000000E+00  0.00000000000E+00  0.12045053259E+04  0.12045053259E+04  0.25500000920E-02 0. -1.
       -2   -1    0    0    0  501  0.00000000000E+00  0.00000000000E+00 -0.98887426690E+03  0.98887426690E+03  0.25500000920E-02 0.  1.
    10030    2    1    2    0    0  0.00000000000E+00  0.00000000000E+00  0.21563105898E+03  0.21933795928E+04  0.21827545177E+04 0.  0.
        3    1    3    3  502    0 -0.46207066190E+03 -0.69206657050E+02 -0.88329456823E+03  0.99925380281E+03  0.10100000352E+00 0.  1.
       -3    1    3    3    0  502  0.46207066190E+03  0.69206657050E+02  0.10989256272E+04  0.11941257900E+04  0.10100000352E+00 0. -1.
</event>
<event>
 5   0  0.5861816E-05  0.2208372E+04  0.7818609E-02  0.8514951E-01
       -1   -1    0    0    0  501  0.00000000000E+00  0.00000000000E+00  0.48478492825E+03  0.48478492828E+03  0.50400001928E-02 0.  1.
        1   -1    0    0  501    0  0.00000000000E+00  0.00000000000E+00 -0.25149853332E+04  0.25149853332E+04  0.50400001928E-02 0. -1.
    10030    2    1    2    0    0  0.00000000000E+00  0.00000000000E+00 -0.20302004049E+04  0.29997702615E+04  0.22083722371E+04 0.  0.
        1    1    3    3  502    0  0.69580834755E+03  0.74248114726E+03 -0.15974552560E+04  0.18940144681E+04  0.50400001928E-02 0. -1.
       -1    1    3    3    0  502 -0.69580834755E+03 -0.74248114726E+03 -0.43274514894E+03  0.11057557933E+04  0.50400001928E-02 0.  1.
</event>
<event>
 5   0  0.1252124E-04  0.2199925E+04  0.7818609E-02  0.8518459E-01
        2   -1    0    0  501    0  0.00000000000E+00  0.00000000000E+00  0.82104936496E+03  0.82104936496E+03  0.25500000920E-02 0. -1.
       -2   -1    0    0    0  501  0.00000000000E+00  0.00000000000E+00 -0.14736231704E+04  0.14736231704E+04  0.25500000920E-02 0.  1.
    10030    2    1    2    0    0  0.00000000000E+00  0.00000000000E+00 -0.65257380546E+03  0.22946725354E+04  0.21999248790E+04 0.  0.
        3    1    3    3  502    0 -0.54203693291E+03  0.14797928915E+03 -0.13126434948E+04  0.14278427299E+04  0.10100000352E+00 0.  1.
       -3    1    3    3    0  502  0.54203693291E+03 -0.14797928915E+03  0.66006968936E+03  0.86682980548E+03  0.10100000352E+00 0. -1.
</event>
<event>
 5   0  0.5981239E-05  0.2186001E+04  0.7818609E-02  0.8524277E-01
        1   -1    0    0  501    0  0.00000000000E+00  0.00000000000E+00  0.90445907804E+03  0.90445907805E+03  0.50400001928E-02 0.  1.
       -1   -1    0    0    0  501  0.00000000000E+00  0.00000000000E+00 -0.13208448697E+04  0.13208448697E+04  0.50400001928E-02 0. -1.
    10030    2    1    2    0    0  0.00000000000E+00  0.00000000000E+00 -0.41638579162E+03  0.22253039477E+04  0.21860010367E+04 0.  0.
        4    1    3    3  502    0  0.39392686905E+03  0.10171342020E+04 -0.27951073966E+03  0.11259965495E+04  0.12699999809E+01 0. -1.
       -4    1    3    3    0  502 -0.39392686905E+03 -0.10171342020E+04 -0.13687505196E+03  0.10993073982E+04  0.12699999809E+01 0.  1.
</event>
<event>
 5   0  0.1252124E-04  0.2288657E+04  0.7818609E-02  0.8482407E-01
        2   -1    0    0  501    0  0.00000000000E+00  0.00000000000E+00  0.10611330422E+04  0.10611330422E+04  0.25500000920E-02 0. -1.
       -2   -1    0    0    0  501  0.00000000000E+00  0.00000000000E+00 -0.12340464181E+04  0.12340464181E+04  0.25500000920E-02 0.  1.
    10030    2    1    2    0    0  0.00000000000E+00  0.00000000000E+00 -0.17291337595E+03  0.22951794603E+04  0.22886567500E+04 0.  0.
        3    1    3    3  502    0  0.84873085775E+03 -0.75059123212E+03  0.74487939698E+02  0.11354645437E+04  0.10100000352E+00 0. -1.
       -3    1    3    3    0  502 -0.84873085775E+03  0.75059123212E+03 -0.24740131565E+03  0.11597149166E+04  0.10100000352E+00 0.  1.
</event>
<event>
 5   0  0.6263558E-05  0.2208954E+04  0.7818609E-02  0.8514710E-01
        1   -1    0    0  501    0  0.00000000000E+00  0.00000000000E+00  0.97366352856E+03  0.97366352857E+03  0.50400001928E-02 0.  1.
       -1   -1    0    0    0  501  0.00000000000E+00  0.00000000000E+00 -0.12528657034E+04  0.12528657034E+04  0.50400001928E-02 0. -1.
    10030    2    1    2    0    0  0.00000000000E+00  0.00000000000E+00 -0.27920217482E+03  0.22265292320E+04  0.22089541793E+04 0.  0.
        3    1    3    3  502    0 -0.71889909310E+03  0.35969738891E+02  0.70477508436E+03  0.10073815851E+04  0.10100000352E+00 0.  1.
       -3    1    3    3    0  502  0.71889909310E+03 -0.35969738891E+02 -0.98397725918E+03  0.12191476469E+04  0.10100000352E+00 0. -1.
</event>
<event>
 5   0  0.1226021E-04  0.2142669E+04  0.7818609E-02  0.8542677E-01
       -2   -1    0    0    0  501  0.00000000000E+00  0.00000000000E+00  0.13546062187E+04  0.13546062187E+04  0.25500000920E-02 0.  1.
        2   -1    0    0  501    0  0.00000000000E+00  0.00000000000E+00 -0.84729990119E+03  0.84729990119E+03  0.25500000920E-02 0. -1.
    10030    2    1    2    0    0  0.00000000000E+00  0.00000000000E+00  0.50730631755E+03  0.22019061199E+04  0.21426690974E+04 0.  0.
        2    1    3    3  502    0  0.43903553891E+03  0.33112108817E+03  0.11985092200E+04  0.13186423814E+04  0.25500000920E-02 0.  1.
       -2    1    3    3    0  502 -0.43903553891E+03 -0.33112108817E+03 -0.69120290247E+03  0.88326373856E+03  0.25500000920E-02 0. -1.
</event>
<event>
 5   0  0.5895063E-05  0.2191999E+04  0.7818609E-02  0.8521766E-01
       -1   -1    0    0    0  501  0.00000000000E+00  0.00000000000E+00  0.94347764291E+03  0.94347764292E+03  0.50400001928E-02 0.  1.
        1   -1    0    0  501    0  0.00000000000E+00  0.00000000000E+00 -0.12731775043E+04  0.12731775043E+04  0.50400001928E-02 0. -1.
    10030    2    1    2    0    0  0.00000000000E+00  0.00000000000E+00 -0.32969986140E+03  0.22166551472E+04  0.21919986412E+04 0.  0.
        5    1    3    3  502    0 -0.43630877727E+03  0.91656474696E+03  0.25300023403E+03  0.10461775628E+04  0.46999998093E+01 0.  1.
       -5    1    3    3    0  502  0.43630877727E+03 -0.91656474696E+03 -0.58270009543E+03  0.11704775844E+04  0.46999998093E+01 0. -1.
</event>
<event>
 5   0  0.5849604E-05  0.2224176E+04  0.7818609E-02  0.8508432E-01
        1   -1    0    0  501    0  0.00000000000E+00  0.00000000000E+00  0.14173645633E+04  0.14173645633E+04  0.50400001928E-02 0.  1.
       -1   -1    0    0    0  501  0.00000000000E+00  0.00000000000E+00 -0.87256274689E+03  0.87256274690E+03  0.50400001928E-02 0. -1.
    10030    2    1    2    0    0  0.00000000000E+00  0.00000000000E+00  0.54480181637E+03  0.22899273102E+04  0.22241758174E+04 0.  0.
        2    1    3    3  502    0 -0.74604043478E+03 -0.82470139367E+03  0.27811452767E+03  0.11463229953E+04  0.25500000920E-02 0.  1.
       -2    1    3    3    0  502  0.74604043478E+03  0.82470139367E+03  0.26668728870E+03  0.11436043149E+04  0.25500000920E-02 0. -1.
</event>
<event>
 5   0  0.5895063E-05  0.2135138E+04  0.7818609E-02  0.8545921E-01
       -1   -1    0    0    0  501  0.00000000000E+00  0.00000000000E+00  0.67134576023E+03  0.67134576025E+03  0.50400001928E-02 0.  1.
        1   -1    0    0  501    0  0.00000000000E+00  0.00000000000E+00 -0.16976406755E+04  0.16976406755E+04  0.50400001928E-02 0. -1.
    10030    2    1    2    0    0  0.00000000000E+00  0.00000000000E+00 -0.10262949152E+04  0.23689864357E+04  0.21351382811E+04 0.  0.
        5    1    3    3  502    0  0.67605799562E+03 -0.49693653978E+03  0.21920660922E+03  0.86722198169E+03  0.46999998093E+01 0.  1.
       -5    1    3    3    0  502 -0.67605799562E+03  0.49693653978E+03 -0.12455015244E+04  0.15017644540E+04  0.46999998093E+01 0. -1.
</event>
<event>
 5   0  0.1252124E-04  0.2154736E+04  0.7818609E-02  0.8537508E-01
       -2   -1    0    0    0  501  0.00000000000E+00  0.00000000000E+00  0.86695073525E+03  0.86695073525E+03  0.25500000920E-02 0. -1.
        2   -1    0    0  501    0  0.00000000000E+00  0.00000000000E+00 -0.13388553051E+04  0.13388553051E+04  0.25500000920E-02 0.  1.
    10030    2    1    2    0    0  0.00000000000E+00  0.00000000000E+00 -0.47190456987E+03  0.22058060404E+04  0.21547357993E+04 0.  0.
        3    1    3    3  502    0  0.53682888552E+03 -0.72599160598E+03  0.36574776335E+03  0.97417683244E+03  0.10100000352E+00 0. -1.
       -3    1    3    3    0  502 -0.53682888552E+03  0.72599160598E+03 -0.83765233322E+03  0.12316292079E+04  0.10100000352E+00 0.  1.
</event>
<event>
 5   0  0.5895063E-05  0.1886753E+04  0.7818609E-02  0.8661479E-01
        1   -1    0    0  501    0  0.00000000000E+00  0.00000000000E+00  0.50050972724E+03  0.50050972726E+03  0.50400001928E-02 0.  1.
       -1   -1    0    0    0  501  0.00000000000E+00  0.00000000000E+00 -0.17781053574E+04  0.17781053574E+04  0.50400001928E-02 0. -1.
    10030    2    1    2    0    0  0.00000000000E+00  0.00000000000E+00 -0.12775956301E+04  0.22786150846E+04  0.18867527951E+04 0.  0.
        5    1    3    3  502    0  0.40706268871E+03  0.85100109169E+03 -0.64584465625E+03  0.11432586324E+04  0.46999998093E+01 0.  1.
       -5    1    3    3    0  502 -0.40706268871E+03 -0.85100109169E+03 -0.63175097387E+03  0.11353564522E+04  0.46999998093E+01 0. -1.
</event>
<event>
 5   0  0.1241430E-04  0.2201807E+04  0.7818609E-02  0.8517676E-01
       -2   -1    0    0    0  501  0.00000000000E+00  0.00000000000E+00  0.57319385527E+03  0.57319385528E+03  0.25500000920E-02 0.  1.
        2   -1    0    0  501    0  0.00000000000E+00  0.00000000000E+00 -0.21144488022E+04  0.21144488022E+04  0.25500000920E-02 0. -1.
    10030    2    1    2    0    0  0.00000000000E+00  0.00000000000E+00 -0.15412549469E+04  0.26876426575E+04  0.22018074945E+04 0.  0.
        1    1    3    3  502    0  0.72948272609E+03 -0.26853816728E+03  0.18095836403E+03  0.79812513085E+03  0.50400001928E-02 0.  1.
       -1    1    3    3    0  502 -0.72948272609E+03  0.26853816728E+03 -0.17222133109E+04  0.18895175266E+04  0.50400001928E-02 0. -1.
</event>
<event>
 5   0  0.1404159E-04  0.2189849E+04  0.7818609E-02  0.8522665E-01
        2   -1    0    0  501    0  0.00000000000E+00  0.00000000000E+00  0.21395846489E+04  0.21395846489E+04  0.25500000920E-02 0.  1.
       -2   -1    0    0    0  501  0.00000000000E+00  0.00000000000E+00 -0.56032379741E+03  0.56032379742E+03  0.25500000920E-02 0. -1.
    10030    2    1    2    0    0  0.00000000000E+00  0.00000000000E+00  0.15792608515E+04  0.26999084463E+04  0.21898494883E+04 0.  0.
        5    1    3    3  502    0 -0.64628182693E+03 -0.28698580813E+03 -0.24101742819E+03  0.74709607454E+03  0.46999998093E+01 0. -1.
       -5    1    3    3    0  502  0.64628182693E+03  0.28698580813E+03  0.18202782797E+04  0.19528123718E+04  0.46999998093E+01 0.  1.
</event>
<event>
 5   0  0.1404159E-04  0.2198302E+04  0.7818609E-02  0.8519135E-01
       -2   -1    0    0    0  501  0.00000000000E+00  0.00000000000E+00  0.25932748300E+04  0.25932748300E+04  0.25500000920E-02 0.  1.
        2   -1    0    0  501    0  0.00000000000E+00  0.00000000000E+00 -0.46587141055E+03  0.46587141056E+03  0.25500000920E-02 0. -1.
    10030    2    1    2    0    0  0.00000000000E+00  0.00000000000E+00  0.21274034195E+04  0.30591462406E+04  0.21983017109E+04 0.  0.
        5    1    3    3  502    0  0.16521437059E+02  0.99025802707E+03  0.17270513852E+04  0.19908823409E+04  0.46999998093E+01 0.  1.
       -5    1    3    3    0  502 -0.16521437059E+02 -0.99025802707E+03  0.40035203426E+03  0.10682638997E+04  0.46999998093E+01 0. -1.
</event>
<event>
 5   0  0.5895063E-05  0.2213472E+04  0.7818609E-02  0.8512842E-01
       -1   -1    0    0    0  501  0.00000000000E+00  0.00000000000E+00  0.12010042644E+04  0.12010042644E+04  0.50400001928E-02 0. -1.
        1   -1    0    0  501    0  0.00000000000E+00  0.00000000000E+00 -0.10198669758E+04  0.10198669758E+04  0.50400001928E-02 0.  1.
    10030    2    1    2    0    0  0.00000000000E+00  0.00000000000E+00  0.18113728855E+03  0.22208712402E+04  0.22134720121E+04 0.  0.
        5    1    3    3  502    0  0.31388861579E+03 -0.78994423892E+03  0.80167227166E+03  0.11684342022E+04  0.46999998093E+01 0. -1.
       -5    1    3    3    0  502 -0.31388861579E+03  0.78994423892E+03 -0.62053498311E+03  0.10524370380E+04  0.46999998093E+01 0.  1.
</event>
<event>
 5   0  0.5895063E-05  0.2197842E+04  0.7818609E-02  0.8519327E-01
       -1   -1    0    0    0  501  0.00000000000E+00  0.00000000000E+00  0.70542938764E+03  0.70542938766E+03  0.50400001928E-02 0.  1.
        1   -1    0    0  501    0  0.00000000000E+00  0.00000000000E+00 -0.17119045568E+04  0.17119045568E+04  0.50400001928E-02 0. -1.
    10030    2    1    2    0    0  0.00000000000E+00  0.00000000000E+00 -0.10064751692E+04  0.24173339445E+04  0.21978423813E+04 0.  0.
        5    1    3    3  502    0  0.69933965396E+03  0.21051592642E+03  0.39986814819E+03  0.83265210791E+03  0.46999998093E+01 0.  1.
       -5    1    3    3    0  502 -0.69933965396E+03 -0.21051592642E+03 -0.14063433174E+04  0.15846818366E+04  0.46999998093E+01 0. -1.
</event>
<event>
 5   0  0.1404159E-04  0.2204097E+04  0.7818609E-02  0.8516725E-01
        2   -1    0    0  501    0  0.00000000000E+00  0.00000000000E+00  0.91025849594E+03  0.91025849594E+03  0.25500000920E-02 0. -1.
       -2   -1    0    0    0  501  0.00000000000E+00  0.00000000000E+00 -0.13342481453E+04  0.13342481453E+04  0.25500000920E-02 0.  1.
    10030    2    1    2    0    0  0.00000000000E+00  0.00000000000E+00 -0.42398964937E+03  0.22445066413E+04  0.22040968309E+04 0.  0.
        5    1    3    3  502    0 -0.85755833260E+02  0.69647121554E+03  0.65332686733E+03  0.95879314901E+03  0.46999998093E+01 0. -1.
       -5    1    3    3    0  502  0.85755833260E+02 -0.69647121554E+03 -0.10773165167E+04  0.12857134923E+04  0.46999998093E+01 0.  1.
</event>
<event>
 5   0  0.5981239E-05  0.2212539E+04  0.7818609E-02  0.8513227E-01
       -1   -1    0    0    0  501  0.00000000000E+00  0.00000000000E+00  0.77206964461E+03  0.77206964462E+03  0.50400001928E-02 0.  1.
        1   -1    0    0  501    0  0.00000000000E+00  0.00000000000E+00 -0.15851313769E+04  0.15851313769E+04  0.50400001928E-02 0. -1.
    10030    2    1    2    0    0  0.00000000000E+00  0.00000000000E+00 -0.81306173232E+03  0.23572010216E+04  0.22125386495E+04 0.  0.
        4    1    3    3  502    0  0.66103460774E+03 -0.66503497021E+03 -0.10319314947E+04  0.13943179289E+04  0.12699999809E+01 0. -1.
       -4    1    3    3    0  502 -0.66103460774E+03  0.66503497021E+03  0.21886976242E+03  0.96288309261E+03  0.12699999809E+01 0.  1.
</event>
<event>
 5   0  0.1241430E-04  0.2200445E+04  0.7818609E-02  0.8518243E-01
        2   -1    0    0  501    0  0.00000000000E+00  0.00000000000E+00  0.68637421234E+03  0.68637421235E+03  0.25500000920E-02 0.  1.
       -2   -1    0    0    0  501  0.00000000000E+00  0.00000000000E+00 -0.17635993791E+04  0.17635993791E+04  0.25500000920E-02 0. -1.
    10030    2    1    2    0    0  0.00000000000E+00  0.00000000000E+00 -0.10772251668E+04  0.24499735915E+04  0.22004446230E+04 0.  0.
        1    1    3    3  502    0 -0.21831339015E+03  0.65284051362E+03  0.41698484300E+03  0.80482161493E+03  0.50400001928E-02 0.  1.
       -1    1    3    3    0  502  0.21831339015E+03 -0.65284051362E+03 -0.14942100098E+04  0.16451519766E+04  0.50400001928E-02 0. -1.
</event>
<event>
 5   0  0.5895063E-05  0.2192810E+04  0.7818609E-02  0.8521427E-01
       -1   -1    0    0    0  501  0.00000000000E+00  0.00000000000E+00  0.97455619059E+03  0.97455619060E+03  0.50400001928E-02 0. -1.
        1   -1    0    0  501    0  0.00000000000E+00  0.00000000000E+00 -0.12334889162E+04  0.12334889162E+04  0.50400001928E-02 0.  1.
    10030    2    1    2    0    0  0.00000000000E+00  0.00000000000E+00 -0.25893272559E+03  0.22080451068E+04  0.21928103058E+04 0.  0.
        5    1    3    3  502    0 -0.76019998966E+03 -0.71581167473E+03 -0.46614211189E+03  0.11435037982E+04  0.46999998093E+01 0.  1.
       -5    1    3    3    0  502  0.76019998966E+03  0.71581167473E+03  0.20720938631E+03  0.10645413086E+04  0.46999998093E+01 0. -1.
</event>
<event>
 5   0  0.5861816E-05  0.1985772E+04  0.7818609E-02  0.8613302E-01
       -1   -1    0    0    0  501  0.00000000000E+00  0.00000000000E+00  0.91147716147E+03  0.91147716148E+03  0.50400001928E-02 0.  1.
        1   -1    0    0  501    0  0.00000000000E+00  0.00000000000E+00 -0.10815655678E+04  0.10815655678E+04  0.50400001928E-02 0. -1.
    10030    2    1    2    0    0  0.00000000000E+00  0.00000000000E+00 -0.17008840630E+03  0.19930427293E+04  0.19857717026E+04 0.  0.
        1    1    3    3  502    0 -0.33123686201E+03 -0.73623817103E+03 -0.66513784738E+03  0.10460271790E+04  0.50400001928E-02 0. -1.
       -1    1    3    3    0  502  0.33123686201E+03  0.73623817103E+03  0.49504944107E+03  0.94701555023E+03  0.50400001928E-02 0.  1.
</event>
<event>
 5   0  0.5861816E-05  0.2206593E+04  0.7818609E-02  0.8515689E-01
        1   -1    0    0  501    0  0.00000000000E+00  0.00000000000E+00  0.82260512955E+03  0.82260512956E+03  0.50400001928E-02 0. -1.
       -1   -1    0    0    0  501  0.00000000000E+00  0.00000000000E+00 -0.14797657424E+04  0.14797657424E+04  0.50400001928E-02 0.  1.
    10030    2    1    2    0    0  0.00000000000E+00  0.00000000000E+00 -0.65716061289E+03  0.23023708720E+04  0.22065927493E+04 0.  0.
        1    1    3    3  502    0  0.26574101210E+03  0.64291016034E+03 -0.12220858142E+04  0.14062167319E+04  0.50400001928E-02 0.  1.
       -1    1    3    3    0  502 -0.26574101210E+03 -0.64291016034E+03  0.56492520129E+03  0.89615414012E+03  0.50400001928E-02 0. -1.
</event>
<event>
 5   0  0.5981239E-05  0.2262421E+04  0.7818609E-02  0.8492887E-01
        1   -1    0    0  501    0  0.00000000000E+00  0.00000000000E+00  0.24057671448E+04  0.24057671448E+04  0.50400001928E-02 0. -1.
       -1   -1    0    0    0  501  0.00000000000E+00  0.00000000000E+00 -0.53190390865E+03  0.53190390867E+03  0.50400001928E-02 0.  1.
    10030    2    1    2    0    0  0.00000000000E+00  0.00000000000E+00  0.18738632361E+04  0.29376710534E+04  0.22624207811E+04 0.  0.
        4    1    3    3  502    0  0.66287474848E+03  0.32994044564E+03  0.20473812382E+04  0.21771621845E+04  0.12699999809E+01 0. -1.
       -4    1    3    3    0  502 -0.66287474848E+03 -0.32994044564E+03 -0.17351800212E+03  0.76050886898E+03  0.12699999809E+01 0.  1.
</event>
<event>
 5   0  0.1311472E-04  0.2273283E+04  0.7818609E-02  0.8488530E-01
       -2   -1    0    0    0  501  0.00000000000E+00  0.00000000000E+00  0.14233413108E+04  0.14233413108E+04  0.25500000920E-02 0. -1.
        2   -1    0    0  501    0  0.00000000000E+00  0.00000000000E+00 -0.90769083503E+03  0.90769083504E+03  0.25500000920E-02 0.  1.
    10030    2    1    2    0    0  0.00000000000E+00  0.00000000000E+00  0.51565047578E+03  0.23310321459E+04  0.22732829678E+04 0.  0.
        4    1    3    3  502    0  0.64572615842E+03  0.10059670762E+03 -0.69578356516E+03  0.95456710173E+03  0.12699999809E+01 0.  1.
       -4    1    3    3    0  502 -0.64572615842E+03 -0.10059670762E+03  0.12114340409E+04  0.13764650441E+04  0.12699999809E+01 0. -1.
</event>
<event>
 5   0  0.1241430E-04  0.2261240E+04  0.7818609E-02  0.8493362E-01
        2   -1    0    0  501    0  0.00000000000E+00  0.00000000000E+00  0.13917224139E+04  0.13917224139E+04  0.25500000920E-02 0. -1.
       -2   -1    0    0    0  501  0.00000000000E+00  0.00000000000E+00 -0.91850311318E+03  0.91850311318E+03  0.25500000920E-02 0.  1.
    10030    2    1    2    0    0  0.00000000000E+00  0.00000000000E+00  0.47321930075E+03  0.23102255271E+04  0.22612398103E+04 0.  0.
        1    1    3    3  502    0  0.64636568069E+03 -0.43175301551E+02 -0.71009717080E+03  0.96119232823E+03  0.50400001928E-02 0.  1.
       -1    1    3    3    0  502 -0.64636568069E+03  0.43175301551E+02  0.11833164716E+04  0.13490331989E+04  0.50400001928E-02 0. -1.
</event>
<event>
 5   0  0.5981239E-05  0.2240567E+04  0.7818609E-02  0.8501731E-01
        1   -1    0    0  501    0  0.00000000000E+00  0.00000000000E+00  0.19991144497E+04  0.19991144497E+04  0.50400001928E-02 0.  1.
       -1   -1    0    0    0  501  0.00000000000E+00  0.00000000000E+00 -0.62779537724E+03  0.62779537726E+03  0.50400001928E-02 0. -1.
    10030    2    1    2    0    0  0.00000000000E+00  0.00000000000E+00  0.13713190724E+04  0.26269098269E+04  0.22405667231E+04 0.  0.
        4    1    3    3  502    0 -0.76966486796E+03  0.19046645765E+03 -0.24224511844E+03  0.82906320071E+03  0.12699999809E+01 0. -1.
       -4    1    3    3    0  502  0.76966486796E+03 -0.19046645765E+03  0.16135641909E+04  0.17978466262E+04  0.12699999809E+01 0.  1.
</event>
<event>
 5   0  0.1404159E-04  0.2087446E+04  0.7818609E-02  0.8566794E-01
       -2   -1    0    0    0  501  0.00000000000E+00  0.00000000000E+00  0.85514536017E+03  0.85514536018E+03  0.25500000920E-02 0.  1.
        2   -1    0    0  501    0  0.00000000000E+00  0.00000000000E+00 -0.12738857971E+04  0.12738857971E+04  0.25500000920E-02 0. -1.
    10030    2    1    2    0    0  0.00000000000E+00  0.00000000000E+00 -0.41874043696E+03  0.21290311573E+04  0.20874458353E+04 0.  0.
        5    1    3    3  502    0  0.75456313528E+03  0.13333075787E+03  0.51340300120E+03  0.92235966291E+03  0.46999998093E+01 0.  1.
       -5    1    3    3    0  502 -0.75456313528E+03 -0.13333075787E+03 -0.93214343816E+03  0.12066714944E+04  0.46999998093E+01 0. -1.
</event>
<event>
 5   0  0.1252124E-04  0.2202914E+04  0.7818609E-02  0.8517216E-01
        2   -1    0    0  501    0  0.00000000000E+00  0.00000000000E+00  0.15203353811E+04  0.15203353811E+04  0.25500000920E-02 0.  1.
       -2   -1    0    0    0  501  0.00000000000E+00  0.00000000000E+00 -0.79798707451E+03  0.79798707452E+03  0.25500000920E-02 0. -1.
    10030    2    1    2    0    0  0.00000000000E+00  0.00000000000E+00  0.72234830661E+03  0.23183224556E+04  0.22029144178E+04 0.  0.
        3    1    3    3  502    0  0.26820260999E+03 -0.98576077316E+03 -0.72163506848E+02  0.10241408711E+04  0.10100000352E+00 0. -1.
       -3    1    3    3    0  502 -0.26820260999E+03  0.98576077316E+03  0.79451181346E+03  0.12941815846E+04  0.10100000352E+00 0.  1.
</event>
<event>
 5   0  0.1226021E-04  0.2214120E+04  0.7818609E-02  0.8512574E-01
        2   -1    0    0  501    0  0.00000000000E+00  0.00000000000E+00  0.27558925198E+04  0.27558925198E+04  0.25500000920E-02 0.  1.
       -2   -1    0    0    0  501  0.00000000000E+00  0.00000000000E+00 -0.44471335896E+03  0.44471335897E+03  0.25500000920E-02 0. -1.
    10030    2    1    2    0    0  0.00000000000E+00  0.00000000000E+00  0.23111791608E+04  0.32006058787E+04  0.22141203395E+04 0.  0.
        2    1    3    3  502    0  0.86968737611E+03 -0.30314149346E+03  0.20435475425E+04  0.22415033919E+04  0.25500000920E-02 0.  1.
       -2    1    3    3    0  502 -0.86968737611E+03  0.30314149346E+03  0.26763161830E+03  0.95910248688E+03  0.25500000920E-02 0. -1.
</event>
<event>
 5   0  0.1226021E-04  0.2207155E+04  0.7818609E-02  0.8515456E-01
       -2   -1    0    0    0  501  0.00000000000E+00  0.00000000000E+00  0.89890656598E+03  0.89890656599E+03  0.25500000920E-02 0.  1.
        2   -1    0    0  501    0  0.00000000000E+00  0.00000000000E+00 -0.13548493214E+04  0.13548493214E+04  0.25500000920E-02 0. -1.
    10030    2    1    2    0    0  0.00000000000E+00  0.00000000000E+00 -0.45594275545E+03  0.22537558874E+04  0.22071546851E+04 0.  0.
        2    1    3    3  502    0 -0.56616072347E+03 -0.48944200971E+03  0.60019621785E+03  0.95933672170E+03  0.25500000920E-02 0.  1.
       -2    1    3    3    0  502  0.56616072347E+03  0.48944200971E+03 -0.10561389733E+04  0.12944191657E+04  0.25500000920E-02 0. -1.
</event>
<event>
 5   0  0.1226021E-04  0.2189712E+04  0.7818609E-02  0.8522722E-01
       -2   -1    0    0    0  501  0.00000000000E+00  0.00000000000E+00  0.69078092757E+03  0.69078092758E+03  0.25500000920E-02 0. -1.
        2   -1    0    0  501    0  0.00000000000E+00  0.00000000000E+00 -0.17352968889E+04  0.17352968889E+04  0.25500000920E-02 0.  1.
    10030    2    1    2    0    0  0.00000000000E+00  0.00000000000E+00 -0.10445159613E+04  0.24260778165E+04  0.21897123049E+04 0.  0.
        2    1    3    3  502    0 -0.35675742202E+03 -0.91720946123E+03 -0.10537949548E+04  0.14418851760E+04  0.25500000920E-02 0.  1.
       -2    1    3    3    0  502  0.35675742202E+03  0.91720946123E+03  0.92789934402E+01  0.98419264053E+03  0.25500000920E-02 0. -1.
</event>
<event>
 5   0  0.1226021E-04  0.1612879E+04  0.7818609E-02  0.8812675E-01
       -2   -1    0    0    0  501  0.00000000000E+00  0.00000000000E+00  0.84622819319E+03  0.84622819319E+03  0.25500000920E-02 0. -1.
        2   -1    0    0  501    0  0.00000000000E+00  0.00000000000E+00 -0.76852187540E+03  0.76852187540E+03  0.25500000920E-02 0.  1.
    10030    2    1    2    0    0  0.00000000000E+00  0.00000000000E+00  0.77706317785E+02  0.16147500686E+04  0.16128792615E+04 0.  0.
        2    1    3    3  502    0 -0.90179353602E+02  0.79702250653E+03  0.12242264838E+03  0.81139663333E+03  0.25500000920E-02 0.  1.
       -2    1    3    3    0  502  0.90179353602E+02 -0.79702250653E+03 -0.44716330597E+02  0.80335343527E+03  0.25500000920E-02 0. -1.
</event>
<event>
 5   0  0.1252124E-04  0.2069825E+04  0.7818609E-02  0.8574654E-01
       -2   -1    0    0    0  501  0.00000000000E+00  0.00000000000E+00  0.65652160891E+03  0.65652160891E+03  0.25500000920E-02 0. -1.
        2   -1    0    0  501    0  0.00000000000E+00  0.00000000000E+00 -0.16313912077E+04  0.16313912077E+04  0.25500000920E-02 0.  1.
    10030    2    1    2    0    0  0.00000000000E+00  0.00000000000E+00 -0.97486959882E+03  0.22879128166E+04  0.20698247080E+04 0.  0.
        3    1    3    3  502    0 -0.85828469447E+03 -0.52995755368E+03 -0.23167714516E+03  0.10349791956E+04  0.10100000352E+00 0. -1.
       -3    1    3    3    0  502  0.85828469447E+03  0.52995755368E+03 -0.74319245365E+03  0.12529336211E+04  0.10100000352E+00 0.  1.
</event>
<event>
 5   0  0.1311472E-04  0.1571842E+04  0.7818609E-02  0.8838035E-01
       -2   -1    0    0    0  501  0.00000000000E+00  0.00000000000E+00  0.12019299166E+04  0.12019299166E+04  0.25500000920E-02 0. -1.
        2   -1    0    0  501    0  0.00000000000E+00  0.00000000000E+00 -0.51390030991E+03  0.51390030991E+03  0.25500000920E-02 0.  1.
    10030    2    1    2    0    0  0.00000000000E+00  0.00000000000E+00  0.68802960672E+03  0.17158302265E+04  0.15718424306E+04 0.  0.
        4    1    3    3  502    0  0.38263054305E+03  0.16181085791E+03 -0.38424301296E+03  0.56589150207E+03  0.12699999809E+01 0.  1.
       -4    1    3    3    0  502 -0.38263054305E+03 -0.16181085791E+03  0.10722726197E+04  0.11499387245E+04  0.12699999809E+01 0. -1.
</event>
<event>
 5   0  0.1241430E-04  0.2202426E+04  0.7818609E-02  0.8517419E-01
       -2   -1    0    0    0  501  0.00000000000E+00  0.00000000000E+00  0.97864451186E+03  0.97864451186E+03  0.25500000920E-02 0. -1.
        2   -1    0    0  501    0  0.00000000000E+00  0.00000000000E+00 -0.12391324400E+04  0.12391324400E+04  0.25500000920E-02 0.  1.
    10030    2    1    2    0    0  0.00000000000E+00  0.00000000000E+00 -0.26048792817E+03  0.22177769519E+04  0.22024260822E+04 0.  0.
        1    1    3    3  502    0  0.13836079731E+02 -0.14415332452E+03  0.96901427290E+03  0.97977562696E+03  0.50400001928E-02 0. -1.
       -1    1    3    3    0  502 -0.13836079731E+02  0.14415332452E+03 -0.12295022011E+04  0.12380013249E+04  0.50400001928E-02 0.  1.
</event>
<event>
 5   0  0.5861816E-05  0.1944173E+04  0.7818609E-02  0.8633176E-01
        1   -1    0    0  501    0  0.00000000000E+00  0.00000000000E+00  0.76084966598E+03  0.76084966599E+03  0.50400001928E-02 0.  1.
       -1   -1    0    0    0  501  0.00000000000E+00  0.00000000000E+00 -0.12419695071E+04  0.12419695071E+04  0.50400001928E-02 0. -1.
    10030    2    1    2    0    0  0.00000000000E+00  0.00000000000E+00 -0.48111984116E+03  0.20028191731E+04  0.19441729189E+04 0.  0.
        1    1    3    3  502    0 -0.49940466018E+03 -0.29598811489E+03  0.56266381564E+03  0.80845813016E+03  0.50400001928E-02 0.  1.
       -1    1    3    3    0  502  0.49940466018E+03  0.29598811489E+03 -0.10437836568E+04  0.11943610430E+04  0.50400001928E-02 0. -1.
</event>
<event>
 5   0  0.6263558E-05  0.2273055E+04  0.7818609E-02  0.8488622E-01
       -1   -1    0    0    0  501  0.00000000000E+00  0.00000000000E+00  0.51347450756E+03  0.51347450759E+03  0.50400001928E-02 0. -1.
        1   -1    0    0  501    0  0.00000000000E+00  0.00000000000E+00 -0.25155967902E+04  0.25155967902E+04  0.50400001928E-02 0.  1.
    10030    2    1    2    0    0  0.00000000000E+00  0.00000000000E+00 -0.20021222827E+04  0.30290712978E+04  0.22730550571E+04 0.  0.
        3    1    3    3  502    0  0.93794481252E+03 -0.31260599475E+03 -0.25405421188E+03  0.10207872119E+04  0.10100000352E+00 0. -1.
       -3    1    3    3    0  502 -0.93794481252E+03  0.31260599475E+03 -0.17480680708E+04  0.20082840859E+04  0.10100000352E+00 0.  1.
</event>
<event>
 5   0  0.5861816E-05  0.2143515E+04  0.7818609E-02  0.8542313E-01
        1   -1    0    0  501    0  0.00000000000E+00  0.00000000000E+00  0.80324541351E+03  0.80324541352E+03  0.50400001928E-02 0. -1.
       -1   -1    0    0    0  501  0.00000000000E+00  0.00000000000E+00 -0.14300282432E+04  0.14300282432E+04  0.50400001928E-02 0.  1.
    10030    2    1    2    0    0  0.00000000000E+00  0.00000000000E+00 -0.62678282965E+03  0.22332736567E+04  0.21435145230E+04 0.  0.
        1    1    3    3  502    0  0.49127753989E+03 -0.30776959322E+03  0.62579258232E+03  0.85304870894E+03  0.50400001928E-02 0. -1.
       -1    1    3    3    0  502 -0.49127753989E+03  0.30776959322E+03 -0.12525754120E+04  0.13802249478E+04  0.50400001928E-02 0.  1.
</event>
<event>
 5   0  0.1311472E-04  0.2237815E+04  0.7818609E-02  0.8502852E-01
       -2   -1    0    0    0  501  0.00000000000E+00  0.00000000000E+00  0.39683260626E+03  0.39683260627E+03  0.25500000920E-02 0. -1.
        2   -1    0    0  501    0  0.00000000000E+00  0.00000000000E+00 -0.31548660237E+04  0.31548660237E+04  0.25500000920E-02 0.  1.
    10030    2    1    2    0    0  0.00000000000E+00  0.00000000000E+00 -0.27580334175E+04  0.35516986300E+04  0.22378147436E+04 0.  0.
        4    1    3    3  502    0 -0.44262774262E+02  0.43481632842E+03  0.25574653085E+03  0.50639148254E+03  0.12699999809E+01 0. -1.
       -4    1    3    3    0  502  0.44262774262E+02 -0.43481632842E+03 -0.30137799483E+04  0.30453071475E+04  0.12699999809E+01 0.  1.
</event>
<event>
 5   0  0.1226021E-04  0.2203593E+04  0.7818609E-02  0.8516934E-01
        2   -1    0    0  501    0  0.00000000000E+00  0.00000000000E+00  0.27328246540E+04  0.27328246540E+04  0.25500000920E-02 0. -1.
       -2   -1    0    0    0  501  0.00000000000E+00  0.00000000000E+00 -0.44421256491E+03  0.44421256492E+03  0.25500000920E-02 0.  1.
    10030    2    1    2    0    0  0.00000000000E+00  0.00000000000E+00  0.22886120891E+04  0.31770372189E+04  0.22035925658E+04 0.  0.
        2    1    3    3  502    0  0.12333244092E+03  0.85525802759E+03  0.15875616725E+03  0.87856741652E+03  0.25500000920E-02 0.  1.
       -2    1    3    3    0  502 -0.12333244092E+03 -0.85525802759E+03  0.21298559218E+04  0.22984698024E+04  0.25500000920E-02 0. -1.
</event>
<event>
 5   0  0.1226021E-04  0.1934791E+04  0.7818609E-02  0.8637730E-01
        2   -1    0    0  501    0  0.00000000000E+00  0.00000000000E+00  0.14571707013E+04  0.14571707013E+04  0.25500000920E-02 0. -1.
       -2   -1    0    0    0  501  0.00000000000E+00  0.00000000000E+00 -0.64224081150E+03  0.64224081150E+03  0.25500000920E-02 0.  1.
    10030    2    1    2    0    0  0.00000000000E+00  0.00000000000E+00  0.81492988975E+03  0.20994115128E+04  0.19347914551E+04 0.  0.
        2    1    3    3  502    0 -0.80773897778E+03  0.53006097944E+03  0.35378238239E+03  0.10288677623E+04  0.25500000920E-02 0.  1.
       -2    1    3    3    0  502  0.80773897778E+03 -0.53006097944E+03  0.46114750736E+03  0.10705437505E+04  0.25500000920E-02 0. -1.
</event>
<event>
 5   0  0.1241430E-04  0.1656682E+04  0.7818609E-02  0.8786463E-01
        2   -1    0    0  501    0  0.00000000000E+00  0.00000000000E+00  0.20264921951E+04  0.20264921951E+04  0.25500000920E-02 0.  1.
       -2   -1    0    0    0  501  0.00000000000E+00  0.00000000000E+00 -0.33858940875E+03  0.33858940876E+03  0.25500000920E-02 0. -1.
    10030    2    1    2    0    0  0.00000000000E+00  0.00000000000E+00  0.16879027864E+04  0.23650816039E+04  0.16566819782E+04 0.  0.
        1    1    3    3  502    0  0.26327560490E+03 -0.63208336730E+02  0.19615358201E+04  0.19801343671E+04  0.50400001928E-02 0.  1.
       -1    1    3    3    0  502 -0.26327560490E+03  0.63208336730E+02 -0.27363303374E+03  0.38494723683E+03  0.50400001928E-02 0. -1.
</event>
<event>
 5   0  0.1404159E-04  0.2226241E+04  0.7818609E-02  0.8507585E-01
        2   -1    0    0  501    0  0.00000000000E+00  0.00000000000E+00  0.16938043733E+04  0.16938043733E+04  0.25500000920E-02 0. -1.
       -2   -1    0    0    0  501  0.00000000000E+00  0.00000000000E+00 -0.73151139418E+03  0.73151139418E+03  0.25500000920E-02 0.  1.
    10030    2    1    2    0    0  0.00000000000E+00  0.00000000000E+00  0.96229297910E+03  0.24253157675E+04  0.22262409560E+04 0.  0.
        5    1    3    3  502    0 -0.17879686774E+03 -0.71857213885E+03 -0.42425483088E+03  0.85342163681E+03  0.46999998093E+01 0.  1.
       -5    1    3    3    0  502  0.17879686774E+03  0.71857213885E+03  0.13865478100E+04  0.15718941307E+04  0.46999998093E+01 0. -1.
</event>
<event>
 5   0  0.5849604E-05  0.2162982E+04  0.7818609E-02  0.8533996E-01
        1   -1    0    0  501    0  0.00000000000E+00  0.00000000000E+00  0.11266563604E+04  0.11266563604E+04  0.50400001928E-02 0.  1.
       -1   -1    0    0    0  501  0.00000000000E+00  0.00000000000E+00 -0.10381366441E+04  0.10381366442E+04  0.50400001928E-02 0. -1.
    10030    2    1    2    0    0  0.00000000000E+00  0.00000000000E+00  0.88519716245E+02  0.21647930046E+04  0.21629824346E+04 0.  0.
        2    1    3    3  502    0 -0.30623028706E+03 -0.44341468013E+03  0.98271723985E+03  0.11207706013E+04  0.25500000920E-02 0.  1.
       -2    1    3    3    0  502  0.30623028706E+03  0.44341468013E+03 -0.89419752360E+03  0.10440224033E+04  0.25500000920E-02 0. -1.
</event>
<event>
 5   0  0.6263558E-05  0.2232802E+04  0.7818609E-02  0.8504898E-01
       -1   -1    0    0    0  501  0.00000000000E+00  0.00000000000E+00  0.15134399849E+04  0.15134399849E+04  0.50400001928E-02 0.  1.
        1   -1    0    0  501    0  0.00000000000E+00  0.00000000000E+00 -0.82352223047E+03  0.82352223049E+03  0.50400001928E-02 0. -1.
    10030    2    1    2    0    0  0.00000000000E+00  0.00000000000E+00  0.68991775444E+03  0.23369622154E+04  0.22328022502E+04 0.  0.
        3    1    3    3  502    0  0.34346282051E+03 -0.44041726145E+03  0.13567057841E+04  0.14671689296E+04  0.10100000352E+00 0.  1.
       -3    1    3    3    0  502 -0.34346282051E+03  0.44041726145E+03 -0.66678802967E+03  0.86979328577E+03  0.10100000352E+00 0. -1.
</event>
<event>
 5   0  0.5861816E-05  0.2188460E+04  0.7818609E-02  0.8523247E-01
        1   -1    0    0  501    0  0.00000000000E+00  0.00000000000E+00  0.17891182120E+04  0.17891182120E+04  0.50400001928E-02 0. -1.
       -1   -1    0    0    0  501  0.00000000000E+00  0.00000000000E+00 -0.66923427291E+03  0.66923427293E+03  0.50400001928E-02 0.  1.
    10030    2    1    2    0    0  0.00000000000E+00  0.00000000000E+00  0.11198839391E+04  0.24583524850E+04  0.21884599387E+04 0.  0.
        1    1    3    3  502    0  0.33985232870E+03  0.88049577991E+03  0.11819100743E+04  0.15125091231E+04  0.50400001928E-02 0. -1.
       -1    1    3    3    0  502 -0.33985232870E+03 -0.88049577991E+03 -0.62026135130E+02  0.94584336189E+03  0.50400001928E-02 0.  1.
</event>
<event>
 5   0  0.5849604E-05  0.2160237E+04  0.7818609E-02  0.8535163E-01
       -1   -1    0    0    0  501  0.00000000000E+00  0.00000000000E+00  0.12026248771E+04  0.12026248771E+04  0.50400001928E-02 0.  1.
        1   -1    0    0  501    0  0.00000000000E+00  0.00000000000E+00 -0.97009138744E+03  0.97009138745E+03  0.50400001928E-02 0. -1.
    10030    2    1    2    0    0  0.00000000000E+00  0.00000000000E+00  0.23253348965E+03  0.21727162646E+04  0.21602370570E+04 0.  0.
        2    1    3    3  502    0 -0.54232636401E+03  0.38130742998E+03  0.97391943872E+03  0.11781478321E+04  0.25500000920E-02 0.  1.
       -2    1    3    3    0  502  0.54232636401E+03 -0.38130742998E+03 -0.74138594907E+03  0.99456843241E+03  0.25500000920E-02 0. -1.
</event>
<event>
 5   0  0.1252124E-04  0.2184422E+04  0.7818609E-02  0.8524940E-01
       -2   -1    0    0    0  501  0.00000000000E+00  0.00000000000E+00  0.82348784649E+03  0.82348784649E+03  0.25500000920E-02 0.  1.
        2   -1    0    0  501    0  0.00000000000E+00  0.00000000000E+00 -0.14486242393E+04  0.14486242393E+04  0.25500000920E-02 0. -1.
    10030    2    1    2    0    0  0.00000000000E+00  0.00000000000E+00 -0.62513639280E+03  0.22721120858E+04  0.21844216216E+04 0.  0.
        3    1    3    3  502    0 -0.55375438889E+03  0.39895570237E+03 -0.11995093333E+04  0.13800841375E+04  0.10100000352E+00 0. -1.
       -3    1    3    3    0  502  0.55375438889E+03 -0.39895570237E+03  0.57437294046E+03  0.89202794833E+03  0.10100000352E+00 0.  1.
</event>
<event>
 5   0  0.5849604E-05  0.2254141E+04  0.7818609E-02  0.8496225E-01
       -1   -1    0    0    0  501  0.00000000000E+00  0.00000000000E+00  0.10031546463E+04  0.10031546463E+04  0.50400001928E-02 0. -1.
        1   -1    0    0  501    0  0.00000000000E+00  0.00000000000E+00 -0.12662928349E+04  0.12662928349E+04  0.50400001928E-02 0.  1.
    10030    2    1    2    0    0  0.00000000000E+00  0.00000000000E+00 -0.26313818868E+03  0.22694474812E+04  0.22541406708E+04 0.  0.
        2    1    3    3  502    0 -0.62519280222E+03  0.64626787449E+03  0.55257402603E+03  0.10553986260E+04  0.25500000920E-02 0. -1.
       -2    1    3    3    0  502  0.62519280222E+03 -0.64626787449E+03 -0.81571221471E+03  0.12140488552E+04  0.25500000920E-02 0.  1.
</event>
<event>
 5   0  0.1252124E-04  0.2174661E+04  0.7818609E-02  0.8529049E-01
       -2   -1    0    0    0  501  0.00000000000E+00  0.00000000000E+00  0.10964546887E+04  0.10964546887E+04  0.25500000920E-02 0.  1.
        2   -1    0    0  501    0  0.00000000000E+00  0.00000000000E+00 -0.10782827101E+04  0.10782827101E+04  0.25500000920E-02 0. -1.
    10030    2    1    2    0    0  0.00000000000E+00  0.00000000000E+00  0.18171978636E+02  0.21747373987E+04  0.21746614754E+04 0.  0.
        3    1    3    3  502    0 -0.49197121822E+03  0.92639635939E+02 -0.95617842869E+03  0.10793030063E+04  0.10100000352E+00 0. -1.
       -3    1    3    3    0  502  0.49197121822E+03 -0.92639635939E+02  0.97435040733E+03  0.10954343925E+04  0.10100000352E+00 0.  1.
</event>
<event>
 5   0  0.1311472E-04  0.2176467E+04  0.7818609E-02  0.8528287E-01
       -2   -1    0    0    0  501  0.00000000000E+00  0.00000000000E+00  0.95465467880E+03  0.95465467880E+03  0.25500000920E-02 0. -1.
        2   -1    0    0  501    0  0.00000000000E+00  0.00000000000E+00 -0.12405034099E+04  0.12405034099E+04  0.25500000920E-02 0.  1.
    10030    2    1    2    0    0  0.00000000000E+00  0.00000000000E+00 -0.28584873113E+03  0.21951580887E+04  0.21764672149E+04 0.  0.
        4    1    3    3  502    0 -0.10202368670E+04  0.36914837603E+03 -0.57957311672E+02  0.10865148187E+04  0.12699999809E+01 0. -1.
       -4    1    3    3    0  502  0.10202368670E+04 -0.36914837603E+03 -0.22789141946E+03  0.11086432701E+04  0.12699999809E+01 0.  1.
</event>
<event>
 5   0  0.5895063E-05  0.2216028E+04  0.7818609E-02  0.8511786E-01
       -1   -1    0    0    0  501  0.00000000000E+00  0.00000000000E+00  0.78070273754E+03  0.78070273756E+03  0.50400001928E-02 0. -1.
        1   -1    0    0  501    0  0.00000000000E+00  0.00000000000E+00 -0.15725508514E+04  0.15725508514E+04  0.50400001928E-02 0.  1.
    10030    2    1    2    0    0  0.00000000000E+00  0.00000000000E+00 -0.79184811384E+03  0.23532535889E+04  0.22160277567E+04 0.  0.
        5    1    3    3  502    0 -0.25647305467E+03 -0.84592366084E+03  0.31350761988E+03  0.93790958278E+03  0.46999998093E+01 0. -1.
       -5    1    3    3    0  502  0.25647305467E+03  0.84592366084E+03 -0.11053557337E+04  0.14153440062E+04  0.46999998093E+01 0.  1.
</event>
<event>
 5   0  0.6263558E-05  0.2240858E+04  0.7818609E-02  0.8501612E-01
       -1   -1    0    0    0  501  0.00000000000E+00  0.00000000000E+00  0.10377325619E+04  0.10377325620E+04  0.50400001928E-02 0. -1.
        1   -1    0    0  501    0  0.00000000000E+00  0.00000000000E+00 -0.12097156074E+04  0.12097156074E+04  0.50400001928E-02 0.  1.
    10030    2    1    2    0    0  0.00000000000E+00  0.00000000000E+00 -0.17198304549E+03  0.22474481694E+04  0.22408581183E+04 0.  0.
        3    1    3    3  502    0  0.12877240125E+03  0.66414935895E+03 -0.98174998405E+03  0.11922708349E+04  0.10100000352E+00 0.  1.
       -3    1    3    3    0  502 -0.12877240125E+03 -0.66414935895E+03  0.80976693856E+03  0.10551773345E+04  0.10100000352E+00 0. -1.
</event>
<event>
 5   0  0.5981239E-05  0.2219944E+04  0.7818609E-02  0.8510173E-01
        1   -1    0    0  501    0  0.00000000000E+00  0.00000000000E+00  0.10046923886E+04  0.10046923887E+04  0.50400001928E-02 0.  1.
       -1   -1    0    0    0  501  0.00000000000E+00  0.00000000000E+00 -0.12262831447E+04  0.12262831447E+04  0.50400001928E-02 0. -1.
    10030    2    1    2    0    0  0.00000000000E+00  0.00000000000E+00 -0.22159075601E+03  0.22309755333E+04  0.22199435504E+04 0.  0.
        4    1    3    3  502    0  0.10827584519E+04 -0.17654135793E+03  0.58871964887E+02  0.10986356254E+04  0.12699999809E+01 0. -1.
       -4    1    3    3    0  502 -0.10827584519E+04  0.17654135793E+03 -0.28046272090E+03  0.11323399079E+04  0.12699999809E+01 0.  1.
</event>
<event>
 5   0  0.5895063E-05  0.2259470E+04  0.7818609E-02  0.8494075E-01
        1   -1    0    0  501    0  0.00000000000E+00  0.00000000000E+00  0.19610979890E+04  0.19610979890E+04  0.50400001928E-02 0. -1.
       -1   -1    0    0    0  501  0.00000000000E+00  0.00000000000E+00 -0.65080975769E+03  0.65080975771E+03  0.50400001928E-02 0.  1.
    10030    2    1    2    0    0  0.00000000000E+00  0.00000000000E+00  0.13102882313E+04  0.26119077467E+04  0.22594704752E+04 0.  0.
        5    1    3    3  502    0  0.18327017465E+03 -0.49249466718E+03 -0.50091942589E+03  0.72600366070E+03  0.46999998093E+01 0.  1.
       -5    1    3    3    0  502 -0.18327017465E+03  0.49249466718E+03  0.18112076572E+04  0.18859040860E+04  0.46999998093E+01 0. -1.
</event>
<event>
 5   0  0.1226021E-04  0.2124821E+04  0.7818609E-02  0.8550387E-01
       -2   -1    0    0    0  501  0.00000000000E+00  0.00000000000E+00  0.11006776242E+04  0.11006776242E+04  0.25500000920E-02 0. -1.
        2   -1    0    0  501    0  0.00000000000E+00  0.00000000000E+00 -0.10254742597E+04  0.10254742597E+04  0.25500000920E-02 0.  1.
    10030    2    1    2    0    0  0.00000000000E+00  0.00000000000E+00  0.75203364491E+02  0.21261518839E+04  0.21248214719E+04 0.  0.
        2    1    3    3  502    0  0.20927090683E+03  0.55988162632E+03  0.91647663728E+03  0.10941623164E+04  0.25500000920E-02 0. -1.
       -2    1    3    3    0  502 -0.20927090683E+03 -0.55988162632E+03 -0.84127327279E+03  0.10319895675E+04  0.25500000920E-02 0.  1.
</event>
<event>
 5   0  0.5849604E-05  0.1389527E+04  0.7818609E-02  0.8961435E-01
       -1   -1    0    0    0  501  0.00000000000E+00  0.00000000000E+00  0.62011504141E+03  0.62011504143E+03  0.50400001928E-02 0.  1.
        1   -1    0    0  501    0  0.00000000000E+00  0.00000000000E+00 -0.77839797458E+03  0.77839797460E+03  0.50400001928E-02 0. -1.
    10030    2    1    2    0    0  0.00000000000E+00  0.00000000000E+00 -0.15828293318E+03  0.13985130160E+04  0.13895269587E+04 0.  0.
        2    1    3    3  502    0 -0.51006013323E+03 -0.16696698717E+03 -0.52319417566E+03  0.74951414915E+03  0.25500000920E-02 0. -1.
       -2    1    3    3    0  502  0.51006013323E+03  0.16696698717E+03  0.36491124249E+03  0.64899886688E+03  0.25500000920E-02 0.  1.
</event>
<event>
 5   0  0.1252124E-04  0.2099829E+04  0.7818609E-02  0.8561319E-01
       -2   -1    0    0    0  501  0.00000000000E+00  0.00000000000E+00  0.60870298404E+03  0.60870298405E+03  0.25500000920E-02 0.  1.
        2   -1    0    0  501    0  0.00000000000E+00  0.00000000000E+00 -0.18109325713E+04  0.18109325713E+04  0.25500000920E-02 0. -1.
    10030    2    1    2    0    0  0.00000000000E+00  0.00000000000E+00 -0.12022295873E+04  0.24196355554E+04  0.20998286217E+04 0.  0.
        3    1    3    3  502    0 -0.40469869978E+03 -0.96872203001E+03 -0.58866989319E+03  0.12036343558E+04  0.10100000352E+00 0.  1.
       -3    1    3    3    0  502  0.40469869978E+03  0.96872203001E+03 -0.61355969409E+03  0.12160011996E+04  0.10100000352E+00 0. -1.
</event>
<event>
 5   0  0.5861816E-05  0.1985416E+04  0.7818609E-02  0.8613470E-01
       -1   -1    0    0    0  501  0.00000000000E+00  0.00000000000E+00  0.97911684942E+03  0.97911684943E+03  0.50400001928E-02 0. -1.
        1   -1    0    0  501    0  0.00000000000E+00  0.00000000000E+00 -0.10064874022E+04  0.10064874022E+04  0.50400001928E-02 0.  1.
    10030    2    1    2    0    0  0.00000000000E+00  0.00000000000E+00 -0.27370552769E+02  0.19856042516E+04  0.19854155980E+04 0.  0.
        1    1    3    3  502    0  0.49581454458E+02  0.23312082688E+03 -0.97744957589E+03  0.10060871304E+04  0.50400001928E-02 0.  1.
       -1    1    3    3    0  502 -0.49581454458E+02 -0.23312082688E+03  0.95007902312E+03  0.97951712121E+03  0.50400001928E-02 0. -1.
</event>
<event>
 5   0  0.1252124E-04  0.2195301E+04  0.7818609E-02  0.8520387E-01
       -2   -1    0    0    0  501  0.00000000000E+00  0.00000000000E+00  0.70943885759E+03  0.70943885760E+03  0.25500000920E-02 0.  1.
        2   -1    0    0  501    0  0.00000000000E+00  0.00000000000E+00 -0.16982945824E+04  0.16982945824E+04  0.25500000920E-02 0. -1.
    10030    2    1    2    0    0  0.00000000000E+00  0.00000000000E+00 -0.98885572476E+03  0.24077334400E+04  0.21953005884E+04 0.  0.
        3    1    3    3  502    0  0.29119963977E+03  0.58858524789E+03 -0.14590881921E+04  0.16000525575E+04  0.10100000352E+00 0. -1.
       -3    1    3    3    0  502 -0.29119963977E+03 -0.58858524789E+03  0.47023246738E+03  0.80768088241E+03  0.10100000352E+00 0.  1.
</event>
<event>
 5   0  0.1404159E-04  0.2205487E+04  0.7818609E-02  0.8516148E-01
        2   -1    0    0  501    0  0.00000000000E+00  0.00000000000E+00  0.88256084319E+03  0.88256084320E+03  0.25500000920E-02 0. -1.
       -2   -1    0    0    0  501  0.00000000000E+00  0.00000000000E+00 -0.13778580820E+04  0.13778580820E+04  0.25500000920E-02 0.  1.
    10030    2    1    2    0    0  0.00000000000E+00  0.00000000000E+00 -0.49529723877E+03  0.22604189252E+04  0.22054873299E+04 0.  0.
        5    1    3    3  502    0  0.51091784986E+03 -0.93837016930E+03  0.31994856647E+02  0.10689346962E+04  0.46999998093E+01 0. -1.
       -5    1    3    3    0  502 -0.51091784986E+03  0.93837016930E+03 -0.52729209542E+03  0.11914842289E+04  0.46999998093E+01 0.  1.
</event>
<event>
 5   0  0.1404159E-04  0.2205749E+04  0.7818609E-02  0.8516039E-01
       -2   -1    0    0    0  501  0.00000000000E+00  0.00000000000E+00  0.63822671605E+03  0.63822671605E+03  0.25500000920E-02 0. -1.
        2   -1    0    0  501    0  0.00000000000E+00  0.00000000000E+00 -0.19057990292E+04  0.19057990292E+04  0.25500000920E-02 0.  1.
    10030    2    1    2    0    0  0.00000000000E+00  0.00000000000E+00 -0.12675723132E+04  0.25440257453E+04  0.22057487218E+04 0.  0.
        5    1    3    3  502    0 -0.11826724479E+03  0.23372090322E+03  0.60181731561E+03  0.65636786420E+03  0.46999998093E+01 0. -1.
       -5    1    3    3    0  502  0.11826724479E+03 -0.23372090322E+03 -0.18693896288E+04  0.18876578811E+04  0.46999998093E+01 0.  1.
</event>
<event>
 5   0  0.1252124E-04  0.2197082E+04  0.7818609E-02  0.8519644E-01
       -2   -1    0    0    0  501  0.00000000000E+00  0.00000000000E+00  0.85016695500E+03  0.85016695501E+03  0.25500000920E-02 0.  1.
        2   -1    0    0  501    0  0.00000000000E+00  0.00000000000E+00 -0.14194764746E+04  0.14194764746E+04  0.25500000920E-02 0. -1.
    10030    2    1    2    0    0  0.00000000000E+00  0.00000000000E+00 -0.56930951962E+03  0.22696434296E+04  0.21970816936E+04 0.  0.
        3    1    3    3  502    0 -0.25695295626E+03 -0.10662968214E+04 -0.22115724823E+03  0.11188942183E+04  0.10100000352E+00 0. -1.
       -3    1    3    3    0  502  0.25695295626E+03  0.10662968214E+04 -0.34815227138E+03  0.11507492113E+04  0.10100000352E+00 0.  1.
</event>
<event>
 5   0  0.5861816E-05  0.2237660E+04  0.7818609E-02  0.8502915E-01
       -1   -1    0    0    0  501  0.00000000000E+00  0.00000000000E+00  0.13031657460E+04  0.13031657460E+04  0.50400001928E-02 0.  1.
        1   -1    0    0  501    0  0.00000000000E+00  0.00000000000E+00 -0.96056927745E+03  0.96056927746E+03  0.50400001928E-02 0. -1.
    10030    2    1    2    0    0  0.00000000000E+00  0.00000000000E+00  0.34259646852E+03  0.22637350234E+04  0.22376603666E+04 0.  0.
        1    1    3    3  502    0 -0.53004844933E+03 -0.46342701180E+03 -0.70835396860E+03  0.99873985539E+03  0.50400001928E-02 0. -1.
       -1    1    3    3    0  502  0.53004844933E+03  0.46342701180E+03  0.10509504371E+04  0.12649951681E+04  0.50400001928E-02 0.  1.
</event>
<event>
 5   0  0.5849604E-05  0.2227897E+04  0.7818609E-02  0.8506906E-01
        1   -1    0    0  501    0  0.00000000000E+00  0.00000000000E+00  0.10602121627E+04  0.10602121627E+04  0.50400001928E-02 0. -1.
       -1   -1    0    0    0  501  0.00000000000E+00  0.00000000000E+00 -0.11704085157E+04  0.11704085157E+04  0.50400001928E-02 0.  1.
    10030    2    1    2    0    0  0.00000000000E+00  0.00000000000E+00 -0.11019635308E+03  0.22306206784E+04  0.22278970745E+04 0.  0.
        2    1    3    3  502    0 -0.75125813647E+03  0.37158692342E+03 -0.78976336922E+03  0.11516040156E+04  0.25500000920E-02 0.  1.
       -2    1    3    3    0  502  0.75125813647E+03 -0.37158692342E+03  0.67956701614E+03  0.10790166628E+04  0.25500000920E-02 0. -1.
</event>
<event>
 5   0  0.5895063E-05  0.2225770E+04  0.7818609E-02  0.8507778E-01
       -1   -1    0    0    0  501  0.00000000000E+00  0.00000000000E+00  0.79737622133E+03  0.79737622135E+03  0.50400001928E-02 0.  1.
        1   -1    0    0  501    0  0.00000000000E+00  0.00000000000E+00 -0.15532352212E+04  0.15532352212E+04  0.50400001928E-02 0. -1.
    10030    2    1    2    0    0  0.00000000000E+00  0.00000000000E+00 -0.75585899985E+03  0.23506114425E+04  0.22257698278E+04 0.  0.
        5    1    3    3  502    0 -0.82295058465E+03  0.12374950485E+03 -0.11582423015E+04  0.14262219055E+04  0.46999998093E+01 0. -1.
       -5    1    3    3    0  502  0.82295058465E+03 -0.12374950485E+03  0.40238330165E+03  0.92438953704E+03  0.46999998093E+01 0.  1.
</event>
<event>
 5   0  0.1226021E-04  0.2218418E+04  0.7818609E-02  0.8510801E-01
        2   -1    0    0  501    0  0.00000000000E+00  0.00000000000E+00  0.10495938012E+04  0.10495938012E+04  0.25500000920E-02 0. -1.
       -2   -1    0    0    0  501  0.00000000000E+00  0.00000000000E+00 -0.11722103185E+04  0.11722103185E+04  0.25500000920E-02 0.  1.
    10030    2    1    2    0    0  0.00000000000E+00  0.00000000000E+00 -0.12261651732E+03  0.22218041197E+04  0.22184180706E+04 0.  0.
        2    1    3    3  502    0 -0.12918734150E+03 -0.50555786905E+03 -0.10416109919E+04  0.11650028269E+04  0.25500000920E-02 0.  1.
       -2    1    3    3    0  502  0.12918734150E+03  0.50555786905E+03  0.91899447459E+03  0.10568012928E+04  0.25500000920E-02 0. -1.
</event>
<event>
 5   0  0.6263558E-05  0.2203879E+04  0.7818609E-02  0.8516815E-01
       -1   -1    0    0    0  501  0.00000000000E+00  0.00000000000E+00  0.24143026422E+04  0.24143026422E+04  0.50400001928E-02 0.  1.
        1   -1    0    0  501    0  0.00000000000E+00  0.00000000000E+00 -0.50294901997E+03  0.50294902000E+03  0.50400001928E-02 0. -1.
    10030    2    1    2    0    0  0.00000000000E+00  0.00000000000E+00  0.19113536222E+04  0.29172516622E+04  0.22038794412E+04 0.  0.
        3    1    3    3  502    0 -0.86569588763E+03 -0.54964568880E+03  0.14896527920E+04  0.18084814635E+04  0.10100000352E+00 0.  1.
       -3    1    3    3    0  502  0.86569588763E+03  0.54964568880E+03  0.42170083029E+03  0.11087701987E+04  0.10100000352E+00 0. -1.
</event>
<event>
 5   0  0.5981239E-05  0.2198177E+04  0.7818609E-02  0.8519187E-01
       -1   -1    0    0    0  501  0.00000000000E+00  0.00000000000E+00  0.79644375560E+03  0.79644375562E+03  0.50400001928E-02 0. -1.
        1   -1    0    0  501    0  0.00000000000E+00  0.00000000000E+00 -0.15167368916E+04  0.15167368916E+04  0.50400001928E-02 0.  1.
    10030    2    1    2    0    0  0.00000000000E+00  0.00000000000E+00 -0.72029313599E+03  0.23131806472E+04  0.21981770868E+04 0.  0.
        4    1    3    3  502    0 -0.23912859060E+03 -0.35473257817E+03 -0.14255247325E+04  0.14883346601E+04  0.12699999809E+01 0.  1.
       -4    1    3    3    0  502  0.23912859060E+03  0.35473257817E+03  0.70523159646E+03  0.82484598708E+03  0.12699999809E+01 0. -1.
</event>
<event>
 5   0  0.1311472E-04  0.2213511E+04  0.7818609E-02  0.8512825E-01
       -2   -1    0    0    0  501  0.00000000000E+00  0.00000000000E+00  0.11668426609E+04  0.11668426609E+04  0.25500000920E-02 0.  1.
        2   -1    0    0  501    0  0.00000000000E+00  0.00000000000E+00 -0.10497630236E+04  0.10497630236E+04  0.25500000920E-02 0. -1.
    10030    2    1    2    0    0  0.00000000000E+00  0.00000000000E+00  0.11707963727E+03  0.22166056846E+04  0.22135114907E+04 0.  0.
        4    1    3    3  502    0 -0.54927749262E+03  0.90782768942E+03 -0.25662188542E+03  0.10916562108E+04  0.12699999809E+01 0.  1.
       -4    1    3    3    0  502  0.54927749262E+03 -0.90782768942E+03  0.37370152269E+03  0.11249494738E+04  0.12699999809E+01 0. -1.
</event>
<event>
 5   0  0.5981239E-05  0.2289342E+04  0.7818609E-02  0.8482135E-01
        1   -1    0    0  501    0  0.00000000000E+00  0.00000000000E+00  0.83054554266E+03  0.83054554267E+03  0.50400001928E-02 0. -1.
       -1   -1    0    0    0  501  0.00000000000E+00  0.00000000000E+00 -0.15776041062E+04  0.15776041062E+04  0.50400001928E-02 0.  1.
    10030    2    1    2    0    0  0.00000000000E+00  0.00000000000E+00 -0.74705856353E+03  0.24081496489E+04  0.22893423147E+04 0.  0.
        4    1    3    3  502    0 -0.53442784757E+03 -0.98494178825E+03 -0.61920269041E+03  0.12802878720E+04  0.12699999809E+01 0.  1.
       -4    1    3    3    0  502  0.53442784757E+03  0.98494178825E+03 -0.12785587311E+03  0.11278617769E+04  0.12699999809E+01 0. -1.
</event>
<event>
 5   0  0.5981239E-05  0.2165089E+04  0.7818609E-02  0.8533101E-01
        1   -1    0    0  501    0  0.00000000000E+00  0.00000000000E+00  0.73513289597E+03  0.73513289598E+03  0.50400001928E-02 0.  1.
       -1   -1    0    0    0  501  0.00000000000E+00  0.00000000000E+00 -0.15941375560E+04  0.15941375560E+04  0.50400001928E-02 0. -1.
    10030    2    1    2    0    0  0.00000000000E+00  0.00000000000E+00 -0.85900466000E+03  0.23292704520E+04  0.21650893359E+04 0.  0.
        4    1    3    3  502    0  0.80060634920E+03  0.68485813494E+03 -0.16183833188E+03  0.10659242234E+04  0.12699999809E+01 0.  1.
       -4    1    3    3    0  502 -0.80060634920E+03 -0.68485813494E+03 -0.69716632812E+03  0.12633462286E+04  0.12699999809E+01 0. -1.
</event>
<event>
 5   0  0.5861816E-05  0.2111201E+04  0.7818609E-02  0.8556325E-01
       -1   -1    0    0    0  501  0.00000000000E+00  0.00000000000E+00  0.55707881346E+03  0.55707881348E+03  0.50400001928E-02 0.  1.
        1   -1    0    0  501    0  0.00000000000E+00  0.00000000000E+00 -0.20002413786E+04  0.20002413786E+04  0.50400001928E-02 0. -1.
    10030    2    1    2    0    0  0.00000000000E+00  0.00000000000E+00 -0.14431625651E+04  0.25573201921E+04  0.21112006952E+04 0.  0.
        1    1    3    3  502    0 -0.33029526563E+03 -0.37115614654E+03  0.40659085962E+03  0.64200309560E+03  0.50400001928E-02 0.  1.
       -1    1    3    3    0  502  0.33029526563E+03  0.37115614654E+03 -0.18497534247E+04  0.19153170965E+04  0.50400001928E-02 0. -1.
</event>
<event>
 5   0  0.1241430E-04  0.2191912E+04  0.7818609E-02  0.8521802E-01
       -2   -1    0    0    0  501  0.00000000000E+00  0.00000000000E+00  0.55902547701E+03  0.55902547702E+03  0.25500000920E-02 0.  1.
        2   -1    0    0  501    0  0.00000000000E+00  0.00000000000E+00 -0.21485959437E+04  0.21485959438E+04  0.25500000920E-02 0. -1.
    10030    2    1    2    0    0  0.00000000000E+00  0.00000000000E+00 -0.15895704667E+04  0.27076214208E+04  0.21919122906E+04 0.  0.
        1    1    3    3  502    0  0.65138471322E+03  0.76477421002E+03 -0.25360052305E+03  0.10360959715E+04  0.50400001928E-02 0. -1.
       -1    1    3    3    0  502 -0.65138471322E+03 -0.76477421002E+03 -0.13359699437E+04  0.16715254492E+04  0.50400001928E-02 0.  1.
</event>
<event>
 5   0  0.6263558E-05  0.2152367E+04  0.7818609E-02  0.8538520E-01
        1   -1    0    0  501    0  0.00000000000E+00  0.00000000000E+00  0.12515131938E+04  0.12515131938E+04  0.50400001928E-02 0. -1.
       -1   -1    0    0    0  501  0.00000000000E+00  0.00000000000E+00 -0.92541682387E+03  0.92541682389E+03  0.50400001928E-02 0.  1.
    10030    2    1    2    0    0  0.00000000000E+00  0.00000000000E+00  0.32609636996E+03  0.21769300177E+04  0.21523674081E+04 0.  0.
        3    1    3    3  502    0  0.46318403675E+03 -0.30819124011E+03  0.10947831306E+04  0.12280355881E+04  0.10100000352E+00 0. -1.
       -3    1    3    3    0  502 -0.46318403675E+03  0.30819124011E+03 -0.76868676065E+03  0.94889442963E+03  0.10100000352E+00 0.  1.
</event>
<event>
 5   0  0.1226021E-04  0.2210599E+04  0.7818609E-02  0.8514030E-01
        2   -1    0    0  501    0  0.00000000000E+00  0.00000000000E+00  0.10319951668E+04  0.10319951668E+04  0.25500000920E-02 0. -1.
       -2   -1    0    0    0  501  0.00000000000E+00  0.00000000000E+00 -0.11838104077E+04  0.11838104077E+04  0.25500000920E-02 0.  1.
    10030    2    1    2    0    0  0.00000000000E+00  0.00000000000E+00 -0.15181524096E+03  0.22158055745E+04  0.22105986693E+04 0.  0.
        2    1    3    3  502    0 -0.10626467412E+04  0.23104599775E+03  0.12226053079E+03  0.10943253570E+04  0.25500000920E-02 0. -1.
       -2    1    3    3    0  502  0.10626467412E+04 -0.23104599775E+03 -0.27407577175E+03  0.11214802175E+04  0.25500000920E-02 0.  1.
</event>
<event>
 5   0  0.1252124E-04  0.2264143E+04  0.7818609E-02  0.8492195E-01
        2   -1    0    0  501    0  0.00000000000E+00  0.00000000000E+00  0.16931448231E+04  0.16931448231E+04  0.25500000920E-02 0. -1.
       -2   -1    0    0    0  501  0.00000000000E+00  0.00000000000E+00 -0.75692652270E+03  0.75692652271E+03  0.25500000920E-02 0.  1.
    10030    2    1    2    0    0  0.00000000000E+00  0.00000000000E+00  0.93621830035E+03  0.24500713458E+04  0.22641433023E+04 0.  0.
        3    1    3    3  502    0 -0.94645696893E+03  0.43132684188E+03 -0.15541620009E+02  0.10402236253E+04  0.10100000352E+00 0.  1.
       -3    1    3    3    0  502  0.94645696893E+03 -0.43132684188E+03  0.95175992036E+03  0.14098477204E+04  0.10100000352E+00 0. -1.
</event>
<event>
 5   0  0.4586375E-05  0.2240909E+04  0.7818609E-02  0.8501591E-01
       -3   -1    0    0    0  501  0.00000000000E+00  0.00000000000E+00  0.10657265191E+04  0.10657265239E+04  0.10100000352E+00 0. -1.
        3   -1    0    0  501    0  0.00000000000E+00  0.00000000000E+00 -0.11779932635E+04  0.11779932678E+04  0.10100000352E+00 0.  1.
    10030    2    1    2    0    0  0.00000000000E+00  0.00000000000E+00 -0.11226674442E+03  0.22437197917E+04  0.22409093426E+04 0.  0.
        3    1    3    3  502    0 -0.74972023055E+03 -0.51988595203E+03 -0.70737730242E+03  0.11544455316E+04  0.10100000352E+00 0.  1.
       -3    1    3    3    0  502  0.74972023055E+03  0.51988595203E+03  0.59511055801E+03  0.10892742601E+04  0.10100000352E+00 0. -1.
</event>
<event>
 5   0  0.5895063E-05  0.2223727E+04  0.7818609E-02  0.8508617E-01
        1   -1    0    0  501    0  0.00000000000E+00  0.00000000000E+00  0.12796106304E+04  0.12796106304E+04  0.50400001928E-02 0.  1.
       -1   -1    0    0    0  501  0.00000000000E+00  0.00000000000E+00 -0.96610644540E+03  0.96610644542E+03  0.50400001928E-02 0. -1.
    10030    2    1    2    0    0  0.00000000000E+00  0.00000000000E+00  0.31350418502E+03  0.22457170758E+04  0.22237266718E+04 0.  0.
        5    1    3    3  502    0 -0.50913819040E+03  0.59310231803E+03  0.95528372959E+03  0.12343342945E+04  0.46999998093E+01 0.  1.
       -5    1    3    3    0  502  0.50913819040E+03 -0.59310231803E+03 -0.64177954457E+03  0.10113827813E+04  0.46999998093E+01 0. -1.
</event>
<event>
 5   0  0.1311472E-04  0.1788634E+04  0.7818609E-02  0.8712367E-01
        2   -1    0    0  501    0  0.00000000000E+00  0.00000000000E+00  0.67378613409E+03  0.67378613410E+03  0.25500000920E-02 0. -1.
       -2   -1    0    0    0  501  0.00000000000E+00  0.00000000000E+00 -0.11870280674E+04  0.11870280674E+04  0.25500000920E-02 0.  1.
    10030    2    1    2    0    0  0.00000000000E+00  0.00000000000E+00 -0.51324193327E+03  0.18608142015E+04  0.17886341745E+04 0.  0.
        4    1    3    3  502    0  0.77163051863E+03  0.42742168245E+02  0.21160908644E+03  0.80126186019E+03  0.12699999809E+01 0. -1.
       -4    1    3    3    0  502 -0.77163051863E+03 -0.42742168245E+02 -0.72485101971E+03  0.10595523413E+04  0.12699999809E+01 0.  1.
</event>
<event>
 5   0  0.1311472E-04  0.2180561E+04  0.7818609E-02  0.8526563E-01
       -2   -1    0    0    0  501  0.00000000000E+00  0.00000000000E+00  0.79719112668E+03  0.79719112668E+03  0.25500000920E-02 0.  1.
        2   -1    0    0  501    0  0.00000000000E+00  0.00000000000E+00 -0.14911245727E+04  0.14911245727E+04  0.25500000920E-02 0. -1.
    10030    2    1    2    0    0  0.00000000000E+00  0.00000000000E+00 -0.69393344605E+03  0.22883156994E+04  0.21805607335E+04 0.  0.
        4    1    3    3  502    0 -0.91609184809E+03  0.27182049192E+03 -0.89788423885E+03  0.13112239981E+04  0.12699999809E+01 0. -1.
       -4    1    3    3    0  502  0.91609184809E+03 -0.27182049192E+03  0.20395079279E+03  0.97709170130E+03  0.12699999809E+01 0.  1.
</event>
<event>
 5   0  0.1226021E-04  0.2188497E+04  0.7818609E-02  0.8523231E-01
        2   -1    0    0  501    0  0.00000000000E+00  0.00000000000E+00  0.13870348255E+04  0.13870348255E+04  0.25500000920E-02 0.  1.
       -2   -1    0    0    0  501  0.00000000000E+00  0.00000000000E+00 -0.86326575368E+03  0.86326575368E+03  0.25500000920E-02 0. -1.
    10030    2    1    2    0    0  0.00000000000E+00  0.00000000000E+00  0.52376907178E+03  0.22503005791E+04  0.21884968942E+04 0.  0.
        2    1    3    3  502    0 -0.28972785134E+03 -0.10385473173E+04  0.45385703321E+03  0.11698328789E+04  0.25500000920E-02 0.  1.
       -2    1    3    3    0  502  0.28972785134E+03  0.10385473173E+04  0.69912038574E+02  0.10804677002E+04  0.25500000920E-02 0. -1.
</event>
<event>
 5   0  0.5895063E-05  0.1938820E+04  0.7818609E-02  0.8635771E-01
       -1   -1    0    0    0  501  0.00000000000E+00  0.00000000000E+00  0.64026616321E+03  0.64026616323E+03  0.50400001928E-02 0. -1.
        1   -1    0    0  501    0  0.00000000000E+00  0.00000000000E+00 -0.14677574360E+04  0.14677574360E+04  0.50400001928E-02 0.  1.
    10030    2    1    2    0    0  0.00000000000E+00  0.00000000000E+00 -0.82749127279E+03  0.21080235992E+04  0.19388196637E+04 0.  0.
        5    1    3    3  502    0 -0.71370640555E+03  0.63571686885E+03 -0.58980496691E+03  0.11231227714E+04  0.46999998093E+01 0. -1.
       -5    1    3    3    0  502  0.71370640555E+03 -0.63571686885E+03 -0.23768630588E+03  0.98490082783E+03  0.46999998093E+01 0.  1.
</event>
<event>
 5   0  0.1252124E-04  0.2213871E+04  0.7818609E-02  0.8512677E-01
       -2   -1    0    0    0  501  0.00000000000E+00  0.00000000000E+00  0.65052576056E+03  0.65052576056E+03  0.25500000920E-02 0. -1.
        2   -1    0    0  501    0  0.00000000000E+00  0.00000000000E+00 -0.18835630867E+04  0.18835630867E+04  0.25500000920E-02 0.  1.
    10030    2    1    2    0    0  0.00000000000E+00  0.00000000000E+00 -0.12330373261E+04  0.25340888472E+04  0.22138710979E+04 0.  0.
        3    1    3    3  502    0 -0.17093655659E+03  0.49663462904E+03  0.49881165219E+03  0.72434683385E+03  0.10100000352E+00 0. -1.
       -3    1    3    3    0  502  0.17093655659E+03 -0.49663462904E+03 -0.17318489783E+04  0.18097420134E+04  0.10100000352E+00 0.  1.
</event>
<event>
 5   0  0.4586375E-05  0.2198685E+04  0.7818609E-02  0.8518976E-01
       -3   -1    0    0    0  501  0.00000000000E+00  0.00000000000E+00  0.12376498812E+04  0.12376498853E+04  0.10100000352E+00 0.  1.
        3   -1    0    0  501    0  0.00000000000E+00  0.00000000000E+00 -0.97649067097E+03  0.97649067620E+03  0.10100000352E+00 0. -1.
    10030    2    1    2    0    0  0.00000000000E+00  0.00000000000E+00  0.26115921018E+03  0.22141405615E+04  0.21986846734E+04 0.  0.
        2    1    3    3  502    0  0.79163408391E+02 -0.20690326531E+03  0.12149395120E+04  0.12349711836E+04  0.25500000920E-02 0.  1.
       -2    1    3    3    0  502 -0.79163408391E+02  0.20690326531E+03 -0.95378030183E+03  0.97916937789E+03  0.25500000920E-02 0. -1.
</event>
<event>
 5   0  0.6263558E-05  0.2188002E+04  0.7818609E-02  0.8523439E-01
       -1   -1    0    0    0  501  0.00000000000E+00  0.00000000000E+00  0.12455981943E+04  0.12455981943E+04  0.50400001928E-02 0. -1.
        1   -1    0    0  501    0  0.00000000000E+00  0.00000000000E+00 -0.96085386574E+03  0.96085386576E+03  0.50400001928E-02 0.  1.
    10030    2    1    2    0    0  0.00000000000E+00  0.00000000000E+00  0.28474432859E+03  0.22064520601E+04  0.21880016821E+04 0.  0.
        3    1    3    3  502    0 -0.27084415680E+03  0.80806421418E+03 -0.54935190557E+03  0.10139585089E+04  0.10100000352E+00 0.  1.
       -3    1    3    3    0  502  0.27084415680E+03 -0.80806421418E+03  0.83409623416E+03  0.11924935512E+04  0.10100000352E+00 0. -1.
</event>
<event>
 5   0  0.4586375E-05  0.2201586E+04  0.7818609E-02  0.8517768E-01
       -3   -1    0    0    0  501  0.00000000000E+00  0.00000000000E+00  0.13798226422E+04  0.13798226459E+04  0.10100000352E+00 0.  1.
        3   -1    0    0  501    0  0.00000000000E+00  0.00000000000E+00 -0.87818913848E+03  0.87818914429E+03  0.10100000352E+00 0. -1.
    10030    2    1    2    0    0  0.00000000000E+00  0.00000000000E+00  0.50163350370E+03  0.22580117902E+04  0.22015860357E+04 0.  0.
        4    1    3    3  502    0 -0.69524026607E+03  0.91349411400E+02  0.11211164415E+04  0.13223492091E+04  0.12699999809E+01 0.  1.
       -4    1    3    3    0  502  0.69524026607E+03 -0.91349411400E+02 -0.61948293777E+03  0.93566258108E+03  0.12699999809E+01 0. -1.
</event>
<event>
 5   0  0.1311472E-04  0.2169011E+04  0.7818609E-02  0.8531438E-01
       -2   -1    0    0    0  501  0.00000000000E+00  0.00000000000E+00  0.10152554765E+04  0.10152554765E+04  0.25500000920E-02 0. -1.
        2   -1    0    0  501    0  0.00000000000E+00  0.00000000000E+00 -0.11584785035E+04  0.11584785035E+04  0.25500000920E-02 0.  1.
    10030    2    1    2    0    0  0.00000000000E+00  0.00000000000E+00 -0.14322302700E+03  0.21737339800E+04  0.21690105072E+04 0.  0.
        4    1    3    3  502    0  0.98293875774E+03  0.44654988414E+03  0.31445455176E+02  0.10800767704E+04  0.12699999809E+01 0. -1.
       -4    1    3    3    0  502 -0.98293875774E+03 -0.44654988414E+03 -0.17466848218E+03  0.10936572096E+04  0.12699999809E+01 0.  1.
</event>
<event>
 5   0  0.5981239E-05  0.2071574E+04  0.7818609E-02  0.8573870E-01
       -1   -1    0    0    0  501  0.00000000000E+00  0.00000000000E+00  0.59422444863E+03  0.59422444865E+03  0.50400001928E-02 0.  1.
        1   -1    0    0  501    0  0.00000000000E+00  0.00000000000E+00 -0.18054698687E+04  0.18054698687E+04  0.50400001928E-02 0. -1.
    10030    2    1    2    0    0  0.00000000000E+00  0.00000000000E+00 -0.12112454201E+04  0.23996943174E+04  0.20715736408E+04 0.  0.
        4    1    3    3  502    0  0.68984430292E+03 -0.65085889542E+03 -0.10879233031E+04  0.14432883254E+04  0.12699999809E+01 0.  1.
       -4    1    3    3    0  502 -0.68984430292E+03  0.65085889542E+03 -0.12332211703E+03  0.95640599196E+03  0.12699999809E+01 0. -1.
</event>
<event>
 5   0  0.6263558E-05  0.2201066E+04  0.7818609E-02  0.8517985E-01
        1   -1    0    0  501    0  0.00000000000E+00  0.00000000000E+00  0.53527486605E+03  0.53527486608E+03  0.50400001928E-02 0.  1.
       -1   -1    0    0    0  501  0.00000000000E+00  0.00000000000E+00 -0.22627111639E+04  0.22627111639E+04  0.50400001928E-02 0. -1.
    10030    2    1    2    0    0  0.00000000000E+00  0.00000000000E+00 -0.17274362979E+04  0.27979860300E+04  0.22010655740E+04 0.  0.
        3    1    3    3  502    0 -0.77739154255E+03 -0.76888103786E+03 -0.10227789952E+04  0.14971948918E+04  0.10100000352E+00 0.  1.
       -3    1    3    3    0  502  0.77739154255E+03  0.76888103786E+03 -0.70465730266E+03  0.13007911382E+04  0.10100000352E+00 0. -1.
</event>
<event>
 5   0  0.1226021E-04  0.2215331E+04  0.7818609E-02  0.8512074E-01
       -2   -1    0    0    0  501  0.00000000000E+00  0.00000000000E+00  0.21663562719E+04  0.21663562719E+04  0.25500000920E-02 0.  1.
        2   -1    0    0  501    0  0.00000000000E+00  0.00000000000E+00 -0.56635341076E+03  0.56635341076E+03  0.25500000920E-02 0. -1.
    10030    2    1    2    0    0  0.00000000000E+00  0.00000000000E+00  0.16000028611E+04  0.27327096827E+04  0.22153313644E+04 0.  0.
        2    1    3    3  502    0  0.95266454750E+03  0.25910114701E+03  0.14195062118E+04  0.17290751950E+04  0.25500000920E-02 0.  1.
       -2    1    3    3    0  502 -0.95266454750E+03 -0.25910114701E+03  0.18049664931E+03  0.10036344877E+04  0.25500000920E-02 0. -1.
</event>
<event>
 5   0  0.6263558E-05  0.2205392E+04  0.7818609E-02  0.8516187E-01
        1   -1    0    0  501    0  0.00000000000E+00  0.00000000000E+00  0.17118951596E+04  0.17118951596E+04  0.50400001928E-02 0.  1.
       -1   -1    0    0    0  501  0.00000000000E+00  0.00000000000E+00 -0.71028784244E+03  0.71028784246E+03  0.50400001928E-02 0. -1.
    10030    2    1    2    0    0  0.00000000000E+00  0.00000000000E+00  0.10016073171E+04  0.24221830020E+04  0.22053918649E+04 0.  0.
        3    1    3    3  502    0 -0.57913725026E+03  0.56622075223E+03 -0.32103958388E+03  0.87124756500E+03  0.10100000352E+00 0. -1.
       -3    1    3    3    0  502  0.57913725026E+03 -0.56622075223E+03  0.13226469010E+04  0.15509354370E+04  0.10100000352E+00 0.  1.
</event>
<event>
 5   0  0.1311472E-04  0.2196611E+04  0.7818609E-02  0.8519840E-01
       -2   -1    0    0    0  501  0.00000000000E+00  0.00000000000E+00  0.16819339405E+04  0.16819339405E+04  0.25500000920E-02 0.  1.
        2   -1    0    0  501    0  0.00000000000E+00  0.00000000000E+00 -0.71719536920E+03  0.71719536921E+03  0.25500000920E-02 0. -1.
    10030    2    1    2    0    0  0.00000000000E+00  0.00000000000E+00  0.96473857131E+03  0.23991293097E+04  0.21966112387E+04 0.  0.
        4    1    3    3  502    0 -0.24010985828E+03 -0.89979162344E+03 -0.15354368741E+03  0.94385114637E+03  0.12699999809E+01 0. -1.
       -4    1    3    3    0  502  0.24010985828E+03  0.89979162344E+03  0.11182822587E+04  0.14552781634E+04  0.12699999809E+01 0.  1.
</event>
<event>
 5   0  0.1241430E-04  0.1351067E+04  0.7818609E-02  0.8990021E-01
        2   -1    0    0  501    0  0.00000000000E+00  0.00000000000E+00  0.71575949494E+03  0.71575949494E+03  0.25500000920E-02 0.  1.
       -2   -1    0    0    0  501  0.00000000000E+00  0.00000000000E+00 -0.63756813218E+03  0.63756813219E+03  0.25500000920E-02 0. -1.
    10030    2    1    2    0    0  0.00000000000E+00  0.00000000000E+00  0.78191362754E+02  0.13533276271E+04  0.13510669033E+04 0.  0.
        1    1    3    3  502    0 -0.42474214735E+03 -0.25208114312E+03  0.50072977811E+03  0.70333569877E+03  0.50400001928E-02 0.  1.
       -1    1    3    3    0  502  0.42474214735E+03  0.25208114312E+03 -0.42253841536E+03  0.64999192836E+03  0.50400001928E-02 0. -1.
</event>
<event>
 5   0  0.1241430E-04  0.2189199E+04  0.7818609E-02  0.8522937E-01
       -2   -1    0    0    0  501  0.00000000000E+00  0.00000000000E+00  0.11587634414E+04  0.11587634414E+04  0.25500000920E-02 0.  1.
        2   -1    0    0  501    0  0.00000000000E+00  0.00000000000E+00 -0.10339882580E+04  0.10339882580E+04  0.25500000920E-02 0. -1.
    10030    2    1    2    0    0  0.00000000000E+00  0.00000000000E+00  0.12477518341E+03  0.21927516994E+04  0.21891987505E+04 0.  0.
        1    1    3    3  502    0  0.62623433643E+03  0.47733856185E+03 -0.69919254349E+03  0.10530392963E+04  0.50400001928E-02 0. -1.
       -1    1    3    3    0  502 -0.62623433643E+03 -0.47733856185E+03  0.82396772691E+03  0.11397124031E+04  0.50400001928E-02 0.  1.
</event>
<event>
 5   0  0.1252124E-04  0.2177862E+04  0.7818609E-02  0.8527699E-01
       -2   -1    0    0    0  501  0.00000000000E+00  0.00000000000E+00  0.11643201816E+04  0.11643201816E+04  0.25500000920E-02 0.  1.
        2   -1    0    0  501    0  0.00000000000E+00  0.00000000000E+00 -0.10184229029E+04  0.10184229029E+04  0.25500000920E-02 0. -1.
    10030    2    1    2    0    0  0.00000000000E+00  0.00000000000E+00  0.14589727868E+03  0.21827430846E+04  0.21778616479E+04 0.  0.
        3    1    3    3  502    0  0.58191333906E+03 -0.52909281679E+03  0.82776881925E+03  0.11418246675E+04  0.10100000352E+00 0.  1.
       -3    1    3    3    0  502 -0.58191333906E+03  0.52909281679E+03 -0.68187154057E+03  0.10409184171E+04  0.10100000352E+00 0. -1.
</event>
<event>
 5   0  0.1404159E-04  0.2208123E+04  0.7818609E-02  0.8515055E-01
       -2   -1    0    0    0  501  0.00000000000E+00  0.00000000000E+00  0.73266652680E+03  0.73266652680E+03  0.25500000920E-02 0.  1.
        2   -1    0    0  501    0  0.00000000000E+00  0.00000000000E+00 -0.16637196401E+04  0.16637196401E+04  0.25500000920E-02 0. -1.
    10030    2    1    2    0    0  0.00000000000E+00  0.00000000000E+00 -0.93105311333E+03  0.23963861669E+04  0.22081229045E+04 0.  0.
        5    1    3    3  502    0 -0.46116580150E+03 -0.10011022001E+04 -0.53459279915E+03  0.12250269640E+04  0.46999998093E+01 0. -1.
       -5    1    3    3    0  502  0.46116580150E+03  0.10011022001E+04 -0.39646031417E+03  0.11713592029E+04  0.46999998093E+01 0.  1.
</event>
<event>
 5   0  0.6263558E-05  0.2192539E+04  0.7818609E-02  0.8521540E-01
        1   -1    0    0  501    0  0.00000000000E+00  0.00000000000E+00  0.10359113186E+04  0.10359113186E+04  0.50400001928E-02 0.  1.
       -1   -1    0    0    0  501  0.00000000000E+00  0.00000000000E+00 -0.11601442634E+04  0.11601442634E+04  0.50400001928E-02 0. -1.
    10030    2    1    2    0    0  0.00000000000E+00  0.00000000000E+00 -0.12423294482E+03  0.21960555820E+04  0.21925387784E+04 0.  0.
        3    1    3    3  502    0  0.71186412763E+03  0.73341894133E+03  0.33494426578E+03  0.10755656889E+04  0.10100000352E+00 0.  1.
       -3    1    3    3    0  502 -0.71186412763E+03 -0.73341894133E+03 -0.45917721060E+03  0.11204898931E+04  0.10100000352E+00 0. -1.
</event>
<event>
 5   0  0.5981239E-05  0.2294338E+04  0.7818609E-02  0.8480157E-01
        1   -1    0    0  501    0  0.00000000000E+00  0.00000000000E+00  0.10570441276E+04  0.10570441276E+04  0.50400001928E-02 0. -1.
       -1   -1    0    0    0  501  0.00000000000E+00  0.00000000000E+00 -0.12449778015E+04  0.12449778016E+04  0.50400001928E-02 0.  1.
    10030    2    1    2    0    0  0.00000000000E+00  0.00000000000E+00 -0.18793367395E+03  0.23020219292E+04  0.22943377904E+04 0.  0.
        4    1    3    3  502    0  0.34808417446E+03 -0.43801144613E+03  0.91087533543E+03  0.10689771321E+04  0.12699999809E+01 0. -1.
       -4    1    3    3    0  502 -0.34808417446E+03  0.43801144613E+03 -0.10988090094E+04  0.12330447970E+04  0.12699999809E+01 0.  1.
</event>
<event>
 5   0  0.1311472E-04  0.2231315E+04  0.7818609E-02  0.8505506E-01
        2   -1    0    0  501    0  0.00000000000E+00  0.00000000000E+00  0.10272230912E+04  0.10272230912E+04  0.25500000920E-02 0. -1.
       -2   -1    0    0    0  501  0.00000000000E+00  0.00000000000E+00 -0.12117048342E+04  0.12117048342E+04  0.25500000920E-02 0.  1.
    10030    2    1    2    0    0  0.00000000000E+00  0.00000000000E+00 -0.18448174307E+03  0.22389279254E+04  0.22313145770E+04 0.  0.
        4    1    3    3  502    0  0.81687087590E+02 -0.10244816484E+04 -0.52783514009E+03  0.11553557791E+04  0.12699999809E+01 0.  1.
       -4    1    3    3    0  502 -0.81687087590E+02  0.10244816484E+04  0.34335339703E+03  0.10835721463E+04  0.12699999809E+01 0. -1.
</event>
<event>
 5   0  0.6263558E-05  0.2181680E+04  0.7818609E-02  0.8526092E-01
        1   -1    0    0  501    0  0.00000000000E+00  0.00000000000E+00  0.12005475828E+04  0.12005475829E+04  0.50400001928E-02 0. -1.
       -1   -1    0    0    0  501  0.00000000000E+00  0.00000000000E+00 -0.99115748412E+03  0.99115748413E+03  0.50400001928E-02 0.  1.
    10030    2    1    2    0    0  0.00000000000E+00  0.00000000000E+00  0.20939009873E+03  0.21917050670E+04  0.21816798315E+04 0.  0.
        3    1    3    3  502    0  0.71528411027E+03 -0.79907018203E+03 -0.95688824908E+02  0.10767083522E+04  0.10100000352E+00 0.  1.
       -3    1    3    3    0  502 -0.71528411027E+03  0.79907018203E+03  0.30507892363E+03  0.11149967148E+04  0.10100000352E+00 0. -1.
</event>
<event>
 5   0  0.5849604E-05  0.2191879E+04  0.7818609E-02  0.8521816E-01
        1   -1    0    0  501    0  0.00000000000E+00  0.00000000000E+00  0.23051789618E+04  0.23051789618E+04  0.50400001928E-02 0. -1.
       -1   -1    0    0    0  501  0.00000000000E+00  0.00000000000E+00 -0.52103678737E+03  0.52103678739E+03  0.50400001928E-02 0.  1.
    10030    2    1    2    0    0  0.00000000000E+00  0.00000000000E+00  0.17841421744E+04  0.28262157492E+04  0.21918786833E+04 0.  0.
        2    1    3    3  502    0  0.27410397106E+03  0.81128798837E+03  0.10207927623E+02  0.85640258571E+03  0.25500000920E-02 0.  1.
       -2    1    3    3    0  502 -0.27410397106E+03 -0.81128798837E+03  0.17739342468E+04  0.19698131635E+04  0.25500000920E-02 0. -1.
</event>
<event>
 5   0  0.6263558E-05  0.2192410E+04  0.7818609E-02  0.8521594E-01
        1   -1    0    0  501    0  0.00000000000E+00  0.00000000000E+00  0.77249129382E+03  0.77249129384E+03  0.50400001928E-02 0.  1.
       -1   -1    0    0    0  501  0.00000000000E+00  0.00000000000E+00 -0.15555719714E+04  0.15555719714E+04  0.50400001928E-02 0. -1.
    10030    2    1    2    0    0  0.00000000000E+00  0.00000000000E+00 -0.78308067753E+03  0.23280632652E+04  0.21924103674E+04 0.  0.
        3    1    3    3  502    0 -0.86332642315E+03  0.61843513714E+03 -0.68014988553E+03  0.12611099907E+04  0.10100000352E+00 0. -1.
       -3    1    3    3    0  502  0.86332642315E+03 -0.61843513714E+03 -0.10293079200E+03  0.10669532745E+04  0.10100000352E+00 0.  1.
</event>
<event>
 5   0  0.6263558E-05  0.2203593E+04  0.7818609E-02  0.8516934E-01
       -1   -1    0    0    0  501  0.00000000000E+00  0.00000000000E+00  0.19523970299E+04  0.19523970299E+04  0.50400001928E-02 0.  1.
        1   -1    0    0  501    0  0.00000000000E+00  0.00000000000E+00 -0.62177726119E+03  0.62177726121E+03  0.50400001928E-02 0. -1.
    10030    2    1    2    0    0  0.00000000000E+00  0.00000000000E+00  0.13306197687E+04  0.25741742911E+04  0.22035934998E+04 0.  0.
        3    1    3    3  502    0 -0.94120588675E+03 -0.40941449005E+03  0.11332602256E+04  0.15289759629E+04  0.10100000352E+00 0.  1.
       -3    1    3    3    0  502  0.94120588675E+03  0.40941449005E+03  0.19735954313E+03  0.10451983283E+04  0.10100000352E+00 0. -1.
</event>
<event>
 5   0  0.5895063E-05  0.2199139E+04  0.7818609E-02  0.8518786E-01
        1   -1    0    0  501    0  0.00000000000E+00  0.00000000000E+00  0.12815405559E+04  0.12815405559E+04  0.50400001928E-02 0. -1.
       -1   -1    0    0    0  501  0.00000000000E+00  0.00000000000E+00 -0.94343736936E+03  0.94343736937E+03  0.50400001928E-02 0.  1.
    10030    2    1    2    0    0  0.00000000000E+00  0.00000000000E+00  0.33810318655E+03  0.22249779253E+04  0.21991391505E+04 0.  0.
        5    1    3    3  502    0 -0.52323060252E+03  0.25359688667E+03  0.11132635323E+04  0.12559695167E+04  0.46999998093E+01 0. -1.
       -5    1    3    3    0  502  0.52323060252E+03 -0.25359688667E+03 -0.77516034578E+03  0.96900840864E+03  0.46999998093E+01 0.  1.
</event>
<event>
 5   0  0.5849604E-05  0.2174505E+04  0.7818609E-02  0.8529115E-01
       -1   -1    0    0    0  501  0.00000000000E+00  0.00000000000E+00  0.70131582454E+03  0.70131582455E+03  0.50400001928E-02 0. -1.
        1   -1    0    0  501    0  0.00000000000E+00  0.00000000000E+00 -0.16855715381E+04  0.16855715381E+04  0.50400001928E-02 0.  1.
    10030    2    1    2    0    0  0.00000000000E+00  0.00000000000E+00 -0.98425571354E+03  0.23868873626E+04  0.21745049948E+04 0.  0.
        2    1    3    3  502    0 -0.11059681414E+03  0.61842277644E+03 -0.14661753731E+04  0.15951014421E+04  0.25500000920E-02 0.  1.
       -2    1    3    3    0  502  0.11059681414E+03 -0.61842277644E+03  0.48191965958E+03  0.79178592057E+03  0.25500000920E-02 0. -1.
</event>
<event>
 5   0  0.5849604E-05  0.2264828E+04  0.7818609E-02  0.8491919E-01
        1   -1    0    0  501    0  0.00000000000E+00  0.00000000000E+00  0.24259669097E+04  0.24259669097E+04  0.50400001928E-02 0.  1.
       -1   -1    0    0    0  501  0.00000000000E+00  0.00000000000E+00 -0.52859829320E+03  0.52859829322E+03  0.50400001928E-02 0. -1.
    10030    2    1    2    0    0  0.00000000000E+00  0.00000000000E+00  0.18973686165E+04  0.29545652030E+04  0.22648284420E+04 0.  0.
        2    1    3    3  502    0  0.17780608352E+03 -0.77489858156E+03  0.20006660058E+04  0.21528463210E+04  0.25500000920E-02 0.  1.
       -2    1    3    3    0  502 -0.17780608352E+03  0.77489858156E+03 -0.10329738929E+03  0.80171888195E+03  0.25500000920E-02 0. -1.
</event>
<event>
 5   0  0.1404159E-04  0.2220549E+04  0.7818609E-02  0.8509923E-01
       -2   -1    0    0    0  501  0.00000000000E+00  0.00000000000E+00  0.51102978138E+03  0.51102978139E+03  0.25500000920E-02 0.  1.
        2   -1    0    0  501    0  0.00000000000E+00  0.00000000000E+00 -0.24122073348E+04  0.24122073348E+04  0.25500000920E-02 0. -1.
    10030    2    1    2    0    0  0.00000000000E+00  0.00000000000E+00 -0.19011775535E+04  0.29232371162E+04  0.22205492897E+04 0.  0.
        5    1    3    3  502    0 -0.25194098011E+01  0.56038209400E+03 -0.22123565660E+04  0.22822309489E+04  0.46999998093E+01 0. -1.
       -5    1    3    3    0  502  0.25194098011E+01 -0.56038209400E+03  0.31117901260E+03  0.64100616735E+03  0.46999998093E+01 0.  1.
</event>
<event>
 5   0  0.6263558E-05  0.2158310E+04  0.7818609E-02  0.8535984E-01
       -1   -1    0    0    0  501  0.00000000000E+00  0.00000000000E+00  0.89981078389E+03  0.89981078390E+03  0.50400001928E-02 0. -1.
        1   -1    0    0  501    0  0.00000000000E+00  0.00000000000E+00 -0.12942447784E+04  0.12942447784E+04  0.50400001928E-02 0.  1.
    10030    2    1    2    0    0  0.00000000000E+00  0.00000000000E+00 -0.39443399448E+03  0.21940555623E+04  0.21583099023E+04 0.  0.
        3    1    3    3  502    0 -0.17575188656E+03 -0.10640116494E+04 -0.15699038877E+03  0.10897960856E+04  0.10100000352E+00 0. -1.
       -3    1    3    3    0  502  0.17575188656E+03  0.10640116494E+04 -0.23744360570E+03  0.11042594767E+04  0.10100000352E+00 0.  1.
</event>
<event>
 5   0  0.1404159E-04  0.2215375E+04  0.7818609E-02  0.8512056E-01
        2   -1    0    0  501    0  0.00000000000E+00  0.00000000000E+00  0.14618291202E+04  0.14618291202E+04  0.25500000920E-02 0. -1.
       -2   -1    0    0    0  501  0.00000000000E+00  0.00000000000E+00 -0.83934002491E+03  0.83934002491E+03  0.25500000920E-02 0.  1.
    10030    2    1    2    0    0  0.00000000000E+00  0.00000000000E+00  0.62248909527E+03  0.23011691451E+04  0.22153750835E+04 0.  0.
        5    1    3    3  502    0  0.34999260132E+03 -0.26548466666E+03  0.13674679977E+04  0.14363034999E+04  0.46999998093E+01 0. -1.
       -5    1    3    3    0  502 -0.34999260132E+03  0.26548466666E+03 -0.74497890240E+03  0.86486564518E+03  0.46999998093E+01 0.  1.
</event>
<event>
 5   0  0.6263558E-05  0.2256342E+04  0.7818609E-02  0.8495336E-01
        1   -1    0    0  501    0  0.00000000000E+00  0.00000000000E+00  0.17038899781E+04  0.17038899781E+04  0.50400001928E-02 0.  1.
       -1   -1    0    0    0  501  0.00000000000E+00  0.00000000000E+00 -0.74697895265E+03  0.74697895267E+03  0.50400001928E-02 0. -1.
    10030    2    1    2    0    0  0.00000000000E+00  0.00000000000E+00  0.95691102546E+03  0.24508689308E+04  0.22563421295E+04 0.  0.
        3    1    3    3  502    0 -0.71713207218E+03  0.90019790837E+02  0.14193871371E+04  0.15928094132E+04  0.10100000352E+00 0.  1.
       -3    1    3    3    0  502  0.71713207218E+03 -0.90019790837E+02 -0.46247611162E+03  0.85805951758E+03  0.10100000352E+00 0. -1.
</event>
<event>
 5   0  0.1311472E-04  0.2109331E+04  0.7818609E-02  0.8557144E-01
       -2   -1    0    0    0  501  0.00000000000E+00  0.00000000000E+00  0.12207707775E+04  0.12207707775E+04  0.25500000920E-02 0.  1.
        2   -1    0    0  501    0  0.00000000000E+00  0.00000000000E+00 -0.91116114510E+03  0.91116114510E+03  0.25500000920E-02 0. -1.
    10030    2    1    2    0    0  0.00000000000E+00  0.00000000000E+00  0.30960963244E+03  0.21319319226E+04  0.21093306043E+04 0.  0.
        4    1    3    3  502    0  0.86906940014E+03 -0.39076056993E+03 -0.30208063621E+03  0.99961481029E+03  0.12699999809E+01 0. -1.
       -4    1    3    3    0  502 -0.86906940014E+03  0.39076056993E+03  0.61169026866E+03  0.11323171124E+04  0.12699999809E+01 0.  1.
</event>
<event>
 5   0  0.5981239E-05  0.2197185E+04  0.7818609E-02  0.8519601E-01
        1   -1    0    0  501    0  0.00000000000E+00  0.00000000000E+00  0.16494628238E+04  0.16494628238E+04  0.50400001928E-02 0. -1.
       -1   -1    0    0    0  501  0.00000000000E+00  0.00000000000E+00 -0.73169632298E+03  0.73169632300E+03  0.50400001928E-02 0.  1.
    10030    2    1    2    0    0  0.00000000000E+00  0.00000000000E+00  0.91776650083E+03  0.23811591468E+04  0.21971853660E+04 0.  0.
        4    1    3    3  502    0 -0.20612468717E+03 -0.65983330156E+03 -0.46644640233E+03  0.83393119120E+03  0.12699999809E+01 0.  1.
       -4    1    3    3    0  502  0.20612468717E+03  0.65983330156E+03  0.13842129032E+04  0.15472279556E+04  0.12699999809E+01 0. -1.
</event>
<event>
 5   0  0.1311472E-04  0.2204283E+04  0.7818609E-02  0.8516647E-01
        2   -1    0    0  501    0  0.00000000000E+00  0.00000000000E+00  0.22313312330E+04  0.22313312330E+04  0.25500000920E-02 0. -1.
       -2   -1    0    0    0  501  0.00000000000E+00  0.00000000000E+00 -0.54439081134E+03  0.54439081134E+03  0.25500000920E-02 0.  1.
    10030    2    1    2    0    0  0.00000000000E+00  0.00000000000E+00  0.16869404217E+04  0.27757220443E+04  0.22042833033E+04 0.  0.
        4    1    3    3  502    0 -0.63435158960E+03  0.70119858215E+03  0.15565084473E+04  0.18212088157E+04  0.12699999809E+01 0. -1.
       -4    1    3    3    0  502  0.63435158960E+03 -0.70119858215E+03  0.13043197432E+03  0.95451322864E+03  0.12699999809E+01 0.  1.
</event>
<event>
 5   0  0.1226021E-04  0.2198938E+04  0.7818609E-02  0.8518870E-01
        2   -1    0    0  501    0  0.00000000000E+00  0.00000000000E+00  0.14435910521E+04  0.14435910521E+04  0.25500000920E-02 0.  1.
       -2   -1    0    0    0  501  0.00000000000E+00  0.00000000000E+00 -0.83737832362E+03  0.83737832362E+03  0.25500000920E-02 0. -1.
    10030    2    1    2    0    0  0.00000000000E+00  0.00000000000E+00  0.60621272850E+03  0.22809693757E+04  0.21989377938E+04 0.  0.
        2    1    3    3  502    0  0.64500588807E+03  0.88871945435E+03  0.35970360681E+03  0.11555265246E+04  0.25500000920E-02 0.  1.
       -2    1    3    3    0  502 -0.64500588807E+03 -0.88871945435E+03  0.24650912169E+03  0.11254428512E+04  0.25500000920E-02 0. -1.
</event>
<event>
 5   0  0.5861816E-05  0.2131560E+04  0.7818609E-02  0.8547467E-01
       -1   -1    0    0    0  501  0.00000000000E+00  0.00000000000E+00  0.13860865133E+04  0.13860865134E+04  0.50400001928E-02 0. -1.
        1   -1    0    0  501    0  0.00000000000E+00  0.00000000000E+00 -0.81949201897E+03  0.81949201899E+03  0.50400001928E-02 0.  1.
    10030    2    1    2    0    0  0.00000000000E+00  0.00000000000E+00  0.56659449438E+03  0.22055785323E+04  0.21315598376E+04 0.  0.
        1    1    3    3  502    0  0.92075818413E+03 -0.52879117759E+03  0.18806266073E+03  0.10783243054E+04  0.50400001928E-02 0.  1.
       -1    1    3    3    0  502 -0.92075818413E+03  0.52879117759E+03  0.37853183365E+03  0.11272542270E+04  0.50400001928E-02 0. -1.
</event>
<event>
 5   0  0.4586375E-05  0.2238604E+04  0.7818609E-02  0.8502530E-01
        3   -1    0    0  501    0  0.00000000000E+00  0.00000000000E+00  0.14506084086E+04  0.14506084122E+04  0.10100000352E+00 0.  1.
       -3   -1    0    0    0  501  0.00000000000E+00  0.00000000000E+00 -0.86366321312E+03  0.86366321902E+03  0.10100000352E+00 0. -1.
    10030    2    1    2    0    0  0.00000000000E+00  0.00000000000E+00  0.58694519552E+03  0.23142716312E+04  0.22386041455E+04 0.  0.
        4    1    3    3  502    0 -0.47952156292E+03 -0.46806567683E+03  0.12203312108E+04  0.13922055466E+04  0.12699999809E+01 0.  1.
       -4    1    3    3    0  502  0.47952156292E+03  0.46806567683E+03 -0.63338601523E+03  0.92206608458E+03  0.12699999809E+01 0. -1.
</event>
<event>
 5   0  0.5861816E-05  0.2238924E+04  0.7818609E-02  0.8502399E-01
        1   -1    0    0  501    0  0.00000000000E+00  0.00000000000E+00  0.13964669287E+04  0.13964669287E+04  0.50400001928E-02 0. -1.
       -1   -1    0    0    0  501  0.00000000000E+00  0.00000000000E+00 -0.89740428695E+03  0.89740428697E+03  0.50400001928E-02 0.  1.
    10030    2    1    2    0    0  0.00000000000E+00  0.00000000000E+00  0.49906264171E+03  0.22938712156E+04  0.22389242134E+04 0.  0.
        1    1    3    3  502    0 -0.95213212176E+03 -0.55248580466E+03  0.41069770674E+02  0.11015819841E+04  0.50400001928E-02 0.  1.
       -1    1    3    3    0  502  0.95213212176E+03  0.55248580466E+03  0.45799287103E+03  0.11922892315E+04  0.50400001928E-02 0. -1.
</event>
<event>
 5   0  0.1404159E-04  0.2264324E+04  0.7818609E-02  0.8492122E-01
        2   -1    0    0  501    0  0.00000000000E+00  0.00000000000E+00  0.17640031077E+04  0.17640031077E+04  0.25500000920E-02 0.  1.
       -2   -1    0    0    0  501  0.00000000000E+00  0.00000000000E+00 -0.72663742688E+03  0.72663742688E+03  0.25500000920E-02 0. -1.
    10030    2    1    2    0    0  0.00000000000E+00  0.00000000000E+00  0.10373656808E+04  0.24906405346E+04  0.22643238984E+04 0.  0.
        5    1    3    3  502    0 -0.15835045048E+03 -0.38602853793E+02  0.17510201012E+04  0.17585956130E+04  0.46999998093E+01 0.  1.
       -5    1    3    3    0  502  0.15835045048E+03  0.38602853793E+02 -0.71365442035E+03  0.73204492155E+03  0.46999998093E+01 0. -1.
</event>
<event>
 5   0  0.1252124E-04  0.2183613E+04  0.7818609E-02  0.8525280E-01
        2   -1    0    0  501    0  0.00000000000E+00  0.00000000000E+00  0.16524974128E+04  0.16524974128E+04  0.25500000920E-02 0. -1.
       -2   -1    0    0    0  501  0.00000000000E+00  0.00000000000E+00 -0.72135764045E+03  0.72135764045E+03  0.25500000920E-02 0.  1.
    10030    2    1    2    0    0  0.00000000000E+00  0.00000000000E+00  0.93113977240E+03  0.23738550533E+04  0.21836131842E+04 0.  0.
        3    1    3    3  502    0 -0.16881914523E+03  0.88111880245E+03 -0.21087140684E+03  0.92159481783E+03  0.10100000352E+00 0.  1.
       -3    1    3    3    0  502  0.16881914523E+03 -0.88111880245E+03  0.11420111792E+04  0.14522602355E+04  0.10100000352E+00 0. -1.
</event>
<event>
 5   0  0.1252124E-04  0.2229254E+04  0.7818609E-02  0.8506350E-01
       -2   -1    0    0    0  501  0.00000000000E+00  0.00000000000E+00  0.47517130329E+03  0.47517130330E+03  0.25500000920E-02 0.  1.
        2   -1    0    0  501    0  0.00000000000E+00  0.00000000000E+00 -0.26146217421E+04  0.26146217421E+04  0.25500000920E-02 0. -1.
    10030    2    1    2    0    0  0.00000000000E+00  0.00000000000E+00 -0.21394504388E+04  0.30897930454E+04  0.22292538849E+04 0.  0.
        3    1    3    3  502    0 -0.95020712062E+03 -0.42660374359E+03 -0.51964961192E+03  0.11640103331E+04  0.10100000352E+00 0.  1.
       -3    1    3    3    0  502  0.95020712062E+03  0.42660374359E+03 -0.16198008268E+04  0.19257827123E+04  0.10100000352E+00 0. -1.
</event>
<event>
 5   0  0.5849604E-05  0.2146401E+04  0.7818609E-02  0.8541074E-01
        1   -1    0    0  501    0  0.00000000000E+00  0.00000000000E+00  0.10033483609E+04  0.10033483609E+04  0.50400001928E-02 0.  1.
       -1   -1    0    0    0  501  0.00000000000E+00  0.00000000000E+00 -0.11479161949E+04  0.11479161949E+04  0.50400001928E-02 0. -1.
    10030    2    1    2    0    0  0.00000000000E+00  0.00000000000E+00 -0.14456783394E+03  0.21512645558E+04  0.21464014840E+04 0.  0.
        2    1    3    3  502    0 -0.75605381697E+03 -0.74767003865E+03  0.73413842291E+02  0.10658411951E+04  0.25500000920E-02 0.  1.
       -2    1    3    3    0  502  0.75605381697E+03  0.74767003865E+03 -0.21798167623E+03  0.10854233607E+04  0.25500000920E-02 0. -1.
</event>
<event>
 5   0  0.1311472E-04  0.2151457E+04  0.7818609E-02  0.8538909E-01
       -2   -1    0    0    0  501  0.00000000000E+00  0.00000000000E+00  0.11654481713E+04  0.11654481713E+04  0.25500000920E-02 0. -1.
        2   -1    0    0  501    0  0.00000000000E+00  0.00000000000E+00 -0.99291608604E+03  0.99291608604E+03  0.25500000920E-02 0.  1.
    10030    2    1    2    0    0  0.00000000000E+00  0.00000000000E+00  0.17253208527E+03  0.21583642573E+04  0.21514574007E+04 0.  0.
        4    1    3    3  502    0  0.78379852006E+03 -0.64362931925E+03 -0.27348215950E+03  0.10504251164E+04  0.12699999809E+01 0. -1.
       -4    1    3    3    0  502 -0.78379852006E+03  0.64362931925E+03  0.44601424477E+03  0.11079391410E+04  0.12699999809E+01 0.  1.
</event>
<event>
 5   0  0.5861816E-05  0.2114997E+04  0.7818609E-02  0.8554666E-01
       -1   -1    0    0    0  501  0.00000000000E+00  0.00000000000E+00  0.16265935273E+04  0.16265935273E+04  0.50400001928E-02 0. -1.
        1   -1    0    0  501    0  0.00000000000E+00  0.00000000000E+00 -0.68751251324E+03  0.68751251326E+03  0.50400001928E-02 0.  1.
    10030    2    1    2    0    0  0.00000000000E+00  0.00000000000E+00  0.93908101404E+03  0.23141060405E+04  0.21149973087E+04 0.  0.
        1    1    3    3  502    0  0.57509779690E+03 -0.46026863349E+03 -0.36065161870E+03  0.82015503478E+03  0.50400001928E-02 0.  1.
       -1    1    3    3    0  502 -0.57509779690E+03  0.46026863349E+03  0.12997326327E+04  0.14939510058E+04  0.50400001928E-02 0. -1.
</event>
<event>
 5   0  0.1252124E-04  0.1941296E+04  0.7818609E-02  0.8634569E-01
       -2   -1    0    0    0  501  0.00000000000E+00  0.00000000000E+00  0.10600795717E+04  0.10600795717E+04  0.25500000920E-02 0.  1.
        2   -1    0    0  501    0  0.00000000000E+00  0.00000000000E+00 -0.88876153980E+03  0.88876153980E+03  0.25500000920E-02 0. -1.
    10030    2    1    2    0    0  0.00000000000E+00  0.00000000000E+00  0.17131803192E+03  0.19488411115E+04  0.19412964250E+04 0.  0.
        3    1    3    3  502    0  0.80814166308E+03  0.32273349524E+03 -0.34602158158E+03  0.93647253119E+03  0.10100000352E+00 0.  1.
       -3    1    3    3    0  502 -0.80814166308E+03 -0.32273349524E+03  0.51733961350E+03  0.10123685803E+04  0.10100000352E+00 0. -1.
</event>
<event>
 5   0  0.5861816E-05  0.2189459E+04  0.7818609E-02  0.8522828E-01
       -1   -1    0    0    0  501  0.00000000000E+00  0.00000000000E+00  0.12493716991E+04  0.12493716991E+04  0.50400001928E-02 0. -1.
        1   -1    0    0  501    0  0.00000000000E+00  0.00000000000E+00 -0.95922837096E+03  0.95922837098E+03  0.50400001928E-02 0.  1.
    10030    2    1    2    0    0  0.00000000000E+00  0.00000000000E+00  0.29014332813E+03  0.22086000701E+04  0.21894590927E+04 0.  0.
        1    1    3    3  502    0 -0.52571651475E+03 -0.91950450819E+03 -0.13405371007E+03  0.10676313932E+04  0.50400001928E-02 0.  1.
       -1    1    3    3    0  502  0.52571651475E+03  0.91950450819E+03  0.42419703820E+03  0.11409686769E+04  0.50400001928E-02 0. -1.
</event>
<event>
 5   0  0.1404159E-04  0.2179467E+04  0.7818609E-02  0.8527023E-01
       -2   -1    0    0    0  501  0.00000000000E+00  0.00000000000E+00  0.55742161557E+03  0.55742161558E+03  0.25500000920E-02 0.  1.
        2   -1    0    0  501    0  0.00000000000E+00  0.00000000000E+00 -0.21303777357E+04  0.21303777357E+04  0.25500000920E-02 0. -1.
    10030    2    1    2    0    0  0.00000000000E+00  0.00000000000E+00 -0.15729561201E+04  0.26877993513E+04  0.21794665395E+04 0.  0.
        5    1    3    3  502    0 -0.65266841147E+03  0.85363810699E+03 -0.56305291676E+03  0.12131466317E+04  0.46999998093E+01 0. -1.
       -5    1    3    3    0  502  0.65266841147E+03 -0.85363810699E+03 -0.10099032033E+04  0.14746527195E+04  0.46999998093E+01 0.  1.
</event>
<event>
 5   0  0.4586375E-05  0.2142097E+04  0.7818609E-02  0.8542923E-01
        3   -1    0    0  501    0  0.00000000000E+00  0.00000000000E+00  0.21712544875E+04  0.21712544898E+04  0.10100000352E+00 0. -1.
       -3   -1    0    0    0  501  0.00000000000E+00  0.00000000000E+00 -0.52833265132E+03  0.52833266098E+03  0.10100000352E+00 0.  1.
    10030    2    1    2    0    0  0.00000000000E+00  0.00000000000E+00  0.16429218362E+04  0.26995871508E+04  0.21420967824E+04 0.  0.
        3    1    3    3  502    0  0.11049862266E+03  0.10470622164E+04  0.57387489535E+03  0.11991170236E+04  0.10100000352E+00 0.  1.
       -3    1    3    3    0  502 -0.11049862266E+03 -0.10470622164E+04  0.10690469408E+04  0.15004701272E+04  0.10100000352E+00 0. -1.
</event>
<event>
 5   0  0.5981239E-05  0.2147781E+04  0.7818609E-02  0.8540483E-01
        1   -1    0    0  501    0  0.00000000000E+00  0.00000000000E+00  0.12511269295E+04  0.12511269295E+04  0.50400001928E-02 0.  1.
       -1   -1    0    0    0  501  0.00000000000E+00  0.00000000000E+00 -0.92176132372E+03  0.92176132373E+03  0.50400001928E-02 0. -1.
    10030    2    1    2    0    0  0.00000000000E+00  0.00000000000E+00  0.32936560574E+03  0.21728882532E+04  0.21477806356E+04 0.  0.
        4    1    3    3  502    0 -0.35824410852E+03 -0.99748678017E+02  0.11839072408E+04  0.12409377937E+04  0.12699999809E+01 0.  1.
       -4    1    3    3    0  502  0.35824410852E+03  0.99748678017E+02 -0.85454163506E+03  0.93195045953E+03  0.12699999809E+01 0. -1.
</event>
<event>
 5   0  0.1226021E-04  0.2311094E+04  0.7818609E-02  0.8473560E-01
       -2   -1    0    0    0  501  0.00000000000E+00  0.00000000000E+00  0.13344469259E+04  0.13344469259E+04  0.25500000920E-02 0. -1.
        2   -1    0    0  501    0  0.00000000000E+00  0.00000000000E+00 -0.10006310141E+04  0.10006310141E+04  0.25500000920E-02 0.  1.
    10030    2    1    2    0    0  0.00000000000E+00  0.00000000000E+00  0.33381591177E+03  0.23350779400E+04  0.23110940965E+04 0.  0.
        2    1    3    3  502    0  0.68453239446E+03 -0.75939567558E+03  0.71103419076E+03  0.12453256649E+04  0.25500000920E-02 0. -1.
       -2    1    3    3    0  502 -0.68453239446E+03  0.75939567558E+03 -0.37721827899E+03  0.10897522751E+04  0.25500000920E-02 0.  1.
</event>
<event>
 5   0  0.1252124E-04  0.2176230E+04  0.7818609E-02  0.8528387E-01
       -2   -1    0    0    0  501  0.00000000000E+00  0.00000000000E+00  0.11232281770E+04  0.11232281770E+04  0.25500000920E-02 0.  1.
        2   -1    0    0  501    0  0.00000000000E+00  0.00000000000E+00 -0.10540994700E+04  0.10540994700E+04  0.25500000920E-02 0. -1.
    10030    2    1    2    0    0  0.00000000000E+00  0.00000000000E+00  0.69128707036E+02  0.21773276469E+04  0.21762299750E+04 0.  0.
        3    1    3    3  502    0 -0.39136737313E+03 -0.97675957173E+03 -0.24264313987E+03  0.10798626696E+04  0.10100000352E+00 0. -1.
       -3    1    3    3    0  502  0.39136737313E+03  0.97675957173E+03  0.31177184690E+03  0.10974649773E+04  0.10100000352E+00 0.  1.
</event>
<event>
 5   0  0.5895063E-05  0.2179314E+04  0.7818609E-02  0.8527088E-01
       -1   -1    0    0    0  501  0.00000000000E+00  0.00000000000E+00  0.11106634286E+04  0.11106634287E+04  0.50400001928E-02 0. -1.
        1   -1    0    0  501    0  0.00000000000E+00  0.00000000000E+00 -0.10690479721E+04  0.10690479722E+04  0.50400001928E-02 0.  1.
    10030    2    1    2    0    0  0.00000000000E+00  0.00000000000E+00  0.41615456503E+02  0.21797114008E+04  0.21793140996E+04 0.  0.
        5    1    3    3  502    0 -0.41271047764E+03  0.24206943827E+03 -0.95835125842E+03  0.10711614145E+04  0.46999998093E+01 0.  1.
       -5    1    3    3    0  502  0.41271047764E+03 -0.24206943827E+03  0.99996671492E+03  0.11085499864E+04  0.46999998093E+01 0. -1.
</event>
<event>
 5   0  0.1404159E-04  0.2162234E+04  0.7818609E-02  0.8534314E-01
        2   -1    0    0  501    0  0.00000000000E+00  0.00000000000E+00  0.23948705856E+04  0.23948705856E+04  0.25500000920E-02 0. -1.
       -2   -1    0    0    0  501  0.00000000000E+00  0.00000000000E+00 -0.48804885214E+03  0.48804885214E+03  0.25500000920E-02 0.  1.
    10030    2    1    2    0    0  0.00000000000E+00  0.00000000000E+00  0.19068217334E+04  0.28829194377E+04  0.21622338822E+04 0.  0.
        5    1    3    3  502    0 -0.44202753163E+03  0.97593346833E+03  0.11464286237E+04  0.15691256013E+04  0.46999998093E+01 0. -1.
       -5    1    3    3    0  502  0.44202753163E+03 -0.97593346833E+03  0.76039310971E+03  0.13137938364E+04  0.46999998093E+01 0.  1.
</event>
<event>
 5   0  0.1311472E-04  0.2161522E+04  0.7818609E-02  0.8534616E-01
       -2   -1    0    0    0  501  0.00000000000E+00  0.00000000000E+00  0.61118827644E+03  0.61118827645E+03  0.25500000920E-02 0. -1.
        2   -1    0    0  501    0  0.00000000000E+00  0.00000000000E+00 -0.19111045336E+04  0.19111045336E+04  0.25500000920E-02 0.  1.
    10030    2    1    2    0    0  0.00000000000E+00  0.00000000000E+00 -0.12999162571E+04  0.25222928100E+04  0.21615223209E+04 0.  0.
        4    1    3    3  502    0 -0.18804028016E+03 -0.76715629989E+03 -0.15107479922E+04  0.17047724318E+04  0.12699999809E+01 0.  1.
       -4    1    3    3    0  502  0.18804028016E+03  0.76715629989E+03  0.21083173505E+03  0.81752037823E+03  0.12699999809E+01 0. -1.
</event>
<event>
 5   0  0.1226021E-04  0.2157849E+04  0.7818609E-02  0.8536180E-01
        2   -1    0    0  501    0  0.00000000000E+00  0.00000000000E+00  0.23270899683E+04  0.23270899683E+04  0.25500000920E-02 0. -1.
       -2   -1    0    0    0  501  0.00000000000E+00  0.00000000000E+00 -0.50022904690E+03  0.50022904691E+03  0.25500000920E-02 0.  1.
    10030    2    1    2    0    0  0.00000000000E+00  0.00000000000E+00  0.18268609214E+04  0.28273190153E+04  0.21578489261E+04 0.  0.
        2    1    3    3  502    0  0.53394980414E+03 -0.91538261012E+03  0.64796266501E+03  0.12421285487E+04  0.25500000920E-02 0.  1.
       -2    1    3    3    0  502 -0.53394980414E+03  0.91538261012E+03  0.11788982564E+04  0.15851904666E+04  0.25500000920E-02 0. -1.
</event>
<event>
 5   0  0.5849604E-05  0.2240747E+04  0.7818609E-02  0.8501657E-01
        1   -1    0    0  501    0  0.00000000000E+00  0.00000000000E+00  0.96376378339E+03  0.96376378341E+03  0.50400001928E-02 0. -1.
       -1   -1    0    0    0  501  0.00000000000E+00  0.00000000000E+00 -0.13024324653E+04  0.13024324653E+04  0.50400001928E-02 0.  1.
    10030    2    1    2    0    0  0.00000000000E+00  0.00000000000E+00 -0.33866868193E+03  0.22661962487E+04  0.22407474114E+04 0.  0.
        2    1    3    3  502    0  0.65264997202E+03 -0.18041903197E+01  0.75165739269E+03  0.99546174064E+03  0.25500000920E-02 0. -1.
       -2    1    3    3    0  502 -0.65264997202E+03  0.18041903197E+01 -0.10903260746E+04  0.12707345081E+04  0.25500000920E-02 0.  1.
</event>
<event>
 5   0  0.1226021E-04  0.2217138E+04  0.7818609E-02  0.8511329E-01
       -2   -1    0    0    0  501  0.00000000000E+00  0.00000000000E+00  0.71916641980E+03  0.71916641980E+03  0.25500000920E-02 0. -1.
        2   -1    0    0  501    0  0.00000000000E+00  0.00000000000E+00 -0.17088183954E+04  0.17088183954E+04  0.25500000920E-02 0.  1.
    10030    2    1    2    0    0  0.00000000000E+00  0.00000000000E+00 -0.98965197557E+03  0.24279848152E+04  0.22171376209E+04 0.  0.
        2    1    3    3  502    0  0.94008251367E+03 -0.42750403363E+03 -0.53499832839E+02  0.10341068917E+04  0.25500000920E-02 0.  1.
       -2    1    3    3    0  502 -0.94008251367E+03  0.42750403363E+03 -0.93615214273E+03  0.13938779235E+04  0.25500000920E-02 0. -1.
</event>
<event>
 5   0  0.1404159E-04  0.2458834E+04  0.7818609E-02  0.8417800E-01
       -2   -1    0    0    0  501  0.00000000000E+00  0.00000000000E+00  0.70186631941E+03  0.70186631941E+03  0.25500000920E-02 0.  1.
        2   -1    0    0  501    0  0.00000000000E+00  0.00000000000E+00 -0.21534956095E+04  0.21534956095E+04  0.25500000920E-02 0. -1.
    10030    2    1    2    0    0  0.00000000000E+00  0.00000000000E+00 -0.14516292901E+04  0.28553619289E+04  0.24588339003E+04 0.  0.
        5    1    3    3  502    0 -0.13648435038E+03 -0.10362700580E+04  0.25840141194E+02  0.10455493360E+04  0.46999998093E+01 0.  1.
       -5    1    3    3    0  502  0.13648435038E+03  0.10362700580E+04 -0.14774694313E+04  0.18098125929E+04  0.46999998093E+01 0. -1.
</event>
<event>
 5   0  0.1311472E-04  0.2245334E+04  0.7818609E-02  0.8499792E-01
       -2   -1    0    0    0  501  0.00000000000E+00  0.00000000000E+00  0.14955592127E+04  0.14955592127E+04  0.25500000920E-02 0.  1.
        2   -1    0    0  501    0  0.00000000000E+00  0.00000000000E+00 -0.84274928941E+03  0.84274928941E+03  0.25500000920E-02 0. -1.
    10030    2    1    2    0    0  0.00000000000E+00  0.00000000000E+00  0.65280992328E+03  0.23383085021E+04  0.22453342413E+04 0.  0.
        4    1    3    3  502    0  0.37897373036E+02  0.62138460674E+03 -0.64653121215E+03  0.89752953242E+03  0.12699999809E+01 0. -1.
       -4    1    3    3    0  502 -0.37897373036E+02 -0.62138460674E+03  0.12993411354E+04  0.14407789697E+04  0.12699999809E+01 0.  1.
</event>
<event>
 5   0  0.1226021E-04  0.2195917E+04  0.7818609E-02  0.8520129E-01
       -2   -1    0    0    0  501  0.00000000000E+00  0.00000000000E+00  0.73952301181E+03  0.73952301181E+03  0.25500000920E-02 0. -1.
        2   -1    0    0  501    0  0.00000000000E+00  0.00000000000E+00 -0.16301226167E+04  0.16301226167E+04  0.25500000920E-02 0.  1.
    10030    2    1    2    0    0  0.00000000000E+00  0.00000000000E+00 -0.89059960484E+03  0.23696456285E+04  0.21959172909E+04 0.  0.
        2    1    3    3  502    0  0.33841473917E+03 -0.96151117199E+03 -0.49935292321E+01  0.10193395925E+04  0.25500000920E-02 0. -1.
       -2    1    3    3    0  502 -0.33841473917E+03  0.96151117199E+03 -0.88560607561E+03  0.13503060359E+04  0.25500000920E-02 0.  1.
</event>
<event>
 5   0  0.1404159E-04  0.2470310E+04  0.7818609E-02  0.8413640E-01
        2   -1    0    0  501    0  0.00000000000E+00  0.00000000000E+00  0.19522091094E+04  0.19522091094E+04  0.25500000920E-02 0. -1.
       -2   -1    0    0    0  501  0.00000000000E+00  0.00000000000E+00 -0.78147753013E+03  0.78147753014E+03  0.25500000920E-02 0.  1.
    10030    2    1    2    0    0  0.00000000000E+00  0.00000000000E+00  0.11707315792E+04  0.27336866395E+04  0.24703097402E+04 0.  0.
        5    1    3    3  502    0  0.25881047810E+03  0.11019106988E+04  0.11324369781E+04  0.16011326151E+04  0.46999998093E+01 0. -1.
       -5    1    3    3    0  502 -0.25881047810E+03 -0.11019106988E+04  0.38294601097E+02  0.11325540244E+04  0.46999998093E+01 0.  1.
</event>
<event>
 5   0  0.5861816E-05  0.2199716E+04  0.7818609E-02  0.8518546E-01
       -1   -1    0    0    0  501  0.00000000000E+00  0.00000000000E+00  0.16345716253E+04  0.16345716253E+04  0.50400001928E-02 0.  1.
        1   -1    0    0  501    0  0.00000000000E+00  0.00000000000E+00 -0.74006393487E+03  0.74006393489E+03  0.50400001928E-02 0. -1.
    10030    2    1    2    0    0  0.00000000000E+00  0.00000000000E+00  0.89450769038E+03  0.23746355602E+04  0.21997158988E+04 0.  0.
        1    1    3    3  502    0  0.76510172502E+03 -0.29754457943E+03 -0.34291740460E+03  0.88966610185E+03  0.50400001928E-02 0. -1.
       -1    1    3    3    0  502 -0.76510172502E+03  0.29754457943E+03  0.12374250950E+04  0.14849694583E+04  0.50400001928E-02 0.  1.
</event>
<event>
 5   0  0.1252124E-04  0.2237727E+04  0.7818609E-02  0.8502888E-01
       -2   -1    0    0    0  501  0.00000000000E+00  0.00000000000E+00  0.70294550398E+03  0.70294550398E+03  0.25500000920E-02 0.  1.
        2   -1    0    0  501    0  0.00000000000E+00  0.00000000000E+00 -0.17808708741E+04  0.17808708741E+04  0.25500000920E-02 0. -1.
    10030    2    1    2    0    0  0.00000000000E+00  0.00000000000E+00 -0.10779253701E+04  0.24838163780E+04  0.22377266804E+04 0.  0.
        3    1    3    3  502    0 -0.48018231761E+03  0.36972434231E+03  0.50499282383E+03  0.78885290756E+03  0.10100000352E+00 0.  1.
       -3    1    3    3    0  502  0.48018231761E+03 -0.36972434231E+03 -0.15829181939E+04  0.16949634705E+04  0.10100000352E+00 0. -1.
</event>
<event>
 5   0  0.5861816E-05  0.2172028E+04  0.7818609E-02  0.8530162E-01
        1   -1    0    0  501    0  0.00000000000E+00  0.00000000000E+00  0.11339117971E+04  0.11339117971E+04  0.50400001928E-02 0.  1.
       -1   -1    0    0    0  501  0.00000000000E+00  0.00000000000E+00 -0.10401395166E+04  0.10401395166E+04  0.50400001928E-02 0. -1.
    10030    2    1    2    0    0  0.00000000000E+00  0.00000000000E+00  0.93772280565E+02  0.21740513137E+04  0.21720280555E+04 0.  0.
        1    1    3    3  502    0  0.60211617689E+03 -0.64845113658E+03  0.67707066247E+03  0.11142070943E+04  0.50400001928E-02 0.  1.
       -1    1    3    3    0  502 -0.60211617689E+03  0.64845113658E+03 -0.58329838191E+03  0.10598442194E+04  0.50400001928E-02 0. -1.
</event>
<event>
 5   0  0.1226021E-04  0.1785574E+04  0.7818609E-02  0.8714009E-01
        2   -1    0    0  501    0  0.00000000000E+00  0.00000000000E+00  0.12222275933E+04  0.12222275933E+04  0.25500000920E-02 0. -1.
       -2   -1    0    0    0  501  0.00000000000E+00  0.00000000000E+00 -0.65214436981E+03  0.65214436982E+03  0.25500000920E-02 0.  1.
    10030    2    1    2    0    0  0.00000000000E+00  0.00000000000E+00  0.57008322350E+03  0.18743719631E+04  0.17855742422E+04 0.  0.
        2    1    3    3  502    0 -0.71091998038E+03 -0.49382213126E+03  0.55533601828E+02  0.86738197858E+03  0.25500000920E-02 0.  1.
       -2    1    3    3    0  502  0.71091998038E+03  0.49382213126E+03  0.51454962167E+03  0.10069899846E+04  0.25500000920E-02 0. -1.
</event>
<event>
 5   0  0.1404159E-04  0.2115665E+04  0.7818609E-02  0.8554374E-01
        2   -1    0    0  501    0  0.00000000000E+00  0.00000000000E+00  0.15817756652E+04  0.15817756652E+04  0.25500000920E-02 0.  1.
       -2   -1    0    0    0  501  0.00000000000E+00  0.00000000000E+00 -0.70743875011E+03  0.70743875012E+03  0.25500000920E-02 0. -1.
    10030    2    1    2    0    0  0.00000000000E+00  0.00000000000E+00  0.87433691506E+03  0.22892144153E+04  0.21156648123E+04 0.  0.
        5    1    3    3  502    0  0.26929315339E+03  0.78415574426E+03 -0.27365927854E+03  0.87311541302E+03  0.46999998093E+01 0. -1.
       -5    1    3    3    0  502 -0.26929315339E+03 -0.78415574426E+03  0.11479961936E+04  0.14160990023E+04  0.46999998093E+01 0.  1.
</event>
<event>
 5   0  0.5861816E-05  0.2241162E+04  0.7818609E-02  0.8501488E-01
       -1   -1    0    0    0  501  0.00000000000E+00  0.00000000000E+00  0.90896705970E+03  0.90896705971E+03  0.50400001928E-02 0. -1.
        1   -1    0    0  501    0  0.00000000000E+00  0.00000000000E+00 -0.13814603720E+04  0.13814603720E+04  0.50400001928E-02 0.  1.
    10030    2    1    2    0    0  0.00000000000E+00  0.00000000000E+00 -0.47249331226E+03  0.22904274317E+04  0.22411621739E+04 0.  0.
        1    1    3    3  502    0  0.75567641849E+03 -0.36395523108E+03 -0.99567743529E+03  0.13018770352E+04  0.50400001928E-02 0.  1.
       -1    1    3    3    0  502 -0.75567641849E+03  0.36395523108E+03  0.52318412303E+03  0.98855039645E+03  0.50400001928E-02 0. -1.
</event>
<event>
 5   0  0.5981239E-05  0.2194836E+04  0.7818609E-02  0.8520581E-01
       -1   -1    0    0    0  501  0.00000000000E+00  0.00000000000E+00  0.65002090665E+03  0.65002090667E+03  0.50400001928E-02 0. -1.
        1   -1    0    0  501    0  0.00000000000E+00  0.00000000000E+00 -0.18527494531E+04  0.18527494531E+04  0.50400001928E-02 0.  1.
    10030    2    1    2    0    0  0.00000000000E+00  0.00000000000E+00 -0.12027285465E+04  0.25027703598E+04  0.21948356470E+04 0.  0.
        4    1    3    3  502    0  0.96949304534E+03  0.24781458086E+03 -0.87602090112E+02  0.10044921954E+04  0.12699999809E+01 0. -1.
       -4    1    3    3    0  502 -0.96949304534E+03 -0.24781458086E+03 -0.11151264564E+04  0.14982781644E+04  0.12699999809E+01 0.  1.
</event>
<event>
 5   0  0.5895063E-05  0.2077102E+04  0.7818609E-02  0.8571398E-01
        1   -1    0    0  501    0  0.00000000000E+00  0.00000000000E+00  0.27501039729E+04  0.27501039729E+04  0.50400001928E-02 0.  1.
       -1   -1    0    0    0  501  0.00000000000E+00  0.00000000000E+00 -0.39219898461E+03  0.39219898465E+03  0.50400001928E-02 0. -1.
    10030    2    1    2    0    0  0.00000000000E+00  0.00000000000E+00  0.23579049883E+04  0.31423029575E+04  0.20771018134E+04 0.  0.
        5    1    3    3  502    0 -0.50954401018E+03  0.28491607843E+03  0.24783617188E+04  0.25461954303E+04  0.46999998093E+01 0.  1.
       -5    1    3    3    0  502  0.50954401018E+03 -0.28491607843E+03 -0.12045673056E+03  0.59610752721E+03  0.46999998093E+01 0. -1.
</event>
<event>
 5   0  0.4586375E-05  0.2250763E+04  0.7818609E-02  0.8497592E-01
        3   -1    0    0  501    0  0.00000000000E+00  0.00000000000E+00  0.98552985420E+03  0.98552985937E+03  0.10100000352E+00 0. -1.
       -3   -1    0    0    0  501  0.00000000000E+00  0.00000000000E+00 -0.12850782717E+04  0.12850782757E+04  0.10100000352E+00 0.  1.
    10030    2    1    2    0    0  0.00000000000E+00  0.00000000000E+00 -0.29954841749E+03  0.22706081350E+04  0.22507625482E+04 0.  0.
        3    1    3    3  502    0  0.39169067713E+03  0.14060075820E+03 -0.12046000528E+04  0.12744612419E+04  0.10100000352E+00 0.  1.
       -3    1    3    3    0  502 -0.39169067713E+03 -0.14060075820E+03  0.90505163534E+03  0.99614689308E+03  0.10100000352E+00 0. -1.
</event>
<event>
 5   0  0.4586375E-05  0.2172531E+04  0.7818609E-02  0.8529949E-01
        3   -1    0    0  501    0  0.00000000000E+00  0.00000000000E+00  0.13507940485E+04  0.13507940523E+04  0.10100000352E+00 0. -1.
       -3   -1    0    0    0  501  0.00000000000E+00  0.00000000000E+00 -0.87354019656E+03  0.87354020240E+03  0.10100000352E+00 0.  1.
    10030    2    1    2    0    0  0.00000000000E+00  0.00000000000E+00  0.47725385198E+03  0.22243342547E+04  0.21725311591E+04 0.  0.
        2    1    3    3  502    0  0.96828543931E+03  0.26124419527E+03  0.66588757161E+03  0.12038403048E+04  0.25500000920E-02 0. -1.
       -2    1    3    3    0  502 -0.96828543931E+03 -0.26124419527E+03 -0.18863371963E+03  0.10204939499E+04  0.25500000920E-02 0.  1.
</event>
<event>
 5   0  0.6263558E-05  0.2208251E+04  0.7818609E-02  0.8515002E-01
        1   -1    0    0  501    0  0.00000000000E+00  0.00000000000E+00  0.12503278211E+04  0.12503278211E+04  0.50400001928E-02 0.  1.
       -1   -1    0    0    0  501  0.00000000000E+00  0.00000000000E+00 -0.97501845698E+03  0.97501845699E+03  0.50400001928E-02 0. -1.
    10030    2    1    2    0    0  0.00000000000E+00  0.00000000000E+00  0.27530936413E+03  0.22253462781E+04  0.22082506224E+04 0.  0.
        3    1    3    3  502    0  0.25231418941E+03 -0.19128981262E+03  0.12035950990E+04  0.12445462688E+04  0.10100000352E+00 0.  1.
       -3    1    3    3    0  502 -0.25231418941E+03  0.19128981262E+03 -0.92828573486E+03  0.98080000935E+03  0.10100000352E+00 0. -1.
</event>
<event>
 5   0  0.1404159E-04  0.2880405E+04  0.7818609E-02  0.8278731E-01
       -2   -1    0    0    0  501  0.00000000000E+00  0.00000000000E+00  0.15394603864E+04  0.15394603864E+04  0.25500000920E-02 0.  1.
        2   -1    0    0  501    0  0.00000000000E+00  0.00000000000E+00 -0.13473447897E+04  0.13473447897E+04  0.25500000920E-02 0. -1.
    10030    2    1    2    0    0  0.00000000000E+00  0.00000000000E+00  0.19211559668E+03  0.28868051761E+04  0.28804054788E+04 0.  0.
        5    1    3    3  502    0 -0.48625570556E+03 -0.70977587380E+03  0.12535851242E+04  0.15204355152E+04  0.46999998093E+01 0.  1.
       -5    1    3    3    0  502  0.48625570556E+03  0.70977587380E+03 -0.10614695276E+04  0.13663696609E+04  0.46999998093E+01 0. -1.
</event>
<event>
 5   0  0.4586375E-05  0.2225059E+04  0.7818609E-02  0.8508070E-01
        3   -1    0    0  501    0  0.00000000000E+00  0.00000000000E+00  0.14396724047E+04  0.14396724082E+04  0.10100000352E+00 0.  1.
       -3   -1    0    0    0  501  0.00000000000E+00  0.00000000000E+00 -0.85972446549E+03  0.85972447143E+03  0.10100000352E+00 0. -1.
    10030    2    1    2    0    0  0.00000000000E+00  0.00000000000E+00  0.57994793918E+03  0.22993968796E+04  0.22250587403E+04 0.  0.
        2    1    3    3  502    0  0.25971411926E+03  0.26567784559E+03  0.13736680426E+04  0.14230249586E+04  0.25500000920E-02 0.  1.
       -2    1    3    3    0  502 -0.25971411926E+03 -0.26567784559E+03 -0.79372010346E+03  0.87637192106E+03  0.25500000920E-02 0. -1.
</event>
<event>
 5   0  0.1404159E-04  0.2151349E+04  0.7818609E-02  0.8538955E-01
       -2   -1    0    0    0  501  0.00000000000E+00  0.00000000000E+00  0.13679325787E+04  0.13679325787E+04  0.25500000920E-02 0. -1.
        2   -1    0    0  501    0  0.00000000000E+00  0.00000000000E+00 -0.84585708561E+03  0.84585708562E+03  0.25500000920E-02 0.  1.
    10030    2    1    2    0    0  0.00000000000E+00  0.00000000000E+00  0.52207549310E+03  0.22137896643E+04  0.21513488461E+04 0.  0.
        5    1    3    3  502    0 -0.55110586375E+03 -0.34709441044E+03 -0.61988205813E+03  0.89914851877E+03  0.46999998093E+01 0.  1.
       -5    1    3    3    0  502  0.55110586375E+03  0.34709441044E+03  0.11419575512E+04  0.13146411456E+04  0.46999998093E+01 0. -1.
</event>
<event>
 5   0  0.5981239E-05  0.2119178E+04  0.7818609E-02  0.8552842E-01
        1   -1    0    0  501    0  0.00000000000E+00  0.00000000000E+00  0.11253622087E+04  0.11253622087E+04  0.50400001928E-02 0.  1.
       -1   -1    0    0    0  501  0.00000000000E+00  0.00000000000E+00 -0.99765962032E+03  0.99765962034E+03  0.50400001928E-02 0. -1.
    10030    2    1    2    0    0  0.00000000000E+00  0.00000000000E+00  0.12770258839E+03  0.21230218291E+04  0.21191776083E+04 0.  0.
        4    1    3    3  502    0 -0.52605499986E+03  0.83644349476E+03  0.44710930271E+03  0.10845643938E+04  0.12699999809E+01 0.  1.
       -4    1    3    3    0  502  0.52605499986E+03 -0.83644349476E+03 -0.31940671432E+03  0.10384574353E+04  0.12699999809E+01 0. -1.
</event>
<event>
 5   0  0.5895063E-05  0.2170821E+04  0.7818609E-02  0.8530672E-01
        1   -1    0    0  501    0  0.00000000000E+00  0.00000000000E+00  0.10985444474E+04  0.10985444474E+04  0.50400001928E-02 0. -1.
       -1   -1    0    0    0  501  0.00000000000E+00  0.00000000000E+00 -0.10724337816E+04  0.10724337816E+04  0.50400001928E-02 0.  1.
    10030    2    1    2    0    0  0.00000000000E+00  0.00000000000E+00  0.26110665790E+02  0.21709782290E+04  0.21708212050E+04 0.  0.
        5    1    3    3  502    0  0.85526301808E+03  0.41989972087E+03  0.53300012416E+03  0.10917425649E+04  0.46999998093E+01 0.  1.
       -5    1    3    3    0  502 -0.85526301808E+03 -0.41989972087E+03 -0.50688945837E+03  0.10792356641E+04  0.46999998093E+01 0. -1.
</event>
<event>
 5   0  0.1252124E-04  0.2461427E+04  0.7818609E-02  0.8416858E-01
       -2   -1    0    0    0  501  0.00000000000E+00  0.00000000000E+00  0.56833777839E+03  0.56833777840E+03  0.25500000920E-02 0.  1.
        2   -1    0    0  501    0  0.00000000000E+00  0.00000000000E+00 -0.26650631059E+04  0.26650631059E+04  0.25500000920E-02 0. -1.
    10030    2    1    2    0    0  0.00000000000E+00  0.00000000000E+00 -0.20967253275E+04  0.32334008843E+04  0.24614272647E+04 0.  0.
        3    1    3    3  502    0  0.50119725505E+03 -0.48278989213E+03  0.28506486038E+03  0.75202842581E+03  0.10100000352E+00 0.  1.
       -3    1    3    3    0  502 -0.50119725505E+03  0.48278989213E+03 -0.23817901879E+04  0.24813724585E+04  0.10100000352E+00 0. -1.
</event>
<event>
 5   0  0.1404159E-04  0.2142789E+04  0.7818609E-02  0.8542625E-01
       -2   -1    0    0    0  501  0.00000000000E+00  0.00000000000E+00  0.65572941559E+03  0.65572941560E+03  0.25500000920E-02 0.  1.
        2   -1    0    0  501    0  0.00000000000E+00  0.00000000000E+00 -0.17505488008E+04  0.17505488008E+04  0.25500000920E-02 0. -1.
    10030    2    1    2    0    0  0.00000000000E+00  0.00000000000E+00 -0.10948193852E+04  0.24062782164E+04  0.21427891564E+04 0.  0.
        5    1    3    3  502    0  0.20657324874E+02  0.18147972329E+03  0.63810502460E+03  0.66374824101E+03  0.46999998093E+01 0.  1.
       -5    1    3    3    0  502 -0.20657324874E+02 -0.18147972329E+03 -0.17329244098E+04  0.17425299754E+04  0.46999998093E+01 0. -1.
</event>
<event>
 5   0  0.4586375E-05  0.2231491E+04  0.7818609E-02  0.8505434E-01
        3   -1    0    0  501    0  0.00000000000E+00  0.00000000000E+00  0.81218688689E+03  0.81218689317E+03  0.10100000352E+00 0. -1.
       -3   -1    0    0    0  501  0.00000000000E+00  0.00000000000E+00 -0.15327607369E+04  0.15327607402E+04  0.10100000352E+00 0.  1.
    10030    2    1    2    0    0  0.00000000000E+00  0.00000000000E+00 -0.72057385003E+03  0.23449476334E+04  0.22314911450E+04 0.  0.
        4    1    3    3  502    0  0.52910313268E+03  0.37356023973E+03  0.59441405787E+03  0.87910583140E+03  0.12699999809E+01 0. -1.
       -4    1    3    3    0  502 -0.52910313268E+03 -0.37356023973E+03 -0.13149879079E+04  0.14658418020E+04  0.12699999809E+01 0.  1.
</event>
<event>
 5   0  0.1311472E-04  0.2029592E+04  0.7818609E-02  0.8592909E-01
       -2   -1    0    0    0  501  0.00000000000E+00  0.00000000000E+00  0.12429856239E+04  0.12429856239E+04  0.25500000920E-02 0.  1.
        2   -1    0    0  501    0  0.00000000000E+00  0.00000000000E+00 -0.82849758130E+03  0.82849758130E+03  0.25500000920E-02 0. -1.
    10030    2    1    2    0    0  0.00000000000E+00  0.00000000000E+00  0.41448804259E+03  0.20714832052E+04  0.20295916663E+04 0.  0.
        4    1    3    3  502    0 -0.86753443229E+03  0.51850065927E+03  0.30050869156E+03  0.10544031541E+04  0.12699999809E+01 0. -1.
       -4    1    3    3    0  502  0.86753443229E+03 -0.51850065927E+03  0.11397935102E+03  0.10170800510E+04  0.12699999809E+01 0.  1.
</event>
<event>
 5   0  0.5861816E-05  0.2320960E+04  0.7818609E-02  0.8469702E-01
        1   -1    0    0  501    0  0.00000000000E+00  0.00000000000E+00  0.70369618687E+03  0.70369618688E+03  0.50400001928E-02 0. -1.
       -1   -1    0    0    0  501  0.00000000000E+00  0.00000000000E+00 -0.19137723367E+04  0.19137723367E+04  0.50400001928E-02 0.  1.
    10030    2    1    2    0    0  0.00000000000E+00  0.00000000000E+00 -0.12100761498E+04  0.26174685236E+04  0.23209604011E+04 0.  0.
        1    1    3    3  502    0 -0.83140805315E+03 -0.54685076957E+03 -0.12783252828E+04  0.16200001987E+04  0.50400001928E-02 0.  1.
       -1    1    3    3    0  502  0.83140805315E+03  0.54685076957E+03  0.68249132985E+02  0.99746832491E+03  0.50400001928E-02 0. -1.
</event>
<event>
 5   0  0.5849604E-05  0.1997807E+04  0.7818609E-02  0.8607646E-01
        1   -1    0    0  501    0  0.00000000000E+00  0.00000000000E+00  0.18392228609E+04  0.18392228609E+04  0.50400001928E-02 0.  1.
       -1   -1    0    0    0  501  0.00000000000E+00  0.00000000000E+00 -0.54251646499E+03  0.54251646501E+03  0.50400001928E-02 0. -1.
    10030    2    1    2    0    0  0.00000000000E+00  0.00000000000E+00  0.12967063959E+04  0.23817393259E+04  0.19978074831E+04 0.  0.
        2    1    3    3  502    0 -0.76393455226E+03  0.50999381810E+03  0.11163777857E+04  0.14456794441E+04  0.25500000920E-02 0.  1.
       -2    1    3    3    0  502  0.76393455226E+03 -0.50999381810E+03  0.18032861017E+03  0.93605988179E+03  0.25500000920E-02 0. -1.
</event>
<event>
 5   0  0.5981239E-05  0.2185125E+04  0.7818609E-02  0.8524645E-01
        1   -1    0    0  501    0  0.00000000000E+00  0.00000000000E+00  0.80943759452E+03  0.80943759454E+03  0.50400001928E-02 0. -1.
       -1   -1    0    0    0  501  0.00000000000E+00  0.00000000000E+00 -0.14747189261E+04  0.14747189261E+04  0.50400001928E-02 0.  1.
    10030    2    1    2    0    0  0.00000000000E+00  0.00000000000E+00 -0.66528133158E+03  0.22841565207E+04  0.21851251133E+04 0.  0.
        4    1    3    3  502    0  0.75370712230E+03 -0.77937563856E+03 -0.19165594439E+03  0.11010151798E+04  0.12699999809E+01 0. -1.
       -4    1    3    3    0  502 -0.75370712230E+03  0.77937563856E+03 -0.47362538719E+03  0.11831413409E+04  0.12699999809E+01 0.  1.
</event>
<event>
 5   0  0.5981239E-05  0.2061045E+04  0.7818609E-02  0.8578600E-01
        1   -1    0    0  501    0  0.00000000000E+00  0.00000000000E+00  0.67798368540E+03  0.67798368541E+03  0.50400001928E-02 0. -1.
       -1   -1    0    0    0  501  0.00000000000E+00  0.00000000000E+00 -0.15663755056E+04  0.15663755056E+04  0.50400001928E-02 0.  1.
    10030    2    1    2    0    0  0.00000000000E+00  0.00000000000E+00 -0.88839182018E+03  0.22443591910E+04  0.20610454027E+04 0.  0.
        4    1    3    3  502    0  0.85212123202E+03 -0.49206801250E+03 -0.11080546187E+03  0.99021259649E+03  0.12699999809E+01 0. -1.
       -4    1    3    3    0  502 -0.85212123202E+03  0.49206801250E+03 -0.77758635831E+03  0.12541465945E+04  0.12699999809E+01 0.  1.
</event>
<event>
 5   0  0.5861816E-05  0.2189309E+04  0.7818609E-02  0.8522891E-01
        1   -1    0    0  501    0  0.00000000000E+00  0.00000000000E+00  0.14832647495E+04  0.14832647495E+04  0.50400001928E-02 0. -1.
       -1   -1    0    0    0  501  0.00000000000E+00  0.00000000000E+00 -0.80785914350E+03  0.80785914351E+03  0.50400001928E-02 0.  1.
    10030    2    1    2    0    0  0.00000000000E+00  0.00000000000E+00  0.67540560604E+03  0.22911238931E+04  0.21893094712E+04 0.  0.
        1    1    3    3  502    0 -0.84635269996E+03 -0.31594650040E+03 -0.30921515264E+03  0.95485553592E+03  0.50400001928E-02 0.  1.
       -1    1    3    3    0  502  0.84635269996E+03  0.31594650040E+03  0.98462075867E+03  0.13362683571E+04  0.50400001928E-02 0. -1.
</event>
<event>
 5   0  0.5895063E-05  0.2197411E+04  0.7818609E-02  0.8519506E-01
       -1   -1    0    0    0  501  0.00000000000E+00  0.00000000000E+00  0.87793518850E+03  0.87793518852E+03  0.50400001928E-02 0. -1.
        1   -1    0    0  501    0  0.00000000000E+00  0.00000000000E+00 -0.13749919086E+04  0.13749919086E+04  0.50400001928E-02 0.  1.
    10030    2    1    2    0    0  0.00000000000E+00  0.00000000000E+00 -0.49705672010E+03  0.22529270971E+04  0.21974110043E+04 0.  0.
        5    1    3    3  502    0  0.15615318905E+03  0.10851692509E+04 -0.17491203406E+03  0.11102217937E+04  0.46999998093E+01 0.  1.
       -5    1    3    3    0  502 -0.15615318905E+03 -0.10851692509E+04 -0.32214468604E+03  0.11427053034E+04  0.46999998093E+01 0. -1.
</event>
<event>
 5   0  0.1311472E-04  0.2182004E+04  0.7818609E-02  0.8525956E-01
        2   -1    0    0  501    0  0.00000000000E+00  0.00000000000E+00  0.89618640381E+03  0.89618640381E+03  0.25500000920E-02 0. -1.
       -2   -1    0    0    0  501  0.00000000000E+00  0.00000000000E+00 -0.13281674848E+04  0.13281674848E+04  0.25500000920E-02 0.  1.
    10030    2    1    2    0    0  0.00000000000E+00  0.00000000000E+00 -0.43198108094E+03  0.22243538886E+04  0.21820042546E+04 0.  0.
        4    1    3    3  502    0  0.21151889230E+03 -0.61810605319E+03 -0.11067277514E+04  0.12851627381E+04  0.12699999809E+01 0.  1.
       -4    1    3    3    0  502 -0.21151889230E+03  0.61810605319E+03  0.67474667049E+03  0.93919115043E+03  0.12699999809E+01 0. -1.
</event>
<event>
 5   0  0.5895063E-05  0.2181473E+04  0.7818609E-02  0.8526179E-01
       -1   -1    0    0    0  501  0.00000000000E+00  0.00000000000E+00  0.68837154933E+03  0.68837154935E+03  0.50400001928E-02 0.  1.
        1   -1    0    0  501    0  0.00000000000E+00  0.00000000000E+00 -0.17282912588E+04  0.17282912588E+04  0.50400001928E-02 0. -1.
    10030    2    1    2    0    0  0.00000000000E+00  0.00000000000E+00 -0.10399197094E+04  0.24166628081E+04  0.21814733842E+04 0.  0.
        5    1    3    3  502    0  0.49131246373E+03 -0.46949061794E+03 -0.14650964094E+04  0.16150352802E+04  0.46999998093E+01 0. -1.
       -5    1    3    3    0  502 -0.49131246373E+03  0.46949061794E+03  0.42517669997E+03  0.80162752794E+03  0.46999998093E+01 0.  1.
</event>
<event>
 5   0  0.1311472E-04  0.2205600E+04  0.7818609E-02  0.8516101E-01
        2   -1    0    0  501    0  0.00000000000E+00  0.00000000000E+00  0.94074265030E+03  0.94074265030E+03  0.25500000920E-02 0. -1.
       -2   -1    0    0    0  501  0.00000000000E+00  0.00000000000E+00 -0.12927744608E+04  0.12927744608E+04  0.25500000920E-02 0.  1.
    10030    2    1    2    0    0  0.00000000000E+00  0.00000000000E+00 -0.35203181052E+03  0.22335171111E+04  0.22056002108E+04 0.  0.
        4    1    3    3  502    0 -0.89606721621E+03 -0.47633863407E+03  0.26110908970E+03  0.10478618802E+04  0.12699999809E+01 0. -1.
       -4    1    3    3    0  502  0.89606721621E+03  0.47633863407E+03 -0.61314090022E+03  0.11856552310E+04  0.12699999809E+01 0.  1.
</event>
<event>
 5   0  0.5861816E-05  0.2062562E+04  0.7818609E-02  0.8577917E-01
        1   -1    0    0  501    0  0.00000000000E+00  0.00000000000E+00  0.14582191004E+04  0.14582191005E+04  0.50400001928E-02 0.  1.
       -1   -1    0    0    0  501  0.00000000000E+00  0.00000000000E+00 -0.72934228411E+03  0.72934228413E+03  0.50400001928E-02 0. -1.
    10030    2    1    2    0    0  0.00000000000E+00  0.00000000000E+00  0.72887681633E+03  0.21875613846E+04  0.20625623380E+04 0.  0.
        1    1    3    3  502    0 -0.55015228523E+02 -0.87888192429E+03  0.93369789250E+03  0.12834531026E+04  0.50400001928E-02 0.  1.
       -1    1    3    3    0  502  0.55015228523E+02  0.87888192429E+03 -0.20482107616E+03  0.90410828194E+03  0.50400001928E-02 0. -1.
</event>
<event>
 5   0  0.1241430E-04  0.2221925E+04  0.7818609E-02  0.8509358E-01
        2   -1    0    0  501    0  0.00000000000E+00  0.00000000000E+00  0.13895394265E+04  0.13895394265E+04  0.25500000920E-02 0.  1.
       -2   -1    0    0    0  501  0.00000000000E+00  0.00000000000E+00 -0.88823481676E+03  0.88823481677E+03  0.25500000920E-02 0. -1.
    10030    2    1    2    0    0  0.00000000000E+00  0.00000000000E+00  0.50130460975E+03  0.22777742433E+04  0.22219246593E+04 0.  0.
        1    1    3    3  502    0 -0.40711622139E+02  0.93302923919E+03 -0.36616621952E+03  0.10031344365E+04  0.50400001928E-02 0. -1.
       -1    1    3    3    0  502  0.40711622139E+02 -0.93302923919E+03  0.86747082927E+03  0.12746398068E+04  0.50400001928E-02 0.  1.
</event>
<event>
 5   0  0.6263558E-05  0.2209883E+04  0.7818609E-02  0.8514326E-01
        1   -1    0    0  501    0  0.00000000000E+00  0.00000000000E+00  0.20818179323E+04  0.20818179324E+04  0.50400001928E-02 0.  1.
       -1   -1    0    0    0  501  0.00000000000E+00  0.00000000000E+00 -0.58645649737E+03  0.58645649739E+03  0.50400001928E-02 0. -1.
    10030    2    1    2    0    0  0.00000000000E+00  0.00000000000E+00  0.14953614350E+04  0.26682744297E+04  0.22098829406E+04 0.  0.
        3    1    3    3  502    0  0.14877099179E+03 -0.85958361369E+03 -0.71128911689E+02  0.87525775015E+03  0.10100000352E+00 0. -1.
       -3    1    3    3    0  502 -0.14877099179E+03  0.85958361369E+03  0.15664903467E+04  0.17930166796E+04  0.10100000352E+00 0.  1.
</event>
<event>
 5   0  0.1226021E-04  0.2218336E+04  0.7818609E-02  0.8510835E-01
        2   -1    0    0  501    0  0.00000000000E+00  0.00000000000E+00  0.10187391923E+04  0.10187391923E+04  0.25500000920E-02 0.  1.
       -2   -1    0    0    0  501  0.00000000000E+00  0.00000000000E+00 -0.12076238585E+04  0.12076238585E+04  0.25500000920E-02 0. -1.
    10030    2    1    2    0    0  0.00000000000E+00  0.00000000000E+00 -0.18888466618E+03  0.22263630507E+04  0.22183360919E+04 0.  0.
        2    1    3    3  502    0 -0.85776948336E+03  0.42835500708E+03  0.46524685678E+03  0.10656974882E+04  0.25500000920E-02 0. -1.
       -2    1    3    3    0  502  0.85776948336E+03 -0.42835500708E+03 -0.65413152296E+03  0.11606655625E+04  0.25500000920E-02 0.  1.
</event>
<event>
 5   0  0.5861816E-05  0.2207385E+04  0.7818609E-02  0.8515361E-01
       -1   -1    0    0    0  501  0.00000000000E+00  0.00000000000E+00  0.60648011428E+03  0.60648011430E+03  0.50400001928E-02 0. -1.
        1   -1    0    0  501    0  0.00000000000E+00  0.00000000000E+00 -0.20085359092E+04  0.20085359092E+04  0.50400001928E-02 0.  1.
    10030    2    1    2    0    0  0.00000000000E+00  0.00000000000E+00 -0.14020557949E+04  0.26150160235E+04  0.22073849576E+04 0.  0.
        1    1    3    3  502    0  0.22111927187E+03 -0.72447318287E+03  0.24994461351E+03  0.79763866188E+03  0.50400001928E-02 0. -1.
       -1    1    3    3    0  502 -0.22111927187E+03  0.72447318287E+03 -0.16520004084E+04  0.18173773616E+04  0.50400001928E-02 0.  1.
</event>
<event>
 5   0  0.6263558E-05  0.2246960E+04  0.7818609E-02  0.8499133E-01
        1   -1    0    0  501    0  0.00000000000E+00  0.00000000000E+00  0.21103466355E+04  0.21103466355E+04  0.50400001928E-02 0. -1.
       -1   -1    0    0    0  501  0.00000000000E+00  0.00000000000E+00 -0.59810404548E+03  0.59810404550E+03  0.50400001928E-02 0.  1.
    10030    2    1    2    0    0  0.00000000000E+00  0.00000000000E+00  0.15122425900E+04  0.27084506810E+04  0.22469595992E+04 0.  0.
        3    1    3    3  502    0  0.52575125826E+03 -0.97043188414E+03  0.10091212389E+04  0.14954859118E+04  0.10100000352E+00 0. -1.
       -3    1    3    3    0  502 -0.52575125826E+03  0.97043188414E+03  0.50312135118E+03  0.12129647693E+04  0.10100000352E+00 0.  1.
</event>
<event>
 5   0  0.5861816E-05  0.2107414E+04  0.7818609E-02  0.8557984E-01
       -1   -1    0    0    0  501  0.00000000000E+00  0.00000000000E+00  0.57775552509E+03  0.57775552512E+03  0.50400001928E-02 0.  1.
        1   -1    0    0  501    0  0.00000000000E+00  0.00000000000E+00 -0.19217445838E+04  0.19217445838E+04  0.50400001928E-02 0. -1.
    10030    2    1    2    0    0  0.00000000000E+00  0.00000000000E+00 -0.13439890587E+04  0.24995001089E+04  0.21074141037E+04 0.  0.
        1    1    3    3  502    0 -0.57434304416E+03 -0.86980592847E+03 -0.48876498065E+03  0.11512269507E+04  0.50400001928E-02 0.  1.
       -1    1    3    3    0  502  0.57434304416E+03  0.86980592847E+03 -0.85522407804E+03  0.13482731583E+04  0.50400001928E-02 0. -1.
</event>
<event>
 5   0  0.1404159E-04  0.2180750E+04  0.7818609E-02  0.8526484E-01
       -2   -1    0    0    0  501  0.00000000000E+00  0.00000000000E+00  0.11295347700E+04  0.11295347700E+04  0.25500000920E-02 0. -1.
        2   -1    0    0  501    0  0.00000000000E+00  0.00000000000E+00 -0.10525724630E+04  0.10525724630E+04  0.25500000920E-02 0.  1.
    10030    2    1    2    0    0  0.00000000000E+00  0.00000000000E+00  0.76962306947E+02  0.21821072330E+04  0.21807495912E+04 0.  0.
        5    1    3    3  502    0 -0.97203929099E+03  0.48884064563E+03 -0.32763909612E+02  0.10885408232E+04  0.46999998093E+01 0.  1.
       -5    1    3    3    0  502  0.97203929099E+03 -0.48884064563E+03  0.10972621656E+03  0.10935664098E+04  0.46999998093E+01 0. -1.
</event>
<event>
 5   0  0.1241430E-04  0.2155953E+04  0.7818609E-02  0.8536989E-01
        2   -1    0    0  501    0  0.00000000000E+00  0.00000000000E+00  0.14536711934E+04  0.14536711934E+04  0.25500000920E-02 0. -1.
       -2   -1    0    0    0  501  0.00000000000E+00  0.00000000000E+00 -0.79937816372E+03  0.79937816372E+03  0.25500000920E-02 0.  1.
    10030    2    1    2    0    0  0.00000000000E+00  0.00000000000E+00  0.65429302967E+03  0.22530493571E+04  0.21559526982E+04 0.  0.
        1    1    3    3  502    0  0.70109512881E+03 -0.72177861986E+03  0.73125858391E+03  0.12438801680E+04  0.50400001928E-02 0. -1.
       -1    1    3    3    0  502 -0.70109512881E+03  0.72177861986E+03 -0.76965554247E+02  0.10091691891E+04  0.50400001928E-02 0.  1.
</event>
<event>
 5   0  0.1241430E-04  0.2211033E+04  0.7818609E-02  0.8513850E-01
        2   -1    0    0  501    0  0.00000000000E+00  0.00000000000E+00  0.18230906079E+04  0.18230906079E+04  0.25500000920E-02 0.  1.
       -2   -1    0    0    0  501  0.00000000000E+00  0.00000000000E+00 -0.67038184393E+03  0.67038184393E+03  0.25500000920E-02 0. -1.
    10030    2    1    2    0    0  0.00000000000E+00  0.00000000000E+00  0.11527087640E+04  0.24934724519E+04  0.22110331010E+04 0.  0.
        1    1    3    3  502    0  0.67733117232E+03 -0.86388240942E+03  0.42889817765E+03  0.11785686154E+04  0.50400001928E-02 0. -1.
       -1    1    3    3    0  502 -0.67733117232E+03  0.86388240942E+03  0.72381058636E+03  0.13149038365E+04  0.50400001928E-02 0.  1.
</event>
<event>
 5   0  0.5849604E-05  0.2212630E+04  0.7818609E-02  0.8513189E-01
       -1   -1    0    0    0  501  0.00000000000E+00  0.00000000000E+00  0.78307696693E+03  0.78307696694E+03  0.50400001928E-02 0.  1.
        1   -1    0    0  501    0  0.00000000000E+00  0.00000000000E+00 -0.15629793769E+04  0.15629793770E+04  0.50400001928E-02 0. -1.
    10030    2    1    2    0    0  0.00000000000E+00  0.00000000000E+00 -0.77990241002E+03  0.23460563439E+04  0.22126302447E+04 0.  0.
        2    1    3    3  502    0  0.15915553088E+03 -0.93574228451E+03 -0.99254338168E+03  0.13733486340E+04  0.25500000920E-02 0. -1.
       -2    1    3    3    0  502 -0.15915553088E+03  0.93574228451E+03  0.21264097166E+03  0.97270770988E+03  0.25500000920E-02 0.  1.
</event>
<event>
 5   0  0.5861816E-05  0.2182427E+04  0.7818609E-02  0.8525778E-01
        1   -1    0    0  501    0  0.00000000000E+00  0.00000000000E+00  0.16702263838E+04  0.16702263838E+04  0.50400001928E-02 0.  1.
       -1   -1    0    0    0  501  0.00000000000E+00  0.00000000000E+00 -0.71292573736E+03  0.71292573738E+03  0.50400001928E-02 0. -1.
    10030    2    1    2    0    0  0.00000000000E+00  0.00000000000E+00  0.95730064640E+03  0.23831521211E+04  0.21824274341E+04 0.  0.
        1    1    3    3  502    0 -0.75187373936E+03 -0.43769707707E+03  0.11979071928E+04  0.14804980560E+04  0.50400001928E-02 0.  1.
       -1    1    3    3    0  502  0.75187373936E+03  0.43769707707E+03 -0.24060654636E+03  0.90265406518E+03  0.50400001928E-02 0. -1.
</event>
<event>
 5   0  0.1404159E-04  0.2231537E+04  0.7818609E-02  0.8505415E-01
        2   -1    0    0  501    0  0.00000000000E+00  0.00000000000E+00  0.17346157979E+04  0.17346157979E+04  0.25500000920E-02 0.  1.
       -2   -1    0    0    0  501  0.00000000000E+00  0.00000000000E+00 -0.71770308877E+03  0.71770308877E+03  0.25500000920E-02 0. -1.
    10030    2    1    2    0    0  0.00000000000E+00  0.00000000000E+00  0.10169127092E+04  0.24523188867E+04  0.22315367942E+04 0.  0.
        5    1    3    3  502    0  0.66077082902E+03  0.84715767019E+03  0.83927629233E+03  0.13633418469E+04  0.46999998093E+01 0.  1.
       -5    1    3    3    0  502 -0.66077082902E+03 -0.84715767019E+03  0.17763641684E+03  0.10889770398E+04  0.46999998093E+01 0. -1.
</event>
<event>
 5   0  0.6263558E-05  0.2183888E+04  0.7818609E-02  0.8525164E-01
        1   -1    0    0  501    0  0.00000000000E+00  0.00000000000E+00  0.10785158786E+04  0.10785158787E+04  0.50400001928E-02 0.  1.
       -1   -1    0    0    0  501  0.00000000000E+00  0.00000000000E+00 -0.11055390955E+04  0.11055390955E+04  0.50400001928E-02 0. -1.
    10030    2    1    2    0    0  0.00000000000E+00  0.00000000000E+00 -0.27023216834E+02  0.21840549741E+04  0.21838877892E+04 0.  0.
        3    1    3    3  502    0 -0.66102240026E+03 -0.43386078796E+03  0.73964342275E+03  0.10827087328E+04  0.10100000352E+00 0.  1.
       -3    1    3    3    0  502  0.66102240026E+03  0.43386078796E+03 -0.76666663958E+03  0.11013462414E+04  0.10100000352E+00 0. -1.
</event>
<event>
 5   0  0.5981239E-05  0.2159139E+04  0.7818609E-02  0.8535630E-01
       -1   -1    0    0    0  501  0.00000000000E+00  0.00000000000E+00  0.78488273267E+03  0.78488273269E+03  0.50400001928E-02 0. -1.
        1   -1    0    0  501    0  0.00000000000E+00  0.00000000000E+00 -0.14848978097E+04  0.14848978097E+04  0.50400001928E-02 0.  1.
    10030    2    1    2    0    0  0.00000000000E+00  0.00000000000E+00 -0.70001507700E+03  0.22697805424E+04  0.21591393199E+04 0.  0.
        4    1    3    3  502    0 -0.47191285291E+03 -0.29101091057E+03 -0.13238015035E+04  0.14352146614E+04  0.12699999809E+01 0.  1.
       -4    1    3    3    0  502  0.47191285291E+03  0.29101091057E+03  0.62378642652E+03  0.83456588093E+03  0.12699999809E+01 0. -1.
</event>
<event>
 5   0  0.1252124E-04  0.2155037E+04  0.7818609E-02  0.8537379E-01
       -2   -1    0    0    0  501  0.00000000000E+00  0.00000000000E+00  0.65391449044E+03  0.65391449044E+03  0.25500000920E-02 0.  1.
        2   -1    0    0  501    0  0.00000000000E+00  0.00000000000E+00 -0.17755321978E+04  0.17755321978E+04  0.25500000920E-02 0. -1.
    10030    2    1    2    0    0  0.00000000000E+00  0.00000000000E+00 -0.11216177074E+04  0.24294466882E+04  0.21550371063E+04 0.  0.
        3    1    3    3  502    0  0.46820629577E+02 -0.98586948682E+03 -0.10481972326E+04  0.14397389573E+04  0.10100000352E+00 0. -1.
       -3    1    3    3    0  502 -0.46820629577E+02  0.98586948682E+03 -0.73420474719E+02  0.98970773095E+03  0.10100000352E+00 0.  1.
</event>
<event>
 5   0  0.5895063E-05  0.2236327E+04  0.7818609E-02  0.8503458E-01
       -1   -1    0    0    0  501  0.00000000000E+00  0.00000000000E+00  0.80514678618E+03  0.80514678620E+03  0.50400001928E-02 0.  1.
        1   -1    0    0  501    0  0.00000000000E+00  0.00000000000E+00 -0.15528722650E+04  0.15528722650E+04  0.50400001928E-02 0. -1.
    10030    2    1    2    0    0  0.00000000000E+00  0.00000000000E+00 -0.74772547885E+03  0.23580190512E+04  0.22363274479E+04 0.  0.
        5    1    3    3  502    0 -0.62096838616E+03  0.41231652193E+03  0.50495434369E+03  0.90033750897E+03  0.46999998093E+01 0. -1.
       -5    1    3    3    0  502  0.62096838616E+03 -0.41231652193E+03 -0.12526798225E+04  0.14576815423E+04  0.46999998093E+01 0.  1.
</event>
<event>
 5   0  0.1404159E-04  0.2193158E+04  0.7818609E-02  0.8521281E-01
        2   -1    0    0  501    0  0.00000000000E+00  0.00000000000E+00  0.21031691477E+04  0.21031691477E+04  0.25500000920E-02 0. -1.
       -2   -1    0    0    0  501  0.00000000000E+00  0.00000000000E+00 -0.57174932122E+03  0.57174932123E+03  0.25500000920E-02 0.  1.
    10030    2    1    2    0    0  0.00000000000E+00  0.00000000000E+00  0.15314198265E+04  0.26749184689E+04  0.21931580268E+04 0.  0.
        5    1    3    3  502    0  0.71058502391E+02 -0.48368866188E+03 -0.43146424881E+03  0.65206404624E+03  0.46999998093E+01 0.  1.
       -5    1    3    3    0  502 -0.71058502391E+02  0.48368866188E+03  0.19628840753E+04  0.20228544227E+04  0.46999998093E+01 0. -1.
</event>
<event>
 5   0  0.1311472E-04  0.2354055E+04  0.7818609E-02  0.8456908E-01
       -2   -1    0    0    0  501  0.00000000000E+00  0.00000000000E+00  0.13144569304E+04  0.13144569304E+04  0.25500000920E-02 0.  1.
        2   -1    0    0  501    0  0.00000000000E+00  0.00000000000E+00 -0.10539665353E+04  0.10539665353E+04  0.25500000920E-02 0. -1.
    10030    2    1    2    0    0  0.00000000000E+00  0.00000000000E+00  0.26049039514E+03  0.23684234657E+04  0.23540548989E+04 0.  0.
        4    1    3    3  502    0 -0.10315408156E+04  0.53356176580E+03  0.32279619126E+03  0.12053894002E+04  0.12699999809E+01 0. -1.
       -4    1    3    3    0  502  0.10315408156E+04 -0.53356176580E+03 -0.62305796119E+02  0.11630340654E+04  0.12699999809E+01 0.  1.
</event>
<event>
 5   0  0.1241430E-04  0.2186671E+04  0.7818609E-02  0.8523997E-01
        2   -1    0    0  501    0  0.00000000000E+00  0.00000000000E+00  0.13047298243E+04  0.13047298243E+04  0.25500000920E-02 0.  1.
       -2   -1    0    0    0  501  0.00000000000E+00  0.00000000000E+00 -0.91619123359E+03  0.91619123360E+03  0.25500000920E-02 0. -1.
    10030    2    1    2    0    0  0.00000000000E+00  0.00000000000E+00  0.38853859071E+03  0.22209210579E+04  0.21866705534E+04 0.  0.
        1    1    3    3  502    0 -0.13906687089E+03  0.68493468878E+03 -0.65967762603E+03  0.96106695542E+03  0.50400001928E-02 0. -1.
       -1    1    3    3    0  502  0.13906687089E+03 -0.68493468878E+03  0.10482162167E+04  0.12598541025E+04  0.50400001928E-02 0.  1.
</event>
<event>
 5   0  0.1241430E-04  0.2190534E+04  0.7818609E-02  0.8522378E-01
        2   -1    0    0  501    0  0.00000000000E+00  0.00000000000E+00  0.94422237067E+03  0.94422237067E+03  0.25500000920E-02 0. -1.
       -2   -1    0    0    0  501  0.00000000000E+00  0.00000000000E+00 -0.12704736877E+04  0.12704736877E+04  0.25500000920E-02 0.  1.
    10030    2    1    2    0    0  0.00000000000E+00  0.00000000000E+00 -0.32625131701E+03  0.22146960584E+04  0.21905338868E+04 0.  0.
        1    1    3    3  502    0 -0.44433903897E+03  0.92910482587E+03  0.21372794723E+03  0.10518329689E+04  0.50400001928E-02 0. -1.
       -1    1    3    3    0  502  0.44433903897E+03 -0.92910482587E+03 -0.53997926424E+03  0.11628630895E+04  0.50400001928E-02 0.  1.
</event>
<event>
 5   0  0.5849604E-05  0.2154578E+04  0.7818609E-02  0.8537575E-01
       -1   -1    0    0    0  501  0.00000000000E+00  0.00000000000E+00  0.17253316142E+04  0.17253316142E+04  0.50400001928E-02 0.  1.
        1   -1    0    0  501    0  0.00000000000E+00  0.00000000000E+00 -0.67265438618E+03  0.67265438620E+03  0.50400001928E-02 0. -1.
    10030    2    1    2    0    0  0.00000000000E+00  0.00000000000E+00  0.10526772280E+04  0.23979860004E+04  0.21545782677E+04 0.  0.
        2    1    3    3  502    0  0.70655009079E+03  0.78983156405E+03  0.31079823126E+03  0.11043742440E+04  0.25500000920E-02 0. -1.
       -2    1    3    3    0  502 -0.70655009079E+03 -0.78983156405E+03  0.74187899678E+03  0.12936117564E+04  0.25500000920E-02 0.  1.
</event>
<event>
 5   0  0.1241430E-04  0.2236975E+04  0.7818609E-02  0.8503194E-01
        2   -1    0    0  501    0  0.00000000000E+00  0.00000000000E+00  0.18005598790E+04  0.18005598790E+04  0.25500000920E-02 0.  1.
       -2   -1    0    0    0  501  0.00000000000E+00  0.00000000000E+00 -0.69479153936E+03  0.69479153937E+03  0.25500000920E-02 0. -1.
    10030    2    1    2    0    0  0.00000000000E+00  0.00000000000E+00  0.11057683396E+04  0.24953514184E+04  0.22369745372E+04 0.  0.
        1    1    3    3  502    0 -0.96345364066E+03  0.43585475929E+03  0.95939501294E+03  0.14278133911E+04  0.50400001928E-02 0.  1.
       -1    1    3    3    0  502  0.96345364066E+03 -0.43585475929E+03  0.14637332670E+03  0.10675380273E+04  0.50400001928E-02 0. -1.
</event>
<event>
 5   0  0.5895063E-05  0.2176328E+04  0.7818609E-02  0.8528346E-01
       -1   -1    0    0    0  501  0.00000000000E+00  0.00000000000E+00  0.15632337896E+04  0.15632337896E+04  0.50400001928E-02 0.  1.
        1   -1    0    0  501    0  0.00000000000E+00  0.00000000000E+00 -0.75746851758E+03  0.75746851760E+03  0.50400001928E-02 0. -1.
    10030    2    1    2    0    0  0.00000000000E+00  0.00000000000E+00  0.80576527203E+03  0.23207023072E+04  0.21763275317E+04 0.  0.
        5    1    3    3  502    0 -0.23864171477E+02 -0.71533640811E+03 -0.47112660227E+03  0.85688858133E+03  0.46999998093E+01 0. -1.
       -5    1    3    3    0  502  0.23864171477E+02  0.71533640811E+03  0.12768918743E+04  0.14638137259E+04  0.46999998093E+01 0.  1.
</event>
<event>
 5   0  0.6263558E-05  0.2210388E+04  0.7818609E-02  0.8514117E-01
        1   -1    0    0  501    0  0.00000000000E+00  0.00000000000E+00  0.15667751488E+04  0.15667751488E+04  0.50400001928E-02 0. -1.
       -1   -1    0    0    0  501  0.00000000000E+00  0.00000000000E+00 -0.77959749447E+03  0.77959749449E+03  0.50400001928E-02 0.  1.
    10030    2    1    2    0    0  0.00000000000E+00  0.00000000000E+00  0.78717765433E+03  0.23463726433E+04  0.22103881835E+04 0.  0.
        3    1    3    3  502    0  0.38976397460E+03 -0.85858390399E+03  0.10055733680E+04  0.13784992146E+04  0.10100000352E+00 0. -1.
       -3    1    3    3    0  502 -0.38976397460E+03  0.85858390399E+03 -0.21839571363E+03  0.96787342871E+03  0.10100000352E+00 0.  1.
</event>
<event>
 5   0  0.1311472E-04  0.2195420E+04  0.7818609E-02  0.8520337E-01
       -2   -1    0    0    0  501  0.00000000000E+00  0.00000000000E+00  0.95727960043E+03  0.95727960044E+03  0.25500000920E-02 0. -1.
        2   -1    0    0  501    0  0.00000000000E+00  0.00000000000E+00 -0.12587407109E+04  0.12587407109E+04  0.25500000920E-02 0.  1.
    10030    2    1    2    0    0  0.00000000000E+00  0.00000000000E+00 -0.30146111051E+03  0.22160203114E+04  0.21954195998E+04 0.  0.
        4    1    3    3  502    0  0.14026718093E+03  0.10375723477E+04  0.18211192403E+03  0.10627312100E+04  0.12699999809E+01 0. -1.
       -4    1    3    3    0  502 -0.14026718093E+03 -0.10375723477E+04 -0.48357303454E+03  0.11532891014E+04  0.12699999809E+01 0.  1.
</event>
<event>
 5   0  0.5981239E-05  0.1758361E+04  0.7818609E-02  0.8728762E-01
       -1   -1    0    0    0  501  0.00000000000E+00  0.00000000000E+00  0.63373941990E+03  0.63373941992E+03  0.50400001928E-02 0.  1.
        1   -1    0    0  501    0  0.00000000000E+00  0.00000000000E+00 -0.12196779577E+04  0.12196779578E+04  0.50400001928E-02 0. -1.
    10030    2    1    2    0    0  0.00000000000E+00  0.00000000000E+00 -0.58593853784E+03  0.18534173777E+04  0.17583606017E+04 0.  0.
        4    1    3    3  502    0 -0.29112361654E+03 -0.68940025455E+03 -0.77935905353E+03  0.10804757370E+04  0.12699999809E+01 0. -1.
       -4    1    3    3    0  502  0.29112361654E+03  0.68940025455E+03  0.19342051568E+03  0.77294164066E+03  0.12699999809E+01 0.  1.
</event>
<event>
 5   0  0.1241430E-04  0.2181908E+04  0.7818609E-02  0.8525996E-01
        2   -1    0    0  501    0  0.00000000000E+00  0.00000000000E+00  0.13310433931E+04  0.13310433931E+04  0.25500000920E-02 0.  1.
       -2   -1    0    0    0  501  0.00000000000E+00  0.00000000000E+00 -0.89417127220E+03  0.89417127221E+03  0.25500000920E-02 0. -1.
    10030    2    1    2    0    0  0.00000000000E+00  0.00000000000E+00  0.43687212092E+03  0.22252146653E+04  0.21819081229E+04 0.  0.
        1    1    3    3  502    0 -0.10201234513E+04 -0.38385787956E+03  0.17079664041E+03  0.11032543768E+04  0.50400001928E-02 0.  1.
       -1    1    3    3    0  502  0.10201234513E+04  0.38385787956E+03  0.26607548052E+03  0.11219602885E+04  0.50400001928E-02 0. -1.
</event>
<event>
 5   0  0.1252124E-04  0.2187329E+04  0.7818609E-02  0.8523721E-01
        2   -1    0    0  501    0  0.00000000000E+00  0.00000000000E+00  0.11185643248E+04  0.11185643248E+04  0.25500000920E-02 0. -1.
       -2   -1    0    0    0  501  0.00000000000E+00  0.00000000000E+00 -0.10693185489E+04  0.10693185489E+04  0.25500000920E-02 0.  1.
    10030    2    1    2    0    0  0.00000000000E+00  0.00000000000E+00  0.49245775909E+02  0.21878828737E+04  0.21873285813E+04 0.  0.
        3    1    3    3  502    0  0.65512957637E+03 -0.87499838998E+03  0.60473652795E+02  0.10947483808E+04  0.10100000352E+00 0.  1.
       -3    1    3    3    0  502 -0.65512957637E+03  0.87499838998E+03 -0.11227876886E+02  0.10931344930E+04  0.10100000352E+00 0. -1.
</event>
<event>
 5   0  0.1252124E-04  0.2095462E+04  0.7818609E-02  0.8563245E-01
       -2   -1    0    0    0  501  0.00000000000E+00  0.00000000000E+00  0.10499416896E+04  0.10499416896E+04  0.25500000920E-02 0.  1.
        2   -1    0    0  501    0  0.00000000000E+00  0.00000000000E+00 -0.10455253822E+04  0.10455253822E+04  0.25500000920E-02 0. -1.
    10030    2    1    2    0    0  0.00000000000E+00  0.00000000000E+00  0.44163074620E+01  0.20954670718E+04  0.20954624180E+04 0.  0.
        3    1    3    3  502    0  0.20484877345E+03 -0.10143787658E+04  0.16595641995E+03  0.10480786440E+04  0.10100000352E+00 0.  1.
       -3    1    3    3    0  502 -0.20484877345E+03  0.10143787658E+04 -0.16154011249E+03  0.10473884278E+04  0.10100000352E+00 0. -1.
</event>
<event>
 5   0  0.5849604E-05  0.2463197E+04  0.7818609E-02  0.8416215E-01
        1   -1    0    0  501    0  0.00000000000E+00  0.00000000000E+00  0.19369996357E+04  0.19369996357E+04  0.50400001928E-02 0. -1.
       -1   -1    0    0    0  501  0.00000000000E+00  0.00000000000E+00 -0.78308449980E+03  0.78308449982E+03  0.50400001928E-02 0.  1.
    10030    2    1    2    0    0  0.00000000000E+00  0.00000000000E+00  0.11539151359E+04  0.27200841355E+04  0.24631966149E+04 0.  0.
        2    1    3    3  502    0 -0.11412859406E+04  0.30788245805E+03  0.95871183511E+03  0.15219900095E+04  0.25500000920E-02 0. -1.
       -2    1    3    3    0  502  0.11412859406E+04 -0.30788245805E+03  0.19520330079E+03  0.11980941260E+04  0.25500000920E-02 0.  1.
</event>
<event>
 5   0  0.1404159E-04  0.1613813E+04  0.7818609E-02  0.8812107E-01
       -2   -1    0    0    0  501  0.00000000000E+00  0.00000000000E+00  0.49753519081E+03  0.49753519081E+03  0.25500000920E-02 0.  1.
        2   -1    0    0  501    0  0.00000000000E+00  0.00000000000E+00 -0.13086469669E+04  0.13086469670E+04  0.25500000920E-02 0. -1.
    10030    2    1    2    0    0  0.00000000000E+00  0.00000000000E+00 -0.81111177614E+03  0.18061821578E+04  0.16138127753E+04 0.  0.
        5    1    3    3  502    0 -0.29000974860E+03 -0.74020822945E+03 -0.56007851234E+03  0.97248337118E+03  0.46999998093E+01 0. -1.
       -5    1    3    3    0  502  0.29000974860E+03  0.74020822945E+03 -0.25103326380E+03  0.83369878659E+03  0.46999998093E+01 0.  1.
</event>
<event>
 5   0  0.1404159E-04  0.2172248E+04  0.7818609E-02  0.8530069E-01
        2   -1    0    0  501    0  0.00000000000E+00  0.00000000000E+00  0.12929023905E+04  0.12929023905E+04  0.25500000920E-02 0.  1.
       -2   -1    0    0    0  501  0.00000000000E+00  0.00000000000E+00 -0.91241632862E+03  0.91241632862E+03  0.25500000920E-02 0. -1.
    10030    2    1    2    0    0  0.00000000000E+00  0.00000000000E+00  0.38048606190E+03  0.22053187191E+04  0.21722479163E+04 0.  0.
        5    1    3    3  502    0  0.94741460104E+02 -0.10809443391E+04  0.23814778174E+03  0.11109244189E+04  0.46999998093E+01 0.  1.
       -5    1    3    3    0  502 -0.94741460104E+02  0.10809443391E+04  0.14233828016E+03  0.10943943003E+04  0.46999998093E+01 0. -1.
</event>
<event>
 5   0  0.1311472E-04  0.2281360E+04  0.7818609E-02  0.8485307E-01
        2   -1    0    0  501    0  0.00000000000E+00  0.00000000000E+00  0.11913947233E+04  0.11913947233E+04  0.25500000920E-02 0.  1.
       -2   -1    0    0    0  501  0.00000000000E+00  0.00000000000E+00 -0.10921244234E+04  0.10921244234E+04  0.25500000920E-02 0. -1.
    10030    2    1    2    0    0  0.00000000000E+00  0.00000000000E+00  0.99270299868E+02  0.22835191467E+04  0.22813603619E+04 0.  0.
        4    1    3    3  502    0  0.98080924593E+03  0.46306074006E+03 -0.30388121358E+03  0.11263913311E+04  0.12699999809E+01 0. -1.
       -4    1    3    3    0  502 -0.98080924593E+03 -0.46306074006E+03  0.40315151345E+03  0.11571278156E+04  0.12699999809E+01 0.  1.
</event>
<event>
 5   0  0.1311472E-04  0.2200128E+04  0.7818609E-02  0.8518375E-01
       -2   -1    0    0    0  501  0.00000000000E+00  0.00000000000E+00  0.56357047163E+03  0.56357047164E+03  0.25500000920E-02 0.  1.
        2   -1    0    0  501    0  0.00000000000E+00  0.00000000000E+00 -0.21472759636E+04  0.21472759636E+04  0.25500000920E-02 0. -1.
    10030    2    1    2    0    0  0.00000000000E+00  0.00000000000E+00 -0.15837054920E+04  0.27108464352E+04  0.22001284758E+04 0.  0.
        4    1    3    3  502    0  0.84940999151E+03  0.21190272123E+03 -0.16126218057E+04  0.18349252841E+04  0.12699999809E+01 0. -1.
       -4    1    3    3    0  502 -0.84940999151E+03 -0.21190272123E+03  0.28916313767E+02  0.87592115116E+03  0.12699999809E+01 0.  1.
</event>
<event>
 5   0  0.5849604E-05  0.2145902E+04  0.7818609E-02  0.8541288E-01
        1   -1    0    0  501    0  0.00000000000E+00  0.00000000000E+00  0.14446481129E+04  0.14446481129E+04  0.50400001928E-02 0. -1.
       -1   -1    0    0    0  501  0.00000000000E+00  0.00000000000E+00 -0.79688898294E+03  0.79688898296E+03  0.50400001928E-02 0.  1.
    10030    2    1    2    0    0  0.00000000000E+00  0.00000000000E+00  0.64775912999E+03  0.22415370959E+04  0.21459022955E+04 0.  0.
        2    1    3    3  502    0  0.81382601212E+03 -0.43622934433E+03  0.89469018933E+03  0.12857213360E+04  0.25500000920E-02 0. -1.
       -2    1    3    3    0  502 -0.81382601212E+03  0.43622934433E+03 -0.24693105935E+03  0.95581575993E+03  0.25500000920E-02 0.  1.
</event>
<event>
 5   0  0.1252124E-04  0.2258027E+04  0.7818609E-02  0.8494657E-01
       -2   -1    0    0    0  501  0.00000000000E+00  0.00000000000E+00  0.89978370917E+03  0.89978370918E+03  0.25500000920E-02 0.  1.
        2   -1    0    0  501    0  0.00000000000E+00  0.00000000000E+00 -0.14166415735E+04  0.14166415735E+04  0.25500000920E-02 0. -1.
    10030    2    1    2    0    0  0.00000000000E+00  0.00000000000E+00 -0.51685786431E+03  0.23164252827E+04  0.22580265805E+04 0.  0.
        3    1    3    3  502    0 -0.46331417397E+03 -0.30950781126E+03  0.74891178495E+03  0.93344736374E+03  0.10100000352E+00 0.  1.
       -3    1    3    3    0  502  0.46331417397E+03  0.30950781126E+03 -0.12657696493E+04  0.13829779189E+04  0.10100000352E+00 0. -1.
</event>
<event>
 5   0  0.5981239E-05  0.2138492E+04  0.7818609E-02  0.8544475E-01
        1   -1    0    0  501    0  0.00000000000E+00  0.00000000000E+00  0.11009618714E+04  0.11009618714E+04  0.50400001928E-02 0. -1.
       -1   -1    0    0    0  501  0.00000000000E+00  0.00000000000E+00 -0.10384434464E+04  0.10384434464E+04  0.50400001928E-02 0.  1.
    10030    2    1    2    0    0  0.00000000000E+00  0.00000000000E+00  0.62518425056E+02  0.21394053178E+04  0.21384916554E+04 0.  0.
        4    1    3    3  502    0 -0.91656126913E+03  0.53618015963E+03  0.15665750434E+03  0.10733670901E+04  0.12699999809E+01 0.  1.
       -4    1    3    3    0  502  0.91656126913E+03 -0.53618015963E+03 -0.94139079280E+02  0.10660382276E+04  0.12699999809E+01 0. -1.
</event>
<event>
 5   0  0.1241430E-04  0.2258923E+04  0.7818609E-02  0.8494295E-01
        2   -1    0    0  501    0  0.00000000000E+00  0.00000000000E+00  0.73621051165E+03  0.73621051166E+03  0.25500000920E-02 0. -1.
       -2   -1    0    0    0  501  0.00000000000E+00  0.00000000000E+00 -0.17327703373E+04  0.17327703373E+04  0.25500000920E-02 0.  1.
    10030    2    1    2    0    0  0.00000000000E+00  0.00000000000E+00 -0.99655982560E+03  0.24689808489E+04  0.22589234043E+04 0.  0.
        1    1    3    3  502    0  0.76335744329E+03  0.49112042439E+03  0.23636056211E+03  0.93796597637E+03  0.50400001928E-02 0. -1.
       -1    1    3    3    0  502 -0.76335744329E+03 -0.49112042439E+03 -0.12329203877E+04  0.15310148725E+04  0.50400001928E-02 0.  1.
</event>
<event>
 5   0  0.1226021E-04  0.2177996E+04  0.7818609E-02  0.8527643E-01
       -2   -1    0    0    0  501  0.00000000000E+00  0.00000000000E+00  0.86790462463E+03  0.86790462463E+03  0.25500000920E-02 0.  1.
        2   -1    0    0  501    0  0.00000000000E+00  0.00000000000E+00 -0.13664135985E+04  0.13664135985E+04  0.25500000920E-02 0. -1.
    10030    2    1    2    0    0  0.00000000000E+00  0.00000000000E+00 -0.49850897392E+03  0.22343182232E+04  0.21779960343E+04 0.  0.
        2    1    3    3  502    0 -0.83836290242E+03  0.24509891309E+03 -0.91645047853E+03  0.12660202656E+04  0.25500000920E-02 0. -1.
       -2    1    3    3    0  502  0.83836290242E+03 -0.24509891309E+03  0.41794150461E+03  0.96829795757E+03  0.25500000920E-02 0.  1.
</event>
<event>
 5   0  0.5981239E-05  0.2191063E+04  0.7818609E-02  0.8522157E-01
        1   -1    0    0  501    0  0.00000000000E+00  0.00000000000E+00  0.83515472033E+03  0.83515472034E+03  0.50400001928E-02 0. -1.
       -1   -1    0    0    0  501  0.00000000000E+00  0.00000000000E+00 -0.14370865829E+04  0.14370865829E+04  0.50400001928E-02 0.  1.
    10030    2    1    2    0    0  0.00000000000E+00  0.00000000000E+00 -0.60193186260E+03  0.22722413033E+04  0.21910633430E+04 0.  0.
        4    1    3    3  502    0 -0.10548729758E+04 -0.10399217768E+03 -0.13913564983E+02  0.10600785670E+04  0.12699999809E+01 0. -1.
       -4    1    3    3    0  502  0.10548729758E+04  0.10399217768E+03 -0.58801829762E+03  0.12121627363E+04  0.12699999809E+01 0.  1.
</event>
<event>
 5   0  0.5849604E-05  0.2175692E+04  0.7818609E-02  0.8528614E-01
       -1   -1    0    0    0  501  0.00000000000E+00  0.00000000000E+00  0.88667042316E+03  0.88667042317E+03  0.50400001928E-02 0. -1.
        1   -1    0    0  501    0  0.00000000000E+00  0.00000000000E+00 -0.13346659692E+04  0.13346659692E+04  0.50400001928E-02 0.  1.
    10030    2    1    2    0    0  0.00000000000E+00  0.00000000000E+00 -0.44799554600E+03  0.22213363923E+04  0.21756919264E+04 0.  0.
        2    1    3    3  502    0  0.27805489256E+03 -0.82331322808E+02 -0.12944768428E+04  0.13265606909E+04  0.25500000920E-02 0.  1.
       -2    1    3    3    0  502 -0.27805489256E+03  0.82331322808E+02  0.84648129684E+03  0.89477570144E+03  0.25500000920E-02 0. -1.
</event>
<event>
 5   0  0.1311472E-04  0.2197020E+04  0.7818609E-02  0.8519670E-01
       -2   -1    0    0    0  501  0.00000000000E+00  0.00000000000E+00  0.63487617540E+03  0.63487617541E+03  0.25500000920E-02 0. -1.
        2   -1    0    0  501    0  0.00000000000E+00  0.00000000000E+00 -0.19007229470E+04  0.19007229470E+04  0.25500000920E-02 0.  1.
    10030    2    1    2    0    0  0.00000000000E+00  0.00000000000E+00 -0.12658467716E+04  0.25355991224E+04  0.21970195403E+04 0.  0.
        4    1    3    3  502    0  0.29127108825E+03 -0.57249052654E+03  0.39555370376E+03  0.75435309722E+03  0.12699999809E+01 0. -1.
       -4    1    3    3    0  502 -0.29127108825E+03  0.57249052654E+03 -0.16614004754E+04  0.17812460252E+04  0.12699999809E+01 0.  1.
</event>
<event>
 5   0  0.1311472E-04  0.2226263E+04  0.7818609E-02  0.8507576E-01
       -2   -1    0    0    0  501  0.00000000000E+00  0.00000000000E+00  0.13787356774E+04  0.13787356774E+04  0.25500000920E-02 0. -1.
        2   -1    0    0  501    0  0.00000000000E+00  0.00000000000E+00 -0.89869399695E+03  0.89869399695E+03  0.25500000920E-02 0.  1.
    10030    2    1    2    0    0  0.00000000000E+00  0.00000000000E+00  0.48004168042E+03  0.22774296743E+04  0.22262627667E+04 0.  0.
        4    1    3    3  502    0  0.81177610945E+03 -0.76004737809E+03  0.18982794803E+03  0.11281350680E+04  0.12699999809E+01 0. -1.
       -4    1    3    3    0  502 -0.81177610945E+03  0.76004737809E+03  0.29021373239E+03  0.11492946063E+04  0.12699999809E+01 0.  1.
</event>
<event>
 5   0  0.5981239E-05  0.2244078E+04  0.7818609E-02  0.8500303E-01
        1   -1    0    0  501    0  0.00000000000E+00  0.00000000000E+00  0.16496119397E+04  0.16496119398E+04  0.50400001928E-02 0. -1.
       -1   -1    0    0    0  501  0.00000000000E+00  0.00000000000E+00 -0.76319230398E+03  0.76319230400E+03  0.50400001928E-02 0.  1.
    10030    2    1    2    0    0  0.00000000000E+00  0.00000000000E+00  0.88641963577E+03  0.24128042438E+04  0.22440776609E+04 0.  0.
        4    1    3    3  502    0  0.97275140074E+03 -0.36183301268E+03  0.90164977973E+03  0.13748244815E+04  0.12699999809E+01 0. -1.
       -4    1    3    3    0  502 -0.97275140074E+03  0.36183301268E+03 -0.15230143958E+02  0.10379797623E+04  0.12699999809E+01 0.  1.
</event>
<event>
 5   0  0.5849604E-05  0.2151058E+04  0.7818609E-02  0.8539080E-01
        1   -1    0    0  501    0  0.00000000000E+00  0.00000000000E+00  0.11956419213E+04  0.11956419213E+04  0.50400001928E-02 0. -1.
       -1   -1    0    0    0  501  0.00000000000E+00  0.00000000000E+00 -0.96748212157E+03  0.96748212158E+03  0.50400001928E-02 0.  1.
    10030    2    1    2    0    0  0.00000000000E+00  0.00000000000E+00  0.22815979968E+03  0.21631240428E+04  0.21510575842E+04 0.  0.
        2    1    3    3  502    0 -0.10640718468E+04  0.62926419022E+02 -0.30089418257E+02  0.10663554766E+04  0.25500000920E-02 0.  1.
       -2    1    3    3    0  502  0.10640718468E+04 -0.62926419022E+02  0.25824921794E+03  0.10967685663E+04  0.25500000920E-02 0. -1.
</event>
<event>
 5   0  0.1404159E-04  0.2185931E+04  0.7818609E-02  0.8524307E-01
        2   -1    0    0  501    0  0.00000000000E+00  0.00000000000E+00  0.18801073526E+04  0.18801073526E+04  0.25500000920E-02 0.  1.
       -2   -1    0    0    0  501  0.00000000000E+00  0.00000000000E+00 -0.63537496286E+03  0.63537496286E+03  0.25500000920E-02 0. -1.
    10030    2    1    2    0    0  0.00000000000E+00  0.00000000000E+00  0.12447323897E+04  0.25154823154E+04  0.21859305930E+04 0.  0.
        5    1    3    3  502    0 -0.82860712508E+03 -0.38820831125E+03  0.13101855868E+04  0.15980938091E+04  0.46999998093E+01 0.  1.
       -5    1    3    3    0  502  0.82860712508E+03  0.38820831125E+03 -0.65453197083E+02  0.91738850640E+03  0.46999998093E+01 0. -1.
</event>
<event>
 5   0  0.1404159E-04  0.2212928E+04  0.7818609E-02  0.8513066E-01
       -2   -1    0    0    0  501  0.00000000000E+00  0.00000000000E+00  0.98209703344E+03  0.98209703345E+03  0.25500000920E-02 0.  1.
        2   -1    0    0  501    0  0.00000000000E+00  0.00000000000E+00 -0.12465803082E+04  0.12465803082E+04  0.25500000920E-02 0. -1.
    10030    2    1    2    0    0  0.00000000000E+00  0.00000000000E+00 -0.26448327474E+03  0.22286773416E+04  0.22129282163E+04 0.  0.
        5    1    3    3  502    0  0.69258917115E+03  0.86287344450E+03 -0.12899512622E+03  0.11139533984E+04  0.46999998093E+01 0. -1.
       -5    1    3    3    0  502 -0.69258917115E+03 -0.86287344450E+03 -0.13548814852E+03  0.11147239432E+04  0.46999998093E+01 0.  1.
</event>
<event>
 5   0  0.5895063E-05  0.2194532E+04  0.7818609E-02  0.8520707E-01
        1   -1    0    0  501    0  0.00000000000E+00  0.00000000000E+00  0.88663206804E+03  0.88663206806E+03  0.50400001928E-02 0.  1.
       -1   -1    0    0    0  501  0.00000000000E+00  0.00000000000E+00 -0.13579397804E+04  0.13579397805E+04  0.50400001928E-02 0. -1.
    10030    2    1    2    0    0  0.00000000000E+00  0.00000000000E+00 -0.47130771240E+03  0.22445718485E+04  0.21945322562E+04 0.  0.
        5    1    3    3  502    0  0.14380764130E+03  0.82529598172E+03  0.48914892777E+03  0.97009425248E+03  0.46999998093E+01 0.  1.
       -5    1    3    3    0  502 -0.14380764130E+03 -0.82529598172E+03 -0.96045664017E+03  0.12744775960E+04  0.46999998093E+01 0. -1.
</event>
<event>
 5   0  0.1226021E-04  0.2181757E+04  0.7818609E-02  0.8526060E-01
        2   -1    0    0  501    0  0.00000000000E+00  0.00000000000E+00  0.14571392439E+04  0.14571392439E+04  0.25500000920E-02 0. -1.
       -2   -1    0    0    0  501  0.00000000000E+00  0.00000000000E+00 -0.81667923076E+03  0.81667923077E+03  0.25500000920E-02 0.  1.
    10030    2    1    2    0    0  0.00000000000E+00  0.00000000000E+00  0.64046001311E+03  0.22738184746E+04  0.21817565004E+04 0.  0.
        2    1    3    3  502    0 -0.47710758978E+03  0.94556839748E+03  0.59256869379E+03  0.12136181044E+04  0.25500000920E-02 0.  1.
       -2    1    3    3    0  502  0.47710758978E+03 -0.94556839748E+03  0.47891319325E+02  0.10602003702E+04  0.25500000920E-02 0. -1.
</event>
<event>
 5   0  0.5981239E-05  0.2179826E+04  0.7818609E-02  0.8526872E-01
       -1   -1    0    0    0  501  0.00000000000E+00  0.00000000000E+00  0.67472057494E+03  0.67472057496E+03  0.50400001928E-02 0.  1.
        1   -1    0    0  501    0  0.00000000000E+00  0.00000000000E+00 -0.17605967722E+04  0.17605967722E+04  0.50400001928E-02 0. -1.
    10030    2    1    2    0    0  0.00000000000E+00  0.00000000000E+00 -0.10858761973E+04  0.24353173472E+04  0.21798264761E+04 0.  0.
        4    1    3    3  502    0  0.43497086141E+03  0.66878288220E+02  0.57104493745E+03  0.72094818760E+03  0.12699999809E+01 0.  1.
       -4    1    3    3    0  502 -0.43497086141E+03 -0.66878288220E+02 -0.16569211348E+04  0.17143691596E+04  0.12699999809E+01 0. -1.
</event>
<event>
 5   0  0.1252124E-04  0.2189610E+04  0.7818609E-02  0.8522765E-01
       -2   -1    0    0    0  501  0.00000000000E+00  0.00000000000E+00  0.59967089868E+03  0.59967089868E+03  0.25500000920E-02 0. -1.
        2   -1    0    0  501    0  0.00000000000E+00  0.00000000000E+00 -0.19987598551E+04  0.19987598551E+04  0.25500000920E-02 0.  1.
    10030    2    1    2    0    0  0.00000000000E+00  0.00000000000E+00 -0.13990889564E+04  0.25984307538E+04  0.21896101192E+04 0.  0.
        3    1    3    3  502    0 -0.89523536223E+02 -0.77472044627E+03  0.21228691897E+03  0.80825242318E+03  0.10100000352E+00 0. -1.
       -3    1    3    3    0  502  0.89523536223E+02  0.77472044627E+03 -0.16113758754E+04  0.17901783306E+04  0.10100000352E+00 0.  1.
</event>
<event>
 5   0  0.1404159E-04  0.2196859E+04  0.7818609E-02  0.8519736E-01
        2   -1    0    0  501    0  0.00000000000E+00  0.00000000000E+00  0.68757549723E+03  0.68757549724E+03  0.25500000920E-02 0. -1.
       -2   -1    0    0    0  501  0.00000000000E+00  0.00000000000E+00 -0.17547858867E+04  0.17547858867E+04  0.25500000920E-02 0.  1.
    10030    2    1    2    0    0  0.00000000000E+00  0.00000000000E+00 -0.10672103895E+04  0.24423613839E+04  0.21968593752E+04 0.  0.
        5    1    3    3  502    0  0.99752164641E+02  0.32129713651E+03  0.62887603623E+03  0.71322472141E+03  0.46999998093E+01 0. -1.
       -5    1    3    3    0  502 -0.99752164641E+02 -0.32129713651E+03 -0.16960864257E+04  0.17291366625E+04  0.46999998093E+01 0.  1.
</event>
<event>
 5   0  0.1226021E-04  0.2127036E+04  0.7818609E-02  0.8549426E-01
        2   -1    0    0  501    0  0.00000000000E+00  0.00000000000E+00  0.12739490130E+04  0.12739490130E+04  0.25500000920E-02 0.  1.
       -2   -1    0    0    0  501  0.00000000000E+00  0.00000000000E+00 -0.88784637366E+03  0.88784637366E+03  0.25500000920E-02 0. -1.
    10030    2    1    2    0    0  0.00000000000E+00  0.00000000000E+00  0.38610263933E+03  0.21617953867E+04  0.21270364467E+04 0.  0.
        2    1    3    3  502    0  0.76882468818E+03  0.72370710730E+03  0.32252075205E+03  0.11040212923E+04  0.25500000920E-02 0.  1.
       -2    1    3    3    0  502 -0.76882468818E+03 -0.72370710730E+03  0.63581887283E+02  0.10577740944E+04  0.25500000920E-02 0. -1.
</event>
<event>
 5   0  0.6263558E-05  0.2157545E+04  0.7818609E-02  0.8536310E-01
       -1   -1    0    0    0  501  0.00000000000E+00  0.00000000000E+00  0.13817883863E+04  0.13817883863E+04  0.50400001928E-02 0.  1.
        1   -1    0    0  501    0  0.00000000000E+00  0.00000000000E+00 -0.84220548103E+03  0.84220548105E+03  0.50400001928E-02 0. -1.
    10030    2    1    2    0    0  0.00000000000E+00  0.00000000000E+00  0.53958290528E+03  0.22239938674E+04  0.21575446717E+04 0.  0.
        3    1    3    3  502    0  0.79241216111E+03  0.47939084401E+03  0.84001698106E+03  0.12503444138E+04  0.10100000352E+00 0. -1.
       -3    1    3    3    0  502 -0.79241216111E+03 -0.47939084401E+03 -0.30043407578E+03  0.97364945359E+03  0.10100000352E+00 0.  1.
</event>
<event>
 5   0  0.1226021E-04  0.2139613E+04  0.7818609E-02  0.8543992E-01
        2   -1    0    0  501    0  0.00000000000E+00  0.00000000000E+00  0.53852069479E+03  0.53852069480E+03  0.25500000920E-02 0. -1.
       -2   -1    0    0    0  501  0.00000000000E+00  0.00000000000E+00 -0.21252397915E+04  0.21252397915E+04  0.25500000920E-02 0.  1.
    10030    2    1    2    0    0  0.00000000000E+00  0.00000000000E+00 -0.15867190967E+04  0.26637604863E+04  0.21396126838E+04 0.  0.
        2    1    3    3  502    0 -0.24928916396E+03  0.31244873575E+03  0.44206314370E+03  0.59597745156E+03  0.25500000920E-02 0. -1.
       -2    1    3    3    0  502  0.24928916396E+03 -0.31244873575E+03 -0.20287822404E+04  0.20677830347E+04  0.25500000920E-02 0.  1.
</event>
<event>
 5   0  0.5895063E-05  0.2157165E+04  0.7818609E-02  0.8536472E-01
       -1   -1    0    0    0  501  0.00000000000E+00  0.00000000000E+00  0.69963761405E+03  0.69963761407E+03  0.50400001928E-02 0.  1.
        1   -1    0    0  501    0  0.00000000000E+00  0.00000000000E+00 -0.16627746896E+04  0.16627746896E+04  0.50400001928E-02 0. -1.
    10030    2    1    2    0    0  0.00000000000E+00  0.00000000000E+00 -0.96313707553E+03  0.23624123037E+04  0.21571645431E+04 0.  0.
        5    1    3    3  502    0  0.63241714591E+03  0.32861573538E+03 -0.13681493169E+04  0.15426582225E+04  0.46999998093E+01 0. -1.
       -5    1    3    3    0  502 -0.63241714591E+03 -0.32861573538E+03  0.40501224137E+03  0.81975408120E+03  0.46999998093E+01 0.  1.
</event>
<event>
 5   0  0.5981239E-05  0.2148011E+04  0.7818609E-02  0.8540384E-01
        1   -1    0    0  501    0  0.00000000000E+00  0.00000000000E+00  0.73448066533E+03  0.73448066535E+03  0.50400001928E-02 0. -1.
       -1   -1    0    0    0  501  0.00000000000E+00  0.00000000000E+00 -0.15704802656E+04  0.15704802656E+04  0.50400001928E-02 0.  1.
    10030    2    1    2    0    0  0.00000000000E+00  0.00000000000E+00 -0.83599960022E+03  0.23049609309E+04  0.21480106055E+04 0.  0.
        4    1    3    3  502    0  0.39766748009E+03  0.62143243629E+03 -0.12555208214E+04  0.14562458047E+04  0.12699999809E+01 0.  1.
       -4    1    3    3    0  502 -0.39766748009E+03 -0.62143243629E+03  0.41952122122E+03  0.84871512626E+03  0.12699999809E+01 0. -1.
</event>
<event>
 5   0  0.1252124E-04  0.2256459E+04  0.7818609E-02  0.8495289E-01
       -2   -1    0    0    0  501  0.00000000000E+00  0.00000000000E+00  0.82616019168E+03  0.82616019168E+03  0.25500000920E-02 0.  1.
        2   -1    0    0  501    0  0.00000000000E+00  0.00000000000E+00 -0.15407442229E+04  0.15407442229E+04  0.25500000920E-02 0. -1.
    10030    2    1    2    0    0  0.00000000000E+00  0.00000000000E+00 -0.71458403120E+03  0.23669044146E+04  0.22564587676E+04 0.  0.
        3    1    3    3  502    0 -0.32914519231E+03 -0.10788852306E+04 -0.38237113785E+03  0.11910237595E+04  0.10100000352E+00 0.  1.
       -3    1    3    3    0  502  0.32914519231E+03  0.10788852306E+04 -0.33221289335E+03  0.11758806551E+04  0.10100000352E+00 0. -1.
</event>
<event>
 5   0  0.6263558E-05  0.1829597E+04  0.7818609E-02  0.8690717E-01
       -1   -1    0    0    0  501  0.00000000000E+00  0.00000000000E+00  0.89770338554E+03  0.89770338556E+03  0.50400001928E-02 0.  1.
        1   -1    0    0  501    0  0.00000000000E+00  0.00000000000E+00 -0.93221877198E+03  0.93221877199E+03  0.50400001928E-02 0. -1.
    10030    2    1    2    0    0  0.00000000000E+00  0.00000000000E+00 -0.34515386435E+02  0.18299221576E+04  0.18295966197E+04 0.  0.
        3    1    3    3  502    0 -0.18189202929E+03  0.70821429094E+02 -0.91114796658E+03  0.93182134143E+03  0.10100000352E+00 0. -1.
       -3    1    3    3    0  502  0.18189202929E+03 -0.70821429094E+02  0.87663258015E+03  0.89810081612E+03  0.10100000352E+00 0.  1.
</event>
<event>
 5   0  0.5849604E-05  0.2242081E+04  0.7818609E-02  0.8501115E-01
        1   -1    0    0  501    0  0.00000000000E+00  0.00000000000E+00  0.22598582948E+04  0.22598582948E+04  0.50400001928E-02 0. -1.
       -1   -1    0    0    0  501  0.00000000000E+00  0.00000000000E+00 -0.55611064356E+03  0.55611064358E+03  0.50400001928E-02 0.  1.
    10030    2    1    2    0    0  0.00000000000E+00  0.00000000000E+00  0.17037476513E+04  0.28159689384E+04  0.22420805077E+04 0.  0.
        2    1    3    3  502    0  0.35427619453E+02 -0.67783689487E+03 -0.26869055433E+03  0.73000862067E+03  0.25500000920E-02 0.  1.
       -2    1    3    3    0  502 -0.35427619453E+02  0.67783689487E+03  0.19724382056E+04  0.20859603177E+04  0.25500000920E-02 0. -1.
</event>
<event>
 5   0  0.5849604E-05  0.2202421E+04  0.7818609E-02  0.8517421E-01
        1   -1    0    0  501    0  0.00000000000E+00  0.00000000000E+00  0.11995046872E+04  0.11995046872E+04  0.50400001928E-02 0. -1.
       -1   -1    0    0    0  501  0.00000000000E+00  0.00000000000E+00 -0.10109709182E+04  0.10109709182E+04  0.50400001928E-02 0.  1.
    10030    2    1    2    0    0  0.00000000000E+00  0.00000000000E+00  0.18853376902E+03  0.22104756054E+04  0.22024208090E+04 0.  0.
        2    1    3    3  502    0  0.43310651192E+03 -0.65350900195E+03 -0.68187177638E+03  0.10390401271E+04  0.25500000920E-02 0.  1.
       -2    1    3    3    0  502 -0.43310651192E+03  0.65350900195E+03  0.87040554541E+03  0.11714354783E+04  0.25500000920E-02 0. -1.
</event>
<event>
 5   0  0.1311472E-04  0.1834635E+04  0.7818609E-02  0.8688095E-01
       -2   -1    0    0    0  501  0.00000000000E+00  0.00000000000E+00  0.50154092878E+03  0.50154092879E+03  0.25500000920E-02 0.  1.
        2   -1    0    0  501    0  0.00000000000E+00  0.00000000000E+00 -0.16777726553E+04  0.16777726553E+04  0.25500000920E-02 0. -1.
    10030    2    1    2    0    0  0.00000000000E+00  0.00000000000E+00 -0.11762317265E+04  0.21793135841E+04  0.18346352835E+04 0.  0.
        4    1    3    3  502    0 -0.69846922694E+03  0.51077356533E+02  0.11564434766E+03  0.70981926247E+03  0.12699999809E+01 0.  1.
       -4    1    3    3    0  502  0.69846922694E+03 -0.51077356533E+02 -0.12918760742E+04  0.14694943216E+04  0.12699999809E+01 0. -1.
</event>
<event>
 5   0  0.5981239E-05  0.2310822E+04  0.7818609E-02  0.8473666E-01
        1   -1    0    0  501    0  0.00000000000E+00  0.00000000000E+00  0.21732497631E+04  0.21732497631E+04  0.50400001928E-02 0. -1.
       -1   -1    0    0    0  501  0.00000000000E+00  0.00000000000E+00 -0.61427589616E+03  0.61427589618E+03  0.50400001928E-02 0.  1.
    10030    2    1    2    0    0  0.00000000000E+00  0.00000000000E+00  0.15589738669E+04  0.27875256592E+04  0.23108223176E+04 0.  0.
        4    1    3    3  502    0  0.84055831157E+03  0.71113195112E+03  0.35689487782E+03  0.11574206209E+04  0.12699999809E+01 0.  1.
       -4    1    3    3    0  502 -0.84055831157E+03 -0.71113195112E+03  0.12020789891E+04  0.16301050383E+04  0.12699999809E+01 0. -1.
</event>
<event>
 5   0  0.5861816E-05  0.2185340E+04  0.7818609E-02  0.8524555E-01
       -1   -1    0    0    0  501  0.00000000000E+00  0.00000000000E+00  0.12569445120E+04  0.12569445120E+04  0.50400001928E-02 0. -1.
        1   -1    0    0  501    0  0.00000000000E+00  0.00000000000E+00 -0.94986502056E+03  0.94986502057E+03  0.50400001928E-02 0.  1.
    10030    2    1    2    0    0  0.00000000000E+00  0.00000000000E+00  0.30707949141E+03  0.22068095326E+04  0.21853399047E+04 0.  0.
        1    1    3    3  502    0  0.49010532033E+03 -0.21856798276E+03  0.11147060867E+04  0.12371519097E+04  0.50400001928E-02 0. -1.
       -1    1    3    3    0  502 -0.49010532033E+03  0.21856798276E+03 -0.80762659525E+03  0.96965762282E+03  0.50400001928E-02 0.  1.
</event>
<event>
 5   0  0.1404159E-04  0.2186120E+04  0.7818609E-02  0.8524228E-01
       -2   -1    0    0    0  501  0.00000000000E+00  0.00000000000E+00  0.77063058204E+03  0.77063058205E+03  0.25500000920E-02 0.  1.
        2   -1    0    0  501    0  0.00000000000E+00  0.00000000000E+00 -0.15503928912E+04  0.15503928912E+04  0.25500000920E-02 0. -1.
    10030    2    1    2    0    0  0.00000000000E+00  0.00000000000E+00 -0.77976230916E+03  0.23210234733E+04  0.21861200115E+04 0.  0.
        5    1    3    3  502    0 -0.80846831428E+03 -0.41167414152E+03 -0.10371419525E+04  0.13779630379E+04  0.46999998093E+01 0. -1.
       -5    1    3    3    0  502  0.80846831428E+03  0.41167414152E+03  0.25737964337E+03  0.94306043540E+03  0.46999998093E+01 0.  1.
</event>
<event>
 5   0  0.1241430E-04  0.2179227E+04  0.7818609E-02  0.8527124E-01
        2   -1    0    0  501    0  0.00000000000E+00  0.00000000000E+00  0.82105555951E+03  0.82105555951E+03  0.25500000920E-02 0. -1.
       -2   -1    0    0    0  501  0.00000000000E+00  0.00000000000E+00 -0.14460140694E+04  0.14460140694E+04  0.25500000920E-02 0.  1.
    10030    2    1    2    0    0  0.00000000000E+00  0.00000000000E+00 -0.62495850986E+03  0.22670696289E+04  0.21792272858E+04 0.  0.
        1    1    3    3  502    0  0.23475306044E+02 -0.75239064719E+03 -0.11320255760E+04  0.13594574950E+04  0.50400001928E-02 0.  1.
       -1    1    3    3    0  502 -0.23475306044E+02  0.75239064719E+03  0.50706706614E+03  0.90761213388E+03  0.50400001928E-02 0. -1.
</event>
<event>
 5   0  0.1241430E-04  0.2203152E+04  0.7818609E-02  0.8517117E-01
        2   -1    0    0  501    0  0.00000000000E+00  0.00000000000E+00  0.17400220969E+04  0.17400220969E+04  0.25500000920E-02 0.  1.
       -2   -1    0    0    0  501  0.00000000000E+00  0.00000000000E+00 -0.69738750472E+03  0.69738750472E+03  0.25500000920E-02 0. -1.
    10030    2    1    2    0    0  0.00000000000E+00  0.00000000000E+00  0.10426345922E+04  0.24374096016E+04  0.22031519860E+04 0.  0.
        1    1    3    3  502    0  0.71583770726E+02  0.10022417527E+04  0.10208302652E+04  0.14323781615E+04  0.50400001928E-02 0. -1.
       -1    1    3    3    0  502 -0.71583770726E+02 -0.10022417527E+04  0.21804327008E+02  0.10050314402E+04  0.50400001928E-02 0.  1.
</event>
<event>
 5   0  0.6263558E-05  0.2218117E+04  0.7818609E-02  0.8510925E-01
        1   -1    0    0  501    0  0.00000000000E+00  0.00000000000E+00  0.84526837455E+03  0.84526837456E+03  0.50400001928E-02 0. -1.
       -1   -1    0    0    0  501  0.00000000000E+00  0.00000000000E+00 -0.14551712951E+04  0.14551712951E+04  0.50400001928E-02 0.  1.
    10030    2    1    2    0    0  0.00000000000E+00  0.00000000000E+00 -0.60990292058E+03  0.23004396697E+04  0.22181165662E+04 0.  0.
        3    1    3    3  502    0  0.71550240705E+03 -0.30137427103E+03 -0.11263300858E+04  0.13679874334E+04  0.10100000352E+00 0.  1.
       -3    1    3    3    0  502 -0.71550240705E+03  0.30137427103E+03  0.51642716520E+03  0.93245223625E+03  0.10100000352E+00 0. -1.
</event>
<event>
 5   0  0.1404159E-04  0.2145435E+04  0.7818609E-02  0.8541489E-01
        2   -1    0    0  501    0  0.00000000000E+00  0.00000000000E+00  0.17911641163E+04  0.17911641163E+04  0.25500000920E-02 0. -1.
       -2   -1    0    0    0  501  0.00000000000E+00  0.00000000000E+00 -0.64244415735E+03  0.64244415736E+03  0.25500000920E-02 0.  1.
    10030    2    1    2    0    0  0.00000000000E+00  0.00000000000E+00  0.11487199589E+04  0.24336082736E+04  0.21454350807E+04 0.  0.
        5    1    3    3  502    0  0.86643658504E+03  0.49685667139E+03  0.10182281300E+04  0.14263202735E+04  0.46999998093E+01 0.  1.
       -5    1    3    3    0  502 -0.86643658504E+03 -0.49685667139E+03  0.13049182889E+03  0.10072880001E+04  0.46999998093E+01 0. -1.
</event>
<event>
 5   0  0.1226021E-04  0.2194514E+04  0.7818609E-02  0.8520715E-01
        2   -1    0    0  501    0  0.00000000000E+00  0.00000000000E+00  0.12603087519E+04  0.12603087519E+04  0.25500000920E-02 0.  1.
       -2   -1    0    0    0  501  0.00000000000E+00  0.00000000000E+00 -0.95529996591E+03  0.95529996592E+03  0.25500000920E-02 0. -1.
    10030    2    1    2    0    0  0.00000000000E+00  0.00000000000E+00  0.30500878598E+03  0.22156087178E+04  0.21945139851E+04 0.  0.
        2    1    3    3  502    0  0.43293086711E+03  0.73987211471E+03 -0.53901237618E+03  0.10126076355E+04  0.25500000920E-02 0. -1.
       -2    1    3    3    0  502 -0.43293086711E+03 -0.73987211471E+03  0.84402116216E+03  0.12030010823E+04  0.25500000920E-02 0.  1.
</event>
<event>
 5   0  0.5895063E-05  0.2220325E+04  0.7818609E-02  0.8510016E-01
       -1   -1    0    0    0  501  0.00000000000E+00  0.00000000000E+00  0.58964260056E+03  0.58964260058E+03  0.50400001928E-02 0. -1.
        1   -1    0    0  501    0  0.00000000000E+00  0.00000000000E+00 -0.20901836163E+04  0.20901836163E+04  0.50400001928E-02 0.  1.
    10030    2    1    2    0    0  0.00000000000E+00  0.00000000000E+00 -0.15005410158E+04  0.26798262169E+04  0.22203254745E+04 0.  0.
        5    1    3    3  502    0  0.53569780196E+03  0.15469523691E+03  0.40836344616E+03  0.69114799103E+03  0.46999998093E+01 0. -1.
       -5    1    3    3    0  502 -0.53569780196E+03 -0.15469523691E+03 -0.19089044619E+04  0.19886782259E+04  0.46999998093E+01 0.  1.
</event>
<event>
 5   0  0.1241430E-04  0.2207596E+04  0.7818609E-02  0.8515273E-01
        2   -1    0    0  501    0  0.00000000000E+00  0.00000000000E+00  0.17849968758E+04  0.17849968758E+04  0.25500000920E-02 0.  1.
       -2   -1    0    0    0  501  0.00000000000E+00  0.00000000000E+00 -0.68256149954E+03  0.68256149955E+03  0.25500000920E-02 0. -1.
    10030    2    1    2    0    0  0.00000000000E+00  0.00000000000E+00  0.11024353763E+04  0.24675583754E+04  0.22075961082E+04 0.  0.
        1    1    3    3  502    0  0.40726745260E+03  0.73376098623E+03  0.13526573842E+04  0.15918398041E+04  0.50400001928E-02 0.  1.
       -1    1    3    3    0  502 -0.40726745260E+03 -0.73376098623E+03 -0.25022200789E+03  0.87571857130E+03  0.50400001928E-02 0. -1.
</event>
<event>
 5   0  0.1311472E-04  0.2225568E+04  0.7818609E-02  0.8507861E-01
       -2   -1    0    0    0  501  0.00000000000E+00  0.00000000000E+00  0.10232562166E+04  0.10232562166E+04  0.25500000920E-02 0.  1.
        2   -1    0    0  501    0  0.00000000000E+00  0.00000000000E+00 -0.12101448149E+04  0.12101448149E+04  0.25500000920E-02 0. -1.
    10030    2    1    2    0    0  0.00000000000E+00  0.00000000000E+00 -0.18688859828E+03  0.22334010315E+04  0.22255679768E+04 0.  0.
        4    1    3    3  502    0 -0.57612133536E+03 -0.90402617517E+03 -0.39300367266E+03  0.11417673222E+04  0.12699999809E+01 0. -1.
       -4    1    3    3    0  502  0.57612133536E+03  0.90402617517E+03  0.20611507438E+03  0.10916337093E+04  0.12699999809E+01 0.  1.
</event>
<event>
 5   0  0.1241430E-04  0.2286745E+04  0.7818609E-02  0.8483166E-01
       -2   -1    0    0    0  501  0.00000000000E+00  0.00000000000E+00  0.10422441509E+04  0.10422441509E+04  0.25500000920E-02 0. -1.
        2   -1    0    0  501    0  0.00000000000E+00  0.00000000000E+00 -0.12543130307E+04  0.12543130307E+04  0.25500000920E-02 0.  1.
    10030    2    1    2    0    0  0.00000000000E+00  0.00000000000E+00 -0.21206887983E+03  0.22965571816E+04  0.22867447778E+04 0.  0.
        1    1    3    3  502    0 -0.10795680244E+04 -0.29136440948E+03  0.13361069057E+03  0.11261492597E+04  0.50400001928E-02 0. -1.
       -1    1    3    3    0  502  0.10795680244E+04  0.29136440948E+03 -0.34567957040E+03  0.11704079220E+04  0.50400001928E-02 0.  1.
</event>
<event>
 5   0  0.1226021E-04  0.2215450E+04  0.7818609E-02  0.8512025E-01
       -2   -1    0    0    0  501  0.00000000000E+00  0.00000000000E+00  0.21692113584E+04  0.21692113584E+04  0.25500000920E-02 0.  1.
        2   -1    0    0  501    0  0.00000000000E+00  0.00000000000E+00 -0.56566860526E+03  0.56566860527E+03  0.25500000920E-02 0. -1.
    10030    2    1    2    0    0  0.00000000000E+00  0.00000000000E+00  0.16035427532E+04  0.27348799637E+04  0.22154500795E+04 0.  0.
        2    1    3    3  502    0  0.25048277577E+03  0.71141207707E+03  0.18032858252E+04  0.19546581624E+04  0.25500000920E-02 0.  1.
       -2    1    3    3    0  502 -0.25048277577E+03 -0.71141207707E+03 -0.19974307207E+03  0.78022180129E+03  0.25500000920E-02 0. -1.
</event>
<event>
 5   0  0.5849604E-05  0.2166526E+04  0.7818609E-02  0.8532491E-01
       -1   -1    0    0    0  501  0.00000000000E+00  0.00000000000E+00  0.10786122968E+04  0.10786122968E+04  0.50400001928E-02 0. -1.
        1   -1    0    0  501    0  0.00000000000E+00  0.00000000000E+00 -0.10879336417E+04  0.10879336417E+04  0.50400001928E-02 0.  1.
    10030    2    1    2    0    0  0.00000000000E+00  0.00000000000E+00 -0.93213449318E+01  0.21665459385E+04  0.21665258863E+04 0.  0.
        2    1    3    3  502    0 -0.24628643831E+03 -0.31385138802E+03 -0.10117940679E+04  0.10876060589E+04  0.25500000920E-02 0.  1.
       -2    1    3    3    0  502  0.24628643831E+03  0.31385138802E+03  0.10024727230E+04  0.10789398796E+04  0.25500000920E-02 0. -1.
</event>
<event>
 5   0  0.5849604E-05  0.2109868E+04  0.7818609E-02  0.8556909E-01
        1   -1    0    0  501    0  0.00000000000E+00  0.00000000000E+00  0.16930821979E+04  0.16930821979E+04  0.50400001928E-02 0. -1.
       -1   -1    0    0    0  501  0.00000000000E+00  0.00000000000E+00 -0.65731326454E+03  0.65731326456E+03  0.50400001928E-02 0.  1.
    10030    2    1    2    0    0  0.00000000000E+00  0.00000000000E+00  0.10357689334E+04  0.23503954625E+04  0.21098676609E+04 0.  0.
        2    1    3    3  502    0  0.10429918306E+04 -0.14894454563E+03  0.45821567499E+03  0.11489029729E+04  0.25500000920E-02 0. -1.
       -2    1    3    3    0  502 -0.10429918306E+04  0.14894454563E+03  0.57755325836E+03  0.12014924896E+04  0.25500000920E-02 0.  1.
</event>
<event>
 5   0  0.1241430E-04  0.1716254E+04  0.7818609E-02  0.8752148E-01
        2   -1    0    0  501    0  0.00000000000E+00  0.00000000000E+00  0.12344399031E+04  0.12344399031E+04  0.25500000920E-02 0.  1.
       -2   -1    0    0    0  501  0.00000000000E+00  0.00000000000E+00 -0.59653117069E+03  0.59653117069E+03  0.25500000920E-02 0. -1.
    10030    2    1    2    0    0  0.00000000000E+00  0.00000000000E+00  0.63790873239E+03  0.18309710738E+04  0.17162539212E+04 0.  0.
        1    1    3    3  502    0  0.62983351568E+03  0.34706510837E+03  0.81847944329E+03  0.10895196400E+04  0.50400001928E-02 0.  1.
       -1    1    3    3    0  502 -0.62983351568E+03 -0.34706510837E+03 -0.18057071090E+03  0.74145143373E+03  0.50400001928E-02 0. -1.
</event>
<event>
 5   0  0.5861816E-05  0.2294991E+04  0.7818609E-02  0.8479899E-01
       -1   -1    0    0    0  501  0.00000000000E+00  0.00000000000E+00  0.14438603567E+04  0.14438603567E+04  0.50400001928E-02 0. -1.
        1   -1    0    0  501    0  0.00000000000E+00  0.00000000000E+00 -0.91196215224E+03  0.91196215226E+03  0.50400001928E-02 0.  1.
    10030    2    1    2    0    0  0.00000000000E+00  0.00000000000E+00  0.53189820443E+03  0.23558225089E+04  0.22949910662E+04 0.  0.
        1    1    3    3  502    0  0.10398594423E+04  0.18796995880E+03 -0.19323963270E+03  0.10742355053E+04  0.50400001928E-02 0.  1.
       -1    1    3    3    0  502 -0.10398594423E+04 -0.18796995880E+03  0.72513783713E+03  0.12815870037E+04  0.50400001928E-02 0. -1.
</event>
<event>
 5   0  0.5895063E-05  0.1553940E+04  0.7818609E-02  0.8849355E-01
        1   -1    0    0  501    0  0.00000000000E+00  0.00000000000E+00  0.19989145856E+04  0.19989145856E+04  0.50400001928E-02 0.  1.
       -1   -1    0    0    0  501  0.00000000000E+00  0.00000000000E+00 -0.30200527615E+03  0.30200527619E+03  0.50400001928E-02 0. -1.
    10030    2    1    2    0    0  0.00000000000E+00  0.00000000000E+00  0.16969093094E+04  0.23009198618E+04  0.15539404769E+04 0.  0.
        5    1    3    3  502    0 -0.82512870052E+02  0.23192803637E+03  0.19396228289E+04  0.19551874069E+04  0.46999998093E+01 0.  1.
       -5    1    3    3    0  502  0.82512870052E+02 -0.23192803637E+03 -0.24271351949E+03  0.34573245483E+03  0.46999998093E+01 0. -1.
</event>
<event>
 5   0  0.1241430E-04  0.2200339E+04  0.7818609E-02  0.8518287E-01
       -2   -1    0    0    0  501  0.00000000000E+00  0.00000000000E+00  0.65505285757E+03  0.65505285758E+03  0.25500000920E-02 0. -1.
        2   -1    0    0  501    0  0.00000000000E+00  0.00000000000E+00 -0.18477481841E+04  0.18477481841E+04  0.25500000920E-02 0.  1.
    10030    2    1    2    0    0  0.00000000000E+00  0.00000000000E+00 -0.11926953266E+04  0.25028010417E+04  0.22003388176E+04 0.  0.
        1    1    3    3  502    0  0.95562292934E+02  0.69786844485E+03  0.36493881640E+03  0.79330502198E+03  0.50400001928E-02 0. -1.
       -1    1    3    3    0  502 -0.95562292934E+02 -0.69786844485E+03 -0.15576341430E+04  0.17094960197E+04  0.50400001928E-02 0.  1.
</event>
<event>
 5   0  0.5981239E-05  0.2213398E+04  0.7818609E-02  0.8512872E-01
        1   -1    0    0  501    0  0.00000000000E+00  0.00000000000E+00  0.89543240902E+03  0.89543240904E+03  0.50400001928E-02 0.  1.
       -1   -1    0    0    0  501  0.00000000000E+00  0.00000000000E+00 -0.13678110822E+04  0.13678110822E+04  0.50400001928E-02 0. -1.
    10030    2    1    2    0    0  0.00000000000E+00  0.00000000000E+00 -0.47237867314E+03  0.22632434912E+04  0.22133977251E+04 0.  0.
        4    1    3    3  502    0  0.21448939650E+03  0.63059794073E+03 -0.11399034397E+04  0.13202427537E+04  0.12699999809E+01 0. -1.
       -4    1    3    3    0  502 -0.21448939650E+03 -0.63059794073E+03  0.66752476654E+03  0.94300073749E+03  0.12699999809E+01 0.  1.
</event>
<event>
 5   0  0.1226021E-04  0.2162007E+04  0.7818609E-02  0.8534410E-01
        2   -1    0    0  501    0  0.00000000000E+00  0.00000000000E+00  0.17948433417E+04  0.17948433417E+04  0.25500000920E-02 0.  1.
       -2   -1    0    0    0  501  0.00000000000E+00  0.00000000000E+00 -0.65106990816E+03  0.65106990817E+03  0.25500000920E-02 0. -1.
    10030    2    1    2    0    0  0.00000000000E+00  0.00000000000E+00  0.11437734336E+04  0.24459132499E+04  0.21620069285E+04 0.  0.
        2    1    3    3  502    0  0.75193927878E+03  0.83466594356E+02  0.14454130427E+04  0.16314405338E+04  0.25500000920E-02 0.  1.
       -2    1    3    3    0  502 -0.75193927878E+03 -0.83466594356E+02 -0.30163960919E+03  0.81447271604E+03  0.25500000920E-02 0. -1.
</event>
<event>
 5   0  0.5981239E-05  0.2214597E+04  0.7818609E-02  0.8512377E-01
       -1   -1    0    0    0  501  0.00000000000E+00  0.00000000000E+00  0.11257022434E+04  0.11257022435E+04  0.50400001928E-02 0.  1.
        1   -1    0    0  501    0  0.00000000000E+00  0.00000000000E+00 -0.10891955687E+04  0.10891955687E+04  0.50400001928E-02 0. -1.
    10030    2    1    2    0    0  0.00000000000E+00  0.00000000000E+00  0.36506674758E+02  0.22148978121E+04  0.22145969342E+04 0.  0.
        4    1    3    3  502    0  0.17177681367E+03 -0.87067289899E+03  0.68055906594E+03  0.11183652471E+04  0.12699999809E+01 0.  1.
       -4    1    3    3    0  502 -0.17177681367E+03  0.87067289899E+03 -0.64405239118E+03  0.10965325651E+04  0.12699999809E+01 0. -1.
</event>
<event>
 5   0  0.5861816E-05  0.2125654E+04  0.7818609E-02  0.8550026E-01
        1   -1    0    0  501    0  0.00000000000E+00  0.00000000000E+00  0.14509790041E+04  0.14509790041E+04  0.50400001928E-02 0.  1.
       -1   -1    0    0    0  501  0.00000000000E+00  0.00000000000E+00 -0.77850977842E+03  0.77850977844E+03  0.50400001928E-02 0. -1.
    10030    2    1    2    0    0  0.00000000000E+00  0.00000000000E+00  0.67246922566E+03  0.22294887825E+04  0.21256541045E+04 0.  0.
        1    1    3    3  502    0  0.65579635180E+02 -0.73932632327E+03  0.11341161253E+04  0.13554052849E+04  0.50400001928E-02 0.  1.
       -1    1    3    3    0  502 -0.65579635180E+02  0.73932632327E+03 -0.46164689960E+03  0.87408349759E+03  0.50400001928E-02 0. -1.
</event>
<event>
 5   0  0.1404159E-04  0.2229193E+04  0.7818609E-02  0.8506375E-01
        2   -1    0    0  501    0  0.00000000000E+00  0.00000000000E+00  0.15995984470E+04  0.15995984470E+04  0.25500000920E-02 0. -1.
       -2   -1    0    0    0  501  0.00000000000E+00  0.00000000000E+00 -0.77664826201E+03  0.77664826201E+03  0.25500000920E-02 0.  1.
    10030    2    1    2    0    0  0.00000000000E+00  0.00000000000E+00  0.82295018504E+03  0.23762467091E+04  0.22291929964E+04 0.  0.
        5    1    3    3  502    0 -0.81380479454E+02 -0.53849786398E+03  0.14480976978E+04  0.15471301704E+04  0.46999998093E+01 0. -1.
       -5    1    3    3    0  502  0.81380479454E+02  0.53849786398E+03 -0.62514751274E+03  0.82911653863E+03  0.46999998093E+01 0.  1.
</event>
<event>
 5   0  0.6263558E-05  0.2150742E+04  0.7818609E-02  0.8539215E-01
        1   -1    0    0  501    0  0.00000000000E+00  0.00000000000E+00  0.11411811587E+04  0.11411811587E+04  0.50400001928E-02 0.  1.
       -1   -1    0    0    0  501  0.00000000000E+00  0.00000000000E+00 -0.10133557474E+04  0.10133557474E+04  0.50400001928E-02 0. -1.
    10030    2    1    2    0    0  0.00000000000E+00  0.00000000000E+00  0.12782541124E+03  0.21545369061E+04  0.21507417195E+04 0.  0.
        3    1    3    3  502    0 -0.60924007581E+03 -0.58248610796E+03 -0.60506726547E+03  0.10375788847E+04  0.10100000352E+00 0. -1.
       -3    1    3    3    0  502  0.60924007581E+03  0.58248610796E+03  0.73289267671E+03  0.11169580215E+04  0.10100000352E+00 0.  1.
</event>
<event>
 5   0  0.6263558E-05  0.2378343E+04  0.7818609E-02  0.8447656E-01
       -1   -1    0    0    0  501  0.00000000000E+00  0.00000000000E+00  0.18876791182E+04  0.18876791182E+04  0.50400001928E-02 0.  1.
        1   -1    0    0  501    0  0.00000000000E+00  0.00000000000E+00 -0.74913630288E+03  0.74913630289E+03  0.50400001928E-02 0. -1.
    10030    2    1    2    0    0  0.00000000000E+00  0.00000000000E+00  0.11385428153E+04  0.26368154211E+04  0.23783430835E+04 0.  0.
        3    1    3    3  502    0 -0.57116594988E+02 -0.64146344065E+03  0.16776114092E+04  0.17969745968E+04  0.10100000352E+00 0.  1.
       -3    1    3    3    0  502  0.57116594988E+02  0.64146344065E+03 -0.53906859384E+03  0.83984082432E+03  0.10100000352E+00 0. -1.
</event>
<event>
 5   0  0.1226021E-04  0.2197858E+04  0.7818609E-02  0.8519320E-01
       -2   -1    0    0    0  501  0.00000000000E+00  0.00000000000E+00  0.20253669743E+04  0.20253669743E+04  0.25500000920E-02 0. -1.
        2   -1    0    0  501    0  0.00000000000E+00  0.00000000000E+00 -0.59625963888E+03  0.59625963888E+03  0.25500000920E-02 0.  1.
    10030    2    1    2    0    0  0.00000000000E+00  0.00000000000E+00  0.14291073354E+04  0.26216266132E+04  0.21978576666E+04 0.  0.
        2    1    3    3  502    0 -0.40524393037E+03  0.69235166307E+03  0.16104096588E+04  0.17991644554E+04  0.25500000920E-02 0. -1.
       -2    1    3    3    0  502  0.40524393037E+03 -0.69235166307E+03 -0.18130232341E+03  0.82246215775E+03  0.25500000920E-02 0.  1.
</event>
<event>
 5   0  0.1311472E-04  0.2153889E+04  0.7818609E-02  0.8537870E-01
        2   -1    0    0  501    0  0.00000000000E+00  0.00000000000E+00  0.10928703593E+04  0.10928703593E+04  0.25500000920E-02 0.  1.
       -2   -1    0    0    0  501  0.00000000000E+00  0.00000000000E+00 -0.10612503111E+04  0.10612503111E+04  0.25500000920E-02 0. -1.
    10030    2    1    2    0    0  0.00000000000E+00  0.00000000000E+00  0.31620048165E+02  0.21541206704E+04  0.21538885847E+04 0.  0.
        4    1    3    3  502    0 -0.11785686703E+03 -0.54630981128E+03 -0.90486656752E+03  0.10635458471E+04  0.12699999809E+01 0. -1.
       -4    1    3    3    0  502  0.11785686703E+03  0.54630981128E+03  0.93648661569E+03  0.10905748233E+04  0.12699999809E+01 0.  1.
</event>
<event>
 5   0  0.6263558E-05  0.2191678E+04  0.7818609E-02  0.8521900E-01
        1   -1    0    0  501    0  0.00000000000E+00  0.00000000000E+00  0.12922353429E+04  0.12922353429E+04  0.50400001928E-02 0.  1.
       -1   -1    0    0    0  501  0.00000000000E+00  0.00000000000E+00 -0.92929093437E+03  0.92929093438E+03  0.50400001928E-02 0. -1.
    10030    2    1    2    0    0  0.00000000000E+00  0.00000000000E+00  0.36294440854E+03  0.22215262773E+04  0.21916775212E+04 0.  0.
        3    1    3    3  502    0 -0.34765291857E+03  0.89843614210E+03  0.71090026322E+03  0.11972590562E+04  0.10100000352E+00 0.  1.
       -3    1    3    3    0  502  0.34765291857E+03 -0.89843614210E+03 -0.34795585467E+03  0.10242672211E+04  0.10100000352E+00 0. -1.
</event>
<event>
 5   0  0.1226021E-04  0.2260627E+04  0.7818609E-02  0.8493609E-01
        2   -1    0    0  501    0  0.00000000000E+00  0.00000000000E+00  0.17073928847E+04  0.17073928847E+04  0.25500000920E-02 0.  1.
       -2   -1    0    0    0  501  0.00000000000E+00  0.00000000000E+00 -0.74828034189E+03  0.74828034190E+03  0.25500000920E-02 0. -1.
    10030    2    1    2    0    0  0.00000000000E+00  0.00000000000E+00  0.95911254281E+03  0.24556732266E+04  0.22606269321E+04 0.  0.
        2    1    3    3  502    0  0.36833651600E+03  0.26467354235E+03  0.16042019156E+04  0.16670895773E+04  0.25500000920E-02 0.  1.
       -2    1    3    3    0  502 -0.36833651600E+03 -0.26467354235E+03 -0.64508937274E+03  0.78858364925E+03  0.25500000920E-02 0. -1.
</event>
<event>
 5   0  0.1311472E-04  0.2197265E+04  0.7818609E-02  0.8519568E-01
        2   -1    0    0  501    0  0.00000000000E+00  0.00000000000E+00  0.85853781276E+03  0.85853781276E+03  0.25500000920E-02 0.  1.
       -2   -1    0    0    0  501  0.00000000000E+00  0.00000000000E+00 -0.14058704072E+04  0.14058704072E+04  0.25500000920E-02 0. -1.
    10030    2    1    2    0    0  0.00000000000E+00  0.00000000000E+00 -0.54733259445E+03  0.22644082200E+04  0.21972645762E+04 0.  0.
        4    1    3    3  502    0  0.49278957657E+03 -0.38943226689E+03  0.65526154070E+03  0.90767194344E+03  0.12699999809E+01 0.  1.
       -4    1    3    3    0  502 -0.49278957657E+03  0.38943226689E+03 -0.12025941352E+04  0.13567362765E+04  0.12699999809E+01 0. -1.
</event>
<event>
 5   0  0.1252124E-04  0.2093619E+04  0.7818609E-02  0.8564060E-01
        2   -1    0    0  501    0  0.00000000000E+00  0.00000000000E+00  0.19140780085E+04  0.19140780085E+04  0.25500000920E-02 0. -1.
       -2   -1    0    0    0  501  0.00000000000E+00  0.00000000000E+00 -0.57250013029E+03  0.57250013029E+03  0.25500000920E-02 0.  1.
    10030    2    1    2    0    0  0.00000000000E+00  0.00000000000E+00  0.13415778783E+04  0.24865781388E+04  0.20936187898E+04 0.  0.
        3    1    3    3  502    0 -0.29057052244E+03  0.91475140107E+03  0.17449696695E+03  0.97552578435E+03  0.10100000352E+00 0.  1.
       -3    1    3    3    0  502  0.29057052244E+03 -0.91475140107E+03  0.11670809113E+04  0.15110523545E+04  0.10100000352E+00 0. -1.
</event>
<event>
 5   0  0.6263558E-05  0.2149632E+04  0.7818609E-02  0.8539690E-01
       -1   -1    0    0    0  501  0.00000000000E+00  0.00000000000E+00  0.15150836684E+04  0.15150836684E+04  0.50400001928E-02 0.  1.
        1   -1    0    0  501    0  0.00000000000E+00  0.00000000000E+00 -0.76248589202E+03  0.76248589203E+03  0.50400001928E-02 0. -1.
    10030    2    1    2    0    0  0.00000000000E+00  0.00000000000E+00  0.75259777639E+03  0.22775695604E+04  0.21496324545E+04 0.  0.
        3    1    3    3  502    0  0.24507010146E+03 -0.17152577710E+03 -0.71749376321E+03  0.77735304546E+03  0.10100000352E+00 0. -1.
       -3    1    3    3    0  502 -0.24507010146E+03  0.17152577710E+03  0.14700915396E+04  0.15002165150E+04  0.10100000352E+00 0.  1.
</event>
<event>
 5   0  0.1226021E-04  0.2176490E+04  0.7818609E-02  0.8528278E-01
        2   -1    0    0  501    0  0.00000000000E+00  0.00000000000E+00  0.32226026941E+04  0.32226026941E+04  0.25500000920E-02 0.  1.
       -2   -1    0    0    0  501  0.00000000000E+00  0.00000000000E+00 -0.36749103297E+03  0.36749103298E+03  0.25500000920E-02 0. -1.
    10030    2    1    2    0    0  0.00000000000E+00  0.00000000000E+00  0.28551116611E+04  0.35900937271E+04  0.21764903794E+04 0.  0.
        2    1    3    3  502    0  0.95116281878E+03  0.22741983417E+03  0.64020046449E+03  0.11688828528E+04  0.25500000920E-02 0. -1.
       -2    1    3    3    0  502 -0.95116281878E+03 -0.22741983417E+03  0.22149111967E+04  0.24212108743E+04  0.25500000920E-02 0.  1.
</event>
<event>
 5   0  0.4586375E-05  0.2173518E+04  0.7818609E-02  0.8529532E-01
        3   -1    0    0  501    0  0.00000000000E+00  0.00000000000E+00  0.11554353730E+04  0.11554353774E+04  0.10100000352E+00 0. -1.
       -3   -1    0    0    0  501  0.00000000000E+00  0.00000000000E+00 -0.10221645706E+04  0.10221645756E+04  0.10100000352E+00 0.  1.
    10030    2    1    2    0    0  0.00000000000E+00  0.00000000000E+00  0.13327080240E+03  0.21775999530E+04  0.21735179891E+04 0.  0.
        2    1    3    3  502    0 -0.33878642492E+02  0.99711285521E+03  0.49833127396E+03  0.11152200980E+04  0.25500000920E-02 0. -1.
       -2    1    3    3    0  502  0.33878642492E+02 -0.99711285521E+03 -0.36506047155E+03  0.10623798550E+04  0.25500000920E-02 0.  1.
</event>
<event>
 5   0  0.5981239E-05  0.2205240E+04  0.7818609E-02  0.8516250E-01
       -1   -1    0    0    0  501  0.00000000000E+00  0.00000000000E+00  0.56368734802E+03  0.56368734805E+03  0.50400001928E-02 0.  1.
        1   -1    0    0  501    0  0.00000000000E+00  0.00000000000E+00 -0.21568171455E+04  0.21568171455E+04  0.50400001928E-02 0. -1.
    10030    2    1    2    0    0  0.00000000000E+00  0.00000000000E+00 -0.15931297975E+04  0.27205044935E+04  0.22052397030E+04 0.  0.
        4    1    3    3  502    0 -0.62874500272E+03  0.37115867015E+03 -0.18158727737E+04  0.19571598248E+04  0.12699999809E+01 0. -1.
       -4    1    3    3    0  502  0.62874500272E+03 -0.37115867015E+03  0.22274297622E+03  0.76334466870E+03  0.12699999809E+01 0.  1.
</event>
<event>
 5   0  0.1226021E-04  0.2209071E+04  0.7818609E-02  0.8514662E-01
       -2   -1    0    0    0  501  0.00000000000E+00  0.00000000000E+00  0.14768357682E+04  0.14768357682E+04  0.25500000920E-02 0. -1.
        2   -1    0    0  501    0  0.00000000000E+00  0.00000000000E+00 -0.82608953723E+03  0.82608953723E+03  0.25500000920E-02 0.  1.
    10030    2    1    2    0    0  0.00000000000E+00  0.00000000000E+00  0.65074623094E+03  0.23029253054E+04  0.22090709145E+04 0.  0.
        2    1    3    3  502    0 -0.74068630732E+03  0.32169090345E+03  0.11109796895E+04  0.13734544454E+04  0.25500000920E-02 0. -1.
       -2    1    3    3    0  502  0.74068630732E+03 -0.32169090345E+03 -0.46023345852E+03  0.92947085999E+03  0.25500000920E-02 0.  1.
</event>
<event>
 5   0  0.5895063E-05  0.2203602E+04  0.7818609E-02  0.8516930E-01
       -1   -1    0    0    0  501  0.00000000000E+00  0.00000000000E+00  0.13060821048E+04  0.13060821048E+04  0.50400001928E-02 0. -1.
        1   -1    0    0  501    0  0.00000000000E+00  0.00000000000E+00 -0.92947101659E+03  0.92947101661E+03  0.50400001928E-02 0.  1.
    10030    2    1    2    0    0  0.00000000000E+00  0.00000000000E+00  0.37661108821E+03  0.22355531214E+04  0.22036020165E+04 0.  0.
        5    1    3    3  502    0 -0.50661517492E+03 -0.41163836799E+03  0.10887778802E+04  0.12694740816E+04  0.46999998093E+01 0. -1.
       -5    1    3    3    0  502  0.50661517492E+03  0.41163836799E+03 -0.71216679202E+03  0.96607903979E+03  0.46999998093E+01 0.  1.
</event>
<event>
 5   0  0.6263558E-05  0.1572377E+04  0.7818609E-02  0.8837700E-01
       -1   -1    0    0    0  501  0.00000000000E+00  0.00000000000E+00  0.11620864643E+04  0.11620864643E+04  0.50400001928E-02 0.  1.
        1   -1    0    0  501    0  0.00000000000E+00  0.00000000000E+00 -0.53188188657E+03  0.53188188660E+03  0.50400001928E-02 0. -1.
    10030    2    1    2    0    0  0.00000000000E+00  0.00000000000E+00  0.63020457774E+03  0.16939683509E+04  0.15723774878E+04 0.  0.
        3    1    3    3  502    0 -0.61984021887E+03  0.41047696999E+03  0.59061120540E+03  0.94948135631E+03  0.10100000352E+00 0.  1.
       -3    1    3    3    0  502  0.61984021887E+03 -0.41047696999E+03  0.39593372340E+02  0.74448699462E+03  0.10100000352E+00 0. -1.
</event>
<event>
 5   0  0.6263558E-05  0.2186573E+04  0.7818609E-02  0.8524038E-01
        1   -1    0    0  501    0  0.00000000000E+00  0.00000000000E+00  0.15173090568E+04  0.15173090568E+04  0.50400001928E-02 0.  1.
       -1   -1    0    0    0  501  0.00000000000E+00  0.00000000000E+00 -0.78775991281E+03  0.78775991283E+03  0.50400001928E-02 0. -1.
    10030    2    1    2    0    0  0.00000000000E+00  0.00000000000E+00  0.72954914395E+03  0.23050689696E+04  0.21865728895E+04 0.  0.
        3    1    3    3  502    0 -0.10339028876E+04 -0.34461318409E+03  0.27310337199E+03  0.11235207562E+04  0.10100000352E+00 0.  1.
       -3    1    3    3    0  502  0.10339028876E+04  0.34461318409E+03  0.45644577196E+03  0.11815482134E+04  0.10100000352E+00 0. -1.
</event>
<event>
 5   0  0.5849604E-05  0.2103315E+04  0.7818609E-02  0.8559785E-01
        1   -1    0    0  501    0  0.00000000000E+00  0.00000000000E+00  0.41321720913E+03  0.41321720916E+03  0.50400001928E-02 0.  1.
       -1   -1    0    0    0  501  0.00000000000E+00  0.00000000000E+00 -0.26765178531E+04  0.26765178531E+04  0.50400001928E-02 0. -1.
    10030    2    1    2    0    0  0.00000000000E+00  0.00000000000E+00 -0.22633006440E+04  0.30897350623E+04  0.21033147530E+04 0.  0.
        2    1    3    3  502    0 -0.26853165762E+02 -0.41823205923E+03 -0.25485489335E+04  0.25827777322E+04  0.25500000920E-02 0. -1.
       -2    1    3    3    0  502  0.26853165762E+02  0.41823205923E+03  0.28524828944E+03  0.50695733007E+03  0.25500000920E-02 0.  1.
</event>
<event>
 5   0  0.1404159E-04  0.2366205E+04  0.7818609E-02  0.8452265E-01
       -2   -1    0    0    0  501  0.00000000000E+00  0.00000000000E+00  0.95950110570E+03  0.95950110570E+03  0.25500000920E-02 0. -1.
        2   -1    0    0  501    0  0.00000000000E+00  0.00000000000E+00 -0.14588114600E+04  0.14588114600E+04  0.25500000920E-02 0.  1.
    10030    2    1    2    0    0  0.00000000000E+00  0.00000000000E+00 -0.49931035434E+03  0.24183125657E+04  0.23662047324E+04 0.  0.
        5    1    3    3  502    0 -0.51153698372E+03  0.18504037307E+03 -0.13234100072E+04  0.14308550460E+04  0.46999998093E+01 0.  1.
       -5    1    3    3    0  502  0.51153698372E+03 -0.18504037307E+03  0.82409965290E+03  0.98745751974E+03  0.46999998093E+01 0. -1.
</event>
<event>
 5   0  0.5981239E-05  0.1754366E+04  0.7818609E-02  0.8730951E-01
        1   -1    0    0  501    0  0.00000000000E+00  0.00000000000E+00  0.91068709341E+03  0.91068709342E+03  0.50400001928E-02 0. -1.
       -1   -1    0    0    0  501  0.00000000000E+00  0.00000000000E+00 -0.84491111719E+03  0.84491111721E+03  0.50400001928E-02 0.  1.
    10030    2    1    2    0    0  0.00000000000E+00  0.00000000000E+00  0.65775976216E+02  0.17555982106E+04  0.17543655828E+04 0.  0.
        4    1    3    3  502    0  0.19319033860E+03 -0.70491897903E+03 -0.45244221438E+03  0.85961552113E+03  0.12699999809E+01 0.  1.
       -4    1    3    3    0  502 -0.19319033860E+03  0.70491897903E+03  0.51821819059E+03  0.89598268950E+03  0.12699999809E+01 0. -1.
</event>
<event>
 5   0  0.6263558E-05  0.2179322E+04  0.7818609E-02  0.8527084E-01
       -1   -1    0    0    0  501  0.00000000000E+00  0.00000000000E+00  0.57783989017E+03  0.57783989019E+03  0.50400001928E-02 0. -1.
        1   -1    0    0  501    0  0.00000000000E+00  0.00000000000E+00 -0.20548266736E+04  0.20548266736E+04  0.50400001928E-02 0.  1.
    10030    2    1    2    0    0  0.00000000000E+00  0.00000000000E+00 -0.14769867834E+04  0.26326665638E+04  0.21793217472E+04 0.  0.
        3    1    3    3  502    0  0.54961006450E+03  0.89743900071E+03 -0.39704238511E+03  0.11247713762E+04  0.10100000352E+00 0.  1.
       -3    1    3    3    0  502 -0.54961006450E+03 -0.89743900071E+03 -0.10799443983E+04  0.15078951876E+04  0.10100000352E+00 0. -1.
</event>
<event>
 5   0  0.1226021E-04  0.2198738E+04  0.7818609E-02  0.8518954E-01
        2   -1    0    0  501    0  0.00000000000E+00  0.00000000000E+00  0.19505220922E+04  0.19505220922E+04  0.25500000920E-02 0.  1.
       -2   -1    0    0    0  501  0.00000000000E+00  0.00000000000E+00 -0.61963504152E+03  0.61963504152E+03  0.25500000920E-02 0. -1.
    10030    2    1    2    0    0  0.00000000000E+00  0.00000000000E+00  0.13308870507E+04  0.25701571337E+04  0.21987376720E+04 0.  0.
        2    1    3    3  502    0 -0.21338929802E+03 -0.60716905052E+03 -0.37642291905E+03  0.74557592666E+03  0.25500000920E-02 0. -1.
       -2    1    3    3    0  502  0.21338929802E+03  0.60716905052E+03  0.17073099697E+04  0.18245812071E+04  0.25500000920E-02 0.  1.
</event>
<event>
 5   0  0.5849604E-05  0.1849117E+04  0.7818609E-02  0.8680607E-01
       -1   -1    0    0    0  501  0.00000000000E+00  0.00000000000E+00  0.61574263263E+03  0.61574263265E+03  0.50400001928E-02 0. -1.
        1   -1    0    0  501    0  0.00000000000E+00  0.00000000000E+00 -0.13882562681E+04  0.13882562681E+04  0.50400001928E-02 0.  1.
    10030    2    1    2    0    0  0.00000000000E+00  0.00000000000E+00 -0.77251363548E+03  0.20039989008E+04  0.18491171616E+04 0.  0.
        2    1    3    3  502    0 -0.65025370431E+02  0.32662469065E+03 -0.13209935970E+04  0.13623274462E+04  0.25500000920E-02 0.  1.
       -2    1    3    3    0  502  0.65025370431E+02 -0.32662469065E+03  0.54847996156E+03  0.64167145454E+03  0.25500000920E-02 0. -1.
</event>
<event>
 5   0  0.1404159E-04  0.2195154E+04  0.7818609E-02  0.8520448E-01
       -2   -1    0    0    0  501  0.00000000000E+00  0.00000000000E+00  0.63990010643E+03  0.63990010643E+03  0.25500000920E-02 0.  1.
        2   -1    0    0  501    0  0.00000000000E+00  0.00000000000E+00 -0.18825992076E+04  0.18825992077E+04  0.25500000920E-02 0. -1.
    10030    2    1    2    0    0  0.00000000000E+00  0.00000000000E+00 -0.12426991012E+04  0.25224993141E+04  0.21951541480E+04 0.  0.
        5    1    3    3  502    0  0.56124145718E+03 -0.70618109472E+03  0.97168274526E+02  0.90727475186E+03  0.46999998093E+01 0.  1.
       -5    1    3    3    0  502 -0.56124145718E+03  0.70618109472E+03 -0.13398673758E+04  0.16152245622E+04  0.46999998093E+01 0. -1.
</event>
<event>
 5   0  0.5861816E-05  0.2204481E+04  0.7818609E-02  0.8516565E-01
       -1   -1    0    0    0  501  0.00000000000E+00  0.00000000000E+00  0.10023856324E+04  0.10023856324E+04  0.50400001928E-02 0. -1.
        1   -1    0    0  501    0  0.00000000000E+00  0.00000000000E+00 -0.12120427086E+04  0.12120427086E+04  0.50400001928E-02 0.  1.
    10030    2    1    2    0    0  0.00000000000E+00  0.00000000000E+00 -0.20965707624E+03  0.22144283410E+04  0.22044810699E+04 0.  0.
        1    1    3    3  502    0  0.10143869290E+04  0.34659023126E+03  0.15289996818E+03  0.10828130173E+04  0.50400001928E-02 0. -1.
       -1    1    3    3    0  502 -0.10143869290E+04 -0.34659023126E+03 -0.36255704442E+03  0.11316153236E+04  0.50400001928E-02 0.  1.
</event>
<event>
 5   0  0.1252124E-04  0.2225726E+04  0.7818609E-02  0.8507796E-01
        2   -1    0    0  501    0  0.00000000000E+00  0.00000000000E+00  0.15866372348E+04  0.15866372348E+04  0.25500000920E-02 0.  1.
       -2   -1    0    0    0  501  0.00000000000E+00  0.00000000000E+00 -0.78055928113E+03  0.78055928113E+03  0.25500000920E-02 0. -1.
    10030    2    1    2    0    0  0.00000000000E+00  0.00000000000E+00  0.80607795363E+03  0.23671965159E+04  0.22257263258E+04 0.  0.
        3    1    3    3  502    0 -0.11075715775E+04  0.66621976891E+02  0.49397889705E+03  0.12145651271E+04  0.10100000352E+00 0. -1.
       -3    1    3    3    0  502  0.11075715775E+04 -0.66621976891E+02  0.31209905658E+03  0.11526313888E+04  0.10100000352E+00 0.  1.
</event>
<event>
 5   0  0.1404159E-04  0.2058499E+04  0.7818609E-02  0.8579748E-01
       -2   -1    0    0    0  501  0.00000000000E+00  0.00000000000E+00  0.47972645464E+03  0.47972645464E+03  0.25500000920E-02 0. -1.
        2   -1    0    0  501    0  0.00000000000E+00  0.00000000000E+00 -0.22082476651E+04  0.22082476651E+04  0.25500000920E-02 0.  1.
    10030    2    1    2    0    0  0.00000000000E+00  0.00000000000E+00 -0.17285212105E+04  0.26879741198E+04  0.20584992819E+04 0.  0.
        5    1    3    3  502    0  0.35055234801E+03  0.28776200489E+03  0.34219526191E+03  0.56816688343E+03  0.46999998093E+01 0. -1.
       -5    1    3    3    0  502 -0.35055234801E+03 -0.28776200489E+03 -0.20707164724E+04  0.21198072363E+04  0.46999998093E+01 0.  1.
</event>
<event>
 5   0  0.5861816E-05  0.2194236E+04  0.7818609E-02  0.8520831E-01
       -1   -1    0    0    0  501  0.00000000000E+00  0.00000000000E+00  0.12509457378E+04  0.12509457378E+04  0.50400001928E-02 0. -1.
        1   -1    0    0  501    0  0.00000000000E+00  0.00000000000E+00 -0.96220596208E+03  0.96220596210E+03  0.50400001928E-02 0.  1.
    10030    2    1    2    0    0  0.00000000000E+00  0.00000000000E+00  0.28873977571E+03  0.22131516999E+04  0.21942355819E+04 0.  0.
        1    1    3    3  502    0 -0.68861054462E+03  0.79693250763E+03 -0.16549435800E+03  0.10661492796E+04  0.50400001928E-02 0.  1.
       -1    1    3    3    0  502  0.68861054462E+03 -0.79693250763E+03  0.45423413371E+03  0.11470024203E+04  0.50400001928E-02 0. -1.
</event>
<event>
 5   0  0.1226021E-04  0.2183958E+04  0.7818609E-02  0.8525135E-01
       -2   -1    0    0    0  501  0.00000000000E+00  0.00000000000E+00  0.11307869548E+04  0.11307869548E+04  0.25500000920E-02 0. -1.
        2   -1    0    0  501    0  0.00000000000E+00  0.00000000000E+00 -0.10545030126E+04  0.10545030126E+04  0.25500000920E-02 0.  1.
    10030    2    1    2    0    0  0.00000000000E+00  0.00000000000E+00  0.76283942185E+02  0.21852899674E+04  0.21839581044E+04 0.  0.
        2    1    3    3  502    0  0.25035433662E+03  0.71238231425E+03 -0.75116885107E+03  0.10650917793E+04  0.25500000920E-02 0.  1.
       -2    1    3    3    0  502 -0.25035433662E+03 -0.71238231425E+03  0.82745279326E+03  0.11201981881E+04  0.25500000920E-02 0. -1.
</event>
<event>
 5   0  0.1404159E-04  0.1915785E+04  0.7818609E-02  0.8647039E-01
        2   -1    0    0  501    0  0.00000000000E+00  0.00000000000E+00  0.20040402410E+04  0.20040402410E+04  0.25500000920E-02 0. -1.
       -2   -1    0    0    0  501  0.00000000000E+00  0.00000000000E+00 -0.45785419175E+03  0.45785419176E+03  0.25500000920E-02 0.  1.
    10030    2    1    2    0    0  0.00000000000E+00  0.00000000000E+00  0.15461860492E+04  0.24618944328E+04  0.19157851913E+04 0.  0.
        5    1    3    3  502    0 -0.39656544560E+03 -0.85360722833E+03  0.10016262924E+04  0.13744769087E+04  0.46999998093E+01 0.  1.
       -5    1    3    3    0  502  0.39656544560E+03  0.85360722833E+03  0.54455975689E+03  0.10874175241E+04  0.46999998093E+01 0. -1.
</event>
<event>
 5   0  0.5849604E-05  0.2223727E+04  0.7818609E-02  0.8508617E-01
        1   -1    0    0  501    0  0.00000000000E+00  0.00000000000E+00  0.12133389277E+04  0.12133389277E+04  0.50400001928E-02 0. -1.
       -1   -1    0    0    0  501  0.00000000000E+00  0.00000000000E+00 -0.10188748083E+04  0.10188748084E+04  0.50400001928E-02 0.  1.
    10030    2    1    2    0    0  0.00000000000E+00  0.00000000000E+00  0.19446411939E+03  0.22322137361E+04  0.22237270224E+04 0.  0.
        2    1    3    3  502    0  0.43243512494E+03  0.37866734193E+03  0.10526266470E+04  0.11993381304E+04  0.25500000920E-02 0. -1.
       -2    1    3    3    0  502 -0.43243512494E+03 -0.37866734193E+03 -0.85816252758E+03  0.10328756057E+04  0.25500000920E-02 0.  1.
</event>
<event>
 5   0  0.1252124E-04  0.2212569E+04  0.7818609E-02  0.8513215E-01
       -2   -1    0    0    0  501  0.00000000000E+00  0.00000000000E+00  0.82851523559E+03  0.82851523560E+03  0.25500000920E-02 0.  1.
        2   -1    0    0  501    0  0.00000000000E+00  0.00000000000E+00 -0.14771788302E+04  0.14771788302E+04  0.25500000920E-02 0. -1.
    10030    2    1    2    0    0  0.00000000000E+00  0.00000000000E+00 -0.64866359461E+03  0.23056940658E+04  0.22125687935E+04 0.  0.
        3    1    3    3  502    0 -0.19100463030E+03 -0.81692925277E+03 -0.10757995043E+04  0.13642583174E+04  0.10100000352E+00 0. -1.
       -3    1    3    3    0  502  0.19100463030E+03  0.81692925277E+03  0.42713590972E+03  0.94143574842E+03  0.10100000352E+00 0.  1.
</event>
<event>
 5   0  0.5981239E-05  0.1562553E+04  0.7818609E-02  0.8843889E-01
        1   -1    0    0  501    0  0.00000000000E+00  0.00000000000E+00  0.47547748549E+03  0.47547748552E+03  0.50400001928E-02 0. -1.
       -1   -1    0    0    0  501  0.00000000000E+00  0.00000000000E+00 -0.12837467053E+04  0.12837467053E+04  0.50400001928E-02 0.  1.
    10030    2    1    2    0    0  0.00000000000E+00  0.00000000000E+00 -0.80826921977E+03  0.17592241908E+04  0.15625525981E+04 0.  0.
        4    1    3    3  502    0  0.38717808257E+03  0.50029825204E+03 -0.92029926688E+03  0.11167620884E+04  0.12699999809E+01 0.  1.
       -4    1    3    3    0  502 -0.38717808257E+03 -0.50029825204E+03  0.11203004712E+03  0.64246210236E+03  0.12699999809E+01 0. -1.
</event>
<event>
 5   0  0.5895063E-05  0.1975663E+04  0.7818609E-02  0.8618084E-01
        1   -1    0    0  501    0  0.00000000000E+00  0.00000000000E+00  0.14744748012E+04  0.14744748012E+04  0.50400001928E-02 0. -1.
       -1   -1    0    0    0  501  0.00000000000E+00  0.00000000000E+00 -0.66180232170E+03  0.66180232172E+03  0.50400001928E-02 0.  1.
    10030    2    1    2    0    0  0.00000000000E+00  0.00000000000E+00  0.81267247953E+03  0.21362771229E+04  0.19756627716E+04 0.  0.
        5    1    3    3  502    0  0.18047384323E+03 -0.92362993271E+02 -0.63905265127E+03  0.67045664417E+03  0.46999998093E+01 0.  1.
       -5    1    3    3    0  502 -0.18047384323E+03  0.92362993271E+02  0.14517251308E+04  0.14658204788E+04  0.46999998093E+01 0. -1.
</event>
<event>
 5   0  0.5895063E-05  0.1811533E+04  0.7818609E-02  0.8700190E-01
        1   -1    0    0  501    0  0.00000000000E+00  0.00000000000E+00  0.85663910375E+03  0.85663910376E+03  0.50400001928E-02 0. -1.
       -1   -1    0    0    0  501  0.00000000000E+00  0.00000000000E+00 -0.95771169798E+03  0.95771169800E+03  0.50400001928E-02 0.  1.
    10030    2    1    2    0    0  0.00000000000E+00  0.00000000000E+00 -0.10107259424E+03  0.18143508018E+04  0.18115333733E+04 0.  0.
        5    1    3    3  502    0 -0.44783930616E+03  0.46950362222E+02 -0.83765094585E+03  0.95102343701E+03  0.46999998093E+01 0.  1.
       -5    1    3    3    0  502  0.44783930616E+03 -0.46950362222E+02  0.73657835162E+03  0.86332736475E+03  0.46999998093E+01 0. -1.
</event>
<event>
 5   0  0.4586375E-05  0.2183814E+04  0.7818609E-02  0.8525195E-01
       -3   -1    0    0    0  501  0.00000000000E+00  0.00000000000E+00  0.94400009189E+03  0.94400009730E+03  0.10100000352E+00 0. -1.
        3   -1    0    0  501    0  0.00000000000E+00  0.00000000000E+00 -0.12629884456E+04  0.12629884497E+04  0.10100000352E+00 0.  1.
    10030    2    1    2    0    0  0.00000000000E+00  0.00000000000E+00 -0.31898835376E+03  0.22069885470E+04  0.21838142954E+04 0.  0.
        2    1    3    3  502    0 -0.63643604455E+03 -0.86743851029E+03 -0.34791518648E+03  0.11307278120E+04  0.25500000920E-02 0.  1.
       -2    1    3    3    0  502  0.63643604455E+03  0.86743851029E+03  0.28926832721E+02  0.10762607349E+04  0.25500000920E-02 0. -1.
</event>
<event>
 5   0  0.1252124E-04  0.2217511E+04  0.7818609E-02  0.8511175E-01
       -2   -1    0    0    0  501  0.00000000000E+00  0.00000000000E+00  0.70301422550E+03  0.70301422550E+03  0.25500000920E-02 0. -1.
        2   -1    0    0  501    0  0.00000000000E+00  0.00000000000E+00 -0.17486687101E+04  0.17486687101E+04  0.25500000920E-02 0.  1.
    10030    2    1    2    0    0  0.00000000000E+00  0.00000000000E+00 -0.10456544846E+04  0.24516829356E+04  0.22175111985E+04 0.  0.
        3    1    3    3  502    0 -0.37394774542E+03 -0.66024610356E+03 -0.14166407378E+04  0.16070571937E+04  0.10100000352E+00 0.  1.
       -3    1    3    3    0  502  0.37394774542E+03  0.66024610356E+03  0.37098625323E+03  0.84462574189E+03  0.10100000352E+00 0. -1.
</event>
<event>
 5   0  0.5895063E-05  0.2174930E+04  0.7818609E-02  0.8528936E-01
        1   -1    0    0  501    0  0.00000000000E+00  0.00000000000E+00  0.12186091645E+04  0.12186091645E+04  0.50400001928E-02 0. -1.
       -1   -1    0    0    0  501  0.00000000000E+00  0.00000000000E+00 -0.97043422648E+03  0.97043422649E+03  0.50400001928E-02 0.  1.
    10030    2    1    2    0    0  0.00000000000E+00  0.00000000000E+00  0.24817493805E+03  0.21890433910E+04  0.21749299225E+04 0.  0.
        5    1    3    3  502    0  0.52128642791E+03  0.95418491547E+03  0.14290529432E+03  0.10966550989E+04  0.46999998093E+01 0.  1.
       -5    1    3    3    0  502 -0.52128642791E+03 -0.95418491547E+03  0.10526964372E+03  0.10923882921E+04  0.46999998093E+01 0. -1.
</event>
<event>
 5   0  0.5895063E-05  0.2178448E+04  0.7818609E-02  0.8527453E-01
        1   -1    0    0  501    0  0.00000000000E+00  0.00000000000E+00  0.81487375251E+03  0.81487375253E+03  0.50400001928E-02 0.  1.
       -1   -1    0    0    0  501  0.00000000000E+00  0.00000000000E+00 -0.14559416560E+04  0.14559416560E+04  0.50400001928E-02 0. -1.
    10030    2    1    2    0    0  0.00000000000E+00  0.00000000000E+00 -0.64106790350E+03  0.22708154086E+04  0.21784477416E+04 0.  0.
        5    1    3    3  502    0 -0.75570831087E+03 -0.78329094631E+03 -0.27696717696E+03  0.11231084831E+04  0.46999998093E+01 0.  1.
       -5    1    3    3    0  502  0.75570831087E+03  0.78329094631E+03 -0.36410072654E+03  0.11477069255E+04  0.46999998093E+01 0. -1.
</event>
<event>
 5   0  0.1252124E-04  0.2283672E+04  0.7818609E-02  0.8484387E-01
        2   -1    0    0  501    0  0.00000000000E+00  0.00000000000E+00  0.19505930615E+04  0.19505930615E+04  0.25500000920E-02 0.  1.
       -2   -1    0    0    0  501  0.00000000000E+00  0.00000000000E+00 -0.66840662035E+03  0.66840662036E+03  0.25500000920E-02 0. -1.
    10030    2    1    2    0    0  0.00000000000E+00  0.00000000000E+00  0.12821864412E+04  0.26189996819E+04  0.22836718818E+04 0.  0.
        3    1    3    3  502    0 -0.11684516532E+03 -0.90450128933E+03  0.14290078228E+04  0.16952400252E+04  0.10100000352E+00 0.  1.
       -3    1    3    3    0  502  0.11684516532E+03  0.90450128933E+03 -0.14682138165E+03  0.92375965671E+03  0.10100000352E+00 0. -1.
</event>
<event>
 5   0  0.1241430E-04  0.2238400E+04  0.7818609E-02  0.8502613E-01
       -2   -1    0    0    0  501  0.00000000000E+00  0.00000000000E+00  0.61153849742E+03  0.61153849743E+03  0.25500000920E-02 0.  1.
        2   -1    0    0  501    0  0.00000000000E+00  0.00000000000E+00 -0.20482913064E+04  0.20482913064E+04  0.25500000920E-02 0. -1.
    10030    2    1    2    0    0  0.00000000000E+00  0.00000000000E+00 -0.14367528090E+04  0.26598298039E+04  0.22384003108E+04 0.  0.
        1    1    3    3  502    0  0.96060274357E+03  0.42487746418E+03 -0.25918859885E+03  0.10818767122E+04  0.50400001928E-02 0. -1.
       -1    1    3    3    0  502 -0.96060274357E+03 -0.42487746418E+03 -0.11775642102E+04  0.15779530917E+04  0.50400001928E-02 0.  1.
</event>
<event>
 5   0  0.1311472E-04  0.1575600E+04  0.7818609E-02  0.8835680E-01
        2   -1    0    0  501    0  0.00000000000E+00  0.00000000000E+00  0.62601478341E+03  0.62601478342E+03  0.25500000920E-02 0.  1.
       -2   -1    0    0    0  501  0.00000000000E+00  0.00000000000E+00 -0.99139628333E+03  0.99139628333E+03  0.25500000920E-02 0. -1.
    10030    2    1    2    0    0  0.00000000000E+00  0.00000000000E+00 -0.36538149991E+03  0.16174110667E+04  0.15755998599E+04 0.  0.
        4    1    3    3  502    0 -0.36268928525E+03 -0.10045459349E+03 -0.89314942502E+03  0.96920181144E+03  0.12699999809E+01 0. -1.
       -4    1    3    3    0  502  0.36268928525E+03  0.10045459349E+03  0.52776792511E+03  0.64820925531E+03  0.12699999809E+01 0.  1.
</event>
<event>
 5   0  0.5849604E-05  0.2203136E+04  0.7818609E-02  0.8517124E-01
       -1   -1    0    0    0  501  0.00000000000E+00  0.00000000000E+00  0.81498900249E+03  0.81498900251E+03  0.50400001928E-02 0.  1.
        1   -1    0    0  501    0  0.00000000000E+00  0.00000000000E+00 -0.14889180629E+04  0.14889180629E+04  0.50400001928E-02 0. -1.
    10030    2    1    2    0    0  0.00000000000E+00  0.00000000000E+00 -0.67392906040E+03  0.23039070654E+04  0.22031358078E+04 0.  0.
        2    1    3    3  502    0 -0.85913113064E+03 -0.58665979941E+02 -0.10553382691E+04  0.13620891524E+04  0.25500000920E-02 0. -1.
       -2    1    3    3    0  502  0.85913113064E+03  0.58665979941E+02  0.38140920868E+03  0.94181791303E+03  0.25500000920E-02 0.  1.
</event>
<event>
 5   0  0.1404159E-04  0.2182911E+04  0.7818609E-02  0.8525575E-01
        2   -1    0    0  501    0  0.00000000000E+00  0.00000000000E+00  0.12541502427E+04  0.12541502427E+04  0.25500000920E-02 0.  1.
       -2   -1    0    0    0  501  0.00000000000E+00  0.00000000000E+00 -0.94986607633E+03  0.94986607634E+03  0.25500000920E-02 0. -1.
    10030    2    1    2    0    0  0.00000000000E+00  0.00000000000E+00  0.30428416639E+03  0.22040163191E+04  0.21829106901E+04 0.  0.
        5    1    3    3  502    0  0.92747522112E+03  0.43713438573E+03 -0.22558182959E+03  0.10498599949E+04  0.46999998093E+01 0. -1.
       -5    1    3    3    0  502 -0.92747522112E+03 -0.43713438573E+03  0.52986599599E+03  0.11541563242E+04  0.46999998093E+01 0.  1.
</event>
<event>
 5   0  0.5981239E-05  0.2202337E+04  0.7818609E-02  0.8517456E-01
        1   -1    0    0  501    0  0.00000000000E+00  0.00000000000E+00  0.10708961410E+04  0.10708961411E+04  0.50400001928E-02 0. -1.
       -1   -1    0    0    0  501  0.00000000000E+00  0.00000000000E+00 -0.11322969740E+04  0.11322969740E+04  0.50400001928E-02 0.  1.
    10030    2    1    2    0    0  0.00000000000E+00  0.00000000000E+00 -0.61400832940E+02  0.22031931151E+04  0.22023373583E+04 0.  0.
        4    1    3    3  502    0  0.63305180560E+03 -0.51460293210E+03  0.70918150404E+03  0.10809767735E+04  0.12699999809E+01 0. -1.
       -4    1    3    3    0  502 -0.63305180560E+03  0.51460293210E+03 -0.77058233698E+03  0.11222163416E+04  0.12699999809E+01 0.  1.
</event>
<event>
 5   0  0.1241430E-04  0.2393065E+04  0.7818609E-02  0.8442104E-01
       -2   -1    0    0    0  501  0.00000000000E+00  0.00000000000E+00  0.69565924005E+03  0.69565924006E+03  0.25500000920E-02 0. -1.
        2   -1    0    0  501    0  0.00000000000E+00  0.00000000000E+00 -0.20580335941E+04  0.20580335941E+04  0.25500000920E-02 0.  1.
    10030    2    1    2    0    0  0.00000000000E+00  0.00000000000E+00 -0.13623743540E+04  0.27536928341E+04  0.23930650522E+04 0.  0.
        1    1    3    3  502    0  0.11524768354E+04  0.32166833319E+03 -0.68589145557E+03  0.13791738330E+04  0.50400001928E-02 0.  1.
       -1    1    3    3    0  502 -0.11524768354E+04 -0.32166833319E+03 -0.67648289844E+03  0.13745190012E+04  0.50400001928E-02 0. -1.
</event>
<event>
 5   0  0.1404159E-04  0.2205890E+04  0.7818609E-02  0.8515981E-01
       -2   -1    0    0    0  501  0.00000000000E+00  0.00000000000E+00  0.75786630183E+03  0.75786630184E+03  0.25500000920E-02 0.  1.
        2   -1    0    0  501    0  0.00000000000E+00  0.00000000000E+00 -0.16051474779E+04  0.16051474779E+04  0.25500000920E-02 0. -1.
    10030    2    1    2    0    0  0.00000000000E+00  0.00000000000E+00 -0.84728117607E+03  0.23630137797E+04  0.22058895557E+04 0.  0.
        5    1    3    3  502    0  0.46697247139E+03 -0.99579329252E+03 -0.33532084085E+03  0.11498390004E+04  0.46999998093E+01 0.  1.
       -5    1    3    3    0  502 -0.46697247139E+03  0.99579329252E+03 -0.51196033523E+03  0.12131747794E+04  0.46999998093E+01 0. -1.
</event>
<event>
 5   0  0.1226021E-04  0.2312789E+04  0.7818609E-02  0.8472895E-01
        2   -1    0    0  501    0  0.00000000000E+00  0.00000000000E+00  0.14825512777E+04  0.14825512777E+04  0.25500000920E-02 0.  1.
       -2   -1    0    0    0  501  0.00000000000E+00  0.00000000000E+00 -0.90199153763E+03  0.90199153764E+03  0.25500000920E-02 0. -1.
    10030    2    1    2    0    0  0.00000000000E+00  0.00000000000E+00  0.58055974006E+03  0.23845428153E+04  0.23127894038E+04 0.  0.
        2    1    3    3  502    0 -0.60483984275E+03  0.82968442321E+03  0.83880166255E+03  0.13258188815E+04  0.25500000920E-02 0.  1.
       -2    1    3    3    0  502  0.60483984275E+03 -0.82968442321E+03 -0.25824192248E+03  0.10587239338E+04  0.25500000920E-02 0. -1.
</event>
<event>
 5   0  0.5861816E-05  0.1577829E+04  0.7818609E-02  0.8834286E-01
       -1   -1    0    0    0  501  0.00000000000E+00  0.00000000000E+00  0.14692760668E+04  0.14692760668E+04  0.50400001928E-02 0.  1.
        1   -1    0    0  501    0  0.00000000000E+00  0.00000000000E+00 -0.42360033028E+03  0.42360033031E+03  0.50400001928E-02 0. -1.
    10030    2    1    2    0    0  0.00000000000E+00  0.00000000000E+00  0.10456757365E+04  0.18928763971E+04  0.15778286690E+04 0.  0.
        1    1    3    3  502    0 -0.76704728800E+03  0.94649990823E+02  0.33290417065E+03  0.84151372517E+03  0.50400001928E-02 0. -1.
       -1    1    3    3    0  502  0.76704728800E+03 -0.94649990823E+02  0.71277156583E+03  0.10513626719E+04  0.50400001928E-02 0.  1.
</event>
<event>
 5   0  0.5981239E-05  0.2268964E+04  0.7818609E-02  0.8490259E-01
       -1   -1    0    0    0  501  0.00000000000E+00  0.00000000000E+00  0.87856666760E+03  0.87856666762E+03  0.50400001928E-02 0.  1.
        1   -1    0    0  501    0  0.00000000000E+00  0.00000000000E+00 -0.14649428316E+04  0.14649428316E+04  0.50400001928E-02 0. -1.
    10030    2    1    2    0    0  0.00000000000E+00  0.00000000000E+00 -0.58637616403E+03  0.23435094993E+04  0.22689644703E+04 0.  0.
        4    1    3    3  502    0 -0.51449044392E+03  0.31360455328E+03 -0.12860184010E+04  0.14201736420E+04  0.12699999809E+01 0. -1.
       -4    1    3    3    0  502  0.51449044392E+03 -0.31360455328E+03  0.69964223697E+03  0.92333585730E+03  0.12699999809E+01 0.  1.
</event>
<event>
 5   0  0.1226021E-04  0.2319326E+04  0.7818609E-02  0.8470340E-01
        2   -1    0    0  501    0  0.00000000000E+00  0.00000000000E+00  0.12472284538E+04  0.12472284538E+04  0.25500000920E-02 0.  1.
       -2   -1    0    0    0  501  0.00000000000E+00  0.00000000000E+00 -0.10782457735E+04  0.10782457735E+04  0.25500000920E-02 0. -1.
    10030    2    1    2    0    0  0.00000000000E+00  0.00000000000E+00  0.16898268037E+03  0.23254742273E+04  0.23193264616E+04 0.  0.
        2    1    3    3  502    0  0.30797882930E+03 -0.11155853742E+04  0.10559041810E+02  0.11573647566E+04  0.25500000920E-02 0.  1.
       -2    1    3    3    0  502 -0.30797882930E+03  0.11155853742E+04  0.15842363856E+03  0.11681094707E+04  0.25500000920E-02 0. -1.
</event>
<event>
 5   0  0.1404159E-04  0.2309610E+04  0.7818609E-02  0.8474142E-01
        2   -1    0    0  501    0  0.00000000000E+00  0.00000000000E+00  0.69833834318E+03  0.69833834318E+03  0.25500000920E-02 0.  1.
       -2   -1    0    0    0  501  0.00000000000E+00  0.00000000000E+00 -0.19096394325E+04  0.19096394325E+04  0.25500000920E-02 0. -1.
    10030    2    1    2    0    0  0.00000000000E+00  0.00000000000E+00 -0.12113010894E+04  0.26079777757E+04  0.23096098696E+04 0.  0.
        5    1    3    3  502    0  0.31454857685E+03  0.15072312165E+03  0.63742519754E+03  0.72663005654E+03  0.46999998093E+01 0.  1.
       -5    1    3    3    0  502 -0.31454857685E+03 -0.15072312165E+03 -0.18487262869E+04  0.18813477192E+04  0.46999998093E+01 0. -1.
</event>
<event>
 5   0  0.5981239E-05  0.2021728E+04  0.7818609E-02  0.8596529E-01
        1   -1    0    0  501    0  0.00000000000E+00  0.00000000000E+00  0.17847655604E+04  0.17847655605E+04  0.50400001928E-02 0.  1.
       -1   -1    0    0    0  501  0.00000000000E+00  0.00000000000E+00 -0.57253798660E+03  0.57253798662E+03  0.50400001928E-02 0. -1.
    10030    2    1    2    0    0  0.00000000000E+00  0.00000000000E+00  0.12122275738E+04  0.23573035471E+04  0.20217280535E+04 0.  0.
        4    1    3    3  502    0  0.26781133772E+03 -0.10543625300E+03 -0.52375150342E+03  0.59762610911E+03  0.12699999809E+01 0. -1.
       -4    1    3    3    0  502 -0.26781133772E+03  0.10543625300E+03  0.17359790773E+04  0.17596774380E+04  0.12699999809E+01 0.  1.
</event>
<event>
 5   0  0.5849604E-05  0.2217828E+04  0.7818609E-02  0.8511044E-01
        1   -1    0    0  501    0  0.00000000000E+00  0.00000000000E+00  0.12498517969E+04  0.12498517969E+04  0.50400001928E-02 0. -1.
       -1   -1    0    0    0  501  0.00000000000E+00  0.00000000000E+00 -0.98386900610E+03  0.98386900612E+03  0.50400001928E-02 0.  1.
    10030    2    1    2    0    0  0.00000000000E+00  0.00000000000E+00  0.26598279077E+03  0.22337208030E+04  0.22178281675E+04 0.  0.
        2    1    3    3  502    0 -0.35866070059E+03  0.21636386882E+03  0.11671107380E+04  0.12399993132E+04  0.25500000920E-02 0. -1.
       -2    1    3    3    0  502  0.35866070059E+03 -0.21636386882E+03 -0.90112794728E+03  0.99372148979E+03  0.25500000920E-02 0.  1.
</event>
<event>
 5   0  0.1311472E-04  0.2196692E+04  0.7818609E-02  0.8519806E-01
       -2   -1    0    0    0  501  0.00000000000E+00  0.00000000000E+00  0.76117829142E+03  0.76117829143E+03  0.25500000920E-02 0.  1.
        2   -1    0    0  501    0  0.00000000000E+00  0.00000000000E+00 -0.15848634744E+04  0.15848634744E+04  0.25500000920E-02 0. -1.
    10030    2    1    2    0    0  0.00000000000E+00  0.00000000000E+00 -0.82368518297E+03  0.23460417658E+04  0.21966917595E+04 0.  0.
        4    1    3    3  502    0 -0.44780837972E+03  0.21323835421E+02 -0.14826975725E+04  0.15489934653E+04  0.12699999809E+01 0. -1.
       -4    1    3    3    0  502  0.44780837972E+03 -0.21323835421E+02  0.65901238957E+03  0.79704830056E+03  0.12699999809E+01 0.  1.
</event>
<event>
 5   0  0.5895063E-05  0.2310248E+04  0.7818609E-02  0.8473891E-01
       -1   -1    0    0    0  501  0.00000000000E+00  0.00000000000E+00  0.96578875944E+03  0.96578875945E+03  0.50400001928E-02 0.  1.
        1   -1    0    0  501    0  0.00000000000E+00  0.00000000000E+00 -0.13815774611E+04  0.13815774611E+04  0.50400001928E-02 0. -1.
    10030    2    1    2    0    0  0.00000000000E+00  0.00000000000E+00 -0.41578870168E+03  0.23473662206E+04  0.23102484561E+04 0.  0.
        5    1    3    3  502    0 -0.48043524936E+03  0.72684309330E+03  0.56269081664E+03  0.10371894505E+04  0.46999998093E+01 0.  1.
       -5    1    3    3    0  502  0.48043524936E+03 -0.72684309330E+03 -0.97847951832E+03  0.13101767701E+04  0.46999998093E+01 0. -1.
</event>
<event>
 5   0  0.1311472E-04  0.2169882E+04  0.7818609E-02  0.8531070E-01
       -2   -1    0    0    0  501  0.00000000000E+00  0.00000000000E+00  0.91048866480E+03  0.91048866480E+03  0.25500000920E-02 0. -1.
        2   -1    0    0  501    0  0.00000000000E+00  0.00000000000E+00 -0.12928187097E+04  0.12928187097E+04  0.25500000920E-02 0.  1.
    10030    2    1    2    0    0  0.00000000000E+00  0.00000000000E+00 -0.38233004491E+03  0.22033073745E+04  0.21698818224E+04 0.  0.
        4    1    3    3  502    0 -0.96364456519E+03  0.67364473039E+02  0.31035256371E+03  0.10146275903E+04  0.12699999809E+01 0. -1.
       -4    1    3    3    0  502  0.96364456519E+03 -0.67364473039E+02 -0.69268260861E+03  0.11886797842E+04  0.12699999809E+01 0.  1.
</event>
<event>
 5   0  0.1311472E-04  0.2157298E+04  0.7818609E-02  0.8536415E-01
        2   -1    0    0  501    0  0.00000000000E+00  0.00000000000E+00  0.16664076275E+04  0.16664076275E+04  0.25500000920E-02 0.  1.
       -2   -1    0    0    0  501  0.00000000000E+00  0.00000000000E+00 -0.69819860668E+03  0.69819860668E+03  0.25500000920E-02 0. -1.
    10030    2    1    2    0    0  0.00000000000E+00  0.00000000000E+00  0.96820902086E+03  0.23646062342E+04  0.21572978317E+04 0.  0.
        4    1    3    3  502    0  0.36402651769E+03 -0.86934406093E+03 -0.90910035992E+02  0.94685830481E+03  0.12699999809E+01 0. -1.
       -4    1    3    3    0  502 -0.36402651769E+03  0.86934406093E+03  0.10591190569E+04  0.14177479294E+04  0.12699999809E+01 0.  1.
</event>
<event>
 5   0  0.1252124E-04  0.2105151E+04  0.7818609E-02  0.8558978E-01
       -2   -1    0    0    0  501  0.00000000000E+00  0.00000000000E+00  0.98328996224E+03  0.98328996224E+03  0.25500000920E-02 0. -1.
        2   -1    0    0  501    0  0.00000000000E+00  0.00000000000E+00 -0.11267427601E+04  0.11267427601E+04  0.25500000920E-02 0.  1.
    10030    2    1    2    0    0  0.00000000000E+00  0.00000000000E+00 -0.14345279788E+03  0.21100327224E+04  0.21051506797E+04 0.  0.
        3    1    3    3  502    0 -0.52799907178E+03  0.87632918082E+03 -0.31964386821E+03  0.10718712916E+04  0.10100000352E+00 0.  1.
       -3    1    3    3    0  502  0.52799907178E+03 -0.87632918082E+03  0.17619107033E+03  0.10381614308E+04  0.10100000352E+00 0. -1.
</event>
<event>
 5   0  0.5849604E-05  0.2210633E+04  0.7818609E-02  0.8514016E-01
        1   -1    0    0  501    0  0.00000000000E+00  0.00000000000E+00  0.89011076614E+03  0.89011076615E+03  0.50400001928E-02 0.  1.
       -1   -1    0    0    0  501  0.00000000000E+00  0.00000000000E+00 -0.13725529525E+04  0.13725529525E+04  0.50400001928E-02 0. -1.
    10030    2    1    2    0    0  0.00000000000E+00  0.00000000000E+00 -0.48244218637E+03  0.22626637187E+04  0.22106326336E+04 0.  0.
        2    1    3    3  502    0  0.53242406852E+03 -0.95777126665E+03 -0.38927338177E+03  0.11628993739E+04  0.25500000920E-02 0. -1.
       -2    1    3    3    0  502 -0.53242406852E+03  0.95777126665E+03 -0.93168804601E+02  0.10997643448E+04  0.25500000920E-02 0.  1.
</event>
<event>
 5   0  0.5981239E-05  0.1433909E+04  0.7818609E-02  0.8929632E-01
       -1   -1    0    0    0  501  0.00000000000E+00  0.00000000000E+00  0.28687879137E+03  0.28687879142E+03  0.50400001928E-02 0. -1.
        1   -1    0    0  501    0  0.00000000000E+00  0.00000000000E+00 -0.17917811768E+04  0.17917811768E+04  0.50400001928E-02 0.  1.
    10030    2    1    2    0    0  0.00000000000E+00  0.00000000000E+00 -0.15049023854E+04  0.20786599682E+04  0.14339093674E+04 0.  0.
        4    1    3    3  502    0 -0.61902219736E+03 -0.14129801886E+03 -0.12351390940E+04  0.13887850105E+04  0.12699999809E+01 0.  1.
       -4    1    3    3    0  502  0.61902219736E+03  0.14129801886E+03 -0.26976329138E+03  0.68987495768E+03  0.12699999809E+01 0. -1.
</event>
<event>
 5   0  0.5895063E-05  0.2243104E+04  0.7818609E-02  0.8500699E-01
        1   -1    0    0  501    0  0.00000000000E+00  0.00000000000E+00  0.14007775967E+04  0.14007775967E+04  0.50400001928E-02 0. -1.
       -1   -1    0    0    0  501  0.00000000000E+00  0.00000000000E+00 -0.89798586633E+03  0.89798586634E+03  0.50400001928E-02 0.  1.
    10030    2    1    2    0    0  0.00000000000E+00  0.00000000000E+00  0.50279173036E+03  0.22987634630E+04  0.22431036389E+04 0.  0.
        5    1    3    3  502    0  0.63252419058E+03  0.82551115173E+03  0.68169669778E+03  0.12434982875E+04  0.46999998093E+01 0. -1.
       -5    1    3    3    0  502 -0.63252419058E+03 -0.82551115173E+03 -0.17890496742E+03  0.10552651755E+04  0.46999998093E+01 0.  1.
</event>
<event>
 5   0  0.1241430E-04  0.2207615E+04  0.7818609E-02  0.8515265E-01
        2   -1    0    0  501    0  0.00000000000E+00  0.00000000000E+00  0.21534609886E+04  0.21534609886E+04  0.25500000920E-02 0.  1.
       -2   -1    0    0    0  501  0.00000000000E+00  0.00000000000E+00 -0.56578276639E+03  0.56578276640E+03  0.25500000920E-02 0. -1.
    10030    2    1    2    0    0  0.00000000000E+00  0.00000000000E+00  0.15876782222E+04  0.27192437550E+04  0.22076151073E+04 0.  0.
        1    1    3    3  502    0 -0.73964218815E+02  0.58554377545E+03  0.19427837646E+04  0.20304533914E+04  0.50400001928E-02 0.  1.
       -1    1    3    3    0  502  0.73964218815E+02 -0.58554377545E+03 -0.35510554244E+03  0.68879036356E+03  0.50400001928E-02 0. -1.
</event>
<event>
 5   0  0.1404159E-04  0.2159690E+04  0.7818609E-02  0.8535396E-01
        2   -1    0    0  501    0  0.00000000000E+00  0.00000000000E+00  0.93018374178E+03  0.93018374179E+03  0.25500000920E-02 0.  1.
       -2   -1    0    0    0  501  0.00000000000E+00  0.00000000000E+00 -0.12535860933E+04  0.12535860933E+04  0.25500000920E-02 0. -1.
    10030    2    1    2    0    0  0.00000000000E+00  0.00000000000E+00 -0.32340235148E+03  0.21837698350E+04  0.21596901656E+04 0.  0.
        5    1    3    3  502    0 -0.12520755931E+03 -0.16409573579E+03 -0.12334429384E+04  0.12506030208E+04  0.46999998093E+01 0. -1.
       -5    1    3    3    0  502  0.12520755931E+03  0.16409573579E+03  0.91004058690E+03  0.93316681425E+03  0.46999998093E+01 0.  1.
</event>
<event>
 5   0  0.1311472E-04  0.2157176E+04  0.7818609E-02  0.8536467E-01
       -2   -1    0    0    0  501  0.00000000000E+00  0.00000000000E+00  0.76004101659E+03  0.76004101659E+03  0.25500000920E-02 0. -1.
        2   -1    0    0  501    0  0.00000000000E+00  0.00000000000E+00 -0.15306438581E+04  0.15306438581E+04  0.25500000920E-02 0.  1.
    10030    2    1    2    0    0  0.00000000000E+00  0.00000000000E+00 -0.77060284151E+03  0.22906848747E+04  0.21571760373E+04 0.  0.
        4    1    3    3  502    0  0.53181337358E+03 -0.72062500784E+03  0.25291568655E+03  0.93064161934E+03  0.12699999809E+01 0. -1.
       -4    1    3    3    0  502 -0.53181337358E+03  0.72062500784E+03 -0.10235185281E+04  0.13600432554E+04  0.12699999809E+01 0.  1.
</event>
<event>
 5   0  0.5895063E-05  0.2277697E+04  0.7818609E-02  0.8486767E-01
       -1   -1    0    0    0  501  0.00000000000E+00  0.00000000000E+00  0.15989220086E+04  0.15989220086E+04  0.50400001928E-02 0. -1.
        1   -1    0    0  501    0  0.00000000000E+00  0.00000000000E+00 -0.81115622889E+03  0.81115622891E+03  0.50400001928E-02 0.  1.
    10030    2    1    2    0    0  0.00000000000E+00  0.00000000000E+00  0.78776577966E+03  0.24100782375E+04  0.22776966846E+04 0.  0.
        5    1    3    3  502    0 -0.83635424904E+01  0.20680843080E+03  0.15788429750E+04  0.15923589123E+04  0.46999998093E+01 0. -1.
       -5    1    3    3    0  502  0.83635424904E+01 -0.20680843080E+03 -0.79107719530E+03  0.81771932520E+03  0.46999998093E+01 0.  1.
</event>
<event>
 5   0  0.5861816E-05  0.2068585E+04  0.7818609E-02  0.8575210E-01
        1   -1    0    0  501    0  0.00000000000E+00  0.00000000000E+00  0.11663551077E+04  0.11663551077E+04  0.50400001928E-02 0.  1.
       -1   -1    0    0    0  501  0.00000000000E+00  0.00000000000E+00 -0.91718252455E+03  0.91718252457E+03  0.50400001928E-02 0. -1.
    10030    2    1    2    0    0  0.00000000000E+00  0.00000000000E+00  0.24917258310E+03  0.20835376322E+04  0.20685845617E+04 0.  0.
        1    1    3    3  502    0  0.96894942819E+03 -0.36081898145E+03  0.97801008093E+02  0.10385655343E+04  0.50400001928E-02 0. -1.
       -1    1    3    3    0  502 -0.96894942819E+03  0.36081898145E+03  0.15137157501E+03  0.10449720980E+04  0.50400001928E-02 0.  1.
</event>
<event>
 5   0  0.5849604E-05  0.2178451E+04  0.7818609E-02  0.8527451E-01
       -1   -1    0    0    0  501  0.00000000000E+00  0.00000000000E+00  0.59428302229E+03  0.59428302231E+03  0.50400001928E-02 0.  1.
        1   -1    0    0  501    0  0.00000000000E+00  0.00000000000E+00 -0.19963753482E+04  0.19963753482E+04  0.50400001928E-02 0. -1.
    10030    2    1    2    0    0  0.00000000000E+00  0.00000000000E+00 -0.14020923259E+04  0.25906583705E+04  0.21784508033E+04 0.  0.
        2    1    3    3  502    0  0.49927471027E+02 -0.10829048455E+04 -0.82710532564E+03  0.13635537673E+04  0.25500000920E-02 0. -1.
       -2    1    3    3    0  502 -0.49927471027E+02  0.10829048455E+04 -0.57498700028E+03  0.12271046032E+04  0.25500000920E-02 0.  1.
</event>
<event>
 5   0  0.5849604E-05  0.2213835E+04  0.7818609E-02  0.8512692E-01
       -1   -1    0    0    0  501  0.00000000000E+00  0.00000000000E+00  0.19823174661E+04  0.19823174661E+04  0.50400001928E-02 0. -1.
        1   -1    0    0  501    0  0.00000000000E+00  0.00000000000E+00 -0.61809814602E+03  0.61809814604E+03  0.50400001928E-02 0.  1.
    10030    2    1    2    0    0  0.00000000000E+00  0.00000000000E+00  0.13642193201E+04  0.26004156121E+04  0.22138353603E+04 0.  0.
        2    1    3    3  502    0 -0.83659752068E+03  0.42034828491E+03 -0.11492006557E+02  0.93633335861E+03  0.25500000920E-02 0.  1.
       -2    1    3    3    0  502  0.83659752068E+03 -0.42034828491E+03  0.13757113266E+04  0.16640822535E+04  0.25500000920E-02 0. -1.
</event>
<event>
 5   0  0.5895063E-05  0.2215351E+04  0.7818609E-02  0.8512066E-01
       -1   -1    0    0    0  501  0.00000000000E+00  0.00000000000E+00  0.12807615669E+04  0.12807615669E+04  0.50400001928E-02 0. -1.
        1   -1    0    0  501    0  0.00000000000E+00  0.00000000000E+00 -0.95798119017E+03  0.95798119018E+03  0.50400001928E-02 0.  1.
    10030    2    1    2    0    0  0.00000000000E+00  0.00000000000E+00  0.32278037672E+03  0.22387427571E+04  0.22153514305E+04 0.  0.
        5    1    3    3  502    0 -0.52929911496E+03  0.53276138108E+03 -0.66141264689E+03  0.10007402369E+04  0.46999998093E+01 0.  1.
       -5    1    3    3    0  502  0.52929911496E+03 -0.53276138108E+03  0.98419302361E+03  0.12380025202E+04  0.46999998093E+01 0. -1.
</event>
<event>
 5   0  0.1241430E-04  0.2216815E+04  0.7818609E-02  0.8511462E-01
        2   -1    0    0  501    0  0.00000000000E+00  0.00000000000E+00  0.23946023492E+04  0.23946023492E+04  0.25500000920E-02 0.  1.
       -2   -1    0    0    0  501  0.00000000000E+00  0.00000000000E+00 -0.51305694917E+03  0.51305694918E+03  0.25500000920E-02 0. -1.
    10030    2    1    2    0    0  0.00000000000E+00  0.00000000000E+00  0.18815454000E+04  0.29076592983E+04  0.22168151711E+04 0.  0.
        1    1    3    3  502    0  0.39917018252E+02 -0.26302956389E+03  0.23521035256E+04  0.23671013741E+04  0.50400001928E-02 0.  1.
       -1    1    3    3    0  502 -0.39917018252E+02  0.26302956389E+03 -0.47055812566E+03  0.54055792425E+03  0.50400001928E-02 0. -1.
</event>
<event>
 5   0  0.5849604E-05  0.2137736E+04  0.7818609E-02  0.8544800E-01
        1   -1    0    0  501    0  0.00000000000E+00  0.00000000000E+00  0.12373601132E+04  0.12373601132E+04  0.50400001928E-02 0. -1.
       -1   -1    0    0    0  501  0.00000000000E+00  0.00000000000E+00 -0.92331924082E+03  0.92331924083E+03  0.50400001928E-02 0.  1.
    10030    2    1    2    0    0  0.00000000000E+00  0.00000000000E+00  0.31404087237E+03  0.21606793540E+04  0.21377356248E+04 0.  0.
        2    1    3    3  502    0  0.52984875990E+02  0.25270605887E+03  0.12053654823E+04  0.12327098990E+04  0.25500000920E-02 0. -1.
       -2    1    3    3    0  502 -0.52984875990E+02 -0.25270605887E+03 -0.89132460989E+03  0.92796945503E+03  0.25500000920E-02 0.  1.
</event>
<event>
 5   0  0.5861816E-05  0.2182528E+04  0.7818609E-02  0.8525736E-01
       -1   -1    0    0    0  501  0.00000000000E+00  0.00000000000E+00  0.57661377930E+03  0.57661377932E+03  0.50400001928E-02 0. -1.
        1   -1    0    0  501    0  0.00000000000E+00  0.00000000000E+00 -0.20652596481E+04  0.20652596481E+04  0.50400001928E-02 0.  1.
    10030    2    1    2    0    0  0.00000000000E+00  0.00000000000E+00 -0.14886458688E+04  0.26418734275E+04  0.21825280488E+04 0.  0.
        1    1    3    3  502    0  0.35684972296E+03  0.37124978389E+03  0.42029838173E+03  0.66469455882E+03  0.50400001928E-02 0. -1.
       -1    1    3    3    0  502 -0.35684972296E+03 -0.37124978389E+03 -0.19089442506E+04  0.19771788686E+04  0.50400001928E-02 0.  1.
</event>
<event>
 5   0  0.1311472E-04  0.2207130E+04  0.7818609E-02  0.8515466E-01
        2   -1    0    0  501    0  0.00000000000E+00  0.00000000000E+00  0.11018714055E+04  0.11018714055E+04  0.25500000920E-02 0. -1.
       -2   -1    0    0    0  501  0.00000000000E+00  0.00000000000E+00 -0.11052614963E+04  0.11052614963E+04  0.25500000920E-02 0.  1.
    10030    2    1    2    0    0  0.00000000000E+00  0.00000000000E+00 -0.33900908051E+01  0.22071329017E+04  0.22071302982E+04 0.  0.
        4    1    3    3  502    0 -0.67155283578E+03 -0.84223116840E+03  0.23813407881E+03  0.11031980804E+04  0.12699999809E+01 0. -1.
       -4    1    3    3    0  502  0.67155283578E+03  0.84223116840E+03 -0.24152416962E+03  0.11039348213E+04  0.12699999809E+01 0.  1.
</event>
<event>
 5   0  0.5895063E-05  0.2216721E+04  0.7818609E-02  0.8511501E-01
       -1   -1    0    0    0  501  0.00000000000E+00  0.00000000000E+00  0.93325947855E+03  0.93325947856E+03  0.50400001928E-02 0.  1.
        1   -1    0    0  501    0  0.00000000000E+00  0.00000000000E+00 -0.13163143686E+04  0.13163143686E+04  0.50400001928E-02 0. -1.
    10030    2    1    2    0    0  0.00000000000E+00  0.00000000000E+00 -0.38305489002E+03  0.22495738471E+04  0.22167208766E+04 0.  0.
        5    1    3    3  502    0  0.22481948904E+03  0.62828969244E+03 -0.10896000534E+04  0.12777097114E+04  0.46999998093E+01 0. -1.
       -5    1    3    3    0  502 -0.22481948904E+03 -0.62828969244E+03  0.70654516342E+03  0.97186413569E+03  0.46999998093E+01 0.  1.
</event>
<event>
 5   0  0.5895063E-05  0.1697822E+04  0.7818609E-02  0.8762608E-01
       -1   -1    0    0    0  501  0.00000000000E+00  0.00000000000E+00  0.70930214267E+03  0.70930214269E+03  0.50400001928E-02 0.  1.
        1   -1    0    0  501    0  0.00000000000E+00  0.00000000000E+00 -0.10159979004E+04  0.10159979004E+04  0.50400001928E-02 0. -1.
    10030    2    1    2    0    0  0.00000000000E+00  0.00000000000E+00 -0.30669575769E+03  0.17253000431E+04  0.16978215309E+04 0.  0.
        5    1    3    3  502    0  0.81190602254E+02  0.35500347475E+03  0.62587952959E+03  0.72413165691E+03  0.46999998093E+01 0.  1.
       -5    1    3    3    0  502 -0.81190602254E+02 -0.35500347475E+03 -0.93257528728E+03  0.10011683861E+04  0.46999998093E+01 0. -1.
</event>
<event>
 5   0  0.5849604E-05  0.2079856E+04  0.7818609E-02  0.8570169E-01
       -1   -1    0    0    0  501  0.00000000000E+00  0.00000000000E+00  0.65286130439E+03  0.65286130441E+03  0.50400001928E-02 0.  1.
        1   -1    0    0  501    0  0.00000000000E+00  0.00000000000E+00 -0.16564785190E+04  0.16564785190E+04  0.50400001928E-02 0. -1.
    10030    2    1    2    0    0  0.00000000000E+00  0.00000000000E+00 -0.10036172146E+04  0.23093398234E+04  0.20798564629E+04 0.  0.
        2    1    3    3  502    0 -0.92707164207E+03  0.40151275345E+03 -0.77553834902E+03  0.12736302648E+04  0.25500000920E-02 0.  1.
       -2    1    3    3    0  502  0.92707164207E+03 -0.40151275345E+03 -0.22807886554E+03  0.10357095585E+04  0.25500000920E-02 0. -1.
</event>
<event>
 5   0  0.1241430E-04  0.2203108E+04  0.7818609E-02  0.8517135E-01
       -2   -1    0    0    0  501  0.00000000000E+00  0.00000000000E+00  0.66707578889E+03  0.66707578889E+03  0.25500000920E-02 0.  1.
        2   -1    0    0  501    0  0.00000000000E+00  0.00000000000E+00 -0.18190161425E+04  0.18190161425E+04  0.25500000920E-02 0. -1.
    10030    2    1    2    0    0  0.00000000000E+00  0.00000000000E+00 -0.11519403536E+04  0.24860919314E+04  0.22031083752E+04 0.  0.
        1    1    3    3  502    0  0.17564761147E+03  0.10858717878E+04 -0.50966963940E+03  0.12123253541E+04  0.50400001928E-02 0. -1.
       -1    1    3    3    0  502 -0.17564761147E+03 -0.10858717878E+04 -0.64227071418E+03  0.12737665772E+04  0.50400001928E-02 0.  1.
</event>
<event>
 5   0  0.5849604E-05  0.2206363E+04  0.7818609E-02  0.8515784E-01
        1   -1    0    0  501    0  0.00000000000E+00  0.00000000000E+00  0.25710361897E+04  0.25710361897E+04  0.50400001928E-02 0. -1.
       -1   -1    0    0    0  501  0.00000000000E+00  0.00000000000E+00 -0.47335385832E+03  0.47335385835E+03  0.50400001928E-02 0.  1.
    10030    2    1    2    0    0  0.00000000000E+00  0.00000000000E+00  0.20976823313E+04  0.30443900480E+04  0.22063634336E+04 0.  0.
        2    1    3    3  502    0  0.62167939185E+03 -0.11654647843E+02  0.23062137437E+04  0.23885650355E+04  0.25500000920E-02 0. -1.
       -2    1    3    3    0  502 -0.62167939185E+03  0.11654647843E+02 -0.20853141239E+03  0.65582501251E+03  0.25500000920E-02 0.  1.
</event>
<event>
 5   0  0.1241430E-04  0.2208851E+04  0.7818609E-02  0.8514753E-01
       -2   -1    0    0    0  501  0.00000000000E+00  0.00000000000E+00  0.86249176354E+03  0.86249176355E+03  0.25500000920E-02 0. -1.
        2   -1    0    0  501    0  0.00000000000E+00  0.00000000000E+00 -0.14142227391E+04  0.14142227391E+04  0.25500000920E-02 0.  1.
    10030    2    1    2    0    0  0.00000000000E+00  0.00000000000E+00 -0.55173097560E+03  0.22767145027E+04  0.22088508001E+04 0.  0.
        1    1    3    3  502    0  0.53180528678E+03 -0.94820997308E+03 -0.75373337913E+02  0.10897706897E+04  0.50400001928E-02 0.  1.
       -1    1    3    3    0  502 -0.53180528678E+03  0.94820997308E+03 -0.47635763768E+03  0.11869438130E+04  0.50400001928E-02 0. -1.
</event>
<event>
 5   0  0.1252124E-04  0.2041297E+04  0.7818609E-02  0.8587553E-01
       -2   -1    0    0    0  501  0.00000000000E+00  0.00000000000E+00  0.44159068494E+03  0.44159068495E+03  0.25500000920E-02 0. -1.
        2   -1    0    0  501    0  0.00000000000E+00  0.00000000000E+00 -0.23590252096E+04  0.23590252096E+04  0.25500000920E-02 0.  1.
    10030    2    1    2    0    0  0.00000000000E+00  0.00000000000E+00 -0.19174345246E+04  0.28006158945E+04  0.20412971936E+04 0.  0.
        3    1    3    3  502    0 -0.86968149735E+03  0.24945954836E+03 -0.31061521049E+03  0.95658653152E+03  0.10100000352E+00 0. -1.
       -3    1    3    3    0  502  0.86968149735E+03 -0.24945954836E+03 -0.16068193141E+04  0.18440293630E+04  0.10100000352E+00 0.  1.
</event>
<event>
 5   0  0.1252124E-04  0.2416365E+04  0.7818609E-02  0.8433402E-01
        2   -1    0    0  501    0  0.00000000000E+00  0.00000000000E+00  0.13440803996E+04  0.13440803996E+04  0.25500000920E-02 0. -1.
       -2   -1    0    0    0  501  0.00000000000E+00  0.00000000000E+00 -0.10860248852E+04  0.10860248852E+04  0.25500000920E-02 0.  1.
    10030    2    1    2    0    0  0.00000000000E+00  0.00000000000E+00  0.25805551443E+03  0.24301052848E+04  0.24163648414E+04 0.  0.
        3    1    3    3  502    0 -0.55973424998E+03 -0.34724776636E+03 -0.88955997238E+03  0.11068877073E+04  0.10100000352E+00 0.  1.
       -3    1    3    3    0  502  0.55973424998E+03  0.34724776636E+03  0.11476154868E+04  0.13232175776E+04  0.10100000352E+00 0. -1.
</event>
<event>
 5   0  0.5861816E-05  0.2140227E+04  0.7818609E-02  0.8543727E-01
       -1   -1    0    0    0  501  0.00000000000E+00  0.00000000000E+00  0.67217002744E+03  0.67217002746E+03  0.50400001928E-02 0. -1.
        1   -1    0    0  501    0  0.00000000000E+00  0.00000000000E+00 -0.17036505103E+04  0.17036505103E+04  0.50400001928E-02 0.  1.
    10030    2    1    2    0    0  0.00000000000E+00  0.00000000000E+00 -0.10314804828E+04  0.23758205377E+04  0.21402269134E+04 0.  0.
        1    1    3    3  502    0 -0.29410435254E+03  0.19723746769E+03  0.60524305063E+03  0.70122688140E+03  0.50400001928E-02 0. -1.
       -1    1    3    3    0  502  0.29410435254E+03 -0.19723746769E+03 -0.16367235334E+04  0.16745936563E+04  0.50400001928E-02 0.  1.
</event>
<event>
 5   0  0.5895063E-05  0.2224266E+04  0.7818609E-02  0.8508395E-01
        1   -1    0    0  501    0  0.00000000000E+00  0.00000000000E+00  0.20728871660E+04  0.20728871660E+04  0.50400001928E-02 0. -1.
       -1   -1    0    0    0  501  0.00000000000E+00  0.00000000000E+00 -0.59667493405E+03  0.59667493407E+03  0.50400001928E-02 0.  1.
    10030    2    1    2    0    0  0.00000000000E+00  0.00000000000E+00  0.14762122319E+04  0.26695621001E+04  0.22242660031E+04 0.  0.
        5    1    3    3  502    0 -0.57606213857E+03 -0.88004283609E+03  0.11716667184E+04  0.15745310317E+04  0.46999998093E+01 0.  1.
       -5    1    3    3    0  502  0.57606213857E+03  0.88004283609E+03  0.30454551356E+03  0.10950310684E+04  0.46999998093E+01 0. -1.
</event>
<event>
 5   0  0.1241430E-04  0.2168632E+04  0.7818609E-02  0.8531599E-01
       -2   -1    0    0    0  501  0.00000000000E+00  0.00000000000E+00  0.80924301499E+03  0.80924301499E+03  0.25500000920E-02 0. -1.
        2   -1    0    0  501    0  0.00000000000E+00  0.00000000000E+00 -0.14528897479E+04  0.14528897479E+04  0.25500000920E-02 0.  1.
    10030    2    1    2    0    0  0.00000000000E+00  0.00000000000E+00 -0.64364673287E+03  0.22621327629E+04  0.21686317161E+04 0.  0.
        1    1    3    3  502    0 -0.61467683017E+03  0.69106790828E+03 -0.91221038510E+03  0.12990497474E+04  0.50400001928E-02 0.  1.
       -1    1    3    3    0  502  0.61467683017E+03 -0.69106790828E+03  0.26856365223E+03  0.96308301549E+03  0.50400001928E-02 0. -1.
</event>
<event>
 5   0  0.5895063E-05  0.2196862E+04  0.7818609E-02  0.8519735E-01
       -1   -1    0    0    0  501  0.00000000000E+00  0.00000000000E+00  0.85763161307E+03  0.85763161308E+03  0.50400001928E-02 0. -1.
        1   -1    0    0  501    0  0.00000000000E+00  0.00000000000E+00 -0.14068406954E+04  0.14068406955E+04  0.50400001928E-02 0.  1.
    10030    2    1    2    0    0  0.00000000000E+00  0.00000000000E+00 -0.54920908238E+03  0.22644723085E+04  0.21968623580E+04 0.  0.
        5    1    3    3  502    0 -0.61718514214E+03 -0.17765472094E+03 -0.11931235835E+04  0.13550072601E+04  0.46999998093E+01 0.  1.
       -5    1    3    3    0  502  0.61718514214E+03  0.17765472094E+03  0.64391450109E+03  0.90946504841E+03  0.46999998093E+01 0. -1.
</event>
<event>
 5   0  0.1226021E-04  0.2168985E+04  0.7818609E-02  0.8531449E-01
       -2   -1    0    0    0  501  0.00000000000E+00  0.00000000000E+00  0.76908955387E+03  0.76908955387E+03  0.25500000920E-02 0. -1.
        2   -1    0    0  501    0  0.00000000000E+00  0.00000000000E+00 -0.15292423619E+04  0.15292423619E+04  0.25500000920E-02 0.  1.
    10030    2    1    2    0    0  0.00000000000E+00  0.00000000000E+00 -0.76015280800E+03  0.22983319157E+04  0.21689853166E+04 0.  0.
        2    1    3    3  502    0 -0.99891309821E+02 -0.55411410840E+03  0.60207605239E+03  0.82432778176E+03  0.25500000920E-02 0. -1.
       -2    1    3    3    0  502  0.99891309821E+02  0.55411410840E+03 -0.13622288604E+04  0.14740041340E+04  0.25500000920E-02 0.  1.
</event>
<event>
 5   0  0.5861816E-05  0.1730625E+04  0.7818609E-02  0.8744088E-01
       -1   -1    0    0    0  501  0.00000000000E+00  0.00000000000E+00  0.61142566455E+03  0.61142566458E+03  0.50400001928E-02 0.  1.
        1   -1    0    0  501    0  0.00000000000E+00  0.00000000000E+00 -0.12246231805E+04  0.12246231805E+04  0.50400001928E-02 0. -1.
    10030    2    1    2    0    0  0.00000000000E+00  0.00000000000E+00 -0.61319751594E+03  0.18360488451E+04  0.17306253690E+04 0.  0.
        1    1    3    3  502    0 -0.79696404682E+03 -0.32222679857E+03 -0.41153964255E+03  0.95307223182E+03  0.50400001928E-02 0.  1.
       -1    1    3    3    0  502  0.79696404682E+03  0.32222679857E+03 -0.20165787338E+03  0.88297661326E+03  0.50400001928E-02 0. -1.
</event>
<event>
 5   0  0.5861816E-05  0.2203719E+04  0.7818609E-02  0.8516882E-01
       -1   -1    0    0    0  501  0.00000000000E+00  0.00000000000E+00  0.84471762586E+03  0.84471762587E+03  0.50400001928E-02 0.  1.
        1   -1    0    0  501    0  0.00000000000E+00  0.00000000000E+00 -0.14372779457E+04  0.14372779457E+04  0.50400001928E-02 0. -1.
    10030    2    1    2    0    0  0.00000000000E+00  0.00000000000E+00 -0.59256031980E+03  0.22819955715E+04  0.22037186880E+04 0.  0.
        1    1    3    3  502    0 -0.10815553980E+04  0.89503139565E+02 -0.98929638879E+02  0.10897522491E+04  0.50400001928E-02 0. -1.
       -1    1    3    3    0  502  0.10815553980E+04 -0.89503139565E+02 -0.49363068092E+03  0.11922433225E+04  0.50400001928E-02 0.  1.
</event>
<event>
 5   0  0.5981239E-05  0.2180432E+04  0.7818609E-02  0.8526617E-01
        1   -1    0    0  501    0  0.00000000000E+00  0.00000000000E+00  0.18437948645E+04  0.18437948645E+04  0.50400001928E-02 0. -1.
       -1   -1    0    0    0  501  0.00000000000E+00  0.00000000000E+00 -0.64463318555E+03  0.64463318557E+03  0.50400001928E-02 0.  1.
    10030    2    1    2    0    0  0.00000000000E+00  0.00000000000E+00  0.11991616790E+04  0.24884280501E+04  0.21804323948E+04 0.  0.
        4    1    3    3  502    0 -0.38139551857E+03  0.14453357261E+03 -0.55428167568E+03  0.68817314979E+03  0.12699999809E+01 0.  1.
       -4    1    3    3    0  502  0.38139551857E+03 -0.14453357261E+03  0.17534433547E+04  0.18002549003E+04  0.12699999809E+01 0. -1.
</event>
<event>
 5   0  0.1311472E-04  0.2204939E+04  0.7818609E-02  0.8516375E-01
        2   -1    0    0  501    0  0.00000000000E+00  0.00000000000E+00  0.81638656690E+03  0.81638656690E+03  0.25500000920E-02 0. -1.
       -2   -1    0    0    0  501  0.00000000000E+00  0.00000000000E+00 -0.14888034773E+04  0.14888034773E+04  0.25500000920E-02 0.  1.
    10030    2    1    2    0    0  0.00000000000E+00  0.00000000000E+00 -0.67241691045E+03  0.23051900443E+04  0.22049391462E+04 0.  0.
        4    1    3    3  502    0  0.41560564396E+03 -0.10073684120E+04 -0.16152361421E+03  0.11016399864E+04  0.12699999809E+01 0. -1.
       -4    1    3    3    0  502 -0.41560564396E+03  0.10073684120E+04 -0.51089329624E+03  0.12035500579E+04  0.12699999809E+01 0.  1.
</event>
<event>
 5   0  0.6263558E-05  0.2205909E+04  0.7818609E-02  0.8515973E-01
       -1   -1    0    0    0  501  0.00000000000E+00  0.00000000000E+00  0.14119894999E+04  0.14119894999E+04  0.50400001928E-02 0. -1.
        1   -1    0    0  501    0  0.00000000000E+00  0.00000000000E+00 -0.86155635958E+03  0.86155635960E+03  0.50400001928E-02 0.  1.
    10030    2    1    2    0    0  0.00000000000E+00  0.00000000000E+00  0.55043314028E+03  0.22735458595E+04  0.22059089132E+04 0.  0.
        3    1    3    3  502    0 -0.54066200692E+03 -0.27957924269E+03  0.12232172666E+04  0.13662871039E+04  0.10100000352E+00 0. -1.
       -3    1    3    3    0  502  0.54066200692E+03  0.27957924269E+03 -0.67278412636E+03  0.90725875557E+03  0.10100000352E+00 0.  1.
</event>
<event>
 5   0  0.5895063E-05  0.2230033E+04  0.7818609E-02  0.8506031E-01
       -1   -1    0    0    0  501  0.00000000000E+00  0.00000000000E+00  0.17194467284E+04  0.17194467284E+04  0.50400001928E-02 0. -1.
        1   -1    0    0  501    0  0.00000000000E+00  0.00000000000E+00 -0.72305925902E+03  0.72305925903E+03  0.50400001928E-02 0.  1.
    10030    2    1    2    0    0  0.00000000000E+00  0.00000000000E+00  0.99638746935E+03  0.24425059874E+04  0.22300330736E+04 0.  0.
        5    1    3    3  502    0  0.11843533373E+03 -0.97811419334E+03  0.10699513478E+04  0.14544938227E+04  0.46999998093E+01 0. -1.
       -5    1    3    3    0  502 -0.11843533373E+03  0.97811419334E+03 -0.73563878455E+02  0.98801216475E+03  0.46999998093E+01 0.  1.
</event>
<event>
 5   0  0.5981239E-05  0.2181343E+04  0.7818609E-02  0.8526234E-01
       -1   -1    0    0    0  501  0.00000000000E+00  0.00000000000E+00  0.11037708866E+04  0.11037708866E+04  0.50400001928E-02 0.  1.
        1   -1    0    0  501    0  0.00000000000E+00  0.00000000000E+00 -0.10777271750E+04  0.10777271750E+04  0.50400001928E-02 0. -1.
    10030    2    1    2    0    0  0.00000000000E+00  0.00000000000E+00  0.26043711587E+02  0.21814980616E+04  0.21813425953E+04 0.  0.
        4    1    3    3  502    0  0.27216634635E+03  0.54265909049E+03  0.91918182529E+03  0.11015671788E+04  0.12699999809E+01 0.  1.
       -4    1    3    3    0  502 -0.27216634635E+03 -0.54265909049E+03 -0.89313811370E+03  0.10799308828E+04  0.12699999809E+01 0. -1.
</event>
<event>
 5   0  0.1226021E-04  0.2309672E+04  0.7818609E-02  0.8474117E-01
       -2   -1    0    0    0  501  0.00000000000E+00  0.00000000000E+00  0.11167547955E+04  0.11167547955E+04  0.25500000920E-02 0. -1.
        2   -1    0    0  501    0  0.00000000000E+00  0.00000000000E+00 -0.11942157515E+04  0.11942157515E+04  0.25500000920E-02 0.  1.
    10030    2    1    2    0    0  0.00000000000E+00  0.00000000000E+00 -0.77460956042E+02  0.23109705470E+04  0.23096719830E+04 0.  0.
        2    1    3    3  502    0  0.41773512019E+03  0.36046276709E+03 -0.10538008000E+04  0.11895092110E+04  0.25500000920E-02 0.  1.
       -2    1    3    3    0  502 -0.41773512019E+03 -0.36046276709E+03  0.97633984394E+03  0.11214613359E+04  0.25500000920E-02 0. -1.
</event>
<event>
 5   0  0.1311472E-04  0.2154235E+04  0.7818609E-02  0.8537721E-01
        2   -1    0    0  501    0  0.00000000000E+00  0.00000000000E+00  0.12262551252E+04  0.12262551252E+04  0.25500000920E-02 0.  1.
       -2   -1    0    0    0  501  0.00000000000E+00  0.00000000000E+00 -0.94611847028E+03  0.94611847028E+03  0.25500000920E-02 0. -1.
    10030    2    1    2    0    0  0.00000000000E+00  0.00000000000E+00  0.28013665490E+03  0.21723735955E+04  0.21542354776E+04 0.  0.
        4    1    3    3  502    0 -0.68604857078E+03 -0.45773349943E+03 -0.55858421204E+03  0.99609263264E+03  0.12699999809E+01 0. -1.
       -4    1    3    3    0  502  0.68604857078E+03  0.45773349943E+03  0.83872086694E+03  0.11762809628E+04  0.12699999809E+01 0.  1.
</event>
<event>
 5   0  0.1311472E-04  0.1966434E+04  0.7818609E-02  0.8622477E-01
       -2   -1    0    0    0  501  0.00000000000E+00  0.00000000000E+00  0.66439699283E+03  0.66439699283E+03  0.25500000920E-02 0.  1.
        2   -1    0    0  501    0  0.00000000000E+00  0.00000000000E+00 -0.14550270185E+04  0.14550270185E+04  0.25500000920E-02 0. -1.
    10030    2    1    2    0    0  0.00000000000E+00  0.00000000000E+00 -0.79063002567E+03  0.21194240113E+04  0.19664339049E+04 0.  0.
        4    1    3    3  502    0  0.38277353986E+03 -0.80266368910E+03  0.56757066572E+02  0.89107101744E+03  0.12699999809E+01 0.  1.
       -4    1    3    3    0  502 -0.38277353986E+03  0.80266368910E+03 -0.84738709224E+03  0.12283529939E+04  0.12699999809E+01 0. -1.
</event>
<event>
 5   0  0.5981239E-05  0.2186086E+04  0.7818609E-02  0.8524242E-01
        1   -1    0    0  501    0  0.00000000000E+00  0.00000000000E+00  0.11375401805E+04  0.11375401805E+04  0.50400001928E-02 0. -1.
       -1   -1    0    0    0  501  0.00000000000E+00  0.00000000000E+00 -0.10502866231E+04  0.10502866231E+04  0.50400001928E-02 0.  1.
    10030    2    1    2    0    0  0.00000000000E+00  0.00000000000E+00  0.87253557434E+02  0.21878268037E+04  0.21860862150E+04 0.  0.
        4    1    3    3  502    0  0.70839989259E+03 -0.60504598480E+03 -0.52851938323E+03  0.10710954219E+04  0.12699999809E+01 0.  1.
       -4    1    3    3    0  502 -0.70839989259E+03  0.60504598480E+03  0.61577294067E+03  0.11167313817E+04  0.12699999809E+01 0. -1.
</event>
<event>
 5   0  0.1226021E-04  0.2257471E+04  0.7818609E-02  0.8494881E-01
       -2   -1    0    0    0  501  0.00000000000E+00  0.00000000000E+00  0.58959972476E+03  0.58959972477E+03  0.25500000920E-02 0. -1.
        2   -1    0    0  501    0  0.00000000000E+00  0.00000000000E+00 -0.21608628913E+04  0.21608628913E+04  0.25500000920E-02 0.  1.
    10030    2    1    2    0    0  0.00000000000E+00  0.00000000000E+00 -0.15712631666E+04  0.27504626161E+04  0.22574712986E+04 0.  0.
        2    1    3    3  502    0  0.22360464559E+03 -0.16725031791E+03  0.54685318821E+03  0.61401963799E+03  0.25500000920E-02 0. -1.
       -2    1    3    3    0  502 -0.22360464559E+03  0.16725031791E+03 -0.21181163548E+04  0.21364429781E+04  0.25500000920E-02 0.  1.
</event>
<event>
 5   0  0.1311472E-04  0.2157330E+04  0.7818609E-02  0.8536401E-01
        2   -1    0    0  501    0  0.00000000000E+00  0.00000000000E+00  0.63358195851E+03  0.63358195851E+03  0.25500000920E-02 0.  1.
       -2   -1    0    0    0  501  0.00000000000E+00  0.00000000000E+00 -0.18364122301E+04  0.18364122301E+04  0.25500000920E-02 0. -1.
    10030    2    1    2    0    0  0.00000000000E+00  0.00000000000E+00 -0.12028302716E+04  0.24699941886E+04  0.21573295134E+04 0.  0.
        4    1    3    3  502    0  0.47525269577E+03  0.96583442090E+03 -0.52196984315E+03  0.11963090669E+04  0.12699999809E+01 0. -1.
       -4    1    3    3    0  502 -0.47525269577E+03 -0.96583442090E+03 -0.68086042846E+03  0.12736851218E+04  0.12699999809E+01 0.  1.
</event>
<event>
 5   0  0.1252124E-04  0.1705227E+04  0.7818609E-02  0.8758389E-01
       -2   -1    0    0    0  501  0.00000000000E+00  0.00000000000E+00  0.43284992809E+03  0.43284992809E+03  0.25500000920E-02 0. -1.
        2   -1    0    0  501    0  0.00000000000E+00  0.00000000000E+00 -0.16794492286E+04  0.16794492286E+04  0.25500000920E-02 0.  1.
    10030    2    1    2    0    0  0.00000000000E+00  0.00000000000E+00 -0.12465993005E+04  0.21122991567E+04  0.17052266452E+04 0.  0.
        3    1    3    3  502    0 -0.63523124100E+03  0.50974672116E+03 -0.31093320460E+03  0.87180268249E+03  0.10100000352E+00 0. -1.
       -3    1    3    3    0  502  0.63523124100E+03 -0.50974672116E+03 -0.93566609590E+03  0.12404964742E+04  0.10100000352E+00 0.  1.
</event>
<event>
 5   0  0.4586375E-05  0.2186777E+04  0.7818609E-02  0.8523952E-01
       -4   -1    0    0    0  501  0.00000000000E+00  0.00000000000E+00  0.85150682521E+03  0.85150777230E+03  0.12699999809E+01 0.  1.
        4   -1    0    0  501    0  0.00000000000E+00  0.00000000000E+00 -0.14039782943E+04  0.14039788687E+04  0.12699999809E+01 0. -1.
    10030    2    1    2    0    0  0.00000000000E+00  0.00000000000E+00 -0.55247146913E+03  0.22554866410E+04  0.21867773695E+04 0.  0.
        2    1    3    3  502    0 -0.66425662080E+03 -0.71177688678E+03 -0.78950143885E+03  0.12534654829E+04  0.25500000920E-02 0. -1.
       -2    1    3    3    0  502  0.66425662080E+03  0.71177688678E+03  0.23702996972E+03  0.10020211582E+04  0.25500000920E-02 0.  1.
</event>
<event>
 5   0  0.1252124E-04  0.2135735E+04  0.7818609E-02  0.8545663E-01
       -2   -1    0    0    0  501  0.00000000000E+00  0.00000000000E+00  0.74031613903E+03  0.74031613903E+03  0.25500000920E-02 0.  1.
        2   -1    0    0  501    0  0.00000000000E+00  0.00000000000E+00 -0.15403432864E+04  0.15403432864E+04  0.25500000920E-02 0. -1.
    10030    2    1    2    0    0  0.00000000000E+00  0.00000000000E+00 -0.80002714739E+03  0.22806594254E+04  0.21357349972E+04 0.  0.
        3    1    3    3  502    0 -0.48484808922E+03 -0.84536151165E+03 -0.86624928994E+03  0.13038794413E+04  0.10100000352E+00 0. -1.
       -3    1    3    3    0  502  0.48484808922E+03  0.84536151165E+03  0.66222142556E+02  0.97677998411E+03  0.10100000352E+00 0.  1.
</event>
<event>
 5   0  0.5895063E-05  0.2156287E+04  0.7818609E-02  0.8536846E-01
        1   -1    0    0  501    0  0.00000000000E+00  0.00000000000E+00  0.14414141330E+04  0.14414141330E+04  0.50400001928E-02 0.  1.
       -1   -1    0    0    0  501  0.00000000000E+00  0.00000000000E+00 -0.80642568698E+03  0.80642568700E+03  0.50400001928E-02 0. -1.
    10030    2    1    2    0    0  0.00000000000E+00  0.00000000000E+00  0.63498844603E+03  0.22478398200E+04  0.21562869776E+04 0.  0.
        5    1    3    3  502    0  0.16498968816E+03  0.32174282790E+03 -0.74132311567E+03  0.82481640159E+03  0.46999998093E+01 0. -1.
       -5    1    3    3    0  502 -0.16498968816E+03 -0.32174282790E+03  0.13763115617E+04  0.14230234184E+04  0.46999998093E+01 0.  1.
</event>
<event>
 5   0  0.5849604E-05  0.2530148E+04  0.7818609E-02  0.8392323E-01
       -1   -1    0    0    0  501  0.00000000000E+00  0.00000000000E+00  0.12682412080E+04  0.12682412080E+04  0.50400001928E-02 0.  1.
        1   -1    0    0  501    0  0.00000000000E+00  0.00000000000E+00 -0.12619147147E+04  0.12619147147E+04  0.50400001928E-02 0. -1.
    10030    2    1    2    0    0  0.00000000000E+00  0.00000000000E+00  0.63264932965E+01  0.25301559226E+04  0.25301480131E+04 0.  0.
        2    1    3    3  502    0  0.33336248201E+03  0.99740328103E+03  0.70634991046E+03  0.12668362347E+04  0.25500000920E-02 0.  1.
       -2    1    3    3    0  502 -0.33336248201E+03 -0.99740328103E+03 -0.70002341716E+03  0.12633196880E+04  0.25500000920E-02 0. -1.
</event>
<event>
 5   0  0.1241430E-04  0.2233530E+04  0.7818609E-02  0.8504600E-01
       -2   -1    0    0    0  501  0.00000000000E+00  0.00000000000E+00  0.70500484277E+03  0.70500484277E+03  0.25500000920E-02 0. -1.
        2   -1    0    0  501    0  0.00000000000E+00  0.00000000000E+00 -0.17690148528E+04  0.17690148528E+04  0.25500000920E-02 0.  1.
    10030    2    1    2    0    0  0.00000000000E+00  0.00000000000E+00 -0.10640100100E+04  0.24740196956E+04  0.22335299758E+04 0.  0.
        1    1    3    3  502    0 -0.62013023411E+03  0.66526452304E+03 -0.12498807353E+04  0.15457490888E+04  0.50400001928E-02 0.  1.
       -1    1    3    3    0  502  0.62013023411E+03 -0.66526452304E+03  0.18587072531E+03  0.92827060679E+03  0.50400001928E-02 0. -1.
</event>
<event>
 5   0  0.5981239E-05  0.2146788E+04  0.7818609E-02  0.8540908E-01
        1   -1    0    0  501    0  0.00000000000E+00  0.00000000000E+00  0.11387438135E+04  0.11387438135E+04  0.50400001928E-02 0.  1.
       -1   -1    0    0    0  501  0.00000000000E+00  0.00000000000E+00 -0.10117943135E+04  0.10117943135E+04  0.50400001928E-02 0. -1.
    10030    2    1    2    0    0  0.00000000000E+00  0.00000000000E+00  0.12694949996E+03  0.21505381270E+04  0.21467878470E+04 0.  0.
        4    1    3    3  502    0 -0.10395922445E+04 -0.25661696904E+03  0.13822815333E+03  0.10796818693E+04  0.12699999809E+01 0. -1.
       -4    1    3    3    0  502  0.10395922445E+04  0.25661696904E+03 -0.11278653365E+02  0.10708562577E+04  0.12699999809E+01 0.  1.
</event>
<event>
 5   0  0.1252124E-04  0.1957422E+04  0.7818609E-02  0.8626790E-01
       -2   -1    0    0    0  501  0.00000000000E+00  0.00000000000E+00  0.42931376372E+03  0.42931376373E+03  0.25500000920E-02 0. -1.
        2   -1    0    0  501    0  0.00000000000E+00  0.00000000000E+00 -0.22311774634E+04  0.22311774634E+04  0.25500000920E-02 0.  1.
    10030    2    1    2    0    0  0.00000000000E+00  0.00000000000E+00 -0.18018636997E+04  0.26604912271E+04  0.19574219722E+04 0.  0.
        3    1    3    3  502    0 -0.92021179077E+03  0.29967087064E+03 -0.10992177771E+04  0.14645381873E+04  0.10100000352E+00 0.  1.
       -3    1    3    3    0  502  0.92021179077E+03 -0.29967087064E+03 -0.70264592260E+03  0.11959530398E+04  0.10100000352E+00 0. -1.
</event>
<event>
 5   0  0.5895063E-05  0.2204128E+04  0.7818609E-02  0.8516712E-01
       -1   -1    0    0    0  501  0.00000000000E+00  0.00000000000E+00  0.65907005466E+03  0.65907005468E+03  0.50400001928E-02 0.  1.
        1   -1    0    0  501    0  0.00000000000E+00  0.00000000000E+00 -0.18428167776E+04  0.18428167776E+04  0.50400001928E-02 0. -1.
    10030    2    1    2    0    0  0.00000000000E+00  0.00000000000E+00 -0.11837467230E+04  0.25018868323E+04  0.22041282671E+04 0.  0.
        5    1    3    3  502    0 -0.10636315273E+04 -0.24687609581E+03 -0.42250711880E+03  0.11708092022E+04  0.46999998093E+01 0. -1.
       -5    1    3    3    0  502  0.10636315273E+04  0.24687609581E+03 -0.76123960417E+03  0.13310776301E+04  0.46999998093E+01 0.  1.
</event>
<event>
 5   0  0.6263558E-05  0.2206458E+04  0.7818609E-02  0.8515745E-01
        1   -1    0    0  501    0  0.00000000000E+00  0.00000000000E+00  0.14020950130E+04  0.14020950130E+04  0.50400001928E-02 0. -1.
       -1   -1    0    0    0  501  0.00000000000E+00  0.00000000000E+00 -0.86806861589E+03  0.86806861590E+03  0.50400001928E-02 0.  1.
    10030    2    1    2    0    0  0.00000000000E+00  0.00000000000E+00  0.53402639711E+03  0.22701636289E+04  0.22064584087E+04 0.  0.
        3    1    3    3  502    0  0.88493815579E+03  0.65288882712E+03  0.35750311597E+03  0.11563683878E+04  0.10100000352E+00 0.  1.
       -3    1    3    3    0  502 -0.88493815579E+03 -0.65288882712E+03  0.17652328113E+03  0.11137952411E+04  0.10100000352E+00 0. -1.
</event>
<event>
 5   0  0.4586375E-05  0.2152800E+04  0.7818609E-02  0.8538335E-01
       -3   -1    0    0    0  501  0.00000000000E+00  0.00000000000E+00  0.19281934679E+04  0.19281934706E+04  0.10100000352E+00 0.  1.
        3   -1    0    0  501    0  0.00000000000E+00  0.00000000000E+00 -0.60089269095E+03  0.60089269943E+03  0.10100000352E+00 0. -1.
    10030    2    1    2    0    0  0.00000000000E+00  0.00000000000E+00  0.13273007770E+04  0.25290861700E+04  0.21528003862E+04 0.  0.
        4    1    3    3  502    0 -0.35305333256E+03  0.27041244962E+03  0.18152229955E+04  0.18689049427E+04  0.12699999809E+01 0.  1.
       -4    1    3    3    0  502  0.35305333256E+03 -0.27041244962E+03 -0.48792221857E+03  0.66018122726E+03  0.12699999809E+01 0. -1.
</event>
<event>
 5   0  0.1226021E-04  0.2173170E+04  0.7818609E-02  0.8529679E-01
        2   -1    0    0  501    0  0.00000000000E+00  0.00000000000E+00  0.22502518726E+04  0.22502518726E+04  0.25500000920E-02 0.  1.
       -2   -1    0    0    0  501  0.00000000000E+00  0.00000000000E+00 -0.52468219934E+03  0.52468219934E+03  0.25500000920E-02 0. -1.
    10030    2    1    2    0    0  0.00000000000E+00  0.00000000000E+00  0.17255696732E+04  0.27749340719E+04  0.21731701282E+04 0.  0.
        2    1    3    3  502    0 -0.11817092510E+03 -0.56764659105E+03  0.20362052739E+04  0.21171487754E+04  0.25500000920E-02 0.  1.
       -2    1    3    3    0  502  0.11817092510E+03  0.56764659105E+03 -0.31063560066E+03  0.65778529649E+03  0.25500000920E-02 0. -1.
</event>
<event>
 5   0  0.1404159E-04  0.1376376E+04  0.7818609E-02  0.8971098E-01
       -2   -1    0    0    0  501  0.00000000000E+00  0.00000000000E+00  0.63389114390E+03  0.63389114390E+03  0.25500000920E-02 0.  1.
        2   -1    0    0  501    0  0.00000000000E+00  0.00000000000E+00 -0.74713584629E+03  0.74713584629E+03  0.25500000920E-02 0. -1.
    10030    2    1    2    0    0  0.00000000000E+00  0.00000000000E+00 -0.11324470239E+03  0.13810269902E+04  0.13763761059E+04 0.  0.
        5    1    3    3  502    0  0.48582316796E+02 -0.62827896191E+03  0.22087321403E+03  0.66775876045E+03  0.46999998093E+01 0.  1.
       -5    1    3    3    0  502 -0.48582316796E+02  0.62827896191E+03 -0.33411791642E+03  0.71326822974E+03  0.46999998093E+01 0. -1.
</event>
<event>
 5   0  0.5981239E-05  0.2217506E+04  0.7818609E-02  0.8511177E-01
       -1   -1    0    0    0  501  0.00000000000E+00  0.00000000000E+00  0.12345546859E+04  0.12345546859E+04  0.50400001928E-02 0.  1.
        1   -1    0    0  501    0  0.00000000000E+00  0.00000000000E+00 -0.99577015604E+03  0.99577015606E+03  0.50400001928E-02 0. -1.
    10030    2    1    2    0    0  0.00000000000E+00  0.00000000000E+00  0.23878452986E+03  0.22303248420E+04  0.22175055466E+04 0.  0.
        4    1    3    3  502    0  0.84322712986E+03  0.39919576026E+03 -0.48318876647E+03  0.10506484876E+04  0.12699999809E+01 0.  1.
       -4    1    3    3    0  502 -0.84322712986E+03 -0.39919576026E+03  0.72197329634E+03  0.11796763544E+04  0.12699999809E+01 0. -1.
</event>
<event>
 5   0  0.1311472E-04  0.2134461E+04  0.7818609E-02  0.8546213E-01
        2   -1    0    0  501    0  0.00000000000E+00  0.00000000000E+00  0.68011464244E+03  0.68011464244E+03  0.25500000920E-02 0.  1.
       -2   -1    0    0    0  501  0.00000000000E+00  0.00000000000E+00 -0.16746902474E+04  0.16746902474E+04  0.25500000920E-02 0. -1.
    10030    2    1    2    0    0  0.00000000000E+00  0.00000000000E+00 -0.99457560497E+03  0.23548048899E+04  0.21344613923E+04 0.  0.
        4    1    3    3  502    0  0.21707148959E+02  0.76158801211E+03  0.32718284542E+03  0.82917894796E+03  0.12699999809E+01 0.  1.
       -4    1    3    3    0  502 -0.21707148959E+02 -0.76158801211E+03 -0.13217584504E+04  0.15256259419E+04  0.12699999809E+01 0. -1.
</event>
<event>
 5   0  0.5895063E-05  0.2151790E+04  0.7818609E-02  0.8538766E-01
       -1   -1    0    0    0  501  0.00000000000E+00  0.00000000000E+00  0.17906824195E+04  0.17906824195E+04  0.50400001928E-02 0.  1.
        1   -1    0    0  501    0  0.00000000000E+00  0.00000000000E+00 -0.64642972233E+03  0.64642972235E+03  0.50400001928E-02 0. -1.
    10030    2    1    2    0    0  0.00000000000E+00  0.00000000000E+00  0.11442526972E+04  0.24371121419E+04  0.21517902679E+04 0.  0.
        5    1    3    3  502    0  0.19203758421E+03  0.92391945586E+03 -0.13134710618E+02  0.94376914831E+03  0.46999998093E+01 0. -1.
       -5    1    3    3    0  502 -0.19203758421E+03 -0.92391945586E+03  0.11573874078E+04  0.14933429936E+04  0.46999998093E+01 0.  1.
</event>
<event>
 5   0  0.1226021E-04  0.2042856E+04  0.7818609E-02  0.8586842E-01
       -2   -1    0    0    0  501  0.00000000000E+00  0.00000000000E+00  0.90485122979E+03  0.90485122979E+03  0.25500000920E-02 0. -1.
        2   -1    0    0  501    0  0.00000000000E+00  0.00000000000E+00 -0.11530244763E+04  0.11530244763E+04  0.25500000920E-02 0.  1.
    10030    2    1    2    0    0  0.00000000000E+00  0.00000000000E+00 -0.24817324654E+03  0.20578757061E+04  0.20428564466E+04 0.  0.
        2    1    3    3  502    0  0.54500804409E+03 -0.10849776355E+03  0.73925001447E+03  0.92482220817E+03  0.25500000920E-02 0. -1.
       -2    1    3    3    0  502 -0.54500804409E+03  0.10849776355E+03 -0.98742326101E+03  0.11330534979E+04  0.25500000920E-02 0.  1.
</event>
<event>
 5   0  0.1252124E-04  0.2105276E+04  0.7818609E-02  0.8558923E-01
       -2   -1    0    0    0  501  0.00000000000E+00  0.00000000000E+00  0.10426191643E+04  0.10426191643E+04  0.25500000920E-02 0.  1.
        2   -1    0    0  501    0  0.00000000000E+00  0.00000000000E+00 -0.10627528925E+04  0.10627528925E+04  0.25500000920E-02 0. -1.
    10030    2    1    2    0    0  0.00000000000E+00  0.00000000000E+00 -0.20133728147E+02  0.21053720568E+04  0.21052757850E+04 0.  0.
        3    1    3    3  502    0 -0.67007806567E+03  0.76370384869E+03 -0.28539443696E+03  0.10553189932E+04  0.10100000352E+00 0. -1.
       -3    1    3    3    0  502  0.67007806567E+03 -0.76370384869E+03  0.26526070882E+03  0.10500530636E+04  0.10100000352E+00 0.  1.
</event>
<event>
 5   0  0.5849604E-05  0.2162940E+04  0.7818609E-02  0.8534014E-01
        1   -1    0    0  501    0  0.00000000000E+00  0.00000000000E+00  0.85570459323E+03  0.85570459325E+03  0.50400001928E-02 0. -1.
       -1   -1    0    0    0  501  0.00000000000E+00  0.00000000000E+00 -0.13667997787E+04  0.13667997787E+04  0.50400001928E-02 0.  1.
    10030    2    1    2    0    0  0.00000000000E+00  0.00000000000E+00 -0.51109518550E+03  0.22225043720E+04  0.21629395264E+04 0.  0.
        2    1    3    3  502    0 -0.62567216616E+03 -0.64333548997E+03  0.36458774977E+03  0.96864360807E+03  0.25500000920E-02 0. -1.
       -2    1    3    3    0  502  0.62567216616E+03  0.64333548997E+03 -0.87568293527E+03  0.12538607639E+04  0.25500000920E-02 0.  1.
</event>
<event>
 5   0  0.5895063E-05  0.2201349E+04  0.7818609E-02  0.8517867E-01
       -1   -1    0    0    0  501  0.00000000000E+00  0.00000000000E+00  0.11448433337E+04  0.11448433337E+04  0.50400001928E-02 0. -1.
        1   -1    0    0  501    0  0.00000000000E+00  0.00000000000E+00 -0.10582093323E+04  0.10582093323E+04  0.50400001928E-02 0.  1.
    10030    2    1    2    0    0  0.00000000000E+00  0.00000000000E+00  0.86634001388E+02  0.22030526661E+04  0.22013485865E+04 0.  0.
        5    1    3    3  502    0  0.13250622093E+03  0.10758169406E+04 -0.14793776935E+03  0.10940053299E+04  0.46999998093E+01 0.  1.
       -5    1    3    3    0  502 -0.13250622093E+03 -0.10758169406E+04  0.23457177074E+03  0.11090473362E+04  0.46999998093E+01 0. -1.
</event>
<event>
 5   0  0.1252124E-04  0.2204481E+04  0.7818609E-02  0.8516566E-01
        2   -1    0    0  501    0  0.00000000000E+00  0.00000000000E+00  0.26856002987E+04  0.26856002987E+04  0.25500000920E-02 0.  1.
       -2   -1    0    0    0  501  0.00000000000E+00  0.00000000000E+00 -0.45238811061E+03  0.45238811062E+03  0.25500000920E-02 0. -1.
    10030    2    1    2    0    0  0.00000000000E+00  0.00000000000E+00  0.22332121881E+04  0.31379884093E+04  0.22044805692E+04 0.  0.
        3    1    3    3  502    0 -0.46748753076E+03  0.98493922230E+03  0.13473811705E+04  0.17332299016E+04  0.10100000352E+00 0. -1.
       -3    1    3    3    0  502  0.46748753076E+03 -0.98493922230E+03  0.88583101756E+03  0.14047585077E+04  0.10100000352E+00 0.  1.
</event>
<event>
 5   0  0.1252124E-04  0.2199455E+04  0.7818609E-02  0.8518655E-01
        2   -1    0    0  501    0  0.00000000000E+00  0.00000000000E+00  0.62657935940E+03  0.62657935940E+03  0.25500000920E-02 0.  1.
       -2   -1    0    0    0  501  0.00000000000E+00  0.00000000000E+00 -0.19301637191E+04  0.19301637191E+04  0.25500000920E-02 0. -1.
    10030    2    1    2    0    0  0.00000000000E+00  0.00000000000E+00 -0.13035843597E+04  0.25567430785E+04  0.21994551568E+04 0.  0.
        3    1    3    3  502    0 -0.59043253665E+03  0.85904569613E+03 -0.24438812357E+03  0.10706519759E+04  0.10100000352E+00 0.  1.
       -3    1    3    3    0  502  0.59043253665E+03 -0.85904569613E+03 -0.10591962361E+04  0.14860911026E+04  0.10100000352E+00 0. -1.
</event>
<event>
 5   0  0.1226021E-04  0.2372280E+04  0.7818609E-02  0.8449955E-01
       -2   -1    0    0    0  501  0.00000000000E+00  0.00000000000E+00  0.78873337003E+03  0.78873337004E+03  0.25500000920E-02 0.  1.
        2   -1    0    0  501    0  0.00000000000E+00  0.00000000000E+00 -0.17837809341E+04  0.17837809341E+04  0.25500000920E-02 0. -1.
    10030    2    1    2    0    0  0.00000000000E+00  0.00000000000E+00 -0.99504756409E+03  0.25725143042E+04  0.23722795346E+04 0.  0.
        2    1    3    3  502    0  0.25726744636E+03  0.86497495885E+03  0.33722896326E+03  0.96337510455E+03  0.25500000920E-02 0.  1.
       -2    1    3    3    0  502 -0.25726744636E+03 -0.86497495885E+03 -0.13322765274E+04  0.16091391996E+04  0.25500000920E-02 0. -1.
</event>
<event>
 5   0  0.5861816E-05  0.2282677E+04  0.7818609E-02  0.8484783E-01
        1   -1    0    0  501    0  0.00000000000E+00  0.00000000000E+00  0.18290528828E+04  0.18290528828E+04  0.50400001928E-02 0. -1.
       -1   -1    0    0    0  501  0.00000000000E+00  0.00000000000E+00 -0.71220115552E+03  0.71220115554E+03  0.50400001928E-02 0.  1.
    10030    2    1    2    0    0  0.00000000000E+00  0.00000000000E+00  0.11168517272E+04  0.25412540383E+04  0.22826770044E+04 0.  0.
        1    1    3    3  502    0  0.82075131085E+03  0.26809042199E+03 -0.27255123917E+03  0.90542220352E+03  0.50400001928E-02 0.  1.
       -1    1    3    3    0  502 -0.82075131085E+03 -0.26809042199E+03  0.13894029664E+04  0.16358318348E+04  0.50400001928E-02 0. -1.
</event>
<event>
 5   0  0.1311472E-04  0.2187863E+04  0.7818609E-02  0.8523497E-01
       -2   -1    0    0    0  501  0.00000000000E+00  0.00000000000E+00  0.52121368356E+03  0.52121368356E+03  0.25500000920E-02 0. -1.
        2   -1    0    0  501    0  0.00000000000E+00  0.00000000000E+00 -0.22959612379E+04  0.22959612379E+04  0.25500000920E-02 0.  1.
    10030    2    1    2    0    0  0.00000000000E+00  0.00000000000E+00 -0.17747475544E+04  0.28171749215E+04  0.21878632628E+04 0.  0.
        4    1    3    3  502    0  0.10092632028E+04 -0.35804447628E+03 -0.59980437476E+03  0.12274261527E+04  0.12699999809E+01 0. -1.
       -4    1    3    3    0  502 -0.10092632028E+04  0.35804447628E+03 -0.11749431796E+04  0.15897487688E+04  0.12699999809E+01 0.  1.
</event>
<event>
 5   0  0.1252124E-04  0.2166508E+04  0.7818609E-02  0.8532499E-01
        2   -1    0    0  501    0  0.00000000000E+00  0.00000000000E+00  0.10185661154E+04  0.10185661154E+04  0.25500000920E-02 0. -1.
       -2   -1    0    0    0  501  0.00000000000E+00  0.00000000000E+00 -0.11520496169E+04  0.11520496169E+04  0.25500000920E-02 0.  1.
    10030    2    1    2    0    0  0.00000000000E+00  0.00000000000E+00 -0.13348350148E+03  0.21706157323E+04  0.21665075149E+04 0.  0.
        3    1    3    3  502    0  0.13007901796E+02 -0.76809711006E+03  0.69844486267E+03  0.10382521911E+04  0.10100000352E+00 0. -1.
       -3    1    3    3    0  502 -0.13007901796E+02  0.76809711006E+03 -0.83192836416E+03  0.11323635411E+04  0.10100000352E+00 0.  1.
</event>
<event>
 5   0  0.5849604E-05  0.2017467E+04  0.7818609E-02  0.8598498E-01
        1   -1    0    0  501    0  0.00000000000E+00  0.00000000000E+00  0.11698764875E+04  0.11698764875E+04  0.50400001928E-02 0.  1.
       -1   -1    0    0    0  501  0.00000000000E+00  0.00000000000E+00 -0.86978653035E+03  0.86978653037E+03  0.50400001928E-02 0. -1.
    10030    2    1    2    0    0  0.00000000000E+00  0.00000000000E+00  0.30008995715E+03  0.20396630179E+04  0.20174665410E+04 0.  0.
        2    1    3    3  502    0 -0.24073111498E+02  0.66801490423E+03 -0.61372642234E+03  0.90745994317E+03  0.25500000920E-02 0. -1.
       -2    1    3    3    0  502  0.24073111498E+02 -0.66801490423E+03  0.91381637948E+03  0.11322030747E+04  0.25500000920E-02 0.  1.
</event>
<event>
 5   0  0.5861816E-05  0.2191613E+04  0.7818609E-02  0.8521927E-01
       -1   -1    0    0    0  501  0.00000000000E+00  0.00000000000E+00  0.11649405845E+04  0.11649405845E+04  0.50400001928E-02 0.  1.
        1   -1    0    0  501    0  0.00000000000E+00  0.00000000000E+00 -0.10307747663E+04  0.10307747663E+04  0.50400001928E-02 0. -1.
    10030    2    1    2    0    0  0.00000000000E+00  0.00000000000E+00  0.13416581821E+03  0.21957153508E+04  0.21916125194E+04 0.  0.
        1    1    3    3  502    0  0.93805518920E+02 -0.24268877665E+03 -0.99937874211E+03  0.10326931722E+04  0.50400001928E-02 0. -1.
       -1    1    3    3    0  502 -0.93805518920E+02  0.24268877665E+03  0.11335445603E+04  0.11630221786E+04  0.50400001928E-02 0.  1.
</event>
<event>
 5   0  0.1241430E-04  0.2185688E+04  0.7818609E-02  0.8524409E-01
       -2   -1    0    0    0  501  0.00000000000E+00  0.00000000000E+00  0.16458602685E+04  0.16458602685E+04  0.25500000920E-02 0. -1.
        2   -1    0    0  501    0  0.00000000000E+00  0.00000000000E+00 -0.72564350143E+03  0.72564350143E+03  0.25500000920E-02 0.  1.
    10030    2    1    2    0    0  0.00000000000E+00  0.00000000000E+00  0.92021676709E+03  0.23715037699E+04  0.21856878168E+04 0.  0.
        1    1    3    3  502    0 -0.75291377346E+03 -0.47280009657E+03 -0.22944287184E+03  0.91818468352E+03  0.50400001928E-02 0.  1.
       -1    1    3    3    0  502  0.75291377346E+03  0.47280009657E+03  0.11496596389E+04  0.14533190864E+04  0.50400001928E-02 0. -1.
</event>
<event>
 5   0  0.5895063E-05  0.2168358E+04  0.7818609E-02  0.8531715E-01
       -1   -1    0    0    0  501  0.00000000000E+00  0.00000000000E+00  0.15756887020E+04  0.15756887020E+04  0.50400001928E-02 0. -1.
        1   -1    0    0  501    0  0.00000000000E+00  0.00000000000E+00 -0.74598785631E+03  0.74598785633E+03  0.50400001928E-02 0.  1.
    10030    2    1    2    0    0  0.00000000000E+00  0.00000000000E+00  0.82970084573E+03  0.23216765584E+04  0.21683584916E+04 0.  0.
        5    1    3    3  502    0 -0.95139569320E+03  0.32944426636E+03  0.84544938956E+03  0.13147220429E+04  0.46999998093E+01 0. -1.
       -5    1    3    3    0  502  0.95139569320E+03 -0.32944426636E+03 -0.15748543838E+02  0.10069545155E+04  0.46999998093E+01 0.  1.
</event>
<event>
 5   0  0.5981239E-05  0.2143293E+04  0.7818609E-02  0.8542408E-01
       -1   -1    0    0    0  501  0.00000000000E+00  0.00000000000E+00  0.10850763289E+04  0.10850763289E+04  0.50400001928E-02 0. -1.
        1   -1    0    0  501    0  0.00000000000E+00  0.00000000000E+00 -0.10583832939E+04  0.10583832939E+04  0.50400001928E-02 0.  1.
    10030    2    1    2    0    0  0.00000000000E+00  0.00000000000E+00  0.26693034981E+02  0.21434596228E+04  0.21432934088E+04 0.  0.
        4    1    3    3  502    0  0.43711312544E+03 -0.44410655982E+03 -0.85857344820E+03  0.10608715755E+04  0.12699999809E+01 0.  1.
       -4    1    3    3    0  502 -0.43711312544E+03  0.44410655982E+03  0.88526648318E+03  0.10825880473E+04  0.12699999809E+01 0. -1.
</event>
<event>
 5   0  0.1241430E-04  0.2175421E+04  0.7818609E-02  0.8528729E-01
       -2   -1    0    0    0  501  0.00000000000E+00  0.00000000000E+00  0.87236369361E+03  0.87236369362E+03  0.25500000920E-02 0. -1.
        2   -1    0    0  501    0  0.00000000000E+00  0.00000000000E+00 -0.13562161930E+04  0.13562161930E+04  0.25500000920E-02 0.  1.
    10030    2    1    2    0    0  0.00000000000E+00  0.00000000000E+00 -0.48385249934E+03  0.22285798866E+04  0.21754206650E+04 0.  0.
        1    1    3    3  502    0 -0.44476512625E+03 -0.71504358497E+03 -0.94723439913E+03  0.12674211427E+04  0.50400001928E-02 0.  1.
       -1    1    3    3    0  502  0.44476512625E+03  0.71504358497E+03  0.46338189979E+03  0.96115874392E+03  0.50400001928E-02 0. -1.
</event>
<event>
 5   0  0.5981239E-05  0.1527226E+04  0.7818609E-02  0.8866547E-01
        1   -1    0    0  501    0  0.00000000000E+00  0.00000000000E+00  0.18265784220E+04  0.18265784220E+04  0.50400001928E-02 0. -1.
       -1   -1    0    0    0  501  0.00000000000E+00  0.00000000000E+00 -0.31923357682E+03  0.31923357686E+03  0.50400001928E-02 0.  1.
    10030    2    1    2    0    0  0.00000000000E+00  0.00000000000E+00  0.15073448452E+04  0.21458119989E+04  0.15272264574E+04 0.  0.
        4    1    3    3  502    0 -0.47619410738E+03  0.17836284679E+03  0.15540875081E+04  0.16351647406E+04  0.12699999809E+01 0. -1.
       -4    1    3    3    0  502  0.47619410738E+03 -0.17836284679E+03 -0.46742662903E+02  0.51064725834E+03  0.12699999809E+01 0.  1.
</event>
<event>
 5   0  0.5861816E-05  0.2122484E+04  0.7818609E-02  0.8551403E-01
        1   -1    0    0  501    0  0.00000000000E+00  0.00000000000E+00  0.16177754590E+04  0.16177754591E+04  0.50400001928E-02 0.  1.
       -1   -1    0    0    0  501  0.00000000000E+00  0.00000000000E+00 -0.69616220624E+03  0.69616220626E+03  0.50400001928E-02 0. -1.
    10030    2    1    2    0    0  0.00000000000E+00  0.00000000000E+00  0.92161325280E+03  0.23139376653E+04  0.21224835762E+04 0.  0.
        1    1    3    3  502    0 -0.56747360695E+03  0.75153917456E+03  0.99422307479E+03  0.13694221219E+04  0.50400001928E-02 0.  1.
       -1    1    3    3    0  502  0.56747360695E+03 -0.75153917456E+03 -0.72609821986E+02  0.94451554341E+03  0.50400001928E-02 0. -1.
</event>
<event>
 5   0  0.5849604E-05  0.2197594E+04  0.7818609E-02  0.8519430E-01
       -1   -1    0    0    0  501  0.00000000000E+00  0.00000000000E+00  0.78514999632E+03  0.78514999633E+03  0.50400001928E-02 0.  1.
        1   -1    0    0  501    0  0.00000000000E+00  0.00000000000E+00 -0.15377376917E+04  0.15377376917E+04  0.50400001928E-02 0. -1.
    10030    2    1    2    0    0  0.00000000000E+00  0.00000000000E+00 -0.75258769542E+03  0.23228876881E+04  0.21975939052E+04 0.  0.
        2    1    3    3  502    0 -0.62820406579E+03 -0.38493272398E+03 -0.12379653372E+04  0.14406150514E+04  0.25500000920E-02 0. -1.
       -2    1    3    3    0  502  0.62820406579E+03  0.38493272398E+03  0.48537764177E+03  0.88227263667E+03  0.25500000920E-02 0.  1.
</event>
<event>
 5   0  0.1241430E-04  0.2085364E+04  0.7818609E-02  0.8567718E-01
        2   -1    0    0  501    0  0.00000000000E+00  0.00000000000E+00  0.21043173302E+04  0.21043173302E+04  0.25500000920E-02 0.  1.
       -2   -1    0    0    0  501  0.00000000000E+00  0.00000000000E+00 -0.51664518816E+03  0.51664518817E+03  0.25500000920E-02 0. -1.
    10030    2    1    2    0    0  0.00000000000E+00  0.00000000000E+00  0.15876721420E+04  0.26209625183E+04  0.20853636834E+04 0.  0.
        1    1    3    3  502    0  0.91783462088E+03 -0.48150203164E+03  0.93670050681E+03  0.13970227046E+04  0.50400001928E-02 0.  1.
       -1    1    3    3    0  502 -0.91783462088E+03  0.48150203164E+03  0.65097163520E+03  0.12239398137E+04  0.50400001928E-02 0. -1.
</event>
<event>
 5   0  0.4586375E-05  0.2176174E+04  0.7818609E-02  0.8528411E-01
       -3   -1    0    0    0  501  0.00000000000E+00  0.00000000000E+00  0.11303544781E+04  0.11303544826E+04  0.10100000352E+00 0. -1.
        3   -1    0    0  501    0  0.00000000000E+00  0.00000000000E+00 -0.10474001229E+04  0.10474001278E+04  0.10100000352E+00 0.  1.
    10030    2    1    2    0    0  0.00000000000E+00  0.00000000000E+00  0.82954355185E+02  0.21777546104E+04  0.21761741010E+04 0.  0.
        4    1    3    3  502    0  0.15054773574E+02 -0.91608539040E+03  0.62883848478E+03  0.11112508905E+04  0.12699999809E+01 0. -1.
       -4    1    3    3    0  502 -0.15054773574E+02  0.91608539040E+03 -0.54588412959E+03  0.10665037199E+04  0.12699999809E+01 0.  1.
</event>
<event>
 5   0  0.1241430E-04  0.2119373E+04  0.7818609E-02  0.8552757E-01
        2   -1    0    0  501    0  0.00000000000E+00  0.00000000000E+00  0.20488956407E+04  0.20488956407E+04  0.25500000920E-02 0.  1.
       -2   -1    0    0    0  501  0.00000000000E+00  0.00000000000E+00 -0.54806854935E+03  0.54806854936E+03  0.25500000920E-02 0. -1.
    10030    2    1    2    0    0  0.00000000000E+00  0.00000000000E+00  0.15008270913E+04  0.25969641900E+04  0.21193727955E+04 0.  0.
        1    1    3    3  502    0  0.82003600183E+03 -0.47776745447E+02 -0.69921812612E+02  0.82439718681E+03  0.50400001928E-02 0. -1.
       -1    1    3    3    0  502 -0.82003600183E+03  0.47776745447E+02  0.15707489039E+04  0.17725670032E+04  0.50400001928E-02 0.  1.
</event>
<event>
 5   0  0.1226021E-04  0.2212901E+04  0.7818609E-02  0.8513078E-01
        2   -1    0    0  501    0  0.00000000000E+00  0.00000000000E+00  0.21284167846E+04  0.21284167846E+04  0.25500000920E-02 0. -1.
       -2   -1    0    0    0  501  0.00000000000E+00  0.00000000000E+00 -0.57518451703E+03  0.57518451704E+03  0.25500000920E-02 0.  1.
    10030    2    1    2    0    0  0.00000000000E+00  0.00000000000E+00  0.15532322676E+04  0.27036013017E+04  0.22129007030E+04 0.  0.
        2    1    3    3  502    0  0.58316691541E+03  0.53924751531E+03  0.17177256455E+04  0.18924727019E+04  0.25500000920E-02 0. -1.
       -2    1    3    3    0  502 -0.58316691541E+03 -0.53924751531E+03 -0.16449337794E+03  0.81112859979E+03  0.25500000920E-02 0.  1.
</event>
<event>
 5   0  0.1311472E-04  0.2150685E+04  0.7818609E-02  0.8539239E-01
        2   -1    0    0  501    0  0.00000000000E+00  0.00000000000E+00  0.10796622313E+04  0.10796622313E+04  0.25500000920E-02 0. -1.
       -2   -1    0    0    0  501  0.00000000000E+00  0.00000000000E+00 -0.10710398625E+04  0.10710398625E+04  0.25500000920E-02 0.  1.
    10030    2    1    2    0    0  0.00000000000E+00  0.00000000000E+00  0.86223688687E+01  0.21507020938E+04  0.21506848098E+04 0.  0.
        4    1    3    3  502    0  0.37356262433E+03  0.50847733274E+03 -0.86647790039E+03  0.10718599708E+04  0.12699999809E+01 0.  1.
       -4    1    3    3    0  502 -0.37356262433E+03 -0.50847733274E+03  0.87510026926E+03  0.10788421230E+04  0.12699999809E+01 0. -1.
</event>
<event>
 5   0  0.1252124E-04  0.2249999E+04  0.7818609E-02  0.8497901E-01
        2   -1    0    0  501    0  0.00000000000E+00  0.00000000000E+00  0.24776465595E+04  0.24776465595E+04  0.25500000920E-02 0. -1.
       -2   -1    0    0    0  501  0.00000000000E+00  0.00000000000E+00 -0.51081680422E+03  0.51081680422E+03  0.25500000920E-02 0.  1.
    10030    2    1    2    0    0  0.00000000000E+00  0.00000000000E+00  0.19668297553E+04  0.29884633637E+04  0.22499986644E+04 0.  0.
        3    1    3    3  502    0  0.61917876030E+03 -0.55121431154E+03  0.19935542393E+04  0.21590456386E+04  0.10100000352E+00 0. -1.
       -3    1    3    3    0  502 -0.61917876030E+03  0.55121431154E+03 -0.26724484010E+02  0.82941772510E+03  0.10100000352E+00 0.  1.
</event>
<event>
 5   0  0.5861816E-05  0.2198462E+04  0.7818609E-02  0.8519068E-01
        1   -1    0    0  501    0  0.00000000000E+00  0.00000000000E+00  0.17376570197E+04  0.17376570198E+04  0.50400001928E-02 0.  1.
       -1   -1    0    0    0  501  0.00000000000E+00  0.00000000000E+00 -0.69536685256E+03  0.69536685258E+03  0.50400001928E-02 0. -1.
    10030    2    1    2    0    0  0.00000000000E+00  0.00000000000E+00  0.10422901672E+04  0.24330238723E+04  0.21984622741E+04 0.  0.
        1    1    3    3  502    0  0.37239125481E+03 -0.99264345340E+03  0.84245390229E+03  0.13541583548E+04  0.50400001928E-02 0. -1.
       -1    1    3    3    0  502 -0.37239125481E+03  0.99264345340E+03  0.19983626490E+03  0.10788655176E+04  0.50400001928E-02 0.  1.
</event>
<event>
 5   0  0.4586375E-05  0.2194925E+04  0.7818609E-02  0.8520543E-01
       -3   -1    0    0    0  501  0.00000000000E+00  0.00000000000E+00  0.15344861158E+04  0.15344861192E+04  0.10100000352E+00 0.  1.
        3   -1    0    0  501    0  0.00000000000E+00  0.00000000000E+00 -0.78490359973E+03  0.78490360623E+03  0.10100000352E+00 0. -1.
    10030    2    1    2    0    0  0.00000000000E+00  0.00000000000E+00  0.74958251610E+03  0.23193897254E+04  0.21949247709E+04 0.  0.
        2    1    3    3  502    0 -0.94828855677E+03 -0.32883525148E+03  0.84385423341E+03  0.13112870688E+04  0.25500000920E-02 0.  1.
       -2    1    3    3    0  502  0.94828855677E+03  0.32883525148E+03 -0.94271717317E+02  0.10081026566E+04  0.25500000920E-02 0. -1.
</event>
<event>
 5   0  0.4586375E-05  0.2155365E+04  0.7818609E-02  0.8537239E-01
        3   -1    0    0  501    0  0.00000000000E+00  0.00000000000E+00  0.13527930328E+04  0.13527930366E+04  0.10100000352E+00 0. -1.
       -3   -1    0    0    0  501  0.00000000000E+00  0.00000000000E+00 -0.85851967896E+03  0.85851968490E+03  0.10100000352E+00 0.  1.
    10030    2    1    2    0    0  0.00000000000E+00  0.00000000000E+00  0.49427335386E+03  0.22113127215E+04  0.21553648888E+04 0.  0.
        3    1    3    3  502    0 -0.25657689729E+03 -0.16617434924E+03  0.13073801259E+04  0.13426423286E+04  0.10100000352E+00 0. -1.
       -3    1    3    3    0  502  0.25657689729E+03  0.16617434924E+03 -0.81310677207E+03  0.86867039293E+03  0.10100000352E+00 0.  1.
</event>
<event>
 5   0  0.1311472E-04  0.2218356E+04  0.7818609E-02  0.8510827E-01
        2   -1    0    0  501    0  0.00000000000E+00  0.00000000000E+00  0.11228090047E+04  0.11228090047E+04  0.25500000920E-02 0. -1.
       -2   -1    0    0    0  501  0.00000000000E+00  0.00000000000E+00 -0.10957121747E+04  0.10957121747E+04  0.25500000920E-02 0.  1.
    10030    2    1    2    0    0  0.00000000000E+00  0.00000000000E+00  0.27096829908E+02  0.22185211794E+04  0.22183556940E+04 0.  0.
        4    1    3    3  502    0 -0.67671965718E+03 -0.62952650820E+03  0.62679947897E+03  0.11167507863E+04  0.12699999809E+01 0. -1.
       -4    1    3    3    0  502  0.67671965718E+03  0.62952650820E+03 -0.59970264906E+03  0.11017703931E+04  0.12699999809E+01 0.  1.
</event>
<event>
 5   0  0.1226021E-04  0.2137405E+04  0.7818609E-02  0.8544943E-01
       -2   -1    0    0    0  501  0.00000000000E+00  0.00000000000E+00  0.15035069210E+04  0.15035069210E+04  0.25500000920E-02 0. -1.
        2   -1    0    0  501    0  0.00000000000E+00  0.00000000000E+00 -0.75964077282E+03  0.75964077283E+03  0.25500000920E-02 0.  1.
    10030    2    1    2    0    0  0.00000000000E+00  0.00000000000E+00  0.74386614814E+03  0.22631476938E+04  0.21374051178E+04 0.  0.
        2    1    3    3  502    0 -0.24237798418E+03  0.32404706969E+03 -0.67538347012E+03  0.78733501275E+03  0.25500000920E-02 0.  1.
       -2    1    3    3    0  502  0.24237798418E+03 -0.32404706969E+03  0.14192496183E+04  0.14758126810E+04  0.25500000920E-02 0. -1.
</event>
<event>
 5   0  0.5849604E-05  0.2190846E+04  0.7818609E-02  0.8522248E-01
       -1   -1    0    0    0  501  0.00000000000E+00  0.00000000000E+00  0.73050887130E+03  0.73050887132E+03  0.50400001928E-02 0. -1.
        1   -1    0    0  501    0  0.00000000000E+00  0.00000000000E+00 -0.16426242616E+04  0.16426242616E+04  0.50400001928E-02 0.  1.
    10030    2    1    2    0    0  0.00000000000E+00  0.00000000000E+00 -0.91211539025E+03  0.23731331329E+04  0.21908460423E+04 0.  0.
        2    1    3    3  502    0 -0.61053971743E+03  0.42163682629E+03 -0.13289717376E+04  0.15220716932E+04  0.25500000920E-02 0. -1.
       -2    1    3    3    0  502  0.61053971743E+03 -0.42163682629E+03  0.41685634733E+03  0.85106143971E+03  0.25500000920E-02 0.  1.
</event>
<event>
 5   0  0.4586375E-05  0.2142761E+04  0.7818609E-02  0.8542637E-01
       -4   -1    0    0    0  501  0.00000000000E+00  0.00000000000E+00  0.14427948128E+04  0.14427953718E+04  0.12699999809E+01 0.  1.
        4   -1    0    0  501    0  0.00000000000E+00  0.00000000000E+00 -0.79557670767E+03  0.79557772134E+03  0.12699999809E+01 0. -1.
    10030    2    1    2    0    0  0.00000000000E+00  0.00000000000E+00  0.64721810515E+03  0.22383730931E+04  0.21427605625E+04 0.  0.
        4    1    3    3  502    0 -0.73313403228E+03 -0.59865873526E+03  0.84798007320E+03  0.12708066761E+04  0.12699999809E+01 0.  1.
       -4    1    3    3    0  502  0.73313403228E+03  0.59865873526E+03 -0.20076196805E+03  0.96756641700E+03  0.12699999809E+01 0. -1.
</event>
<event>
 5   0  0.1241430E-04  0.2194693E+04  0.7818609E-02  0.8520640E-01
       -2   -1    0    0    0  501  0.00000000000E+00  0.00000000000E+00  0.15892689708E+04  0.15892689708E+04  0.25500000920E-02 0.  1.
        2   -1    0    0  501    0  0.00000000000E+00  0.00000000000E+00 -0.75768756525E+03  0.75768756526E+03  0.25500000920E-02 0. -1.
    10030    2    1    2    0    0  0.00000000000E+00  0.00000000000E+00  0.83158140551E+03  0.23469565360E+04  0.21946929963E+04 0.  0.
        1    1    3    3  502    0  0.57593022562E+03 -0.59574106141E+03 -0.35354212507E+03  0.90088571487E+03  0.50400001928E-02 0. -1.
       -1    1    3    3    0  502 -0.57593022562E+03  0.59574106141E+03  0.11851235306E+04  0.14460708212E+04  0.50400001928E-02 0.  1.
</event>
<event>
 5   0  0.5981239E-05  0.1535284E+04  0.7818609E-02  0.8861323E-01
       -1   -1    0    0    0  501  0.00000000000E+00  0.00000000000E+00  0.33736195789E+03  0.33736195793E+03  0.50400001928E-02 0.  1.
        1   -1    0    0  501    0  0.00000000000E+00  0.00000000000E+00 -0.17467126126E+04  0.17467126126E+04  0.50400001928E-02 0. -1.
    10030    2    1    2    0    0  0.00000000000E+00  0.00000000000E+00 -0.14093506547E+04  0.20840745706E+04  0.15352841912E+04 0.  0.
        4    1    3    3  502    0 -0.69676347459E+03 -0.68150199762E+02 -0.11321088818E+04  0.13310882474E+04  0.12699999809E+01 0. -1.
       -4    1    3    3    0  502  0.69676347459E+03  0.68150199762E+02 -0.27724177290E+03  0.75298632311E+03  0.12699999809E+01 0.  1.
</event>
<event>
 5   0  0.5895063E-05  0.2170764E+04  0.7818609E-02  0.8530696E-01
       -1   -1    0    0    0  501  0.00000000000E+00  0.00000000000E+00  0.10871211377E+04  0.10871211377E+04  0.50400001928E-02 0.  1.
        1   -1    0    0  501    0  0.00000000000E+00  0.00000000000E+00 -0.10836457247E+04  0.10836457247E+04  0.50400001928E-02 0. -1.
    10030    2    1    2    0    0  0.00000000000E+00  0.00000000000E+00  0.34754130351E+01  0.21707668624E+04  0.21707640803E+04 0.  0.
        5    1    3    3  502    0 -0.24673233534E+03  0.99950739847E+03  0.34545343351E+03  0.10859337225E+04  0.46999998093E+01 0.  1.
       -5    1    3    3    0  502  0.24673233534E+03 -0.99950739847E+03 -0.34197802048E+03  0.10848331399E+04  0.46999998093E+01 0. -1.
</event>
<event>
 5   0  0.5861816E-05  0.1423972E+04  0.7818609E-02  0.8936647E-01
        1   -1    0    0  501    0  0.00000000000E+00  0.00000000000E+00  0.61933778422E+03  0.61933778424E+03  0.50400001928E-02 0.  1.
       -1   -1    0    0    0  501  0.00000000000E+00  0.00000000000E+00 -0.81849354805E+03  0.81849354806E+03  0.50400001928E-02 0. -1.
    10030    2    1    2    0    0  0.00000000000E+00  0.00000000000E+00 -0.19915576383E+03  0.14378313323E+04  0.14239718824E+04 0.  0.
        1    1    3    3  502    0 -0.60404496225E+03 -0.12029739018E+02 -0.47995240585E+03  0.77160180336E+03  0.50400001928E-02 0. -1.
       -1    1    3    3    0  502  0.60404496225E+03  0.12029739018E+02  0.28079664202E+03  0.66622952894E+03  0.50400001928E-02 0.  1.
</event>
<event>
 5   0  0.6263558E-05  0.2201400E+04  0.7818609E-02  0.8517845E-01
        1   -1    0    0  501    0  0.00000000000E+00  0.00000000000E+00  0.78167466645E+03  0.78167466647E+03  0.50400001928E-02 0. -1.
       -1   -1    0    0    0  501  0.00000000000E+00  0.00000000000E+00 -0.15499299081E+04  0.15499299081E+04  0.50400001928E-02 0.  1.
    10030    2    1    2    0    0  0.00000000000E+00  0.00000000000E+00 -0.76825524163E+03  0.23316045745E+04  0.22014004124E+04 0.  0.
        3    1    3    3  502    0 -0.84275573704E+03 -0.10121667174E+03 -0.11263305136E+04  0.14103554456E+04  0.10100000352E+00 0.  1.
       -3    1    3    3    0  502  0.84275573704E+03  0.10121667174E+03  0.35807527196E+03  0.92124912893E+03  0.10100000352E+00 0. -1.
</event>
<event>
 5   0  0.1241430E-04  0.2162128E+04  0.7818609E-02  0.8534359E-01
        2   -1    0    0  501    0  0.00000000000E+00  0.00000000000E+00  0.14348936762E+04  0.14348936763E+04  0.25500000920E-02 0.  1.
       -2   -1    0    0    0  501  0.00000000000E+00  0.00000000000E+00 -0.81448511588E+03  0.81448511588E+03  0.25500000920E-02 0. -1.
    10030    2    1    2    0    0  0.00000000000E+00  0.00000000000E+00  0.62040856037E+03  0.22493787921E+04  0.21621281573E+04 0.  0.
        1    1    3    3  502    0  0.10204574730E+04  0.35410227172E+03  0.26393870379E+03  0.11119287353E+04  0.50400001928E-02 0. -1.
       -1    1    3    3    0  502 -0.10204574730E+04 -0.35410227172E+03  0.35646985658E+03  0.11374500568E+04  0.50400001928E-02 0.  1.
</event>
<event>
 5   0  0.1241430E-04  0.2228148E+04  0.7818609E-02  0.8506803E-01
       -2   -1    0    0    0  501  0.00000000000E+00  0.00000000000E+00  0.13532067946E+04  0.13532067946E+04  0.25500000920E-02 0.  1.
        2   -1    0    0  501    0  0.00000000000E+00  0.00000000000E+00 -0.91719991953E+03  0.91719991954E+03  0.25500000920E-02 0. -1.
    10030    2    1    2    0    0  0.00000000000E+00  0.00000000000E+00  0.43600687511E+03  0.22704067142E+04  0.22281482564E+04 0.  0.
        1    1    3    3  502    0  0.68384808434E+03  0.71647002031E+02 -0.67519408562E+03  0.96367450347E+03  0.50400001928E-02 0. -1.
       -1    1    3    3    0  502 -0.68384808434E+03 -0.71647002031E+02  0.11112009607E+04  0.13067322107E+04  0.50400001928E-02 0.  1.
</event>
<event>
 5   0  0.4586375E-05  0.2175141E+04  0.7818609E-02  0.8528847E-01
       -3   -1    0    0    0  501  0.00000000000E+00  0.00000000000E+00  0.84635090809E+03  0.84635091411E+03  0.10100000352E+00 0.  1.
        3   -1    0    0  501    0  0.00000000000E+00  0.00000000000E+00 -0.13975402297E+04  0.13975402334E+04  0.10100000352E+00 0. -1.
    10030    2    1    2    0    0  0.00000000000E+00  0.00000000000E+00 -0.55118932165E+03  0.22438911475E+04  0.21751408721E+04 0.  0.
        4    1    3    3  502    0 -0.45969084609E+02 -0.29442308853E+03 -0.13546034645E+04  0.13869932483E+04  0.12699999809E+01 0. -1.
       -4    1    3    3    0  502  0.45969084609E+02  0.29442308853E+03  0.80341414287E+03  0.85689789921E+03  0.12699999809E+01 0.  1.
</event>
<event>
 5   0  0.1311472E-04  0.2209669E+04  0.7818609E-02  0.8514414E-01
        2   -1    0    0  501    0  0.00000000000E+00  0.00000000000E+00  0.15384411456E+04  0.15384411456E+04  0.25500000920E-02 0.  1.
       -2   -1    0    0    0  501  0.00000000000E+00  0.00000000000E+00 -0.79343894759E+03  0.79343894759E+03  0.25500000920E-02 0. -1.
    10030    2    1    2    0    0  0.00000000000E+00  0.00000000000E+00  0.74500219803E+03  0.23318800932E+04  0.22096688652E+04 0.  0.
        4    1    3    3  502    0  0.12972990824E+03 -0.10962330232E+04  0.42087080892E+03  0.11813934742E+04  0.12699999809E+01 0.  1.
       -4    1    3    3    0  502 -0.12972990824E+03  0.10962330232E+04  0.32413138911E+03  0.11504866190E+04  0.12699999809E+01 0. -1.
</event>
<event>
 5   0  0.5849604E-05  0.2228028E+04  0.7818609E-02  0.8506852E-01
       -1   -1    0    0    0  501  0.00000000000E+00  0.00000000000E+00  0.11509177252E+04  0.11509177252E+04  0.50400001928E-02 0. -1.
        1   -1    0    0  501    0  0.00000000000E+00  0.00000000000E+00 -0.10782932935E+04  0.10782932935E+04  0.50400001928E-02 0.  1.
    10030    2    1    2    0    0  0.00000000000E+00  0.00000000000E+00  0.72624431721E+02  0.22292110187E+04  0.22280277058E+04 0.  0.
        2    1    3    3  502    0  0.35853980446E+03  0.10546769941E+04  0.24794753674E+02  0.11142302873E+04  0.25500000920E-02 0.  1.
       -2    1    3    3    0  502 -0.35853980446E+03 -0.10546769941E+04  0.47829678047E+02  0.11149807314E+04  0.25500000920E-02 0. -1.
</event>
<event>
 5   0  0.1404159E-04  0.2234572E+04  0.7818609E-02  0.8504175E-01
       -2   -1    0    0    0  501  0.00000000000E+00  0.00000000000E+00  0.12916343698E+04  0.12916343698E+04  0.25500000920E-02 0. -1.
        2   -1    0    0  501    0  0.00000000000E+00  0.00000000000E+00 -0.96647123991E+03  0.96647123991E+03  0.25500000920E-02 0.  1.
    10030    2    1    2    0    0  0.00000000000E+00  0.00000000000E+00  0.32516312986E+03  0.22581056097E+04  0.22345715212E+04 0.  0.
        5    1    3    3  502    0  0.53523555133E+03 -0.93635254576E+03  0.45732477600E+03  0.11714952950E+04  0.46999998093E+01 0.  1.
       -5    1    3    3    0  502 -0.53523555133E+03  0.93635254576E+03 -0.13216164613E+03  0.10866103147E+04  0.46999998093E+01 0. -1.
</event>
<event>
 5   0  0.1404159E-04  0.2212502E+04  0.7818609E-02  0.8513243E-01
       -2   -1    0    0    0  501  0.00000000000E+00  0.00000000000E+00  0.85812352310E+03  0.85812352310E+03  0.25500000920E-02 0. -1.
        2   -1    0    0  501    0  0.00000000000E+00  0.00000000000E+00 -0.14261243613E+04  0.14261243613E+04  0.25500000920E-02 0.  1.
    10030    2    1    2    0    0  0.00000000000E+00  0.00000000000E+00 -0.56800083818E+03  0.22842478844E+04  0.22125016260E+04 0.  0.
        5    1    3    3  502    0 -0.53756712983E+03  0.17787293606E+03 -0.12651606881E+04  0.13860991513E+04  0.46999998093E+01 0.  1.
       -5    1    3    3    0  502  0.53756712983E+03 -0.17787293606E+03  0.69715984992E+03  0.89814873311E+03  0.46999998093E+01 0. -1.
</event>
<event>
 5   0  0.1252124E-04  0.1376105E+04  0.7818609E-02  0.8971299E-01
        2   -1    0    0  501    0  0.00000000000E+00  0.00000000000E+00  0.73171843325E+03  0.73171843325E+03  0.25500000920E-02 0. -1.
       -2   -1    0    0    0  501  0.00000000000E+00  0.00000000000E+00 -0.64699203699E+03  0.64699203699E+03  0.25500000920E-02 0.  1.
    10030    2    1    2    0    0  0.00000000000E+00  0.00000000000E+00  0.84726396256E+02  0.13787104702E+04  0.13761046467E+04 0.  0.
        3    1    3    3  502    0  0.61066030420E+03 -0.25430700654E+03 -0.14730436446E+03  0.67769952538E+03  0.10100000352E+00 0. -1.
       -3    1    3    3    0  502 -0.61066030420E+03  0.25430700654E+03  0.23203076072E+03  0.70101094487E+03  0.10100000352E+00 0.  1.
</event>
<event>
 5   0  0.1252124E-04  0.2164762E+04  0.7818609E-02  0.8533240E-01
       -2   -1    0    0    0  501  0.00000000000E+00  0.00000000000E+00  0.10568431826E+04  0.10568431826E+04  0.25500000920E-02 0.  1.
        2   -1    0    0  501    0  0.00000000000E+00  0.00000000000E+00 -0.11085355526E+04  0.11085355526E+04  0.25500000920E-02 0. -1.
    10030    2    1    2    0    0  0.00000000000E+00  0.00000000000E+00 -0.51692369916E+02  0.21653787352E+04  0.21647616418E+04 0.  0.
        3    1    3    3  502    0 -0.66007761765E+03 -0.68198774470E+03  0.49462750607E+03  0.10702645118E+04  0.10100000352E+00 0.  1.
       -3    1    3    3    0  502  0.66007761765E+03  0.68198774470E+03 -0.54631987598E+03  0.10951142234E+04  0.10100000352E+00 0. -1.
</event>
<event>
 5   0  0.1226021E-04  0.1613274E+04  0.7818609E-02  0.8812434E-01
       -2   -1    0    0    0  501  0.00000000000E+00  0.00000000000E+00  0.75957294034E+03  0.75957294035E+03  0.25500000920E-02 0.  1.
        2   -1    0    0  501    0  0.00000000000E+00  0.00000000000E+00 -0.85661733088E+03  0.85661733088E+03  0.25500000920E-02 0. -1.
    10030    2    1    2    0    0  0.00000000000E+00  0.00000000000E+00 -0.97044390534E+02  0.16161902712E+04  0.16132741178E+04 0.  0.
        2    1    3    3  502    0 -0.11925107172E+03 -0.47340332987E+02  0.74928495940E+03  0.76019068373E+03  0.25500000920E-02 0.  1.
       -2    1    3    3    0  502  0.11925107172E+03  0.47340332987E+02 -0.84632934994E+03  0.85599958750E+03  0.25500000920E-02 0. -1.
</event>
<event>
 5   0  0.1404159E-04  0.2223059E+04  0.7818609E-02  0.8508891E-01
        2   -1    0    0  501    0  0.00000000000E+00  0.00000000000E+00  0.10591549275E+04  0.10591549275E+04  0.25500000920E-02 0. -1.
       -2   -1    0    0    0  501  0.00000000000E+00  0.00000000000E+00 -0.11664943956E+04  0.11664943956E+04  0.25500000920E-02 0.  1.
    10030    2    1    2    0    0  0.00000000000E+00  0.00000000000E+00 -0.10733946810E+03  0.22256493231E+04  0.22230594117E+04 0.  0.
        5    1    3    3  502    0 -0.87278727993E+03 -0.58573235332E+03  0.30818760850E+03  0.10953728670E+04  0.46999998093E+01 0.  1.
       -5    1    3    3    0  502  0.87278727993E+03  0.58573235332E+03 -0.41552707659E+03  0.11302764561E+04  0.46999998093E+01 0. -1.
</event>
<event>
 5   0  0.1226021E-04  0.2236898E+04  0.7818609E-02  0.8503225E-01
        2   -1    0    0  501    0  0.00000000000E+00  0.00000000000E+00  0.21236905894E+04  0.21236905894E+04  0.25500000920E-02 0.  1.
       -2   -1    0    0    0  501  0.00000000000E+00  0.00000000000E+00 -0.58903523351E+03  0.58903523351E+03  0.25500000920E-02 0. -1.
    10030    2    1    2    0    0  0.00000000000E+00  0.00000000000E+00  0.15346553559E+04  0.27127258229E+04  0.22368983725E+04 0.  0.
        2    1    3    3  502    0  0.85304844438E+03  0.57699455482E+03  0.23827944910E+03  0.10570673870E+04  0.25500000920E-02 0. -1.
       -2    1    3    3    0  502 -0.85304844438E+03 -0.57699455482E+03  0.12963759068E+04  0.16556584359E+04  0.25500000920E-02 0.  1.
</event>
<event>
 5   0  0.1311472E-04  0.2262156E+04  0.7818609E-02  0.8492994E-01
       -2   -1    0    0    0  501  0.00000000000E+00  0.00000000000E+00  0.80467937563E+03  0.80467937563E+03  0.25500000920E-02 0.  1.
        2   -1    0    0  501    0  0.00000000000E+00  0.00000000000E+00 -0.15898724764E+04  0.15898724764E+04  0.25500000920E-02 0. -1.
    10030    2    1    2    0    0  0.00000000000E+00  0.00000000000E+00 -0.78519310077E+03  0.23945518520E+04  0.22621561322E+04 0.  0.
        4    1    3    3  502    0  0.44758986481E+03 -0.10329270718E+04 -0.50884643661E+03  0.12353952127E+04  0.12699999809E+01 0.  1.
       -4    1    3    3    0  502 -0.44758986481E+03  0.10329270718E+04 -0.27634666416E+03  0.11591566393E+04  0.12699999809E+01 0. -1.
</event>
<event>
 5   0  0.1241430E-04  0.2041627E+04  0.7818609E-02  0.8587402E-01
        2   -1    0    0  501    0  0.00000000000E+00  0.00000000000E+00  0.11173724153E+04  0.11173724153E+04  0.25500000920E-02 0.  1.
       -2   -1    0    0    0  501  0.00000000000E+00  0.00000000000E+00 -0.93259880064E+03  0.93259880064E+03  0.25500000920E-02 0. -1.
    10030    2    1    2    0    0  0.00000000000E+00  0.00000000000E+00  0.18477361464E+03  0.20499712159E+04  0.20416269731E+04 0.  0.
        1    1    3    3  502    0 -0.35073016412E+03  0.33620020786E+03 -0.80906751236E+03  0.94373326071E+03  0.50400001928E-02 0. -1.
       -1    1    3    3    0  502  0.35073016412E+03 -0.33620020786E+03  0.99384112701E+03  0.11062379552E+04  0.50400001928E-02 0.  1.
</event>
<event>
 5   0  0.5861816E-05  0.2193861E+04  0.7818609E-02  0.8520988E-01
        1   -1    0    0  501    0  0.00000000000E+00  0.00000000000E+00  0.99913821347E+03  0.99913821348E+03  0.50400001928E-02 0. -1.
       -1   -1    0    0    0  501  0.00000000000E+00  0.00000000000E+00 -0.12042947135E+04  0.12042947135E+04  0.50400001928E-02 0.  1.
    10030    2    1    2    0    0  0.00000000000E+00  0.00000000000E+00 -0.20515650004E+03  0.22034329270E+04  0.21938613161E+04 0.  0.
        1    1    3    3  502    0  0.84586896398E+03  0.68864710561E+03 -0.21939445682E+03  0.11125929480E+04  0.50400001928E-02 0.  1.
       -1    1    3    3    0  502 -0.84586896398E+03 -0.68864710561E+03  0.14237956771E+02  0.10908399790E+04  0.50400001928E-02 0. -1.
</event>
<event>
 5   0  0.5895063E-05  0.2192289E+04  0.7818609E-02  0.8521645E-01
        1   -1    0    0  501    0  0.00000000000E+00  0.00000000000E+00  0.85934610315E+03  0.85934610316E+03  0.50400001928E-02 0.  1.
       -1   -1    0    0    0  501  0.00000000000E+00  0.00000000000E+00 -0.13981936735E+04  0.13981936735E+04  0.50400001928E-02 0. -1.
    10030    2    1    2    0    0  0.00000000000E+00  0.00000000000E+00 -0.53884757035E+03  0.22575397767E+04  0.21922885620E+04 0.  0.
        5    1    3    3  502    0  0.71562302331E+03 -0.54370677754E+03  0.37676998786E+03  0.97453121304E+03  0.46999998093E+01 0.  1.
       -5    1    3    3    0  502 -0.71562302331E+03  0.54370677754E+03 -0.91561755821E+03  0.12830085636E+04  0.46999998093E+01 0. -1.
</event>
<event>
 5   0  0.5849604E-05  0.2152615E+04  0.7818609E-02  0.8538414E-01
        1   -1    0    0  501    0  0.00000000000E+00  0.00000000000E+00  0.77429398789E+03  0.77429398791E+03  0.50400001928E-02 0.  1.
       -1   -1    0    0    0  501  0.00000000000E+00  0.00000000000E+00 -0.14961214188E+04  0.14961214188E+04  0.50400001928E-02 0. -1.
    10030    2    1    2    0    0  0.00000000000E+00  0.00000000000E+00 -0.72182743087E+03  0.22704154067E+04  0.21526149862E+04 0.  0.
        2    1    3    3  502    0 -0.13913934041E+03 -0.32063798140E+03  0.71276734422E+03  0.79385499820E+03  0.25500000920E-02 0.  1.
       -2    1    3    3    0  502  0.13913934041E+03  0.32063798140E+03 -0.14345947751E+04  0.14765604085E+04  0.25500000920E-02 0. -1.
</event>
<event>
 5   0  0.5895063E-05  0.2198988E+04  0.7818609E-02  0.8518850E-01
       -1   -1    0    0    0  501  0.00000000000E+00  0.00000000000E+00  0.70676431003E+03  0.70676431005E+03  0.50400001928E-02 0. -1.
        1   -1    0    0  501    0  0.00000000000E+00  0.00000000000E+00 -0.17104522731E+04  0.17104522731E+04  0.50400001928E-02 0.  1.
    10030    2    1    2    0    0  0.00000000000E+00  0.00000000000E+00 -0.10036879631E+04  0.24172165832E+04  0.21989876040E+04 0.  0.
        5    1    3    3  502    0  0.40583120279E+03  0.24222178442E+03 -0.15930828188E+04  0.16617175799E+04  0.46999998093E+01 0.  1.
       -5    1    3    3    0  502 -0.40583120279E+03 -0.24222178442E+03  0.58939485568E+03  0.75549900325E+03  0.46999998093E+01 0. -1.
</event>
<event>
 5   0  0.1241430E-04  0.2077949E+04  0.7818609E-02  0.8571020E-01
        2   -1    0    0  501    0  0.00000000000E+00  0.00000000000E+00  0.19667934844E+04  0.19667934844E+04  0.25500000920E-02 0. -1.
       -2   -1    0    0    0  501  0.00000000000E+00  0.00000000000E+00 -0.54884639093E+03  0.54884639094E+03  0.25500000920E-02 0.  1.
    10030    2    1    2    0    0  0.00000000000E+00  0.00000000000E+00  0.14179470935E+04  0.25156398754E+04  0.20779485130E+04 0.  0.
        1    1    3    3  502    0  0.13712184836E+03  0.90628127480E+03  0.11672691467E+03  0.92399855140E+03  0.50400001928E-02 0.  1.
       -1    1    3    3    0  502 -0.13712184836E+03 -0.90628127480E+03  0.13012201788E+04  0.15916413240E+04  0.50400001928E-02 0. -1.
</event>
<event>
 5   0  0.1311472E-04  0.2201813E+04  0.7818609E-02  0.8517674E-01
        2   -1    0    0  501    0  0.00000000000E+00  0.00000000000E+00  0.12540671414E+04  0.12540671414E+04  0.25500000920E-02 0.  1.
       -2   -1    0    0    0  501  0.00000000000E+00  0.00000000000E+00 -0.96645176976E+03  0.96645176976E+03  0.25500000920E-02 0. -1.
    10030    2    1    2    0    0  0.00000000000E+00  0.00000000000E+00  0.28761537166E+03  0.22205189112E+04  0.22018132602E+04 0.  0.
        4    1    3    3  502    0 -0.77368092285E+03 -0.69935320955E+03  0.49938885455E+03  0.11563165324E+04  0.12699999809E+01 0.  1.
       -4    1    3    3    0  502  0.77368092285E+03  0.69935320955E+03 -0.21177348289E+03  0.10642023788E+04  0.12699999809E+01 0. -1.
</event>
<event>
 5   0  0.5981239E-05  0.1375720E+04  0.7818609E-02  0.8971583E-01
        1   -1    0    0  501    0  0.00000000000E+00  0.00000000000E+00  0.93676451186E+03  0.93676451187E+03  0.50400001928E-02 0. -1.
       -1   -1    0    0    0  501  0.00000000000E+00  0.00000000000E+00 -0.50509140050E+03  0.50509140052E+03  0.50400001928E-02 0.  1.
    10030    2    1    2    0    0  0.00000000000E+00  0.00000000000E+00  0.43167311136E+03  0.14418559124E+04  0.13757204647E+04 0.  0.
        4    1    3    3  502    0  0.11769381202E+03 -0.65851775581E+03  0.38370053500E+03  0.77118427211E+03  0.12699999809E+01 0. -1.
       -4    1    3    3    0  502 -0.11769381202E+03  0.65851775581E+03  0.47972576363E+02  0.67067164028E+03  0.12699999809E+01 0.  1.
</event>
<event>
 5   0  0.5849604E-05  0.2142219E+04  0.7818609E-02  0.8542870E-01
        1   -1    0    0  501    0  0.00000000000E+00  0.00000000000E+00  0.94474016169E+03  0.94474016170E+03  0.50400001928E-02 0. -1.
       -1   -1    0    0    0  501  0.00000000000E+00  0.00000000000E+00 -0.12143815554E+04  0.12143815554E+04  0.50400001928E-02 0.  1.
    10030    2    1    2    0    0  0.00000000000E+00  0.00000000000E+00 -0.26964139373E+03  0.21591217171E+04  0.21422185015E+04 0.  0.
        2    1    3    3  502    0  0.40035981256E+03 -0.30418238056E+03 -0.10880422479E+04  0.11986037015E+04  0.25500000920E-02 0.  1.
       -2    1    3    3    0  502 -0.40035981256E+03  0.30418238056E+03  0.81840085416E+03  0.96051801558E+03  0.25500000920E-02 0. -1.
</event>
<event>
 5   0  0.5849604E-05  0.2169036E+04  0.7818609E-02  0.8531428E-01
       -1   -1    0    0    0  501  0.00000000000E+00  0.00000000000E+00  0.75692976941E+03  0.75692976943E+03  0.50400001928E-02 0. -1.
        1   -1    0    0  501    0  0.00000000000E+00  0.00000000000E+00 -0.15538814206E+04  0.15538814206E+04  0.50400001928E-02 0.  1.
    10030    2    1    2    0    0  0.00000000000E+00  0.00000000000E+00 -0.79695165117E+03  0.23108111900E+04  0.21690358276E+04 0.  0.
        2    1    3    3  502    0 -0.42134574275E+03  0.96113099595E+03 -0.68999255521E+03  0.12559437697E+04  0.25500000920E-02 0.  1.
       -2    1    3    3    0  502  0.42134574275E+03 -0.96113099595E+03 -0.10695909596E+03  0.10548674204E+04  0.25500000920E-02 0. -1.
</event>
<event>
 5   0  0.1226021E-04  0.1441980E+04  0.7818609E-02  0.8923980E-01
        2   -1    0    0  501    0  0.00000000000E+00  0.00000000000E+00  0.19475371339E+04  0.19475371339E+04  0.25500000920E-02 0.  1.
       -2   -1    0    0    0  501  0.00000000000E+00  0.00000000000E+00 -0.26691468194E+03  0.26691468196E+03  0.25500000920E-02 0. -1.
    10030    2    1    2    0    0  0.00000000000E+00  0.00000000000E+00  0.16806224520E+04  0.22144518159E+04  0.14419795487E+04 0.  0.
        2    1    3    3  502    0  0.66261213567E+03 -0.18236131788E+03  0.50555706532E+03  0.85316964251E+03  0.25500000920E-02 0. -1.
       -2    1    3    3    0  502 -0.66261213567E+03  0.18236131788E+03  0.11750653867E+04  0.13612821734E+04  0.25500000920E-02 0.  1.
</event>
<event>
 5   0  0.5861816E-05  0.2230755E+04  0.7818609E-02  0.8505735E-01
       -1   -1    0    0    0  501  0.00000000000E+00  0.00000000000E+00  0.14430808071E+04  0.14430808071E+04  0.50400001928E-02 0. -1.
        1   -1    0    0  501    0  0.00000000000E+00  0.00000000000E+00 -0.86209064659E+03  0.86209064660E+03  0.50400001928E-02 0.  1.
    10030    2    1    2    0    0  0.00000000000E+00  0.00000000000E+00  0.58099016049E+03  0.23051714537E+04  0.22307545504E+04 0.  0.
        1    1    3    3  502    0  0.75592511136E+02 -0.32066075692E+03  0.13916553778E+04  0.14301196591E+04  0.50400001928E-02 0. -1.
       -1    1    3    3    0  502 -0.75592511136E+02  0.32066075692E+03 -0.81066521727E+03  0.87505179463E+03  0.50400001928E-02 0.  1.
</event>
<event>
 5   0  0.5849604E-05  0.2195093E+04  0.7818609E-02  0.8520473E-01
        1   -1    0    0  501    0  0.00000000000E+00  0.00000000000E+00  0.13669149800E+04  0.13669149800E+04  0.50400001928E-02 0. -1.
       -1   -1    0    0    0  501  0.00000000000E+00  0.00000000000E+00 -0.88126055872E+03  0.88126055873E+03  0.50400001928E-02 0.  1.
    10030    2    1    2    0    0  0.00000000000E+00  0.00000000000E+00  0.48565442124E+03  0.22481755387E+04  0.21950929447E+04 0.  0.
        2    1    3    3  502    0 -0.78968895323E+03 -0.73910723581E+03  0.43366652654E+03  0.11653131790E+04  0.25500000920E-02 0. -1.
       -2    1    3    3    0  502  0.78968895323E+03  0.73910723581E+03  0.51987894696E+02  0.10828623597E+04  0.25500000920E-02 0.  1.
</event>
<event>
 5   0  0.6263558E-05  0.2203966E+04  0.7818609E-02  0.8516779E-01
       -1   -1    0    0    0  501  0.00000000000E+00  0.00000000000E+00  0.98003203253E+03  0.98003203254E+03  0.50400001928E-02 0.  1.
        1   -1    0    0  501    0  0.00000000000E+00  0.00000000000E+00 -0.12391095207E+04  0.12391095208E+04  0.50400001928E-02 0. -1.
    10030    2    1    2    0    0  0.00000000000E+00  0.00000000000E+00 -0.25907748821E+03  0.22191415533E+04  0.22039664445E+04 0.  0.
        3    1    3    3  502    0 -0.10489452970E+03  0.37582413996E+03  0.90814949759E+03  0.98842408242E+03  0.10100000352E+00 0.  1.
       -3    1    3    3    0  502  0.10489452970E+03 -0.37582413996E+03 -0.11672269858E+04  0.12307174709E+04  0.10100000352E+00 0. -1.
</event>
<event>
 5   0  0.5981239E-05  0.2224836E+04  0.7818609E-02  0.8508161E-01
        1   -1    0    0  501    0  0.00000000000E+00  0.00000000000E+00  0.24687221373E+04  0.24687221373E+04  0.50400001928E-02 0.  1.
       -1   -1    0    0    0  501  0.00000000000E+00  0.00000000000E+00 -0.50126090203E+03  0.50126090206E+03  0.50400001928E-02 0. -1.
    10030    2    1    2    0    0  0.00000000000E+00  0.00000000000E+00  0.19674612353E+04  0.29699830394E+04  0.22248360708E+04 0.  0.
        4    1    3    3  502    0 -0.26719966129E+01 -0.10061212948E+04  0.35026105624E+03  0.10653504681E+04  0.12699999809E+01 0. -1.
       -4    1    3    3    0  502  0.26719966129E+01  0.10061212948E+04  0.16172001790E+04  0.19046325713E+04  0.12699999809E+01 0.  1.
</event>
<event>
 5   0  0.1311472E-04  0.2194537E+04  0.7818609E-02  0.8520705E-01
       -2   -1    0    0    0  501  0.00000000000E+00  0.00000000000E+00  0.11093358459E+04  0.11093358459E+04  0.25500000920E-02 0.  1.
        2   -1    0    0  501    0  0.00000000000E+00  0.00000000000E+00 -0.10853321675E+04  0.10853321675E+04  0.25500000920E-02 0. -1.
    10030    2    1    2    0    0  0.00000000000E+00  0.00000000000E+00  0.24003678364E+02  0.21946680133E+04  0.21945367421E+04 0.  0.
        4    1    3    3  502    0 -0.95998237305E+03 -0.44466136891E+02  0.54161152955E+03  0.11031264913E+04  0.12699999809E+01 0.  1.
       -4    1    3    3    0  502  0.95998237305E+03  0.44466136891E+02 -0.51760785118E+03  0.10915415221E+04  0.12699999809E+01 0. -1.
</event>
<event>
 5   0  0.1226021E-04  0.2182673E+04  0.7818609E-02  0.8525675E-01
        2   -1    0    0  501    0  0.00000000000E+00  0.00000000000E+00  0.13707311732E+04  0.13707311732E+04  0.25500000920E-02 0.  1.
       -2   -1    0    0    0  501  0.00000000000E+00  0.00000000000E+00 -0.86889049903E+03  0.86889049903E+03  0.25500000920E-02 0. -1.
    10030    2    1    2    0    0  0.00000000000E+00  0.00000000000E+00  0.50184067413E+03  0.22396216722E+04  0.21826729421E+04 0.  0.
        2    1    3    3  502    0 -0.13033650689E+03 -0.16906077649E+03 -0.84725916607E+03  0.87373751532E+03  0.25500000920E-02 0. -1.
       -2    1    3    3    0  502  0.13033650689E+03  0.16906077649E+03  0.13490998402E+04  0.13658841569E+04  0.25500000920E-02 0.  1.
</event>
<event>
 5   0  0.1404159E-04  0.1834884E+04  0.7818609E-02  0.8687965E-01
       -2   -1    0    0    0  501  0.00000000000E+00  0.00000000000E+00  0.29212064449E+03  0.29212064450E+03  0.25500000920E-02 0. -1.
        2   -1    0    0  501    0  0.00000000000E+00  0.00000000000E+00 -0.28813428370E+04  0.28813428370E+04  0.25500000920E-02 0.  1.
    10030    2    1    2    0    0  0.00000000000E+00  0.00000000000E+00 -0.25892221925E+04  0.31734634815E+04  0.18348838945E+04 0.  0.
        5    1    3    3  502    0  0.71766340212E+03 -0.49318409729E+03 -0.17940983462E+04  0.19942623394E+04  0.46999998093E+01 0. -1.
       -5    1    3    3    0  502 -0.71766340212E+03  0.49318409729E+03 -0.79512384634E+03  0.11792011421E+04  0.46999998093E+01 0.  1.
</event>
<event>
 5   0  0.1252124E-04  0.2076814E+04  0.7818609E-02  0.8571526E-01
        2   -1    0    0  501    0  0.00000000000E+00  0.00000000000E+00  0.18968771917E+04  0.18968771917E+04  0.25500000920E-02 0.  1.
       -2   -1    0    0    0  501  0.00000000000E+00  0.00000000000E+00 -0.56845494750E+03  0.56845494751E+03  0.25500000920E-02 0. -1.
    10030    2    1    2    0    0  0.00000000000E+00  0.00000000000E+00  0.13284222442E+04  0.24653321392E+04  0.20768141221E+04 0.  0.
        3    1    3    3  502    0  0.29361896978E+03 -0.89389069960E+03  0.11857630588E+04  0.15136996809E+04  0.10100000352E+00 0.  1.
       -3    1    3    3    0  502 -0.29361896978E+03  0.89389069960E+03  0.14265918540E+03  0.95163245827E+03  0.10100000352E+00 0. -1.
</event>
<event>
 5   0  0.1241430E-04  0.2191888E+04  0.7818609E-02  0.8521812E-01
       -2   -1    0    0    0  501  0.00000000000E+00  0.00000000000E+00  0.11886189767E+04  0.11886189767E+04  0.25500000920E-02 0. -1.
        2   -1    0    0  501    0  0.00000000000E+00  0.00000000000E+00 -0.10104944323E+04  0.10104944323E+04  0.25500000920E-02 0.  1.
    10030    2    1    2    0    0  0.00000000000E+00  0.00000000000E+00  0.17812454445E+03  0.21991134090E+04  0.21918876413E+04 0.  0.
        1    1    3    3  502    0  0.43002225528E+03  0.39575903337E+03 -0.84111245046E+03  0.10242140923E+04  0.50400001928E-02 0.  1.
       -1    1    3    3    0  502 -0.43002225528E+03 -0.39575903337E+03  0.10192369949E+04  0.11748993167E+04  0.50400001928E-02 0. -1.
</event>
<event>
 5   0  0.6263558E-05  0.2180356E+04  0.7818609E-02  0.8526649E-01
        1   -1    0    0  501    0  0.00000000000E+00  0.00000000000E+00  0.12012733378E+04  0.12012733378E+04  0.50400001928E-02 0.  1.
       -1   -1    0    0    0  501  0.00000000000E+00  0.00000000000E+00 -0.98935727673E+03  0.98935727674E+03  0.50400001928E-02 0. -1.
    10030    2    1    2    0    0  0.00000000000E+00  0.00000000000E+00  0.21191606106E+03  0.21906306145E+04  0.21803564095E+04 0.  0.
        3    1    3    3  502    0  0.29020571397E+03 -0.19908577455E+03 -0.93071506814E+03  0.99503017558E+03  0.10100000352E+00 0. -1.
       -3    1    3    3    0  502 -0.29020571397E+03  0.19908577455E+03  0.11426311292E+04  0.11956004390E+04  0.10100000352E+00 0.  1.
</event>
<event>
 5   0  0.6263558E-05  0.2139816E+04  0.7818609E-02  0.8543904E-01
       -1   -1    0    0    0  501  0.00000000000E+00  0.00000000000E+00  0.88431915318E+03  0.88431915320E+03  0.50400001928E-02 0. -1.
        1   -1    0    0  501    0  0.00000000000E+00  0.00000000000E+00 -0.12944457924E+04  0.12944457924E+04  0.50400001928E-02 0.  1.
    10030    2    1    2    0    0  0.00000000000E+00  0.00000000000E+00 -0.41012663920E+03  0.21787649456E+04  0.21398160734E+04 0.  0.
        3    1    3    3  502    0  0.36854404989E+03  0.78521827443E+03  0.43268457495E+03  0.96933400168E+03  0.10100000352E+00 0. -1.
       -3    1    3    3    0  502 -0.36854404989E+03 -0.78521827443E+03 -0.84281121416E+03  0.12094309439E+04  0.10100000352E+00 0.  1.
</event>
<event>
 5   0  0.1252124E-04  0.2132788E+04  0.7818609E-02  0.8546936E-01
       -2   -1    0    0    0  501  0.00000000000E+00  0.00000000000E+00  0.21392405700E+04  0.21392405700E+04  0.25500000920E-02 0. -1.
        2   -1    0    0  501    0  0.00000000000E+00  0.00000000000E+00 -0.53158858828E+03  0.53158858828E+03  0.25500000920E-02 0.  1.
    10030    2    1    2    0    0  0.00000000000E+00  0.00000000000E+00  0.16076519818E+04  0.26708291583E+04  0.21327877294E+04 0.  0.
        3    1    3    3  502    0 -0.19535867870E+03 -0.13689163919E+03 -0.49774829807E+03  0.55195807146E+03  0.10100000352E+00 0.  1.
       -3    1    3    3    0  502  0.19535867870E+03  0.13689163919E+03  0.21054002798E+04  0.21188710869E+04  0.10100000352E+00 0. -1.
</event>
<event>
 5   0  0.5981239E-05  0.2205793E+04  0.7818609E-02  0.8516021E-01
        1   -1    0    0  501    0  0.00000000000E+00  0.00000000000E+00  0.21123771033E+04  0.21123771033E+04  0.50400001928E-02 0. -1.
       -1   -1    0    0    0  501  0.00000000000E+00  0.00000000000E+00 -0.57583489943E+03  0.57583489945E+03  0.50400001928E-02 0.  1.
    10030    2    1    2    0    0  0.00000000000E+00  0.00000000000E+00  0.15365422038E+04  0.26882120027E+04  0.22057927889E+04 0.  0.
        4    1    3    3  502    0  0.39301942004E+03  0.85311241278E+02  0.20198269011E+04  0.20594767771E+04  0.12699999809E+01 0. -1.
       -4    1    3    3    0  502 -0.39301942004E+03 -0.85311241278E+02 -0.48328469723E+03  0.62873522559E+03  0.12699999809E+01 0.  1.
</event>
<event>
 5   0  0.1241430E-04  0.2059223E+04  0.7818609E-02  0.8579422E-01
       -2   -1    0    0    0  501  0.00000000000E+00  0.00000000000E+00  0.85473587057E+03  0.85473587057E+03  0.25500000920E-02 0. -1.
        2   -1    0    0  501    0  0.00000000000E+00  0.00000000000E+00 -0.12402663015E+04  0.12402663015E+04  0.25500000920E-02 0.  1.
    10030    2    1    2    0    0  0.00000000000E+00  0.00000000000E+00 -0.38553043098E+03  0.20950021721E+04  0.20592232487E+04 0.  0.
        1    1    3    3  502    0  0.79565859601E+02 -0.75012993814E+03  0.52017762625E+03  0.91630257720E+03  0.50400001928E-02 0. -1.
       -1    1    3    3    0  502 -0.79565859601E+02  0.75012993814E+03 -0.90570805723E+03  0.11786995949E+04  0.50400001928E-02 0.  1.
</event>
<event>
 5   0  0.1252124E-04  0.2258703E+04  0.7818609E-02  0.8494384E-01
       -2   -1    0    0    0  501  0.00000000000E+00  0.00000000000E+00  0.14538090594E+04  0.14538090594E+04  0.25500000920E-02 0.  1.
        2   -1    0    0  501    0  0.00000000000E+00  0.00000000000E+00 -0.87730575845E+03  0.87730575845E+03  0.25500000920E-02 0. -1.
    10030    2    1    2    0    0  0.00000000000E+00  0.00000000000E+00  0.57650330093E+03  0.23311148178E+04  0.22587032204E+04 0.  0.
        3    1    3    3  502    0 -0.98886597441E+03 -0.77502564078E+02  0.84553717723E+03  0.13033785678E+04  0.10100000352E+00 0.  1.
       -3    1    3    3    0  502  0.98886597441E+03  0.77502564078E+02 -0.26903387630E+03  0.10277362500E+04  0.10100000352E+00 0. -1.
</event>
<event>
 5   0  0.5861816E-05  0.2100093E+04  0.7818609E-02  0.8561202E-01
       -1   -1    0    0    0  501  0.00000000000E+00  0.00000000000E+00  0.96373866117E+03  0.96373866119E+03  0.50400001928E-02 0. -1.
        1   -1    0    0  501    0  0.00000000000E+00  0.00000000000E+00 -0.11440837528E+04  0.11440837528E+04  0.50400001928E-02 0.  1.
    10030    2    1    2    0    0  0.00000000000E+00  0.00000000000E+00 -0.18034509163E+03  0.21078224140E+04  0.21000930877E+04 0.  0.
        1    1    3    3  502    0  0.33463076906E+03  0.61375010570E+03 -0.87659369408E+03  0.11211973280E+04  0.50400001928E-02 0.  1.
       -1    1    3    3    0  502 -0.33463076906E+03 -0.61375010570E+03  0.69624860244E+03  0.98662508598E+03  0.50400001928E-02 0. -1.
</event>
<event>
 5   0  0.1252124E-04  0.2171079E+04  0.7818609E-02  0.8530563E-01
       -2   -1    0    0    0  501  0.00000000000E+00  0.00000000000E+00  0.68162198381E+03  0.68162198381E+03  0.25500000920E-02 0. -1.
        2   -1    0    0  501    0  0.00000000000E+00  0.00000000000E+00 -0.17288115643E+04  0.17288115643E+04  0.25500000920E-02 0.  1.
    10030    2    1    2    0    0  0.00000000000E+00  0.00000000000E+00 -0.10471895805E+04  0.24104335481E+04  0.21710789650E+04 0.  0.
        3    1    3    3  502    0 -0.64582676579E+02  0.69393012468E+03  0.40043879008E+03  0.80377930730E+03  0.10100000352E+00 0. -1.
       -3    1    3    3    0  502  0.64582676579E+02 -0.69393012468E+03 -0.14476283706E+04  0.16066542408E+04  0.10100000352E+00 0.  1.
</event>
<event>
 5   0  0.1241430E-04  0.2143619E+04  0.7818609E-02  0.8542269E-01
        2   -1    0    0  501    0  0.00000000000E+00  0.00000000000E+00  0.10410278780E+04  0.10410278780E+04  0.25500000920E-02 0.  1.
       -2   -1    0    0    0  501  0.00000000000E+00  0.00000000000E+00 -0.11035011162E+04  0.11035011162E+04  0.25500000920E-02 0. -1.
    10030    2    1    2    0    0  0.00000000000E+00  0.00000000000E+00 -0.62473238187E+02  0.21445289942E+04  0.21436188330E+04 0.  0.
        1    1    3    3  502    0 -0.80333953868E+03 -0.70131573391E+03 -0.13887994473E+03  0.10754003032E+04  0.50400001928E-02 0. -1.
       -1    1    3    3    0  502  0.80333953868E+03  0.70131573391E+03  0.76406706539E+02  0.10691286910E+04  0.50400001928E-02 0.  1.
</event>
<event>
 5   0  0.5849604E-05  0.2155793E+04  0.7818609E-02  0.8537057E-01
        1   -1    0    0  501    0  0.00000000000E+00  0.00000000000E+00  0.89100274458E+03  0.89100274460E+03  0.50400001928E-02 0.  1.
       -1   -1    0    0    0  501  0.00000000000E+00  0.00000000000E+00 -0.13039926903E+04  0.13039926903E+04  0.50400001928E-02 0. -1.
    10030    2    1    2    0    0  0.00000000000E+00  0.00000000000E+00 -0.41298994569E+03  0.21949954349E+04  0.21557931867E+04 0.  0.
        2    1    3    3  502    0  0.72902722821E+03 -0.45591110773E+03  0.45534493625E+03  0.97297206979E+03  0.25500000920E-02 0.  1.
       -2    1    3    3    0  502 -0.72902722821E+03  0.45591110773E+03 -0.86833488194E+03  0.12220233651E+04  0.25500000920E-02 0. -1.
</event>
<event>
 5   0  0.1311472E-04  0.2180514E+04  0.7818609E-02  0.8526583E-01
       -2   -1    0    0    0  501  0.00000000000E+00  0.00000000000E+00  0.10207890895E+04  0.10207890895E+04  0.25500000920E-02 0. -1.
        2   -1    0    0  501    0  0.00000000000E+00  0.00000000000E+00 -0.11644524127E+04  0.11644524127E+04  0.25500000920E-02 0.  1.
    10030    2    1    2    0    0  0.00000000000E+00  0.00000000000E+00 -0.14366332316E+03  0.21852415023E+04  0.21805139928E+04 0.  0.
        4    1    3    3  502    0  0.36676788287E+03 -0.10117268137E+03  0.95209975096E+03  0.10253049010E+04  0.12699999809E+01 0. -1.
       -4    1    3    3    0  502 -0.36676788287E+03  0.10117268137E+03 -0.10957630741E+04  0.11599366012E+04  0.12699999809E+01 0.  1.
</event>
<event>
 5   0  0.1226021E-04  0.2190761E+04  0.7818609E-02  0.8522284E-01
        2   -1    0    0  501    0  0.00000000000E+00  0.00000000000E+00  0.93821750104E+03  0.93821750104E+03  0.25500000920E-02 0. -1.
       -2   -1    0    0    0  501  0.00000000000E+00  0.00000000000E+00 -0.12788699830E+04  0.12788699830E+04  0.25500000920E-02 0.  1.
    10030    2    1    2    0    0  0.00000000000E+00  0.00000000000E+00 -0.34065248199E+03  0.22170874841E+04  0.21907607808E+04 0.  0.
        2    1    3    3  502    0 -0.21131912222E+03  0.61687374373E+03  0.72040363833E+03  0.97168430534E+03  0.25500000920E-02 0. -1.
       -2    1    3    3    0  502  0.21131912222E+03 -0.61687374373E+03 -0.10610561203E+04  0.12454031787E+04  0.25500000920E-02 0.  1.
</event>
<event>
 5   0  0.6263558E-05  0.2189216E+04  0.7818609E-02  0.8522930E-01
       -1   -1    0    0    0  501  0.00000000000E+00  0.00000000000E+00  0.25808431358E+04  0.25808431358E+04  0.50400001928E-02 0. -1.
        1   -1    0    0  501    0  0.00000000000E+00  0.00000000000E+00 -0.46425412174E+03  0.46425412177E+03  0.50400001928E-02 0.  1.
    10030    2    1    2    0    0  0.00000000000E+00  0.00000000000E+00  0.21165890140E+04  0.30450972576E+04  0.21892163561E+04 0.  0.
        3    1    3    3  502    0 -0.85778816081E+03 -0.43926671582E+03  0.17802665306E+04  0.20243776097E+04  0.10100000352E+00 0. -1.
       -3    1    3    3    0  502  0.85778816081E+03  0.43926671582E+03  0.33632248342E+03  0.10207196478E+04  0.10100000352E+00 0.  1.
</event>
<event>
 5   0  0.5981239E-05  0.2134358E+04  0.7818609E-02  0.8546258E-01
        1   -1    0    0  501    0  0.00000000000E+00  0.00000000000E+00  0.99548784752E+03  0.99548784753E+03  0.50400001928E-02 0.  1.
       -1   -1    0    0    0  501  0.00000000000E+00  0.00000000000E+00 -0.11440331435E+04  0.11440331435E+04  0.50400001928E-02 0. -1.
    10030    2    1    2    0    0  0.00000000000E+00  0.00000000000E+00 -0.14854529600E+03  0.21395209911E+04  0.21343580689E+04 0.  0.
        4    1    3    3  502    0 -0.31066368854E+03 -0.17669629692E+02  0.94900285757E+03  0.99871526461E+03  0.12699999809E+01 0.  1.
       -4    1    3    3    0  502  0.31066368854E+03  0.17669629692E+02 -0.10975481536E+04  0.11408057265E+04  0.12699999809E+01 0. -1.
</event>
<event>
 5   0  0.5895063E-05  0.2215143E+04  0.7818609E-02  0.8512152E-01
        1   -1    0    0  501    0  0.00000000000E+00  0.00000000000E+00  0.12273139736E+04  0.12273139736E+04  0.50400001928E-02 0. -1.
       -1   -1    0    0    0  501  0.00000000000E+00  0.00000000000E+00 -0.99951134067E+03  0.99951134068E+03  0.50400001928E-02 0.  1.
    10030    2    1    2    0    0  0.00000000000E+00  0.00000000000E+00  0.22780263293E+03  0.22268253143E+04  0.22151426457E+04 0.  0.
        5    1    3    3  502    0 -0.38339897991E+03  0.55247810034E+03 -0.77077711236E+03  0.10229106882E+04  0.46999998093E+01 0.  1.
       -5    1    3    3    0  502  0.38339897991E+03 -0.55247810034E+03  0.99857974529E+03  0.12039146261E+04  0.46999998093E+01 0. -1.
</event>
<event>
 5   0  0.5981239E-05  0.1906397E+04  0.7818609E-02  0.8651679E-01
        1   -1    0    0  501    0  0.00000000000E+00  0.00000000000E+00  0.74536198587E+03  0.74536198588E+03  0.50400001928E-02 0. -1.
       -1   -1    0    0    0  501  0.00000000000E+00  0.00000000000E+00 -0.12189881381E+04  0.12189881381E+04  0.50400001928E-02 0.  1.
    10030    2    1    2    0    0  0.00000000000E+00  0.00000000000E+00 -0.47362615226E+03  0.19643501240E+04  0.19063970409E+04 0.  0.
        4    1    3    3  502    0 -0.41487164005E+03 -0.61230275200E+03 -0.85638442907E+03  0.11315604452E+04  0.12699999809E+01 0.  1.
       -4    1    3    3    0  502  0.41487164005E+03  0.61230275200E+03  0.38275827681E+03  0.83278967885E+03  0.12699999809E+01 0. -1.
</event>
<event>
 5   0  0.5861816E-05  0.2222589E+04  0.7818609E-02  0.8509084E-01
        1   -1    0    0  501    0  0.00000000000E+00  0.00000000000E+00  0.11089048555E+04  0.11089048555E+04  0.50400001928E-02 0. -1.
       -1   -1    0    0    0  501  0.00000000000E+00  0.00000000000E+00 -0.11136895692E+04  0.11136895692E+04  0.50400001928E-02 0.  1.
    10030    2    1    2    0    0  0.00000000000E+00  0.00000000000E+00 -0.47847137179E+01  0.22225944247E+04  0.22225892745E+04 0.  0.
        1    1    3    3  502    0 -0.44856184525E+02 -0.11076812197E+03  0.11024604722E+04  0.11089187287E+04  0.50400001928E-02 0. -1.
       -1    1    3    3    0  502  0.44856184525E+02  0.11076812197E+03 -0.11072451859E+04  0.11136756960E+04  0.50400001928E-02 0.  1.
</event>
<event>
 5   0  0.1404159E-04  0.1406052E+04  0.7818609E-02  0.8949449E-01
       -2   -1    0    0    0  501  0.00000000000E+00  0.00000000000E+00  0.59398877025E+03  0.59398877026E+03  0.25500000920E-02 0. -1.
        2   -1    0    0  501    0  0.00000000000E+00  0.00000000000E+00 -0.83207926313E+03  0.83207926313E+03  0.25500000920E-02 0.  1.
    10030    2    1    2    0    0  0.00000000000E+00  0.00000000000E+00 -0.23809049288E+03  0.14260680334E+04  0.14060522583E+04 0.  0.
        5    1    3    3  502    0  0.51191791372E+03 -0.19753098228E+03 -0.56478436760E+03  0.78745279937E+03  0.46999998093E+01 0.  1.
       -5    1    3    3    0  502 -0.51191791372E+03  0.19753098228E+03  0.32669387472E+03  0.63861523402E+03  0.46999998093E+01 0. -1.
</event>
<event>
 5   0  0.5981239E-05  0.1380660E+04  0.7818609E-02  0.8967938E-01
       -1   -1    0    0    0  501  0.00000000000E+00  0.00000000000E+00  0.49206710603E+03  0.49206710605E+03  0.50400001928E-02 0.  1.
        1   -1    0    0  501    0  0.00000000000E+00  0.00000000000E+00 -0.96847719631E+03  0.96847719632E+03  0.50400001928E-02 0. -1.
    10030    2    1    2    0    0  0.00000000000E+00  0.00000000000E+00 -0.47641009028E+03  0.14605443024E+04  0.13806603801E+04 0.  0.
        4    1    3    3  502    0  0.50324319715E+03 -0.15257268550E+03  0.23491001790E+03  0.57594832169E+03  0.12699999809E+01 0.  1.
       -4    1    3    3    0  502 -0.50324319715E+03  0.15257268550E+03 -0.71132010818E+03  0.88459598068E+03  0.12699999809E+01 0. -1.
</event>
<event>
 5   0  0.1404159E-04  0.2254936E+04  0.7818609E-02  0.8495904E-01
        2   -1    0    0  501    0  0.00000000000E+00  0.00000000000E+00  0.17457589111E+04  0.17457589111E+04  0.25500000920E-02 0.  1.
       -2   -1    0    0    0  501  0.00000000000E+00  0.00000000000E+00 -0.72815530427E+03  0.72815530428E+03  0.25500000920E-02 0. -1.
    10030    2    1    2    0    0  0.00000000000E+00  0.00000000000E+00  0.10176036068E+04  0.24739142154E+04  0.22549355744E+04 0.  0.
        5    1    3    3  502    0 -0.10790410063E+04  0.24269626740E+03  0.74899278793E+03  0.13357556880E+04  0.46999998093E+01 0.  1.
       -5    1    3    3    0  502  0.10790410063E+04 -0.24269626740E+03  0.26861081892E+03  0.11381585274E+04  0.46999998093E+01 0. -1.
</event>
<event>
 5   0  0.1252124E-04  0.1535558E+04  0.7818609E-02  0.8861146E-01
        2   -1    0    0  501    0  0.00000000000E+00  0.00000000000E+00  0.10798143434E+04  0.10798143434E+04  0.25500000920E-02 0.  1.
       -2   -1    0    0    0  501  0.00000000000E+00  0.00000000000E+00 -0.54591272620E+03  0.54591272621E+03  0.25500000920E-02 0. -1.
    10030    2    1    2    0    0  0.00000000000E+00  0.00000000000E+00  0.53390161723E+03  0.16257270696E+04  0.15355577384E+04 0.  0.
        3    1    3    3  502    0 -0.52329069339E+03  0.56178426940E+03  0.25948951576E+03  0.81041318728E+03  0.10100000352E+00 0.  1.
       -3    1    3    3    0  502  0.52329069339E+03 -0.56178426940E+03  0.27441210147E+03  0.81531388236E+03  0.10100000352E+00 0. -1.
</event>
<event>
 5   0  0.1252124E-04  0.2127569E+04  0.7818609E-02  0.8549195E-01
       -2   -1    0    0    0  501  0.00000000000E+00  0.00000000000E+00  0.12018955509E+04  0.12018955509E+04  0.25500000920E-02 0.  1.
        2   -1    0    0  501    0  0.00000000000E+00  0.00000000000E+00 -0.94154377921E+03  0.94154377922E+03  0.25500000920E-02 0. -1.
    10030    2    1    2    0    0  0.00000000000E+00  0.00000000000E+00  0.26035177170E+03  0.21434393301E+04  0.21275688278E+04 0.  0.
        3    1    3    3  502    0  0.64567131794E+03 -0.39590637751E+03 -0.62239292678E+03  0.98030927573E+03  0.10100000352E+00 0. -1.
       -3    1    3    3    0  502 -0.64567131794E+03  0.39590637751E+03  0.88274469849E+03  0.11631300544E+04  0.10100000352E+00 0.  1.
</event>
<event>
 5   0  0.5895063E-05  0.2236034E+04  0.7818609E-02  0.8503578E-01
       -1   -1    0    0    0  501  0.00000000000E+00  0.00000000000E+00  0.14587754932E+04  0.14587754932E+04  0.50400001928E-02 0.  1.
        1   -1    0    0  501    0  0.00000000000E+00  0.00000000000E+00 -0.85685723876E+03  0.85685723878E+03  0.50400001928E-02 0. -1.
    10030    2    1    2    0    0  0.00000000000E+00  0.00000000000E+00  0.60191825448E+03  0.23156327320E+04  0.22360342941E+04 0.  0.
        5    1    3    3  502    0  0.28393488189E+03 -0.29874790263E+03  0.13772195178E+04  0.14375760907E+04  0.46999998093E+01 0.  1.
       -5    1    3    3    0  502 -0.28393488189E+03  0.29874790263E+03 -0.77530126329E+03  0.87805664131E+03  0.46999998093E+01 0. -1.
</event>
<event>
 5   0  0.1404159E-04  0.2182159E+04  0.7818609E-02  0.8525891E-01
        2   -1    0    0  501    0  0.00000000000E+00  0.00000000000E+00  0.19470252022E+04  0.19470252022E+04  0.25500000920E-02 0. -1.
       -2   -1    0    0    0  501  0.00000000000E+00  0.00000000000E+00 -0.61142216465E+03  0.61142216465E+03  0.25500000920E-02 0.  1.
    10030    2    1    2    0    0  0.00000000000E+00  0.00000000000E+00  0.13356030375E+04  0.25584473668E+04  0.21821588977E+04 0.  0.
        5    1    3    3  502    0  0.44148225008E+03  0.29062126473E+03  0.17868909432E+04  0.18634292660E+04  0.46999998093E+01 0. -1.
       -5    1    3    3    0  502 -0.44148225008E+03 -0.29062126473E+03 -0.45128790566E+03  0.69501810080E+03  0.46999998093E+01 0.  1.
</event>
<event>
 5   0  0.1252124E-04  0.2177359E+04  0.7818609E-02  0.8527911E-01
        2   -1    0    0  501    0  0.00000000000E+00  0.00000000000E+00  0.16662260434E+04  0.16662260434E+04  0.25500000920E-02 0. -1.
       -2   -1    0    0    0  501  0.00000000000E+00  0.00000000000E+00 -0.71132199245E+03  0.71132199245E+03  0.25500000920E-02 0.  1.
    10030    2    1    2    0    0  0.00000000000E+00  0.00000000000E+00  0.95490405095E+03  0.23775480359E+04  0.21773591611E+04 0.  0.
        3    1    3    3  502    0  0.72237482292E+03  0.29468981328E+03 -0.35167272637E+03  0.85576935416E+03  0.10100000352E+00 0.  1.
       -3    1    3    3    0  502 -0.72237482292E+03 -0.29468981328E+03  0.13065767773E+04  0.15217786817E+04  0.10100000352E+00 0. -1.
</event>
<event>
 5   0  0.6263558E-05  0.2228515E+04  0.7818609E-02  0.8506653E-01
        1   -1    0    0  501    0  0.00000000000E+00  0.00000000000E+00  0.12628008007E+04  0.12628008007E+04  0.50400001928E-02 0.  1.
       -1   -1    0    0    0  501  0.00000000000E+00  0.00000000000E+00 -0.98318717021E+03  0.98318717022E+03  0.50400001928E-02 0. -1.
    10030    2    1    2    0    0  0.00000000000E+00  0.00000000000E+00  0.27961363046E+03  0.22459879709E+04  0.22285147931E+04 0.  0.
        3    1    3    3  502    0 -0.22566549711E+03  0.58157007922E+03  0.10703123048E+04  0.12388370004E+04  0.10100000352E+00 0.  1.
       -3    1    3    3    0  502  0.22566549711E+03 -0.58157007922E+03 -0.79069867430E+03  0.10071509705E+04  0.10100000352E+00 0. -1.
</event>
<event>
 5   0  0.6263558E-05  0.2196364E+04  0.7818609E-02  0.8519943E-01
        1   -1    0    0  501    0  0.00000000000E+00  0.00000000000E+00  0.11591821142E+04  0.11591821142E+04  0.50400001928E-02 0.  1.
       -1   -1    0    0    0  501  0.00000000000E+00  0.00000000000E+00 -0.10403923572E+04  0.10403923572E+04  0.50400001928E-02 0. -1.
    10030    2    1    2    0    0  0.00000000000E+00  0.00000000000E+00  0.11878975698E+03  0.21995744714E+04  0.21963644618E+04 0.  0.
        3    1    3    3  502    0 -0.14553196824E+03  0.65739234744E+03  0.92822259342E+03  0.11467089628E+04  0.10100000352E+00 0.  1.
       -3    1    3    3    0  502  0.14553196824E+03 -0.65739234744E+03 -0.80943283644E+03  0.10528655086E+04  0.10100000352E+00 0. -1.
</event>
<event>
 5   0  0.5981239E-05  0.2196470E+04  0.7818609E-02  0.8519899E-01
       -1   -1    0    0    0  501  0.00000000000E+00  0.00000000000E+00  0.56875342327E+03  0.56875342330E+03  0.50400001928E-02 0.  1.
        1   -1    0    0  501    0  0.00000000000E+00  0.00000000000E+00 -0.21206388034E+04  0.21206388034E+04  0.50400001928E-02 0. -1.
    10030    2    1    2    0    0  0.00000000000E+00  0.00000000000E+00 -0.15518853801E+04  0.26893922267E+04  0.21964704223E+04 0.  0.
        4    1    3    3  502    0 -0.11318923051E+03  0.44795680721E+03 -0.19958450721E+04  0.20486278988E+04  0.12699999809E+01 0. -1.
       -4    1    3    3    0  502  0.11318923051E+03 -0.44795680721E+03  0.44395969192E+03  0.64076432795E+03  0.12699999809E+01 0.  1.
</event>
<event>
 5   0  0.1241430E-04  0.2181248E+04  0.7818609E-02  0.8526274E-01
       -2   -1    0    0    0  501  0.00000000000E+00  0.00000000000E+00  0.10045492111E+04  0.10045492111E+04  0.25500000920E-02 0. -1.
        2   -1    0    0  501    0  0.00000000000E+00  0.00000000000E+00 -0.11840742067E+04  0.11840742067E+04  0.25500000920E-02 0.  1.
    10030    2    1    2    0    0  0.00000000000E+00  0.00000000000E+00 -0.17952499567E+03  0.21886234178E+04  0.21812480925E+04 0.  0.
        1    1    3    3  502    0  0.70715526739E+03 -0.17215322339E+03  0.72523727713E+03  0.10274601757E+04  0.50400001928E-02 0. -1.
       -1    1    3    3    0  502 -0.70715526739E+03  0.17215322339E+03 -0.90476227280E+03  0.11611632421E+04  0.50400001928E-02 0.  1.
</event>
<event>
 5   0  0.1404159E-04  0.2215393E+04  0.7818609E-02  0.8512048E-01
        2   -1    0    0  501    0  0.00000000000E+00  0.00000000000E+00  0.10053948536E+04  0.10053948536E+04  0.25500000920E-02 0. -1.
       -2   -1    0    0    0  501  0.00000000000E+00  0.00000000000E+00 -0.12204076436E+04  0.12204076436E+04  0.25500000920E-02 0.  1.
    10030    2    1    2    0    0  0.00000000000E+00  0.00000000000E+00 -0.21501279003E+03  0.22258024972E+04  0.22153930253E+04 0.  0.
        5    1    3    3  502    0  0.13245708510E+03 -0.47607674207E+03  0.88850202205E+03  0.10166867152E+04  0.46999998093E+01 0. -1.
       -5    1    3    3    0  502 -0.13245708510E+03  0.47607674207E+03 -0.11035148121E+04  0.12091157820E+04  0.46999998093E+01 0.  1.
</event>
<event>
 5   0  0.1226021E-04  0.1716130E+04  0.7818609E-02  0.8752218E-01
        2   -1    0    0  501    0  0.00000000000E+00  0.00000000000E+00  0.19599620603E+04  0.19599620603E+04  0.25500000920E-02 0. -1.
       -2   -1    0    0    0  501  0.00000000000E+00  0.00000000000E+00 -0.37565814766E+03  0.37565814767E+03  0.25500000920E-02 0.  1.
    10030    2    1    2    0    0  0.00000000000E+00  0.00000000000E+00  0.15843039126E+04  0.23356202079E+04  0.17161302014E+04 0.  0.
        2    1    3    3  502    0  0.29934823967E+03 -0.80102165876E+02  0.18811491998E+04  0.19065015179E+04  0.25500000920E-02 0. -1.
       -2    1    3    3    0  502 -0.29934823967E+03  0.80102165876E+02 -0.29684528725E+03  0.42911869004E+03  0.25500000920E-02 0.  1.
</event>
<event>
 5   0  0.1252124E-04  0.2193105E+04  0.7818609E-02  0.8521304E-01
        2   -1    0    0  501    0  0.00000000000E+00  0.00000000000E+00  0.13331117698E+04  0.13331117698E+04  0.25500000920E-02 0. -1.
       -2   -1    0    0    0  501  0.00000000000E+00  0.00000000000E+00 -0.90197014622E+03  0.90197014623E+03  0.25500000920E-02 0.  1.
    10030    2    1    2    0    0  0.00000000000E+00  0.00000000000E+00  0.43114162360E+03  0.22350819160E+04  0.21931046650E+04 0.  0.
        3    1    3    3  502    0  0.26735999925E+03 -0.10383537087E+04  0.44967876556E+03  0.11626997876E+04  0.10100000352E+00 0.  1.
       -3    1    3    3    0  502 -0.26735999925E+03  0.10383537087E+04 -0.18537141964E+02  0.10723821285E+04  0.10100000352E+00 0. -1.
</event>
<event>
 5   0  0.5849604E-05  0.2090204E+04  0.7818609E-02  0.8565571E-01
        1   -1    0    0  501    0  0.00000000000E+00  0.00000000000E+00  0.16149876200E+04  0.16149876201E+04  0.50400001928E-02 0.  1.
       -1   -1    0    0    0  501  0.00000000000E+00  0.00000000000E+00 -0.67631393672E+03  0.67631393674E+03  0.50400001928E-02 0. -1.
    10030    2    1    2    0    0  0.00000000000E+00  0.00000000000E+00  0.93867368332E+03  0.22913015568E+04  0.20902044255E+04 0.  0.
        2    1    3    3  502    0 -0.30874622659E+03 -0.97840762853E+02 -0.61991223990E+03  0.69941992572E+03  0.25500000920E-02 0. -1.
       -2    1    3    3    0  502  0.30874622659E+03  0.97840762853E+02  0.15585859232E+04  0.15918816311E+04  0.25500000920E-02 0.  1.
</event>
<event>
 5   0  0.5861816E-05  0.2241401E+04  0.7818609E-02  0.8501391E-01
       -1   -1    0    0    0  501  0.00000000000E+00  0.00000000000E+00  0.11326594287E+04  0.11326594287E+04  0.50400001928E-02 0.  1.
        1   -1    0    0  501    0  0.00000000000E+00  0.00000000000E+00 -0.11088678774E+04  0.11088678774E+04  0.50400001928E-02 0. -1.
    10030    2    1    2    0    0  0.00000000000E+00  0.00000000000E+00  0.23791551316E+02  0.22415273062E+04  0.22414010410E+04 0.  0.
        1    1    3    3  502    0 -0.33836213888E+03 -0.98345587456E+03 -0.40561458361E+03  0.11163322018E+04  0.50400001928E-02 0. -1.
       -1    1    3    3    0  502  0.33836213888E+03  0.98345587456E+03  0.42940613493E+03  0.11251951044E+04  0.50400001928E-02 0.  1.
</event>
<event>
 5   0  0.1252124E-04  0.2154832E+04  0.7818609E-02  0.8537467E-01
       -2   -1    0    0    0  501  0.00000000000E+00  0.00000000000E+00  0.97478627723E+03  0.97478627724E+03  0.25500000920E-02 0. -1.
        2   -1    0    0  501    0  0.00000000000E+00  0.00000000000E+00 -0.11908510376E+04  0.11908510376E+04  0.25500000920E-02 0.  1.
    10030    2    1    2    0    0  0.00000000000E+00  0.00000000000E+00 -0.21606476041E+03  0.21656373149E+04  0.21548320118E+04 0.  0.
        3    1    3    3  502    0  0.59399744595E+03  0.88443332562E+03 -0.26936761755E+03  0.10989150089E+04  0.10100000352E+00 0.  1.
       -3    1    3    3    0  502 -0.59399744595E+03 -0.88443332562E+03  0.53302857136E+02  0.10667223060E+04  0.10100000352E+00 0. -1.
</event>
<event>
 5   0  0.1404159E-04  0.2221736E+04  0.7818609E-02  0.8509435E-01
       -2   -1    0    0    0  501  0.00000000000E+00  0.00000000000E+00  0.12636365402E+04  0.12636365402E+04  0.25500000920E-02 0. -1.
        2   -1    0    0  501    0  0.00000000000E+00  0.00000000000E+00 -0.97656879272E+03  0.97656879272E+03  0.25500000920E-02 0.  1.
    10030    2    1    2    0    0  0.00000000000E+00  0.00000000000E+00  0.28706774752E+03  0.22402053330E+04  0.22217362675E+04 0.  0.
        5    1    3    3  502    0 -0.68221700709E+03  0.47872475561E+03 -0.59701582360E+03  0.10252060378E+04  0.46999998093E+01 0.  1.
       -5    1    3    3    0  502  0.68221700709E+03 -0.47872475561E+03  0.88408357113E+03  0.12149992951E+04  0.46999998093E+01 0. -1.
</event>
<event>
 5   0  0.6263558E-05  0.2217722E+04  0.7818609E-02  0.8511088E-01
       -1   -1    0    0    0  501  0.00000000000E+00  0.00000000000E+00  0.11540842207E+04  0.11540842208E+04  0.50400001928E-02 0. -1.
        1   -1    0    0  501    0  0.00000000000E+00  0.00000000000E+00 -0.10654102021E+04  0.10654102021E+04  0.50400001928E-02 0.  1.
    10030    2    1    2    0    0  0.00000000000E+00  0.00000000000E+00  0.88674018662E+02  0.22194944229E+04  0.22177223477E+04 0.  0.
        3    1    3    3  502    0 -0.42885440693E+02 -0.10005112952E+04  0.52085934084E+03  0.11287853985E+04  0.10100000352E+00 0.  1.
       -3    1    3    3    0  502  0.42885440693E+02  0.10005112952E+04 -0.43218532218E+03  0.10907090243E+04  0.10100000352E+00 0. -1.
</event>
<event>
 5   0  0.5849604E-05  0.2201941E+04  0.7818609E-02  0.8517621E-01
        1   -1    0    0  501    0  0.00000000000E+00  0.00000000000E+00  0.98086982519E+03  0.98086982520E+03  0.50400001928E-02 0.  1.
       -1   -1    0    0    0  501  0.00000000000E+00  0.00000000000E+00 -0.12357769013E+04  0.12357769013E+04  0.50400001928E-02 0. -1.
    10030    2    1    2    0    0  0.00000000000E+00  0.00000000000E+00 -0.25490707615E+03  0.22166467265E+04  0.22019412101E+04 0.  0.
        2    1    3    3  502    0 -0.35950684927E+03 -0.10012873339E+04 -0.41274480920E+03  0.11411309202E+04  0.25500000920E-02 0. -1.
       -2    1    3    3    0  502  0.35950684927E+03  0.10012873339E+04  0.15783773305E+03  0.10755158063E+04  0.25500000920E-02 0.  1.
</event>
<event>
 5   0  0.5849604E-05  0.2164213E+04  0.7818609E-02  0.8533473E-01
       -1   -1    0    0    0  501  0.00000000000E+00  0.00000000000E+00  0.47888297643E+03  0.47888297646E+03  0.50400001928E-02 0.  1.
        1   -1    0    0  501    0  0.00000000000E+00  0.00000000000E+00 -0.24451794733E+04  0.24451794733E+04  0.50400001928E-02 0. -1.
    10030    2    1    2    0    0  0.00000000000E+00  0.00000000000E+00 -0.19662964968E+04  0.29240624497E+04  0.21642133205E+04 0.  0.
        2    1    3    3  502    0  0.10021602228E+04  0.31195691431E+03 -0.13388554512E+04  0.17012278353E+04  0.25500000920E-02 0. -1.
       -2    1    3    3    0  502 -0.10021602228E+04 -0.31195691431E+03 -0.62744104567E+03  0.12228346144E+04  0.25500000920E-02 0.  1.
</event>
<event>
 5   0  0.1311472E-04  0.1520892E+04  0.7818609E-02  0.8870678E-01
       -2   -1    0    0    0  501  0.00000000000E+00  0.00000000000E+00  0.70205353761E+03  0.70205353762E+03  0.25500000920E-02 0. -1.
        2   -1    0    0  501    0  0.00000000000E+00  0.00000000000E+00 -0.82369507665E+03  0.82369507665E+03  0.25500000920E-02 0.  1.
    10030    2    1    2    0    0  0.00000000000E+00  0.00000000000E+00 -0.12164153904E+03  0.15257486143E+04  0.15208918995E+04 0.  0.
        4    1    3    3  502    0 -0.27523552123E+03  0.79055007820E+02  0.64589468142E+03  0.70653084773E+03  0.12699999809E+01 0. -1.
       -4    1    3    3    0  502  0.27523552123E+03 -0.79055007820E+02 -0.76753622046E+03  0.81921776654E+03  0.12699999809E+01 0.  1.
</event>
<event>
 5   0  0.5895063E-05  0.2169027E+04  0.7818609E-02  0.8531431E-01
       -1   -1    0    0    0  501  0.00000000000E+00  0.00000000000E+00  0.69077019299E+03  0.69077019301E+03  0.50400001928E-02 0. -1.
        1   -1    0    0  501    0  0.00000000000E+00  0.00000000000E+00 -0.17026935604E+04  0.17026935604E+04  0.50400001928E-02 0.  1.
    10030    2    1    2    0    0  0.00000000000E+00  0.00000000000E+00 -0.10119233674E+04  0.23934637534E+04  0.21690273943E+04 0.  0.
        5    1    3    3  502    0  0.16480255645E+03 -0.22422561836E+03  0.65069248176E+03  0.70771449495E+03  0.46999998093E+01 0. -1.
       -5    1    3    3    0  502 -0.16480255645E+03  0.22422561836E+03 -0.16626158492E+04  0.16857492585E+04  0.46999998093E+01 0.  1.
</event>
<event>
 5   0  0.1404159E-04  0.2134611E+04  0.7818609E-02  0.8546148E-01
       -2   -1    0    0    0  501  0.00000000000E+00  0.00000000000E+00  0.97406629709E+03  0.97406629709E+03  0.25500000920E-02 0.  1.
        2   -1    0    0  501    0  0.00000000000E+00  0.00000000000E+00 -0.11694696572E+04  0.11694696572E+04  0.25500000920E-02 0. -1.
    10030    2    1    2    0    0  0.00000000000E+00  0.00000000000E+00 -0.19540336010E+03  0.21435359543E+04  0.21346109515E+04 0.  0.
        5    1    3    3  502    0 -0.68593754189E+03  0.20098020080E+03  0.69821274436E+03  0.99921292969E+03  0.46999998093E+01 0.  1.
       -5    1    3    3    0  502  0.68593754189E+03 -0.20098020080E+03 -0.89361610446E+03  0.11443230246E+04  0.46999998093E+01 0. -1.
</event>
<event>
 5   0  0.5849604E-05  0.2141445E+04  0.7818609E-02  0.8543203E-01
        1   -1    0    0  501    0  0.00000000000E+00  0.00000000000E+00  0.14244203762E+04  0.14244203762E+04  0.50400001928E-02 0. -1.
       -1   -1    0    0    0  501  0.00000000000E+00  0.00000000000E+00 -0.80485121719E+03  0.80485121720E+03  0.50400001928E-02 0.  1.
    10030    2    1    2    0    0  0.00000000000E+00  0.00000000000E+00  0.61956915903E+03  0.22292715934E+04  0.21414448147E+04 0.  0.
        2    1    3    3  502    0  0.26226296692E+03  0.21623345007E+03  0.13667626763E+04  0.14083958897E+04  0.25500000920E-02 0. -1.
       -2    1    3    3    0  502 -0.26226296692E+03 -0.21623345007E+03 -0.74719351727E+03  0.82087570375E+03  0.25500000920E-02 0.  1.
</event>
<event>
 5   0  0.1241430E-04  0.2187265E+04  0.7818609E-02  0.8523748E-01
        2   -1    0    0  501    0  0.00000000000E+00  0.00000000000E+00  0.16785517095E+04  0.16785517095E+04  0.25500000920E-02 0. -1.
       -2   -1    0    0    0  501  0.00000000000E+00  0.00000000000E+00 -0.71253789171E+03  0.71253789171E+03  0.25500000920E-02 0.  1.
    10030    2    1    2    0    0  0.00000000000E+00  0.00000000000E+00  0.96601381782E+03  0.23910896012E+04  0.21872646810E+04 0.  0.
        1    1    3    3  502    0 -0.10339001529E+03  0.14200379721E+03  0.16630299434E+04  0.16722808276E+04  0.50400001928E-02 0. -1.
       -1    1    3    3    0  502  0.10339001529E+03 -0.14200379721E+03 -0.69701612560E+03  0.71880877363E+03  0.50400001928E-02 0.  1.
</event>
<event>
 5   0  0.5895063E-05  0.2200697E+04  0.7818609E-02  0.8518138E-01
       -1   -1    0    0    0  501  0.00000000000E+00  0.00000000000E+00  0.11300402974E+04  0.11300402974E+04  0.50400001928E-02 0.  1.
        1   -1    0    0  501    0  0.00000000000E+00  0.00000000000E+00 -0.10714370885E+04  0.10714370885E+04  0.50400001928E-02 0. -1.
    10030    2    1    2    0    0  0.00000000000E+00  0.00000000000E+00  0.58603208894E+02  0.22014773859E+04  0.22006972405E+04 0.  0.
        5    1    3    3  502    0 -0.69648684439E+02  0.15684222198E+03 -0.10579574533E+04  0.10717959156E+04  0.46999998093E+01 0. -1.
       -5    1    3    3    0  502  0.69648684439E+02 -0.15684222198E+03  0.11165606622E+04  0.11296814702E+04  0.46999998093E+01 0.  1.
</event>
<event>
 5   0  0.4586375E-05  0.2197315E+04  0.7818609E-02  0.8519546E-01
       -4   -1    0    0    0  501  0.00000000000E+00  0.00000000000E+00  0.85518561215E+03  0.85518655516E+03  0.12699999809E+01 0. -1.
        4   -1    0    0  501    0  0.00000000000E+00  0.00000000000E+00 -0.14114443475E+04  0.14114449189E+04  0.12699999809E+01 0.  1.
    10030    2    1    2    0    0  0.00000000000E+00  0.00000000000E+00 -0.55625873538E+03  0.22666314741E+04  0.21973152843E+04 0.  0.
        5    1    3    3  502    0 -0.34661129510E+03 -0.10390354302E+04 -0.36621945496E+03  0.11549341082E+04  0.46999998093E+01 0. -1.
       -5    1    3    3    0  502  0.34661129510E+03  0.10390354302E+04 -0.19003928043E+03  0.11116973658E+04  0.46999998093E+01 0.  1.
</event>
<event>
 5   0  0.1226021E-04  0.2275270E+04  0.7818609E-02  0.8487736E-01
        2   -1    0    0  501    0  0.00000000000E+00  0.00000000000E+00  0.22620317435E+04  0.22620317435E+04  0.25500000920E-02 0. -1.
       -2   -1    0    0    0  501  0.00000000000E+00  0.00000000000E+00 -0.57214618757E+03  0.57214618758E+03  0.25500000920E-02 0.  1.
    10030    2    1    2    0    0  0.00000000000E+00  0.00000000000E+00  0.16898855559E+04  0.28341779311E+04  0.22752695121E+04 0.  0.
        2    1    3    3  502    0  0.73517242389E+03  0.79986717749E+03  0.12654228467E+04  0.16678012398E+04  0.25500000920E-02 0. -1.
       -2    1    3    3    0  502 -0.73517242389E+03 -0.79986717749E+03  0.42446270926E+03  0.11663766913E+04  0.25500000920E-02 0.  1.
</event>
<event>
 5   0  0.1226021E-04  0.2042993E+04  0.7818609E-02  0.8586780E-01
        2   -1    0    0  501    0  0.00000000000E+00  0.00000000000E+00  0.83689820470E+03  0.83689820471E+03  0.25500000920E-02 0. -1.
       -2   -1    0    0    0  501  0.00000000000E+00  0.00000000000E+00 -0.12468118838E+04  0.12468118838E+04  0.25500000920E-02 0.  1.
    10030    2    1    2    0    0  0.00000000000E+00  0.00000000000E+00 -0.40991367905E+03  0.20837100885E+04  0.20429925376E+04 0.  0.
        2    1    3    3  502    0  0.21010044936E+03  0.96774882116E+03 -0.46049905477E+03  0.10921260729E+04  0.25500000920E-02 0.  1.
       -2    1    3    3    0  502 -0.21010044936E+03 -0.96774882116E+03  0.50585375724E+02  0.99158401556E+03  0.25500000920E-02 0. -1.
</event>
<event>
 5   0  0.1311472E-04  0.2160105E+04  0.7818609E-02  0.8535219E-01
       -2   -1    0    0    0  501  0.00000000000E+00  0.00000000000E+00  0.11624436989E+04  0.11624436989E+04  0.25500000920E-02 0. -1.
        2   -1    0    0  501    0  0.00000000000E+00  0.00000000000E+00 -0.10035006060E+04  0.10035006060E+04  0.25500000920E-02 0.  1.
    10030    2    1    2    0    0  0.00000000000E+00  0.00000000000E+00  0.15894309294E+03  0.21659443050E+04  0.21601045867E+04 0.  0.
        4    1    3    3  502    0 -0.56574331606E+03  0.84023457227E+03 -0.29631049149E+03  0.10553962082E+04  0.12699999809E+01 0.  1.
       -4    1    3    3    0  502  0.56574331606E+03 -0.84023457227E+03  0.45525358443E+03  0.11105480967E+04  0.12699999809E+01 0. -1.
</event>
<event>
 5   0  0.1226021E-04  0.2209961E+04  0.7818609E-02  0.8514293E-01
       -2   -1    0    0    0  501  0.00000000000E+00  0.00000000000E+00  0.78263509444E+03  0.78263509444E+03  0.25500000920E-02 0. -1.
        2   -1    0    0  501    0  0.00000000000E+00  0.00000000000E+00 -0.15600913932E+04  0.15600913933E+04  0.25500000920E-02 0.  1.
    10030    2    1    2    0    0  0.00000000000E+00  0.00000000000E+00 -0.77745629881E+03  0.23427264877E+04  0.22099613344E+04 0.  0.
        2    1    3    3  502    0 -0.64841068194E+03 -0.19531671125E+03 -0.13143371555E+04  0.14785354877E+04  0.25500000920E-02 0.  1.
       -2    1    3    3    0  502  0.64841068194E+03  0.19531671125E+03  0.53688085668E+03  0.86419099997E+03  0.25500000920E-02 0. -1.
</event>
<event>
 5   0  0.1226021E-04  0.2197941E+04  0.7818609E-02  0.8519285E-01
       -2   -1    0    0    0  501  0.00000000000E+00  0.00000000000E+00  0.76591588338E+03  0.76591588338E+03  0.25500000920E-02 0. -1.
        2   -1    0    0  501    0  0.00000000000E+00  0.00000000000E+00 -0.15768526123E+04  0.15768526123E+04  0.25500000920E-02 0.  1.
    10030    2    1    2    0    0  0.00000000000E+00  0.00000000000E+00 -0.81093672895E+03  0.23427684957E+04  0.21979412745E+04 0.  0.
        2    1    3    3  502    0  0.10059747496E+04  0.41926168472E+03 -0.55609860110E+03  0.12235240950E+04  0.25500000920E-02 0. -1.
       -2    1    3    3    0  502 -0.10059747496E+04 -0.41926168472E+03 -0.25483812785E+03  0.11192444007E+04  0.25500000920E-02 0.  1.
</event>
<event>
 5   0  0.1252124E-04  0.2391594E+04  0.7818609E-02  0.8442657E-01
        2   -1    0    0  501    0  0.00000000000E+00  0.00000000000E+00  0.16308248922E+04  0.16308248922E+04  0.25500000920E-02 0. -1.
       -2   -1    0    0    0  501  0.00000000000E+00  0.00000000000E+00 -0.87681394010E+03  0.87681394011E+03  0.25500000920E-02 0.  1.
    10030    2    1    2    0    0  0.00000000000E+00  0.00000000000E+00  0.75401095214E+03  0.25076388324E+04  0.23915936105E+04 0.  0.
        3    1    3    3  502    0 -0.13257018128E+03  0.47980936254E+03  0.15170234841E+04  0.15966064446E+04  0.10100000352E+00 0. -1.
       -3    1    3    3    0  502  0.13257018128E+03 -0.47980936254E+03 -0.76301253199E+03  0.91103238775E+03  0.10100000352E+00 0.  1.
</event>
<event>
 5   0  0.5981239E-05  0.2206162E+04  0.7818609E-02  0.8515868E-01
        1   -1    0    0  501    0  0.00000000000E+00  0.00000000000E+00  0.11906035127E+04  0.11906035127E+04  0.50400001928E-02 0.  1.
       -1   -1    0    0    0  501  0.00000000000E+00  0.00000000000E+00 -0.10219921681E+04  0.10219921681E+04  0.50400001928E-02 0. -1.
    10030    2    1    2    0    0  0.00000000000E+00  0.00000000000E+00  0.16861134465E+03  0.22125956808E+04  0.22061617940E+04 0.  0.
        4    1    3    3  502    0 -0.32925551543E+03  0.29712117044E+03 -0.92863766608E+03  0.10291062686E+04  0.12699999809E+01 0. -1.
       -4    1    3    3    0  502  0.32925551543E+03 -0.29712117044E+03  0.10972490107E+04  0.11834894122E+04  0.12699999809E+01 0.  1.
</event>
<event>
 5   0  0.5861816E-05  0.1473839E+04  0.7818609E-02  0.8902039E-01
        1   -1    0    0  501    0  0.00000000000E+00  0.00000000000E+00  0.13811580899E+04  0.13811580899E+04  0.50400001928E-02 0.  1.
       -1   -1    0    0    0  501  0.00000000000E+00  0.00000000000E+00 -0.39318463963E+03  0.39318463967E+03  0.50400001928E-02 0. -1.
    10030    2    1    2    0    0  0.00000000000E+00  0.00000000000E+00  0.98797345023E+03  0.17743427295E+04  0.14738387237E+04 0.  0.
        1    1    3    3  502    0 -0.35613028926E+03 -0.33097340117E+03 -0.17271079343E+03  0.51594689010E+03  0.50400001928E-02 0. -1.
       -1    1    3    3    0  502  0.35613028926E+03  0.33097340117E+03  0.11606842437E+04  0.12583958394E+04  0.50400001928E-02 0.  1.
</event>
<event>
 5   0  0.6263558E-05  0.2067982E+04  0.7818609E-02  0.8575480E-01
        1   -1    0    0  501    0  0.00000000000E+00  0.00000000000E+00  0.15244570647E+04  0.15244570647E+04  0.50400001928E-02 0. -1.
       -1   -1    0    0    0  501  0.00000000000E+00  0.00000000000E+00 -0.70132361157E+03  0.70132361159E+03  0.50400001928E-02 0.  1.
    10030    2    1    2    0    0  0.00000000000E+00  0.00000000000E+00  0.82313345315E+03  0.22257806763E+04  0.20679823349E+04 0.  0.
        3    1    3    3  502    0 -0.45657067524E+02  0.16209960102E+03  0.15095971167E+04  0.15189615905E+04  0.10100000352E+00 0. -1.
       -3    1    3    3    0  502  0.45657067524E+02 -0.16209960102E+03 -0.68646366356E+03  0.70681908580E+03  0.10100000352E+00 0.  1.
</event>
<event>
 5   0  0.5849604E-05  0.2165405E+04  0.7818609E-02  0.8532967E-01
        1   -1    0    0  501    0  0.00000000000E+00  0.00000000000E+00  0.10299931708E+04  0.10299931708E+04  0.50400001928E-02 0.  1.
       -1   -1    0    0    0  501  0.00000000000E+00  0.00000000000E+00 -0.11381090653E+04  0.11381090653E+04  0.50400001928E-02 0. -1.
    10030    2    1    2    0    0  0.00000000000E+00  0.00000000000E+00 -0.10811589451E+03  0.21681022362E+04  0.21654048720E+04 0.  0.
        2    1    3    3  502    0 -0.35522516006E+03 -0.74481901535E+03 -0.75586208388E+03  0.11190477067E+04  0.25500000920E-02 0. -1.
       -2    1    3    3    0  502  0.35522516006E+03  0.74481901535E+03  0.64774618937E+03  0.10490545295E+04  0.25500000920E-02 0.  1.
</event>
<event>
 5   0  0.5861816E-05  0.2234913E+04  0.7818609E-02  0.8504036E-01
       -1   -1    0    0    0  501  0.00000000000E+00  0.00000000000E+00  0.10610756073E+04  0.10610756073E+04  0.50400001928E-02 0.  1.
        1   -1    0    0  501    0  0.00000000000E+00  0.00000000000E+00 -0.11768330964E+04  0.11768330965E+04  0.50400001928E-02 0. -1.
    10030    2    1    2    0    0  0.00000000000E+00  0.00000000000E+00 -0.11575748916E+03  0.22379087037E+04  0.22349128775E+04 0.  0.
        1    1    3    3  502    0 -0.38765069453E+03  0.16282209271E+03  0.97884710282E+03  0.10653289377E+04  0.50400001928E-02 0.  1.
       -1    1    3    3    0  502  0.38765069453E+03 -0.16282209271E+03 -0.10946045920E+04  0.11725797660E+04  0.50400001928E-02 0. -1.
</event>
<event>
 5   0  0.1311472E-04  0.2267353E+04  0.7818609E-02  0.8490906E-01
        2   -1    0    0  501    0  0.00000000000E+00  0.00000000000E+00  0.13213348877E+04  0.13213348877E+04  0.25500000920E-02 0. -1.
       -2   -1    0    0    0  501  0.00000000000E+00  0.00000000000E+00 -0.97266929990E+03  0.97266929991E+03  0.25500000920E-02 0.  1.
    10030    2    1    2    0    0  0.00000000000E+00  0.00000000000E+00  0.34866558784E+03  0.22940041877E+04  0.22673525356E+04 0.  0.
        4    1    3    3  502    0 -0.87957526479E+03 -0.71413482649E+03  0.21453740930E+03  0.11531127914E+04  0.12699999809E+01 0.  1.
       -4    1    3    3    0  502  0.87957526479E+03  0.71413482649E+03  0.13412817853E+03  0.11408913962E+04  0.12699999809E+01 0. -1.
</event>
<event>
 5   0  0.1311472E-04  0.2225257E+04  0.7818609E-02  0.8507988E-01
       -2   -1    0    0    0  501  0.00000000000E+00  0.00000000000E+00  0.80621545040E+03  0.80621545040E+03  0.25500000920E-02 0. -1.
        2   -1    0    0  501    0  0.00000000000E+00  0.00000000000E+00 -0.15354986077E+04  0.15354986077E+04  0.25500000920E-02 0.  1.
    10030    2    1    2    0    0  0.00000000000E+00  0.00000000000E+00 -0.72928315730E+03  0.23417140581E+04  0.22252574697E+04 0.  0.
        4    1    3    3  502    0 -0.10801504758E+04  0.16649856911E+02 -0.64492381725E+03  0.12581457034E+04  0.12699999809E+01 0. -1.
       -4    1    3    3    0  502  0.10801504758E+04 -0.16649856911E+02 -0.84359340048E+02  0.10835683547E+04  0.12699999809E+01 0.  1.
</event>
<event>
 5   0  0.1226021E-04  0.1573724E+04  0.7818609E-02  0.8836855E-01
        2   -1    0    0  501    0  0.00000000000E+00  0.00000000000E+00  0.40997277714E+03  0.40997277715E+03  0.25500000920E-02 0. -1.
       -2   -1    0    0    0  501  0.00000000000E+00  0.00000000000E+00 -0.15102268237E+04  0.15102268237E+04  0.25500000920E-02 0.  1.
    10030    2    1    2    0    0  0.00000000000E+00  0.00000000000E+00 -0.11002540466E+04  0.19201996009E+04  0.15737240991E+04 0.  0.
        2    1    3    3  502    0  0.16597413738E+03 -0.41814146377E+03  0.23757495080E+03  0.50875490686E+03  0.25500000920E-02 0. -1.
       -2    1    3    3    0  502 -0.16597413738E+03  0.41814146377E+03 -0.13378289974E+04  0.14114446940E+04  0.25500000920E-02 0.  1.
</event>
<event>
 5   0  0.4586375E-05  0.2127140E+04  0.7818609E-02  0.8549381E-01
       -3   -1    0    0    0  501  0.00000000000E+00  0.00000000000E+00  0.99885247981E+03  0.99885248492E+03  0.10100000352E+00 0.  1.
        3   -1    0    0  501    0  0.00000000000E+00  0.00000000000E+00 -0.11324811070E+04  0.11324811115E+04  0.10100000352E+00 0. -1.
    10030    2    1    2    0    0  0.00000000000E+00  0.00000000000E+00 -0.13362862718E+03  0.21313335964E+04  0.21271404019E+04 0.  0.
        2    1    3    3  502    0  0.56603528041E+02 -0.14692578812E+03  0.98711013396E+03  0.99958869701E+03  0.25500000920E-02 0.  1.
       -2    1    3    3    0  502 -0.56603528041E+02  0.14692578812E+03 -0.11207387611E+04  0.11317448994E+04  0.25500000920E-02 0. -1.
</event>
<event>
 5   0  0.5981239E-05  0.2220552E+04  0.7818609E-02  0.8509922E-01
       -1   -1    0    0    0  501  0.00000000000E+00  0.00000000000E+00  0.11176172655E+04  0.11176172655E+04  0.50400001928E-02 0.  1.
        1   -1    0    0  501    0  0.00000000000E+00  0.00000000000E+00 -0.11029827006E+04  0.11029827006E+04  0.50400001928E-02 0. -1.
    10030    2    1    2    0    0  0.00000000000E+00  0.00000000000E+00  0.14634564941E+02  0.22205999661E+04  0.22205517420E+04 0.  0.
        4    1    3    3  502    0  0.10343838464E+04  0.50945820301E+02  0.40753276849E+03  0.11129375493E+04  0.12699999809E+01 0.  1.
       -4    1    3    3    0  502 -0.10343838464E+04 -0.50945820301E+02 -0.39289820355E+03  0.11076624168E+04  0.12699999809E+01 0. -1.
</event>
<event>
 5   0  0.6263558E-05  0.2127072E+04  0.7818609E-02  0.8549411E-01
       -1   -1    0    0    0  501  0.00000000000E+00  0.00000000000E+00  0.60935049398E+03  0.60935049400E+03  0.50400001928E-02 0.  1.
        1   -1    0    0  501    0  0.00000000000E+00  0.00000000000E+00 -0.18562529813E+04  0.18562529813E+04  0.50400001928E-02 0. -1.
    10030    2    1    2    0    0  0.00000000000E+00  0.00000000000E+00 -0.12469024874E+04  0.24656034754E+04  0.21270718570E+04 0.  0.
        3    1    3    3  502    0 -0.86030009433E+03 -0.25043885821E+03  0.40687036371E+02  0.89693440068E+03  0.10100000352E+00 0.  1.
       -3    1    3    3    0  502  0.86030009433E+03  0.25043885821E+03 -0.12875895237E+04  0.15686690747E+04  0.10100000352E+00 0. -1.
</event>
<event>
 5   0  0.5981239E-05  0.2199736E+04  0.7818609E-02  0.8518538E-01
       -1   -1    0    0    0  501  0.00000000000E+00  0.00000000000E+00  0.78064490971E+03  0.78064490972E+03  0.50400001928E-02 0. -1.
        1   -1    0    0  501    0  0.00000000000E+00  0.00000000000E+00 -0.15496281395E+04  0.15496281395E+04  0.50400001928E-02 0.  1.
    10030    2    1    2    0    0  0.00000000000E+00  0.00000000000E+00 -0.76898322983E+03  0.23302730493E+04  0.21997357288E+04 0.  0.
        4    1    3    3  502    0  0.90338082596E+03  0.60231313946E+03 -0.57049495897E+03  0.12265170793E+04  0.12699999809E+01 0.  1.
       -4    1    3    3    0  502 -0.90338082596E+03 -0.60231313946E+03 -0.19848827085E+03  0.11037559700E+04  0.12699999809E+01 0. -1.
</event>
<event>
 5   0  0.5849604E-05  0.2175785E+04  0.7818609E-02  0.8528575E-01
        1   -1    0    0  501    0  0.00000000000E+00  0.00000000000E+00  0.25066518070E+04  0.25066518070E+04  0.50400001928E-02 0. -1.
       -1   -1    0    0    0  501  0.00000000000E+00  0.00000000000E+00 -0.47214773724E+03  0.47214773727E+03  0.50400001928E-02 0.  1.
    10030    2    1    2    0    0  0.00000000000E+00  0.00000000000E+00  0.20345040698E+04  0.29787995443E+04  0.21757848963E+04 0.  0.
        2    1    3    3  502    0 -0.29385519729E+03  0.21992433498E+03  0.24193232864E+04  0.24470068971E+04  0.25500000920E-02 0. -1.
       -2    1    3    3    0  502  0.29385519729E+03 -0.21992433498E+03 -0.38481921667E+03  0.53179264720E+03  0.25500000920E-02 0.  1.
</event>
<event>
 5   0  0.1241430E-04  0.2273323E+04  0.7818609E-02  0.8488514E-01
        2   -1    0    0  501    0  0.00000000000E+00  0.00000000000E+00  0.16825714656E+04  0.16825714656E+04  0.25500000920E-02 0. -1.
       -2   -1    0    0    0  501  0.00000000000E+00  0.00000000000E+00 -0.76787216137E+03  0.76787216137E+03  0.25500000920E-02 0.  1.
    10030    2    1    2    0    0  0.00000000000E+00  0.00000000000E+00  0.91469930422E+03  0.24504436270E+04  0.22733233716E+04 0.  0.
        1    1    3    3  502    0  0.46165150692E+02  0.69494989142E+03 -0.51092132190E+03  0.86378653030E+03  0.50400001928E-02 0.  1.
       -1    1    3    3    0  502 -0.46165150692E+02 -0.69494989142E+03  0.14256206261E+04  0.15866570967E+04  0.50400001928E-02 0. -1.
</event>
<event>
 5   0  0.1226021E-04  0.1646279E+04  0.7818609E-02  0.8792611E-01
        2   -1    0    0  501    0  0.00000000000E+00  0.00000000000E+00  0.20447924258E+04  0.20447924258E+04  0.25500000920E-02 0. -1.
       -2   -1    0    0    0  501  0.00000000000E+00  0.00000000000E+00 -0.33135826809E+03  0.33135826810E+03  0.25500000920E-02 0.  1.
    10030    2    1    2    0    0  0.00000000000E+00  0.00000000000E+00  0.17134341577E+04  0.23761506939E+04  0.16462792920E+04 0.  0.
        2    1    3    3  502    0  0.30795044631E+03 -0.39308605889E+03 -0.87774810922E+02  0.50700546793E+03  0.25500000920E-02 0.  1.
       -2    1    3    3    0  502 -0.30795044631E+03  0.39308605889E+03  0.18012089686E+04  0.18691452259E+04  0.25500000920E-02 0. -1.
</event>
<event>
 5   0  0.1252124E-04  0.2206209E+04  0.7818609E-02  0.8515848E-01
        2   -1    0    0  501    0  0.00000000000E+00  0.00000000000E+00  0.18560448390E+04  0.18560448390E+04  0.25500000920E-02 0. -1.
       -2   -1    0    0    0  501  0.00000000000E+00  0.00000000000E+00 -0.65560897723E+03  0.65560897724E+03  0.25500000920E-02 0.  1.
    10030    2    1    2    0    0  0.00000000000E+00  0.00000000000E+00  0.12004358618E+04  0.25116538163E+04  0.22062091094E+04 0.  0.
        3    1    3    3  502    0  0.59607586697E+03  0.13762908350E+03 -0.44479491496E+03  0.75636679620E+03  0.10100000352E+00 0.  1.
       -3    1    3    3    0  502 -0.59607586697E+03 -0.13762908350E+03  0.16452307768E+04  0.17552870201E+04  0.10100000352E+00 0. -1.
</event>
<event>
 5   0  0.1404159E-04  0.2171830E+04  0.7818609E-02  0.8530245E-01
        2   -1    0    0  501    0  0.00000000000E+00  0.00000000000E+00  0.81628255188E+03  0.81628255188E+03  0.25500000920E-02 0. -1.
       -2   -1    0    0    0  501  0.00000000000E+00  0.00000000000E+00 -0.14446117192E+04  0.14446117192E+04  0.25500000920E-02 0.  1.
    10030    2    1    2    0    0  0.00000000000E+00  0.00000000000E+00 -0.62832916729E+03  0.22608942711E+04  0.21718299571E+04 0.  0.
        5    1    3    3  502    0  0.47574870601E+03  0.18432821809E+03 -0.13120548274E+04  0.14077725965E+04  0.46999998093E+01 0.  1.
       -5    1    3    3    0  502 -0.47574870601E+03 -0.18432821809E+03  0.68372566015E+03  0.85312167455E+03  0.46999998093E+01 0. -1.
</event>
<event>
 5   0  0.5895063E-05  0.2217072E+04  0.7818609E-02  0.8511356E-01
       -1   -1    0    0    0  501  0.00000000000E+00  0.00000000000E+00  0.68130094903E+03  0.68130094904E+03  0.50400001928E-02 0. -1.
        1   -1    0    0  501    0  0.00000000000E+00  0.00000000000E+00 -0.18036839323E+04  0.18036839323E+04  0.50400001928E-02 0.  1.
    10030    2    1    2    0    0  0.00000000000E+00  0.00000000000E+00 -0.11223829832E+04  0.24849848813E+04  0.22170715594E+04 0.  0.
        5    1    3    3  502    0 -0.61956651914E+03 -0.84886057925E+01  0.46906497100E+03  0.77716070737E+03  0.46999998093E+01 0. -1.
       -5    1    3    3    0  502  0.61956651914E+03  0.84886057925E+01 -0.15914479542E+04  0.17078241739E+04  0.46999998093E+01 0.  1.
</event>
<event>
 5   0  0.5849604E-05  0.2169071E+04  0.7818609E-02  0.8531413E-01
       -1   -1    0    0    0  501  0.00000000000E+00  0.00000000000E+00  0.51794290959E+03  0.51794290962E+03  0.50400001928E-02 0. -1.
        1   -1    0    0  501    0  0.00000000000E+00  0.00000000000E+00 -0.22709409437E+04  0.22709409437E+04  0.50400001928E-02 0.  1.
    10030    2    1    2    0    0  0.00000000000E+00  0.00000000000E+00 -0.17529980341E+04  0.27888838533E+04  0.21690714695E+04 0.  0.
        2    1    3    3  502    0  0.31699002315E+03 -0.50241344707E+02  0.45548527059E+03  0.55720166836E+03  0.25500000920E-02 0. -1.
       -2    1    3    3    0  502 -0.31699002315E+03  0.50241344707E+02 -0.22084833047E+04  0.22316821849E+04  0.25500000920E-02 0.  1.
</event>
<event>
 5   0  0.5895063E-05  0.2193397E+04  0.7818609E-02  0.8521181E-01
       -1   -1    0    0    0  501  0.00000000000E+00  0.00000000000E+00  0.11238191405E+04  0.11238191405E+04  0.50400001928E-02 0.  1.
        1   -1    0    0  501    0  0.00000000000E+00  0.00000000000E+00 -0.10702323893E+04  0.10702323893E+04  0.50400001928E-02 0. -1.
    10030    2    1    2    0    0  0.00000000000E+00  0.00000000000E+00  0.53586751250E+02  0.21940515298E+04  0.21933970401E+04 0.  0.
        5    1    3    3  502    0  0.34146868817E+03 -0.87438124506E+03 -0.54045795327E+03  0.10831714158E+04  0.46999998093E+01 0. -1.
       -5    1    3    3    0  502 -0.34146868817E+03  0.87438124506E+03  0.59404470452E+03  0.11108801140E+04  0.46999998093E+01 0.  1.
</event>
<event>
 5   0  0.1226021E-04  0.1591772E+04  0.7818609E-02  0.8825619E-01
        2   -1    0    0  501    0  0.00000000000E+00  0.00000000000E+00  0.65356055829E+03  0.65356055830E+03  0.25500000920E-02 0.  1.
       -2   -1    0    0    0  501  0.00000000000E+00  0.00000000000E+00 -0.96920603244E+03  0.96920603244E+03  0.25500000920E-02 0. -1.
    10030    2    1    2    0    0  0.00000000000E+00  0.00000000000E+00 -0.31564547415E+03  0.16227665907E+04  0.15917723903E+04 0.  0.
        2    1    3    3  502    0  0.70412150931E+03 -0.20604393780E+01 -0.53605008622E+03  0.88495256383E+03  0.25500000920E-02 0. -1.
       -2    1    3    3    0  502 -0.70412150931E+03  0.20604393780E+01  0.22040461207E+03  0.73781402691E+03  0.25500000920E-02 0.  1.
</event>
<event>
 5   0  0.1241430E-04  0.2200450E+04  0.7818609E-02  0.8518241E-01
       -2   -1    0    0    0  501  0.00000000000E+00  0.00000000000E+00  0.89139260594E+03  0.89139260595E+03  0.25500000920E-02 0. -1.
        2   -1    0    0  501    0  0.00000000000E+00  0.00000000000E+00 -0.13579817439E+04  0.13579817439E+04  0.25500000920E-02 0.  1.
    10030    2    1    2    0    0  0.00000000000E+00  0.00000000000E+00 -0.46658913799E+03  0.22493743499E+04  0.22004498500E+04 0.  0.
        1    1    3    3  502    0  0.46282583765E+03 -0.37074467569E+03 -0.11806332295E+04  0.13211942299E+04  0.50400001928E-02 0.  1.
       -1    1    3    3    0  502 -0.46282583765E+03  0.37074467569E+03  0.71404409148E+03  0.92818011999E+03  0.50400001928E-02 0. -1.
</event>
<event>
 5   0  0.1241430E-04  0.2169501E+04  0.7818609E-02  0.8531231E-01
        2   -1    0    0  501    0  0.00000000000E+00  0.00000000000E+00  0.14230975147E+04  0.14230975147E+04  0.25500000920E-02 0.  1.
       -2   -1    0    0    0  501  0.00000000000E+00  0.00000000000E+00 -0.82684673876E+03  0.82684673877E+03  0.25500000920E-02 0. -1.
    10030    2    1    2    0    0  0.00000000000E+00  0.00000000000E+00  0.59625077597E+03  0.22499442535E+04  0.21695009002E+04 0.  0.
        1    1    3    3  502    0 -0.22864203783E+03  0.10024356556E+04 -0.60423824518E+02  0.10299541076E+04  0.50400001928E-02 0.  1.
       -1    1    3    3    0  502  0.22864203783E+03 -0.10024356556E+04  0.65667460049E+03  0.12199901459E+04  0.50400001928E-02 0. -1.
</event>
<event>
 5   0  0.1252124E-04  0.2191166E+04  0.7818609E-02  0.8522114E-01
       -2   -1    0    0    0  501  0.00000000000E+00  0.00000000000E+00  0.17968214814E+04  0.17968214814E+04  0.25500000920E-02 0. -1.
        2   -1    0    0  501    0  0.00000000000E+00  0.00000000000E+00 -0.66801413459E+03  0.66801413459E+03  0.25500000920E-02 0.  1.
    10030    2    1    2    0    0  0.00000000000E+00  0.00000000000E+00  0.11288073468E+04  0.24648356160E+04  0.21911660338E+04 0.  0.
        3    1    3    3  502    0  0.69508055336E+03  0.25867711470E+03 -0.34269241047E+03  0.81699995331E+03  0.10100000352E+00 0.  1.
       -3    1    3    3    0  502 -0.69508055336E+03 -0.25867711470E+03  0.14714997573E+04  0.16478356627E+04  0.10100000352E+00 0. -1.
</event>
<event>
 5   0  0.5981239E-05  0.2093260E+04  0.7818609E-02  0.8564218E-01
       -1   -1    0    0    0  501  0.00000000000E+00  0.00000000000E+00  0.86843760701E+03  0.86843760703E+03  0.50400001928E-02 0.  1.
        1   -1    0    0  501    0  0.00000000000E+00  0.00000000000E+00 -0.12613849683E+04  0.12613849683E+04  0.50400001928E-02 0. -1.
    10030    2    1    2    0    0  0.00000000000E+00  0.00000000000E+00 -0.39294736124E+03  0.21298225753E+04  0.20932597960E+04 0.  0.
        4    1    3    3  502    0  0.89483458714E+03  0.23871719063E+03  0.29960555492E+03  0.97338581091E+03  0.12699999809E+01 0.  1.
       -4    1    3    3    0  502 -0.89483458714E+03 -0.23871719063E+03 -0.69255291616E+03  0.11564367644E+04  0.12699999809E+01 0. -1.
</event>
<event>
 5   0  0.1241430E-04  0.2191928E+04  0.7818609E-02  0.8521795E-01
       -2   -1    0    0    0  501  0.00000000000E+00  0.00000000000E+00  0.97924082646E+03  0.97924082647E+03  0.25500000920E-02 0. -1.
        2   -1    0    0  501    0  0.00000000000E+00  0.00000000000E+00 -0.12266006891E+04  0.12266006891E+04  0.25500000920E-02 0.  1.
    10030    2    1    2    0    0  0.00000000000E+00  0.00000000000E+00 -0.24735986261E+03  0.22058415155E+04  0.21919283497E+04 0.  0.
        1    1    3    3  502    0 -0.99072829517E+02  0.50900553985E+03  0.84797206982E+03  0.99396111411E+03  0.50400001928E-02 0. -1.
       -1    1    3    3    0  502  0.99072829517E+02 -0.50900553985E+03 -0.10953319324E+04  0.12118804014E+04  0.50400001928E-02 0.  1.
</event>
<event>
 5   0  0.5849604E-05  0.2232553E+04  0.7818609E-02  0.8505000E-01
       -1   -1    0    0    0  501  0.00000000000E+00  0.00000000000E+00  0.10487554375E+04  0.10487554375E+04  0.50400001928E-02 0. -1.
        1   -1    0    0  501    0  0.00000000000E+00  0.00000000000E+00 -0.11881442691E+04  0.11881442691E+04  0.50400001928E-02 0.  1.
    10030    2    1    2    0    0  0.00000000000E+00  0.00000000000E+00 -0.13938883161E+03  0.22368997066E+04  0.22325525864E+04 0.  0.
        2    1    3    3  502    0  0.12659572574E+03  0.94642592241E+03 -0.64902807311E+03  0.11545501046E+04  0.25500000920E-02 0.  1.
       -2    1    3    3    0  502 -0.12659572574E+03 -0.94642592241E+03  0.50963924150E+03  0.10823496020E+04  0.25500000920E-02 0. -1.
</event>
<event>
 5   0  0.1404159E-04  0.2192739E+04  0.7818609E-02  0.8521456E-01
       -2   -1    0    0    0  501  0.00000000000E+00  0.00000000000E+00  0.58235296771E+03  0.58235296771E+03  0.25500000920E-02 0. -1.
        2   -1    0    0  501    0  0.00000000000E+00  0.00000000000E+00 -0.20640859874E+04  0.20640859874E+04  0.25500000920E-02 0.  1.
    10030    2    1    2    0    0  0.00000000000E+00  0.00000000000E+00 -0.14817330197E+04  0.26464389552E+04  0.21927394742E+04 0.  0.
        5    1    3    3  502    0  0.70285452325E+03  0.16088361327E+03 -0.17376575391E+04  0.18813197047E+04  0.46999998093E+01 0.  1.
       -5    1    3    3    0  502 -0.70285452325E+03 -0.16088361327E+03  0.25592451939E+03  0.76511925050E+03  0.46999998093E+01 0. -1.
</event>
<event>
 5   0  0.1252124E-04  0.2159214E+04  0.7818609E-02  0.8535599E-01
       -2   -1    0    0    0  501  0.00000000000E+00  0.00000000000E+00  0.81181605364E+03  0.81181605364E+03  0.25500000920E-02 0.  1.
        2   -1    0    0  501    0  0.00000000000E+00  0.00000000000E+00 -0.14357327444E+04  0.14357327444E+04  0.25500000920E-02 0. -1.
    10030    2    1    2    0    0  0.00000000000E+00  0.00000000000E+00 -0.62391669074E+03  0.22475487980E+04  0.21592136445E+04 0.  0.
        3    1    3    3  502    0  0.85489038180E+02 -0.40836083025E+03 -0.13484274359E+04  0.14114969017E+04  0.10100000352E+00 0. -1.
       -3    1    3    3    0  502 -0.85489038180E+02  0.40836083025E+03  0.72451074517E+03  0.83605189635E+03  0.10100000352E+00 0.  1.
</event>
<event>
 5   0  0.5849604E-05  0.2194596E+04  0.7818609E-02  0.8520681E-01
        1   -1    0    0  501    0  0.00000000000E+00  0.00000000000E+00  0.70372230297E+03  0.70372230298E+03  0.50400001928E-02 0. -1.
       -1   -1    0    0    0  501  0.00000000000E+00  0.00000000000E+00 -0.17109911566E+04  0.17109911566E+04  0.50400001928E-02 0.  1.
    10030    2    1    2    0    0  0.00000000000E+00  0.00000000000E+00 -0.10072688536E+04  0.24147134596E+04  0.21945957597E+04 0.  0.
        2    1    3    3  502    0 -0.13755758609E+03 -0.63390238788E+03  0.47018275790E+03  0.80114053242E+03  0.25500000920E-02 0. -1.
       -2    1    3    3    0  502  0.13755758609E+03  0.63390238788E+03 -0.14774516115E+04  0.16135729271E+04  0.25500000920E-02 0.  1.
</event>
<event>
 5   0  0.5849604E-05  0.2221604E+04  0.7818609E-02  0.8509489E-01
        1   -1    0    0  501    0  0.00000000000E+00  0.00000000000E+00  0.12643738601E+04  0.12643738601E+04  0.50400001928E-02 0. -1.
       -1   -1    0    0    0  501  0.00000000000E+00  0.00000000000E+00 -0.97588325770E+03  0.97588325771E+03  0.50400001928E-02 0.  1.
    10030    2    1    2    0    0  0.00000000000E+00  0.00000000000E+00  0.28849060244E+03  0.22402571179E+04  0.22216041786E+04 0.  0.
        2    1    3    3  502    0 -0.33637959206E+03 -0.43629310588E+03 -0.82841454282E+03  0.99487363969E+03  0.25500000920E-02 0.  1.
       -2    1    3    3    0  502  0.33637959206E+03  0.43629310588E+03  0.11169051453E+04  0.12453834782E+04  0.25500000920E-02 0. -1.
</event>
<event>
 5   0  0.5895063E-05  0.2198405E+04  0.7818609E-02  0.8519092E-01
       -1   -1    0    0    0  501  0.00000000000E+00  0.00000000000E+00  0.15884909547E+04  0.15884909547E+04  0.50400001928E-02 0. -1.
        1   -1    0    0  501    0  0.00000000000E+00  0.00000000000E+00 -0.76062494480E+03  0.76062494481E+03  0.50400001928E-02 0.  1.
    10030    2    1    2    0    0  0.00000000000E+00  0.00000000000E+00  0.82786600986E+03  0.23491158995E+04  0.21984047350E+04 0.  0.
        5    1    3    3  502    0  0.24492554865E+02 -0.10344168722E+04  0.17550156704E+02  0.10348662951E+04  0.46999998093E+01 0.  1.
       -5    1    3    3    0  502 -0.24492554865E+02  0.10344168722E+04  0.81031585316E+03  0.13142496044E+04  0.46999998093E+01 0. -1.
</event>
<event>
 5   0  0.1226021E-04  0.2213519E+04  0.7818609E-02  0.8512822E-01
        2   -1    0    0  501    0  0.00000000000E+00  0.00000000000E+00  0.96185899359E+03  0.96185899359E+03  0.25500000920E-02 0.  1.
       -2   -1    0    0    0  501  0.00000000000E+00  0.00000000000E+00 -0.12734886942E+04  0.12734886942E+04  0.25500000920E-02 0. -1.
    10030    2    1    2    0    0  0.00000000000E+00  0.00000000000E+00 -0.31162970063E+03  0.22353476878E+04  0.22135189665E+04 0.  0.
        2    1    3    3  502    0  0.13477685583E+03  0.28394937463E+02 -0.12647998524E+04  0.12722773832E+04  0.25500000920E-02 0. -1.
       -2    1    3    3    0  502 -0.13477685583E+03 -0.28394937463E+02  0.95317015175E+03  0.96307030457E+03  0.25500000920E-02 0.  1.
</event>
<event>
 5   0  0.1226021E-04  0.2179563E+04  0.7818609E-02  0.8526983E-01
       -2   -1    0    0    0  501  0.00000000000E+00  0.00000000000E+00  0.60478471382E+03  0.60478471382E+03  0.25500000920E-02 0.  1.
        2   -1    0    0  501    0  0.00000000000E+00  0.00000000000E+00 -0.19637125400E+04  0.19637125400E+04  0.25500000920E-02 0. -1.
    10030    2    1    2    0    0  0.00000000000E+00  0.00000000000E+00 -0.13589278262E+04  0.25684972538E+04  0.21795626410E+04 0.  0.
        2    1    3    3  502    0  0.85043083282E+03 -0.55111215604E+02 -0.14798999821E+04  0.17077393843E+04  0.25500000920E-02 0. -1.
       -2    1    3    3    0  502 -0.85043083282E+03  0.55111215604E+02  0.12097215594E+03  0.86075786956E+03  0.25500000920E-02 0.  1.
</event>
<event>
 5   0  0.6263558E-05  0.2191156E+04  0.7818609E-02  0.8522118E-01
        1   -1    0    0  501    0  0.00000000000E+00  0.00000000000E+00  0.21241695331E+04  0.21241695331E+04  0.50400001928E-02 0. -1.
       -1   -1    0    0    0  501  0.00000000000E+00  0.00000000000E+00 -0.56506377375E+03  0.56506377377E+03  0.50400001928E-02 0.  1.
    10030    2    1    2    0    0  0.00000000000E+00  0.00000000000E+00  0.15591057593E+04  0.26892333068E+04  0.21911560898E+04 0.  0.
        3    1    3    3  502    0 -0.86939698036E+03 -0.66067259498E+03  0.67010952587E+03  0.12811659432E+04  0.10100000352E+00 0. -1.
       -3    1    3    3    0  502  0.86939698036E+03  0.66067259498E+03  0.88899623344E+03  0.14080673636E+04  0.10100000352E+00 0.  1.
</event>
<event>
 5   0  0.1311472E-04  0.2225323E+04  0.7818609E-02  0.8507962E-01
       -2   -1    0    0    0  501  0.00000000000E+00  0.00000000000E+00  0.85044962810E+03  0.85044962811E+03  0.25500000920E-02 0. -1.
        2   -1    0    0  501    0  0.00000000000E+00  0.00000000000E+00 -0.14557186107E+04  0.14557186107E+04  0.25500000920E-02 0.  1.
    10030    2    1    2    0    0  0.00000000000E+00  0.00000000000E+00 -0.60526898259E+03  0.23061682388E+04  0.22253227641E+04 0.  0.
        4    1    3    3  502    0 -0.13684067161E+03 -0.55208971371E+03  0.68839446573E+03  0.89298206854E+03  0.12699999809E+01 0. -1.
       -4    1    3    3    0  502  0.13684067161E+03  0.55208971371E+03 -0.12936634483E+04  0.14131861703E+04  0.12699999809E+01 0.  1.
</event>
<event>
 5   0  0.5861816E-05  0.2214648E+04  0.7818609E-02  0.8512356E-01
       -1   -1    0    0    0  501  0.00000000000E+00  0.00000000000E+00  0.79056096734E+03  0.79056096736E+03  0.50400001928E-02 0. -1.
        1   -1    0    0  501    0  0.00000000000E+00  0.00000000000E+00 -0.15510080463E+04  0.15510080463E+04  0.50400001928E-02 0.  1.
    10030    2    1    2    0    0  0.00000000000E+00  0.00000000000E+00 -0.76044707898E+03  0.23415690137E+04  0.22146479824E+04 0.  0.
        1    1    3    3  502    0 -0.53910104306E+03 -0.82912951549E+03  0.14639819101E+03  0.99975903019E+03  0.50400001928E-02 0. -1.
       -1    1    3    3    0  502  0.53910104306E+03  0.82912951549E+03 -0.90684526999E+03  0.13418099835E+04  0.50400001928E-02 0.  1.
</event>
<event>
 5   0  0.1226021E-04  0.2173014E+04  0.7818609E-02  0.8529745E-01
        2   -1    0    0  501    0  0.00000000000E+00  0.00000000000E+00  0.23795870319E+04  0.23795870319E+04  0.25500000920E-02 0. -1.
       -2   -1    0    0    0  501  0.00000000000E+00  0.00000000000E+00 -0.49609340393E+03  0.49609340394E+03  0.25500000920E-02 0.  1.
    10030    2    1    2    0    0  0.00000000000E+00  0.00000000000E+00  0.18834936279E+04  0.28756804358E+04  0.21730139720E+04 0.  0.
        2    1    3    3  502    0  0.75128107215E+03 -0.29078807759E+03 -0.23051352343E+02  0.80592327196E+03  0.25500000920E-02 0.  1.
       -2    1    3    3    0  502 -0.75128107215E+03  0.29078807759E+03  0.19065449803E+04  0.20697571638E+04  0.25500000920E-02 0. -1.
</event>
<event>
 5   0  0.6263558E-05  0.1966800E+04  0.7818609E-02  0.8622302E-01
       -1   -1    0    0    0  501  0.00000000000E+00  0.00000000000E+00  0.74809076030E+03  0.74809076032E+03  0.50400001928E-02 0.  1.
        1   -1    0    0  501    0  0.00000000000E+00  0.00000000000E+00 -0.12927249261E+04  0.12927249261E+04  0.50400001928E-02 0. -1.
    10030    2    1    2    0    0  0.00000000000E+00  0.00000000000E+00 -0.54463416581E+03  0.20408156864E+04  0.19668000131E+04 0.  0.
        3    1    3    3  502    0  0.93374048527E+03 -0.29758018220E+03 -0.35693538951E+03  0.10429900005E+04  0.10100000352E+00 0. -1.
       -3    1    3    3    0  502 -0.93374048527E+03  0.29758018220E+03 -0.18769877630E+03  0.99782568593E+03  0.10100000352E+00 0.  1.
</event>
<event>
 5   0  0.1241430E-04  0.2205805E+04  0.7818609E-02  0.8516016E-01
        2   -1    0    0  501    0  0.00000000000E+00  0.00000000000E+00  0.19395788748E+04  0.19395788748E+04  0.25500000920E-02 0. -1.
       -2   -1    0    0    0  501  0.00000000000E+00  0.00000000000E+00 -0.62714308727E+03  0.62714308728E+03  0.25500000920E-02 0.  1.
    10030    2    1    2    0    0  0.00000000000E+00  0.00000000000E+00  0.13124357875E+04  0.25667219621E+04  0.22058046002E+04 0.  0.
        1    1    3    3  502    0  0.23860547164E+01 -0.10316058411E+04  0.20229033219E+03  0.10512552892E+04  0.50400001928E-02 0.  1.
       -1    1    3    3    0  502 -0.23860547164E+01  0.10316058411E+04  0.11101454553E+04  0.15154666729E+04  0.50400001928E-02 0. -1.
</event>
<event>
 5   0  0.1404159E-04  0.2222710E+04  0.7818609E-02  0.8509035E-01
       -2   -1    0    0    0  501  0.00000000000E+00  0.00000000000E+00  0.10203496609E+04  0.10203496609E+04  0.25500000920E-02 0. -1.
        2   -1    0    0  501    0  0.00000000000E+00  0.00000000000E+00 -0.12104773186E+04  0.12104773186E+04  0.25500000920E-02 0.  1.
    10030    2    1    2    0    0  0.00000000000E+00  0.00000000000E+00 -0.19012765770E+03  0.22308269794E+04  0.22227101669E+04 0.  0.
        5    1    3    3  502    0  0.48921498254E+03  0.47955465563E+03 -0.97335034343E+03  0.11902675951E+04  0.46999998093E+01 0.  1.
       -5    1    3    3    0  502 -0.48921498254E+03 -0.47955465563E+03  0.78322268573E+03  0.10405593843E+04  0.46999998093E+01 0. -1.
</event>
<event>
 5   0  0.5861816E-05  0.2248830E+04  0.7818609E-02  0.8498374E-01
       -1   -1    0    0    0  501  0.00000000000E+00  0.00000000000E+00  0.71337749681E+03  0.71337749683E+03  0.50400001928E-02 0.  1.
        1   -1    0    0  501    0  0.00000000000E+00  0.00000000000E+00 -0.17722865370E+04  0.17722865370E+04  0.50400001928E-02 0. -1.
    10030    2    1    2    0    0  0.00000000000E+00  0.00000000000E+00 -0.10589090402E+04  0.24856640338E+04  0.22488302145E+04 0.  0.
        1    1    3    3  502    0 -0.55859681967E+03  0.25016690636E+03 -0.15720274498E+04  0.16869748638E+04  0.50400001928E-02 0. -1.
       -1    1    3    3    0  502  0.55859681967E+03 -0.25016690636E+03  0.51311840965E+03  0.79868917004E+03  0.50400001928E-02 0.  1.
</event>
<event>
 5   0  0.5981239E-05  0.2145156E+04  0.7818609E-02  0.8541609E-01
        1   -1    0    0  501    0  0.00000000000E+00  0.00000000000E+00  0.18266652949E+04  0.18266652949E+04  0.50400001928E-02 0. -1.
       -1   -1    0    0    0  501  0.00000000000E+00  0.00000000000E+00 -0.62979443406E+03  0.62979443408E+03  0.50400001928E-02 0.  1.
    10030    2    1    2    0    0  0.00000000000E+00  0.00000000000E+00  0.11968708609E+04  0.24564597290E+04  0.21451560649E+04 0.  0.
        4    1    3    3  502    0 -0.66768558625E+03  0.60647203073E+03 -0.66138073819E+02  0.90442701411E+03  0.12699999809E+01 0.  1.
       -4    1    3    3    0  502  0.66768558625E+03 -0.60647203073E+03  0.12630089347E+04  0.15520327149E+04  0.12699999809E+01 0. -1.
</event>
<event>
 5   0  0.5981239E-05  0.2166333E+04  0.7818609E-02  0.8532573E-01
       -1   -1    0    0    0  501  0.00000000000E+00  0.00000000000E+00  0.83314510486E+03  0.83314510488E+03  0.50400001928E-02 0.  1.
        1   -1    0    0  501    0  0.00000000000E+00  0.00000000000E+00 -0.14082177776E+04  0.14082177776E+04  0.50400001928E-02 0. -1.
    10030    2    1    2    0    0  0.00000000000E+00  0.00000000000E+00 -0.57507267273E+03  0.22413628825E+04  0.21663330750E+04 0.  0.
        4    1    3    3  502    0 -0.64786765418E+02  0.96231731361E+03 -0.79755572285E+03  0.12515385256E+04  0.12699999809E+01 0. -1.
       -4    1    3    3    0  502  0.64786765418E+02 -0.96231731361E+03  0.22248305011E+03  0.98982435691E+03  0.12699999809E+01 0.  1.
</event>
<event>
 5   0  0.1226021E-04  0.2209384E+04  0.7818609E-02  0.8514532E-01
        2   -1    0    0  501    0  0.00000000000E+00  0.00000000000E+00  0.18206976744E+04  0.18206976744E+04  0.25500000920E-02 0.  1.
       -2   -1    0    0    0  501  0.00000000000E+00  0.00000000000E+00 -0.67026210417E+03  0.67026210417E+03  0.25500000920E-02 0. -1.
    10030    2    1    2    0    0  0.00000000000E+00  0.00000000000E+00  0.11504355702E+04  0.24909597786E+04  0.22093842168E+04 0.  0.
        2    1    3    3  502    0  0.80255843687E+03  0.75137686386E+03  0.45338367807E+03  0.11892115017E+04  0.25500000920E-02 0. -1.
       -2    1    3    3    0  502 -0.80255843687E+03 -0.75137686386E+03  0.69705189218E+03  0.13017482769E+04  0.25500000920E-02 0.  1.
</event>
<event>
 5   0  0.1226021E-04  0.2196121E+04  0.7818609E-02  0.8520044E-01
        2   -1    0    0  501    0  0.00000000000E+00  0.00000000000E+00  0.91238650276E+03  0.91238650277E+03  0.25500000920E-02 0.  1.
       -2   -1    0    0    0  501  0.00000000000E+00  0.00000000000E+00 -0.13215200348E+04  0.13215200348E+04  0.25500000920E-02 0. -1.
    10030    2    1    2    0    0  0.00000000000E+00  0.00000000000E+00 -0.40913353206E+03  0.22339065376E+04  0.21961211651E+04 0.  0.
        2    1    3    3  502    0 -0.40881190909E+03  0.65716598488E+03  0.58777216242E+03  0.97183868189E+03  0.25500000920E-02 0.  1.
       -2    1    3    3    0  502  0.40881190909E+03 -0.65716598488E+03 -0.99690569448E+03  0.12620678557E+04  0.25500000920E-02 0. -1.
</event>
<event>
 5   0  0.1311472E-04  0.2171003E+04  0.7818609E-02  0.8530595E-01
        2   -1    0    0  501    0  0.00000000000E+00  0.00000000000E+00  0.15830344381E+04  0.15830344381E+04  0.25500000920E-02 0.  1.
       -2   -1    0    0    0  501  0.00000000000E+00  0.00000000000E+00 -0.74433820875E+03  0.74433820875E+03  0.25500000920E-02 0. -1.
    10030    2    1    2    0    0  0.00000000000E+00  0.00000000000E+00  0.83869622939E+03  0.23273726469E+04  0.21710025501E+04 0.  0.
        4    1    3    3  502    0  0.53383531431E+03 -0.38388463826E+03 -0.50655273410E+03  0.83002701379E+03  0.12699999809E+01 0. -1.
       -4    1    3    3    0  502 -0.53383531431E+03  0.38388463826E+03  0.13452489635E+04  0.14973456331E+04  0.12699999809E+01 0.  1.
</event>
<event>
 5   0  0.1404159E-04  0.2231197E+04  0.7818609E-02  0.8505554E-01
       -2   -1    0    0    0  501  0.00000000000E+00  0.00000000000E+00  0.12251885421E+04  0.12251885421E+04  0.25500000920E-02 0. -1.
        2   -1    0    0  501    0  0.00000000000E+00  0.00000000000E+00 -0.10158107021E+04  0.10158107021E+04  0.25500000920E-02 0.  1.
    10030    2    1    2    0    0  0.00000000000E+00  0.00000000000E+00  0.20937784000E+03  0.22409992442E+04  0.22311966593E+04 0.  0.
        5    1    3    3  502    0 -0.99578202647E+03  0.30585116191E+03  0.50570582695E+03  0.11579668609E+04  0.46999998093E+01 0. -1.
       -5    1    3    3    0  502  0.99578202647E+03 -0.30585116191E+03 -0.29632798695E+03  0.10830323833E+04  0.46999998093E+01 0.  1.
</event>
<event>
 5   0  0.1226021E-04  0.2209689E+04  0.7818609E-02  0.8514406E-01
       -2   -1    0    0    0  501  0.00000000000E+00  0.00000000000E+00  0.97090072927E+03  0.97090072927E+03  0.25500000920E-02 0. -1.
        2   -1    0    0  501    0  0.00000000000E+00  0.00000000000E+00 -0.12572668148E+04  0.12572668148E+04  0.25500000920E-02 0.  1.
    10030    2    1    2    0    0  0.00000000000E+00  0.00000000000E+00 -0.28636608553E+03  0.22281675441E+04  0.22096889079E+04 0.  0.
        2    1    3    3  502    0  0.77708145693E+02  0.72305655336E+03 -0.98190306347E+03  0.12218768192E+04  0.25500000920E-02 0.  1.
       -2    1    3    3    0  502 -0.77708145693E+02 -0.72305655336E+03  0.69553697794E+03  0.10062907249E+04  0.25500000920E-02 0. -1.
</event>
<event>
 5   0  0.1241430E-04  0.1560282E+04  0.7818609E-02  0.8845327E-01
        2   -1    0    0  501    0  0.00000000000E+00  0.00000000000E+00  0.88379156768E+03  0.88379156768E+03  0.25500000920E-02 0.  1.
       -2   -1    0    0    0  501  0.00000000000E+00  0.00000000000E+00 -0.68864650512E+03  0.68864650513E+03  0.25500000920E-02 0. -1.
    10030    2    1    2    0    0  0.00000000000E+00  0.00000000000E+00  0.19514506256E+03  0.15724380728E+04  0.15602819929E+04 0.  0.
        1    1    3    3  502    0 -0.69189668047E+02  0.25713060807E+03 -0.64143213752E+03  0.69450597322E+03  0.50400001928E-02 0. -1.
       -1    1    3    3    0  502  0.69189668047E+02 -0.25713060807E+03  0.83657720008E+03  0.87793209959E+03  0.50400001928E-02 0.  1.
</event>
<event>
 5   0  0.1311472E-04  0.2188268E+04  0.7818609E-02  0.8523327E-01
       -2   -1    0    0    0  501  0.00000000000E+00  0.00000000000E+00  0.73079696358E+03  0.73079696358E+03  0.25500000920E-02 0. -1.
        2   -1    0    0  501    0  0.00000000000E+00  0.00000000000E+00 -0.16381151092E+04  0.16381151092E+04  0.25500000920E-02 0.  1.
    10030    2    1    2    0    0  0.00000000000E+00  0.00000000000E+00 -0.90731814566E+03  0.23689120728E+04  0.21882683088E+04 0.  0.
        4    1    3    3  502    0  0.10860434765E+04  0.11500638518E+03 -0.38176078529E+03  0.11569182389E+04  0.12699999809E+01 0. -1.
       -4    1    3    3    0  502 -0.10860434765E+04 -0.11500638518E+03 -0.52555736037E+03  0.12119938339E+04  0.12699999809E+01 0.  1.
</event>
<event>
 5   0  0.1311472E-04  0.2218649E+04  0.7818609E-02  0.8510706E-01
       -2   -1    0    0    0  501  0.00000000000E+00  0.00000000000E+00  0.14296119458E+04  0.14296119458E+04  0.25500000920E-02 0.  1.
        2   -1    0    0  501    0  0.00000000000E+00  0.00000000000E+00 -0.86079337114E+03  0.86079337114E+03  0.25500000920E-02 0. -1.
    10030    2    1    2    0    0  0.00000000000E+00  0.00000000000E+00  0.56881857463E+03  0.22904053169E+04  0.22186486754E+04 0.  0.
        4    1    3    3  502    0 -0.98550938378E+03  0.11865671240E+03  0.79569582598E+03  0.12721798699E+04  0.12699999809E+01 0. -1.
       -4    1    3    3    0  502  0.98550938378E+03 -0.11865671240E+03 -0.22687725135E+03  0.10182254470E+04  0.12699999809E+01 0.  1.
</event>
<event>
 5   0  0.1404159E-04  0.2199003E+04  0.7818609E-02  0.8518843E-01
        2   -1    0    0  501    0  0.00000000000E+00  0.00000000000E+00  0.91275042455E+03  0.91275042456E+03  0.25500000920E-02 0.  1.
       -2   -1    0    0    0  501  0.00000000000E+00  0.00000000000E+00 -0.13244621060E+04  0.13244621060E+04  0.25500000920E-02 0. -1.
    10030    2    1    2    0    0  0.00000000000E+00  0.00000000000E+00 -0.41171168145E+03  0.22372125306E+04  0.21990028191E+04 0.  0.
        5    1    3    3  502    0 -0.68673107182E+03  0.26194385451E+03 -0.10377851759E+04  0.12717052761E+04  0.46999998093E+01 0. -1.
       -5    1    3    3    0  502  0.68673107182E+03 -0.26194385451E+03  0.62607349448E+03  0.96550725445E+03  0.46999998093E+01 0.  1.
</event>
<event>
 5   0  0.5849604E-05  0.2187749E+04  0.7818609E-02  0.8523544E-01
        1   -1    0    0  501    0  0.00000000000E+00  0.00000000000E+00  0.16125532175E+04  0.16125532176E+04  0.50400001928E-02 0. -1.
       -1   -1    0    0    0  501  0.00000000000E+00  0.00000000000E+00 -0.74202938512E+03  0.74202938514E+03  0.50400001928E-02 0.  1.
    10030    2    1    2    0    0  0.00000000000E+00  0.00000000000E+00  0.87052383242E+03  0.23545826027E+04  0.21877494121E+04 0.  0.
        2    1    3    3  502    0 -0.94232344795E+03  0.37869613668E+03 -0.21513672546E+01  0.10155731746E+04  0.25500000920E-02 0. -1.
       -2    1    3    3    0  502  0.94232344795E+03 -0.37869613668E+03  0.87267519968E+03  0.13390094281E+04  0.25500000920E-02 0.  1.
</event>
<event>
 5   0  0.1404159E-04  0.2163266E+04  0.7818609E-02  0.8533875E-01
        2   -1    0    0  501    0  0.00000000000E+00  0.00000000000E+00  0.19711553039E+04  0.19711553039E+04  0.25500000920E-02 0.  1.
       -2   -1    0    0    0  501  0.00000000000E+00  0.00000000000E+00 -0.59352485814E+03  0.59352485815E+03  0.25500000920E-02 0. -1.
    10030    2    1    2    0    0  0.00000000000E+00  0.00000000000E+00  0.13776304457E+04  0.25646801620E+04  0.21632657461E+04 0.  0.
        5    1    3    3  502    0  0.59443184920E+03  0.57504675037E+03 -0.13757975406E+03  0.83843799245E+03  0.46999998093E+01 0. -1.
       -5    1    3    3    0  502 -0.59443184920E+03 -0.57504675037E+03  0.15152101998E+04  0.17262421696E+04  0.46999998093E+01 0.  1.
</event>
<event>
 5   0  0.1252124E-04  0.2224783E+04  0.7818609E-02  0.8508183E-01
       -2   -1    0    0    0  501  0.00000000000E+00  0.00000000000E+00  0.18236981908E+04  0.18236981908E+04  0.25500000920E-02 0. -1.
        2   -1    0    0  501    0  0.00000000000E+00  0.00000000000E+00 -0.67851959928E+03  0.67851959929E+03  0.25500000920E-02 0.  1.
    10030    2    1    2    0    0  0.00000000000E+00  0.00000000000E+00  0.11451785915E+04  0.25022177901E+04  0.22247831046E+04 0.  0.
        3    1    3    3  502    0 -0.40393984569E+03  0.76560547241E+02  0.17351122367E+04  0.17831554616E+04  0.10100000352E+00 0. -1.
       -3    1    3    3    0  502  0.40393984569E+03 -0.76560547241E+02 -0.58993364515E+03  0.71906232846E+03  0.10100000352E+00 0.  1.
</event>
<event>
 5   0  0.1404159E-04  0.2130264E+04  0.7818609E-02  0.8548028E-01
       -2   -1    0    0    0  501  0.00000000000E+00  0.00000000000E+00  0.10182173374E+04  0.10182173374E+04  0.25500000920E-02 0. -1.
        2   -1    0    0  501    0  0.00000000000E+00  0.00000000000E+00 -0.11142080276E+04  0.11142080276E+04  0.25500000920E-02 0.  1.
    10030    2    1    2    0    0  0.00000000000E+00  0.00000000000E+00 -0.95990690239E+02  0.21324253650E+04  0.21302637688E+04 0.  0.
        5    1    3    3  502    0  0.58691075129E+03  0.39150827820E+03 -0.84676549186E+03  0.11021691567E+04  0.46999998093E+01 0.  1.
       -5    1    3    3    0  502 -0.58691075129E+03 -0.39150827820E+03  0.75077480162E+03  0.10302562082E+04  0.46999998093E+01 0. -1.
</event>
<event>
 5   0  0.5861816E-05  0.2178707E+04  0.7818609E-02  0.8527343E-01
        1   -1    0    0  501    0  0.00000000000E+00  0.00000000000E+00  0.88834233749E+03  0.88834233751E+03  0.50400001928E-02 0.  1.
       -1   -1    0    0    0  501  0.00000000000E+00  0.00000000000E+00 -0.13358486884E+04  0.13358486884E+04  0.50400001928E-02 0. -1.
    10030    2    1    2    0    0  0.00000000000E+00  0.00000000000E+00 -0.44750635089E+03  0.22241910259E+04  0.21787069068E+04 0.  0.
        1    1    3    3  502    0 -0.42417451491E+03  0.79174549931E+03 -0.85298596451E+03  0.12386969002E+04  0.50400001928E-02 0.  1.
       -1    1    3    3    0  502  0.42417451491E+03 -0.79174549931E+03  0.40547961362E+03  0.98549412574E+03  0.50400001928E-02 0. -1.
</event>
<event>
 5   0  0.5895063E-05  0.1747343E+04  0.7818609E-02  0.8734814E-01
       -1   -1    0    0    0  501  0.00000000000E+00  0.00000000000E+00  0.56705400517E+03  0.56705400519E+03  0.50400001928E-02 0. -1.
        1   -1    0    0  501    0  0.00000000000E+00  0.00000000000E+00 -0.13460825711E+04  0.13460825712E+04  0.50400001928E-02 0.  1.
    10030    2    1    2    0    0  0.00000000000E+00  0.00000000000E+00 -0.77902856597E+03  0.19131365763E+04  0.17473425689E+04 0.  0.
        5    1    3    3  502    0 -0.69706018634E+03  0.21613865700E+03 -0.91536690160E+03  0.11706952964E+04  0.46999998093E+01 0.  1.
       -5    1    3    3    0  502  0.69706018634E+03 -0.21613865700E+03  0.13633833563E+03  0.74244127996E+03  0.46999998093E+01 0. -1.
</event>
<event>
 5   0  0.5895063E-05  0.1976381E+04  0.7818609E-02  0.8617744E-01
        1   -1    0    0  501    0  0.00000000000E+00  0.00000000000E+00  0.86271050980E+03  0.86271050981E+03  0.50400001928E-02 0.  1.
       -1   -1    0    0    0  501  0.00000000000E+00  0.00000000000E+00 -0.11319208474E+04  0.11319208474E+04  0.50400001928E-02 0. -1.
    10030    2    1    2    0    0  0.00000000000E+00  0.00000000000E+00 -0.26921033757E+03  0.19946313572E+04  0.19763805416E+04 0.  0.
        5    1    3    3  502    0  0.80958329434E+03  0.32729494133E+03  0.33221441050E+03  0.93431022344E+03  0.46999998093E+01 0.  1.
       -5    1    3    3    0  502 -0.80958329434E+03 -0.32729494133E+03 -0.60142474807E+03  0.10603211338E+04  0.46999998093E+01 0. -1.
</event>
<event>
 5   0  0.1241430E-04  0.2246100E+04  0.7818609E-02  0.8499482E-01
       -2   -1    0    0    0  501  0.00000000000E+00  0.00000000000E+00  0.68614664756E+03  0.68614664756E+03  0.25500000920E-02 0.  1.
        2   -1    0    0  501    0  0.00000000000E+00  0.00000000000E+00 -0.18381510195E+04  0.18381510195E+04  0.25500000920E-02 0. -1.
    10030    2    1    2    0    0  0.00000000000E+00  0.00000000000E+00 -0.11520043720E+04  0.25242976671E+04  0.22460998729E+04 0.  0.
        1    1    3    3  502    0 -0.99985521768E+03  0.27999800088E+03 -0.10569449687E+04  0.14816349091E+04  0.50400001928E-02 0. -1.
       -1    1    3    3    0  502  0.99985521768E+03 -0.27999800088E+03 -0.95059403243E+02  0.10426627580E+04  0.50400001928E-02 0.  1.
</event>
<event>
 5   0  0.1241430E-04  0.2208145E+04  0.7818609E-02  0.8515046E-01
        2   -1    0    0  501    0  0.00000000000E+00  0.00000000000E+00  0.10058181354E+04  0.10058181354E+04  0.25500000920E-02 0.  1.
       -2   -1    0    0    0  501  0.00000000000E+00  0.00000000000E+00 -0.12119244615E+04  0.12119244615E+04  0.25500000920E-02 0. -1.
    10030    2    1    2    0    0  0.00000000000E+00  0.00000000000E+00 -0.20610632618E+03  0.22177425969E+04  0.22081445624E+04 0.  0.
        1    1    3    3  502    0  0.46538181764E+03  0.93041458184E+03 -0.47442257312E+03  0.11433845846E+04  0.50400001928E-02 0.  1.
       -1    1    3    3    0  502 -0.46538181764E+03 -0.93041458184E+03  0.26831624695E+03  0.10743580123E+04  0.50400001928E-02 0. -1.
</event>
<event>
 5   0  0.5981239E-05  0.2194004E+04  0.7818609E-02  0.8520928E-01
        1   -1    0    0  501    0  0.00000000000E+00  0.00000000000E+00  0.11387376267E+04  0.11387376267E+04  0.50400001928E-02 0.  1.
       -1   -1    0    0    0  501  0.00000000000E+00  0.00000000000E+00 -0.10567957161E+04  0.10567957161E+04  0.50400001928E-02 0. -1.
    10030    2    1    2    0    0  0.00000000000E+00  0.00000000000E+00  0.81941910644E+02  0.21955333428E+04  0.21940036880E+04 0.  0.
        4    1    3    3  502    0 -0.17356537694E+03 -0.12467940035E+03 -0.10357632053E+04  0.10575806935E+04  0.12699999809E+01 0. -1.
       -4    1    3    3    0  502  0.17356537694E+03  0.12467940035E+03  0.11177051159E+04  0.11379526493E+04  0.12699999809E+01 0.  1.
</event>
<event>
 5   0  0.1226021E-04  0.2130104E+04  0.7818609E-02  0.8548097E-01
        2   -1    0    0  501    0  0.00000000000E+00  0.00000000000E+00  0.12009385923E+04  0.12009385923E+04  0.25500000920E-02 0.  1.
       -2   -1    0    0    0  501  0.00000000000E+00  0.00000000000E+00 -0.94454059564E+03  0.94454059565E+03  0.25500000920E-02 0. -1.
    10030    2    1    2    0    0  0.00000000000E+00  0.00000000000E+00  0.25639799667E+03  0.21454791880E+04  0.21301035217E+04 0.  0.
        2    1    3    3  502    0 -0.68130695898E+03  0.39079604626E+03 -0.59632253862E+03  0.98615480133E+03  0.25500000920E-02 0. -1.
       -2    1    3    3    0  502  0.68130695898E+03 -0.39079604626E+03  0.85272053529E+03  0.11593243866E+04  0.25500000920E-02 0.  1.
</event>
<event>
 5   0  0.4586375E-05  0.2204146E+04  0.7818609E-02  0.8516704E-01
        3   -1    0    0  501    0  0.00000000000E+00  0.00000000000E+00  0.78695072260E+03  0.78695072908E+03  0.10100000352E+00 0. -1.
       -3   -1    0    0    0  501  0.00000000000E+00  0.00000000000E+00 -0.15433809621E+04  0.15433809654E+04  0.10100000352E+00 0.  1.
    10030    2    1    2    0    0  0.00000000000E+00  0.00000000000E+00 -0.75643023954E+03  0.23303316945E+04  0.22041458888E+04 0.  0.
        1    1    3    3  502    0 -0.67165782716E+03 -0.67246105605E+03 -0.96803958539E+03  0.13566240259E+04  0.50400001928E-02 0.  1.
       -1    1    3    3    0  502  0.67165782716E+03  0.67246105605E+03  0.21160934585E+03  0.97370766864E+03  0.50400001928E-02 0. -1.
</event>
<event>
 5   0  0.1404159E-04  0.2143740E+04  0.7818609E-02  0.8542217E-01
       -2   -1    0    0    0  501  0.00000000000E+00  0.00000000000E+00  0.90507100040E+03  0.90507100040E+03  0.25500000920E-02 0. -1.
        2   -1    0    0  501    0  0.00000000000E+00  0.00000000000E+00 -0.12694087360E+04  0.12694087360E+04  0.25500000920E-02 0.  1.
    10030    2    1    2    0    0  0.00000000000E+00  0.00000000000E+00 -0.36433773556E+03  0.21744797364E+04  0.21437397553E+04 0.  0.
        5    1    3    3  502    0  0.63248408361E+03  0.59338664287E+03  0.45673543970E+03  0.98019037734E+03  0.46999998093E+01 0. -1.
       -5    1    3    3    0  502 -0.63248408361E+03 -0.59338664287E+03 -0.82107317526E+03  0.11942893590E+04  0.46999998093E+01 0.  1.
</event>
<event>
 5   0  0.1404159E-04  0.2229591E+04  0.7818609E-02  0.8506212E-01
       -2   -1    0    0    0  501  0.00000000000E+00  0.00000000000E+00  0.73222819133E+03  0.73222819134E+03  0.25500000920E-02 0. -1.
        2   -1    0    0  501    0  0.00000000000E+00  0.00000000000E+00 -0.16972425838E+04  0.16972425838E+04  0.25500000920E-02 0.  1.
    10030    2    1    2    0    0  0.00000000000E+00  0.00000000000E+00 -0.96501439245E+03  0.24294707751E+04  0.22295908749E+04 0.  0.
        5    1    3    3  502    0  0.93038410277E+03  0.59130680390E+03 -0.30184731329E+03  0.11429751553E+04  0.46999998093E+01 0. -1.
       -5    1    3    3    0  502 -0.93038410277E+03 -0.59130680390E+03 -0.66316707916E+03  0.12864956199E+04  0.46999998093E+01 0.  1.
</event>
<event>
 5   0  0.5861816E-05  0.2118196E+04  0.7818609E-02  0.8553270E-01
       -1   -1    0    0    0  501  0.00000000000E+00  0.00000000000E+00  0.93644524074E+03  0.93644524075E+03  0.50400001928E-02 0. -1.
        1   -1    0    0  501    0  0.00000000000E+00  0.00000000000E+00 -0.11978152852E+04  0.11978152852E+04  0.50400001928E-02 0.  1.
    10030    2    1    2    0    0  0.00000000000E+00  0.00000000000E+00 -0.26137004448E+03  0.21342605260E+04  0.21181958579E+04 0.  0.
        1    1    3    3  502    0 -0.47912981017E+03 -0.75363897185E+03  0.44297585631E+03  0.99687746699E+03  0.50400001928E-02 0.  1.
       -1    1    3    3    0  502  0.47912981017E+03  0.75363897185E+03 -0.70434590079E+03  0.11373830590E+04  0.50400001928E-02 0. -1.
</event>
<event>
 5   0  0.5981239E-05  0.2243429E+04  0.7818609E-02  0.8500567E-01
        1   -1    0    0  501    0  0.00000000000E+00  0.00000000000E+00  0.13229982967E+04  0.13229982967E+04  0.50400001928E-02 0. -1.
       -1   -1    0    0    0  501  0.00000000000E+00  0.00000000000E+00 -0.95105408018E+03  0.95105408019E+03  0.50400001928E-02 0.  1.
    10030    2    1    2    0    0  0.00000000000E+00  0.00000000000E+00  0.37194421647E+03  0.22740523769E+04  0.22434285619E+04 0.  0.
        4    1    3    3  502    0  0.33526157887E+03  0.43841325776E+03  0.11758446217E+04  0.12989298280E+04  0.12699999809E+01 0. -1.
       -4    1    3    3    0  502 -0.33526157887E+03 -0.43841325776E+03 -0.80390040522E+03  0.97512254884E+03  0.12699999809E+01 0.  1.
</event>
<event>
 5   0  0.1252124E-04  0.2200644E+04  0.7818609E-02  0.8518160E-01
       -2   -1    0    0    0  501  0.00000000000E+00  0.00000000000E+00  0.89638453081E+03  0.89638453081E+03  0.25500000920E-02 0.  1.
        2   -1    0    0  501    0  0.00000000000E+00  0.00000000000E+00 -0.13506573671E+04  0.13506573671E+04  0.25500000920E-02 0. -1.
    10030    2    1    2    0    0  0.00000000000E+00  0.00000000000E+00 -0.45427283631E+03  0.22470418979E+04  0.22006438788E+04 0.  0.
        3    1    3    3  502    0 -0.56880875100E+03  0.45067182766E+03 -0.10716535391E+04  0.12942526065E+04  0.10100000352E+00 0. -1.
       -3    1    3    3    0  502  0.56880875100E+03 -0.45067182766E+03  0.61738070277E+03  0.95278929141E+03  0.10100000352E+00 0.  1.
</event>
<event>
 5   0  0.1241430E-04  0.2151098E+04  0.7818609E-02  0.8539062E-01
       -2   -1    0    0    0  501  0.00000000000E+00  0.00000000000E+00  0.11497943168E+04  0.11497943168E+04  0.25500000920E-02 0.  1.
        2   -1    0    0  501    0  0.00000000000E+00  0.00000000000E+00 -0.10060981023E+04  0.10060981023E+04  0.25500000920E-02 0. -1.
    10030    2    1    2    0    0  0.00000000000E+00  0.00000000000E+00  0.14369621457E+03  0.21558924191E+04  0.21510982127E+04 0.  0.
        1    1    3    3  502    0 -0.64008533972E+02  0.22013260411E+03 -0.98132711579E+03  0.10077491573E+04  0.50400001928E-02 0. -1.
       -1    1    3    3    0  502  0.64008533972E+02 -0.22013260411E+03  0.11250233304E+04  0.11481432618E+04  0.50400001928E-02 0.  1.
</event>
<event>
 5   0  0.1404159E-04  0.2192144E+04  0.7818609E-02  0.8521705E-01
        2   -1    0    0  501    0  0.00000000000E+00  0.00000000000E+00  0.54240741455E+03  0.54240741455E+03  0.25500000920E-02 0. -1.
       -2   -1    0    0    0  501  0.00000000000E+00  0.00000000000E+00 -0.22148918207E+04  0.22148918207E+04  0.25500000920E-02 0.  1.
    10030    2    1    2    0    0  0.00000000000E+00  0.00000000000E+00 -0.16724844062E+04  0.27572992353E+04  0.21921439241E+04 0.  0.
        5    1    3    3  502    0 -0.31191014309E+03  0.52824590950E+03 -0.19787181588E+04  0.20716368698E+04  0.46999998093E+01 0.  1.
       -5    1    3    3    0  502  0.31191014309E+03 -0.52824590950E+03  0.30623375260E+03  0.68566236552E+03  0.46999998093E+01 0. -1.
</event>
<event>
 5   0  0.1404159E-04  0.2193281E+04  0.7818609E-02  0.8521230E-01
       -2   -1    0    0    0  501  0.00000000000E+00  0.00000000000E+00  0.13025284332E+04  0.13025284332E+04  0.25500000920E-02 0. -1.
        2   -1    0    0  501    0  0.00000000000E+00  0.00000000000E+00 -0.92329649027E+03  0.92329649027E+03  0.25500000920E-02 0.  1.
    10030    2    1    2    0    0  0.00000000000E+00  0.00000000000E+00  0.37923194297E+03  0.22258249235E+04  0.21932805848E+04 0.  0.
        5    1    3    3  502    0 -0.93095048999E+03 -0.18374040444E+03 -0.36823911068E+03  0.10178661423E+04  0.46999998093E+01 0.  1.
       -5    1    3    3    0  502  0.93095048999E+03  0.18374040444E+03  0.74747105365E+03  0.12079587812E+04  0.46999998093E+01 0. -1.
</event>
<event>
 5   0  0.1252124E-04  0.2216271E+04  0.7818609E-02  0.8511686E-01
        2   -1    0    0  501    0  0.00000000000E+00  0.00000000000E+00  0.15228537769E+04  0.15228537769E+04  0.25500000920E-02 0. -1.
       -2   -1    0    0    0  501  0.00000000000E+00  0.00000000000E+00 -0.80635723555E+03  0.80635723556E+03  0.25500000920E-02 0.  1.
    10030    2    1    2    0    0  0.00000000000E+00  0.00000000000E+00  0.71649654133E+03  0.23292110124E+04  0.22162708875E+04 0.  0.
        3    1    3    3  502    0  0.97324995956E+03 -0.23200544378E+02  0.91457268578E+03  0.13357383564E+04  0.10100000352E+00 0. -1.
       -3    1    3    3    0  502 -0.97324995956E+03  0.23200544378E+02 -0.19807614445E+03  0.99347265602E+03  0.10100000352E+00 0.  1.
</event>
<event>
 5   0  0.1311472E-04  0.2203749E+04  0.7818609E-02  0.8516869E-01
        2   -1    0    0  501    0  0.00000000000E+00  0.00000000000E+00  0.13042909782E+04  0.13042909782E+04  0.25500000920E-02 0.  1.
       -2   -1    0    0    0  501  0.00000000000E+00  0.00000000000E+00 -0.93087129491E+03  0.93087129491E+03  0.25500000920E-02 0. -1.
    10030    2    1    2    0    0  0.00000000000E+00  0.00000000000E+00  0.37341968330E+03  0.22351622731E+04  0.22037486534E+04 0.  0.
        4    1    3    3  502    0  0.10965160978E+04  0.68262767737E+01  0.29656475306E+03  0.11359341603E+04  0.12699999809E+01 0.  1.
       -4    1    3    3    0  502 -0.10965160978E+04 -0.68262767737E+01  0.76854930236E+02  0.10992281128E+04  0.12699999809E+01 0. -1.
</event>
<event>
 5   0  0.5895063E-05  0.2183590E+04  0.7818609E-02  0.8525289E-01
       -1   -1    0    0    0  501  0.00000000000E+00  0.00000000000E+00  0.10994339062E+04  0.10994339062E+04  0.50400001928E-02 0.  1.
        1   -1    0    0  501    0  0.00000000000E+00  0.00000000000E+00 -0.10842093530E+04  0.10842093530E+04  0.50400001928E-02 0. -1.
    10030    2    1    2    0    0  0.00000000000E+00  0.00000000000E+00  0.15224553124E+02  0.21836432592E+04  0.21835901851E+04 0.  0.
        5    1    3    3  502    0  0.27651272672E+03 -0.63909677233E+03 -0.83329487350E+03  0.10859587509E+04  0.46999998093E+01 0. -1.
       -5    1    3    3    0  502 -0.27651272672E+03  0.63909677233E+03  0.84851942662E+03  0.10976845083E+04  0.46999998093E+01 0.  1.
</event>
<event>
 5   0  0.1252124E-04  0.2202294E+04  0.7818609E-02  0.8517474E-01
        2   -1    0    0  501    0  0.00000000000E+00  0.00000000000E+00  0.19869035807E+04  0.19869035807E+04  0.25500000920E-02 0. -1.
       -2   -1    0    0    0  501  0.00000000000E+00  0.00000000000E+00 -0.61025836684E+03  0.61025836685E+03  0.25500000920E-02 0.  1.
    10030    2    1    2    0    0  0.00000000000E+00  0.00000000000E+00  0.13766452138E+04  0.25971619475E+04  0.22022938353E+04 0.  0.
        3    1    3    3  502    0 -0.53851179617E+03 -0.89140181027E+03  0.11101298289E+04  0.15221630626E+04  0.10100000352E+00 0. -1.
       -3    1    3    3    0  502  0.53851179617E+03  0.89140181027E+03  0.26651538496E+03  0.10749988849E+04  0.10100000352E+00 0.  1.
</event>
<event>
 5   0  0.1311472E-04  0.2144440E+04  0.7818609E-02  0.8541916E-01
        2   -1    0    0  501    0  0.00000000000E+00  0.00000000000E+00  0.24741784356E+04  0.24741784356E+04  0.25500000920E-02 0. -1.
       -2   -1    0    0    0  501  0.00000000000E+00  0.00000000000E+00 -0.46466149550E+03  0.46466149550E+03  0.25500000920E-02 0.  1.
    10030    2    1    2    0    0  0.00000000000E+00  0.00000000000E+00  0.20095169401E+04  0.29388399311E+04  0.21444397422E+04 0.  0.
        4    1    3    3  502    0 -0.68580410039E+03 -0.58525180148E+03  0.18000980167E+04  0.20132564213E+04  0.12699999809E+01 0. -1.
       -4    1    3    3    0  502  0.68580410039E+03  0.58525180148E+03  0.20941892340E+03  0.92558350981E+03  0.12699999809E+01 0.  1.
</event>
<event>
 5   0  0.1241430E-04  0.2183506E+04  0.7818609E-02  0.8525325E-01
        2   -1    0    0  501    0  0.00000000000E+00  0.00000000000E+00  0.20416859664E+04  0.20416859664E+04  0.25500000920E-02 0.  1.
       -2   -1    0    0    0  501  0.00000000000E+00  0.00000000000E+00 -0.58379449013E+03  0.58379449014E+03  0.25500000920E-02 0. -1.
    10030    2    1    2    0    0  0.00000000000E+00  0.00000000000E+00  0.14578914762E+04  0.26254804565E+04  0.21835063707E+04 0.  0.
        1    1    3    3  502    0  0.19177716828E+03  0.72611807053E+03  0.16817402587E+04  0.18418133001E+04  0.50400001928E-02 0.  1.
       -1    1    3    3    0  502 -0.19177716828E+03 -0.72611807053E+03 -0.22384878246E+03  0.78366715642E+03  0.50400001928E-02 0. -1.
</event>
<event>
 5   0  0.5981239E-05  0.2214662E+04  0.7818609E-02  0.8512350E-01
        1   -1    0    0  501    0  0.00000000000E+00  0.00000000000E+00  0.10532200600E+04  0.10532200600E+04  0.50400001928E-02 0. -1.
       -1   -1    0    0    0  501  0.00000000000E+00  0.00000000000E+00 -0.11642219360E+04  0.11642219360E+04  0.50400001928E-02 0.  1.
    10030    2    1    2    0    0  0.00000000000E+00  0.00000000000E+00 -0.11100187600E+03  0.22174419960E+04  0.22146619582E+04 0.  0.
        4    1    3    3  502    0  0.21955315478E+03 -0.12078025909E+02 -0.11421424184E+04  0.11631166679E+04  0.12699999809E+01 0.  1.
       -4    1    3    3    0  502 -0.21955315478E+03  0.12078025909E+02  0.10311405424E+04  0.10543253281E+04  0.12699999809E+01 0. -1.
</event>
<event>
 5   0  0.1252124E-04  0.2243571E+04  0.7818609E-02  0.8500509E-01
        2   -1    0    0  501    0  0.00000000000E+00  0.00000000000E+00  0.14721494906E+04  0.14721494906E+04  0.25500000920E-02 0.  1.
       -2   -1    0    0    0  501  0.00000000000E+00  0.00000000000E+00 -0.85480621907E+03  0.85480621908E+03  0.25500000920E-02 0. -1.
    10030    2    1    2    0    0  0.00000000000E+00  0.00000000000E+00  0.61734327149E+03  0.23269557096E+04  0.22435708502E+04 0.  0.
        3    1    3    3  502    0  0.28417805076E+03  0.10026226851E+04  0.73930560892E+03  0.12777254035E+04  0.10100000352E+00 0.  1.
       -3    1    3    3    0  502 -0.28417805076E+03 -0.10026226851E+04 -0.12196233744E+03  0.10492303061E+04  0.10100000352E+00 0. -1.
</event>
<event>
 5   0  0.1404159E-04  0.2192440E+04  0.7818609E-02  0.8521582E-01
       -2   -1    0    0    0  501  0.00000000000E+00  0.00000000000E+00  0.45489163510E+03  0.45489163511E+03  0.25500000920E-02 0. -1.
        2   -1    0    0  501    0  0.00000000000E+00  0.00000000000E+00 -0.26417232241E+04  0.26417232241E+04  0.25500000920E-02 0.  1.
    10030    2    1    2    0    0  0.00000000000E+00  0.00000000000E+00 -0.21868315890E+04  0.30966148592E+04  0.21924395516E+04 0.  0.
        5    1    3    3  502    0 -0.90530986776E+03  0.40833589352E+03 -0.17488567342E+04  0.20111802817E+04  0.46999998093E+01 0.  1.
       -5    1    3    3    0  502  0.90530986776E+03 -0.40833589352E+03 -0.43797485471E+03  0.10854345775E+04  0.46999998093E+01 0. -1.
</event>
<event>
 5   0  0.6263558E-05  0.2211144E+04  0.7818609E-02  0.8513804E-01
        1   -1    0    0  501    0  0.00000000000E+00  0.00000000000E+00  0.13285853935E+04  0.13285853936E+04  0.50400001928E-02 0.  1.
       -1   -1    0    0    0  501  0.00000000000E+00  0.00000000000E+00 -0.91999294864E+03  0.91999294866E+03  0.50400001928E-02 0. -1.
    10030    2    1    2    0    0  0.00000000000E+00  0.00000000000E+00  0.40859244490E+03  0.22485783422E+04  0.22111437708E+04 0.  0.
        3    1    3    3  502    0  0.22778621604E+03 -0.87723721913E+03  0.84814820913E+03  0.12412844532E+04  0.10100000352E+00 0.  1.
       -3    1    3    3    0  502 -0.22778621604E+03  0.87723721913E+03 -0.43955576422E+03  0.10072938890E+04  0.10100000352E+00 0. -1.
</event>
<event>
 5   0  0.5981239E-05  0.1501800E+04  0.7818609E-02  0.8883257E-01
       -1   -1    0    0    0  501  0.00000000000E+00  0.00000000000E+00  0.80594018593E+03  0.80594018594E+03  0.50400001928E-02 0. -1.
        1   -1    0    0  501    0  0.00000000000E+00  0.00000000000E+00 -0.69961897576E+03  0.69961897578E+03  0.50400001928E-02 0.  1.
    10030    2    1    2    0    0  0.00000000000E+00  0.00000000000E+00  0.10632121017E+03  0.15055591617E+04  0.15018003162E+04 0.  0.
        4    1    3    3  502    0  0.98080847511E+02 -0.34978154318E+03  0.71198309302E+03  0.79930502203E+03  0.12699999809E+01 0. -1.
       -4    1    3    3    0  502 -0.98080847511E+02  0.34978154318E+03 -0.60566188285E+03  0.70625413969E+03  0.12699999809E+01 0.  1.
</event>
<event>
 5   0  0.1311472E-04  0.2235951E+04  0.7818609E-02  0.8503612E-01
       -2   -1    0    0    0  501  0.00000000000E+00  0.00000000000E+00  0.14548340546E+04  0.14548340546E+04  0.25500000920E-02 0.  1.
        2   -1    0    0  501    0  0.00000000000E+00  0.00000000000E+00 -0.85911439580E+03  0.85911439580E+03  0.25500000920E-02 0. -1.
    10030    2    1    2    0    0  0.00000000000E+00  0.00000000000E+00  0.59571965876E+03  0.23139484504E+04  0.22359506969E+04 0.  0.
        4    1    3    3  502    0  0.86155980992E+03  0.29169119187E+03  0.97053266944E+03  0.13301519961E+04  0.12699999809E+01 0. -1.
       -4    1    3    3    0  502 -0.86155980992E+03 -0.29169119187E+03 -0.37481301068E+03  0.98379645423E+03  0.12699999809E+01 0.  1.
</event>
<event>
 5   0  0.6263558E-05  0.2204782E+04  0.7818609E-02  0.8516440E-01
        1   -1    0    0  501    0  0.00000000000E+00  0.00000000000E+00  0.13078471367E+04  0.13078471368E+04  0.50400001928E-02 0.  1.
       -1   -1    0    0    0  501  0.00000000000E+00  0.00000000000E+00 -0.92921105699E+03  0.92921105700E+03  0.50400001928E-02 0. -1.
    10030    2    1    2    0    0  0.00000000000E+00  0.00000000000E+00  0.37863607975E+03  0.22370581938E+04  0.22047820938E+04 0.  0.
        3    1    3    3  502    0  0.13097354595E+03  0.46197170894E+03  0.11961622390E+04  0.12889437698E+04  0.10100000352E+00 0.  1.
       -3    1    3    3    0  502 -0.13097354595E+03 -0.46197170894E+03 -0.81752615924E+03  0.94811442392E+03  0.10100000352E+00 0. -1.
</event>
<event>
 5   0  0.1404159E-04  0.2245916E+04  0.7818609E-02  0.8499556E-01
       -2   -1    0    0    0  501  0.00000000000E+00  0.00000000000E+00  0.75625977296E+03  0.75625977296E+03  0.25500000920E-02 0. -1.
        2   -1    0    0  501    0  0.00000000000E+00  0.00000000000E+00 -0.16674622171E+04  0.16674622171E+04  0.25500000920E-02 0.  1.
    10030    2    1    2    0    0  0.00000000000E+00  0.00000000000E+00 -0.91120244413E+03  0.24237219900E+04  0.22459159358E+04 0.  0.
        5    1    3    3  502    0 -0.14411770088E+02 -0.64694019460E+03  0.53481055480E+03  0.83951398680E+03  0.46999998093E+01 0. -1.
       -5    1    3    3    0  502  0.14411770088E+02  0.64694019460E+03 -0.14460129989E+04  0.15842080033E+04  0.46999998093E+01 0.  1.
</event>
<event>
 5   0  0.1226021E-04  0.2235379E+04  0.7818609E-02  0.8503845E-01
        2   -1    0    0  501    0  0.00000000000E+00  0.00000000000E+00  0.24427964628E+04  0.24427964628E+04  0.25500000920E-02 0.  1.
       -2   -1    0    0    0  501  0.00000000000E+00  0.00000000000E+00 -0.51139349281E+03  0.51139349282E+03  0.25500000920E-02 0. -1.
    10030    2    1    2    0    0  0.00000000000E+00  0.00000000000E+00  0.19314029700E+04  0.29541899556E+04  0.22353793552E+04 0.  0.
        2    1    3    3  502    0 -0.29433792013E+03 -0.57348816069E+03 -0.24098329814E+03  0.68818342879E+03  0.25500000920E-02 0. -1.
       -2    1    3    3    0  502  0.29433792013E+03  0.57348816069E+03  0.21723862681E+04  0.22660065268E+04  0.25500000920E-02 0.  1.
</event>
<event>
 5   0  0.1404159E-04  0.2183663E+04  0.7818609E-02  0.8525259E-01
       -2   -1    0    0    0  501  0.00000000000E+00  0.00000000000E+00  0.58119404646E+03  0.58119404647E+03  0.25500000920E-02 0.  1.
        2   -1    0    0  501    0  0.00000000000E+00  0.00000000000E+00 -0.20511149480E+04  0.20511149481E+04  0.25500000920E-02 0. -1.
    10030    2    1    2    0    0  0.00000000000E+00  0.00000000000E+00 -0.14699209016E+04  0.26323089945E+04  0.21836627912E+04 0.  0.
        5    1    3    3  502    0  0.58800002381E+02  0.39387803901E+02 -0.20483347683E+04  0.20495624539E+04  0.46999998093E+01 0. -1.
       -5    1    3    3    0  502 -0.58800002381E+02 -0.39387803901E+02  0.57841386673E+03  0.58274654062E+03  0.46999998093E+01 0.  1.
</event>
<event>
 5   0  0.5895063E-05  0.2237444E+04  0.7818609E-02  0.8503003E-01
        1   -1    0    0  501    0  0.00000000000E+00  0.00000000000E+00  0.10364615972E+04  0.10364615972E+04  0.50400001928E-02 0. -1.
       -1   -1    0    0    0  501  0.00000000000E+00  0.00000000000E+00 -0.12075110248E+04  0.12075110248E+04  0.50400001928E-02 0.  1.
    10030    2    1    2    0    0  0.00000000000E+00  0.00000000000E+00 -0.17104942767E+03  0.22439726220E+04  0.22374439036E+04 0.  0.
        5    1    3    3  502    0  0.85913852121E+03  0.73679820462E+02 -0.80032382413E+03  0.11764727060E+04  0.46999998093E+01 0.  1.
       -5    1    3    3    0  502 -0.85913852121E+03 -0.73679820462E+02  0.62927439646E+03  0.10674999160E+04  0.46999998093E+01 0. -1.
</event>
<event>
 5   0  0.5981239E-05  0.2206551E+04  0.7818609E-02  0.8515706E-01
        1   -1    0    0  501    0  0.00000000000E+00  0.00000000000E+00  0.95812746863E+03  0.95812746865E+03  0.50400001928E-02 0. -1.
       -1   -1    0    0    0  501  0.00000000000E+00  0.00000000000E+00 -0.12704119879E+04  0.12704119879E+04  0.50400001928E-02 0.  1.
    10030    2    1    2    0    0  0.00000000000E+00  0.00000000000E+00 -0.31228451930E+03  0.22285394566E+04  0.22065508126E+04 0.  0.
        4    1    3    3  502    0 -0.48778348123E+03  0.54085445899E+03  0.68082504323E+03  0.99698576858E+03  0.12699999809E+01 0. -1.
       -4    1    3    3    0  502  0.48778348123E+03 -0.54085445899E+03 -0.99310956253E+03  0.12315536880E+04  0.12699999809E+01 0.  1.
</event>
<event>
 5   0  0.1252124E-04  0.2127506E+04  0.7818609E-02  0.8549222E-01
        2   -1    0    0  501    0  0.00000000000E+00  0.00000000000E+00  0.17552559851E+04  0.17552559851E+04  0.25500000920E-02 0.  1.
       -2   -1    0    0    0  501  0.00000000000E+00  0.00000000000E+00 -0.64467563900E+03  0.64467563900E+03  0.25500000920E-02 0. -1.
    10030    2    1    2    0    0  0.00000000000E+00  0.00000000000E+00  0.11105803461E+04  0.23999316241E+04  0.21275063091E+04 0.  0.
        3    1    3    3  502    0 -0.16051307363E+03 -0.17940161710E+03 -0.61354584719E+03  0.65908110565E+03  0.10100000352E+00 0. -1.
       -3    1    3    3    0  502  0.16051307363E+03  0.17940161710E+03  0.17241261933E+04  0.17408505185E+04  0.10100000352E+00 0.  1.
</event>
<event>
 5   0  0.5849604E-05  0.2179216E+04  0.7818609E-02  0.8527129E-01
       -1   -1    0    0    0  501  0.00000000000E+00  0.00000000000E+00  0.10324245681E+04  0.10324245681E+04  0.50400001928E-02 0. -1.
        1   -1    0    0  501    0  0.00000000000E+00  0.00000000000E+00 -0.11499585272E+04  0.11499585272E+04  0.50400001928E-02 0.  1.
    10030    2    1    2    0    0  0.00000000000E+00  0.00000000000E+00 -0.11753395910E+03  0.21823830954E+04  0.21792158552E+04 0.  0.
        2    1    3    3  502    0  0.75796343338E+03  0.34276775347E+03  0.64599379729E+03  0.10532361014E+04  0.25500000920E-02 0. -1.
       -2    1    3    3    0  502 -0.75796343338E+03 -0.34276775347E+03 -0.76352775639E+03  0.11291469940E+04  0.25500000920E-02 0.  1.
</event>
<event>
 5   0  0.1311472E-04  0.2214623E+04  0.7818609E-02  0.8512366E-01
       -2   -1    0    0    0  501  0.00000000000E+00  0.00000000000E+00  0.11824895243E+04  0.11824895243E+04  0.25500000920E-02 0.  1.
        2   -1    0    0  501    0  0.00000000000E+00  0.00000000000E+00 -0.10369126207E+04  0.10369126207E+04  0.25500000920E-02 0. -1.
    10030    2    1    2    0    0  0.00000000000E+00  0.00000000000E+00  0.14557690356E+03  0.22194021450E+04  0.22146225968E+04 0.  0.
        4    1    3    3  502    0 -0.78687565765E+03 -0.77793160003E+03  0.30438241040E+02  0.11069232016E+04  0.12699999809E+01 0.  1.
       -4    1    3    3    0  502  0.78687565765E+03  0.77793160003E+03  0.11513866252E+03  0.11124789434E+04  0.12699999809E+01 0. -1.
</event>
<event>
 5   0  0.5981239E-05  0.2246817E+04  0.7818609E-02  0.8499191E-01
        1   -1    0    0  501    0  0.00000000000E+00  0.00000000000E+00  0.15142930705E+04  0.15142930705E+04  0.50400001928E-02 0.  1.
       -1   -1    0    0    0  501  0.00000000000E+00  0.00000000000E+00 -0.83342282547E+03  0.83342282549E+03  0.50400001928E-02 0. -1.
    10030    2    1    2    0    0  0.00000000000E+00  0.00000000000E+00  0.68087024500E+03  0.23477158960E+04  0.22468167788E+04 0.  0.
        4    1    3    3  502    0 -0.24666023014E+03 -0.16451957950E+03 -0.79180160542E+03  0.84549355788E+03  0.12699999809E+01 0. -1.
       -4    1    3    3    0  502  0.24666023014E+03  0.16451957950E+03  0.14726718504E+04  0.15022223381E+04  0.12699999809E+01 0.  1.
</event>
<event>
 5   0  0.5861816E-05  0.2223530E+04  0.7818609E-02  0.8508698E-01
        1   -1    0    0  501    0  0.00000000000E+00  0.00000000000E+00  0.12594143519E+04  0.12594143519E+04  0.50400001928E-02 0. -1.
       -1   -1    0    0    0  501  0.00000000000E+00  0.00000000000E+00 -0.98142546040E+03  0.98142546041E+03  0.50400001928E-02 0.  1.
    10030    2    1    2    0    0  0.00000000000E+00  0.00000000000E+00  0.27798889150E+03  0.22408398123E+04  0.22235299055E+04 0.  0.
        1    1    3    3  502    0 -0.47915303141E+03 -0.43102343172E+03  0.10519454720E+04  0.12336766603E+04  0.50400001928E-02 0. -1.
       -1    1    3    3    0  502  0.47915303141E+03  0.43102343172E+03 -0.77395658049E+03  0.10071631520E+04  0.50400001928E-02 0.  1.
</event>
<event>
 5   0  0.5895063E-05  0.2208421E+04  0.7818609E-02  0.8514931E-01
       -1   -1    0    0    0  501  0.00000000000E+00  0.00000000000E+00  0.77906464163E+03  0.77906464165E+03  0.50400001928E-02 0. -1.
        1   -1    0    0  501    0  0.00000000000E+00  0.00000000000E+00 -0.15650567779E+04  0.15650567779E+04  0.50400001928E-02 0.  1.
    10030    2    1    2    0    0  0.00000000000E+00  0.00000000000E+00 -0.78599213625E+03  0.23441214195E+04  0.22084206101E+04 0.  0.
        5    1    3    3  502    0  0.39970481336E+03 -0.68862322312E+03 -0.12050497953E+04  0.14443451736E+04  0.46999998093E+01 0.  1.
       -5    1    3    3    0  502 -0.39970481336E+03  0.68862322312E+03  0.41905765905E+03  0.89977624599E+03  0.46999998093E+01 0. -1.
</event>
<event>
 5   0  0.6263558E-05  0.2104835E+04  0.7818609E-02  0.8559117E-01
       -1   -1    0    0    0  501  0.00000000000E+00  0.00000000000E+00  0.69020416924E+03  0.69020416925E+03  0.50400001928E-02 0. -1.
        1   -1    0    0  501    0  0.00000000000E+00  0.00000000000E+00 -0.16047173345E+04  0.16047173345E+04  0.50400001928E-02 0.  1.
    10030    2    1    2    0    0  0.00000000000E+00  0.00000000000E+00 -0.91451316522E+03  0.22949215037E+04  0.21048350004E+04 0.  0.
        3    1    3    3  502    0  0.92963036285E+03 -0.25616416355E+03 -0.91693536057E+03  0.13306401301E+04  0.10100000352E+00 0.  1.
       -3    1    3    3    0  502 -0.92963036285E+03  0.25616416355E+03  0.24221953512E+01  0.96428137359E+03  0.10100000352E+00 0. -1.
</event>
<event>
 5   0  0.1226021E-04  0.2117188E+04  0.7818609E-02  0.8553710E-01
       -2   -1    0    0    0  501  0.00000000000E+00  0.00000000000E+00  0.83733782414E+03  0.83733782414E+03  0.25500000920E-02 0.  1.
        2   -1    0    0  501    0  0.00000000000E+00  0.00000000000E+00 -0.13383139562E+04  0.13383139562E+04  0.25500000920E-02 0. -1.
    10030    2    1    2    0    0  0.00000000000E+00  0.00000000000E+00 -0.50097613209E+03  0.21756517804E+04  0.21171876593E+04 0.  0.
        2    1    3    3  502    0 -0.76679761578E+02 -0.69727209613E+03  0.56421789228E+03  0.90022774444E+03  0.25500000920E-02 0.  1.
       -2    1    3    3    0  502  0.76679761578E+02  0.69727209613E+03 -0.10651940244E+04  0.12754240359E+04  0.25500000920E-02 0. -1.
</event>
<event>
 5   0  0.5981239E-05  0.2057647E+04  0.7818609E-02  0.8580133E-01
        1   -1    0    0  501    0  0.00000000000E+00  0.00000000000E+00  0.19427083059E+04  0.19427083059E+04  0.50400001928E-02 0. -1.
       -1   -1    0    0    0  501  0.00000000000E+00  0.00000000000E+00 -0.54484635895E+03  0.54484635897E+03  0.50400001928E-02 0.  1.
    10030    2    1    2    0    0  0.00000000000E+00  0.00000000000E+00  0.13978619469E+04  0.24875546649E+04  0.20576467598E+04 0.  0.
        4    1    3    3  502    0  0.12794094304E+03  0.22173050282E+03  0.19035893136E+04  0.19207256932E+04  0.12699999809E+01 0. -1.
       -4    1    3    3    0  502 -0.12794094304E+03 -0.22173050282E+03 -0.50572736668E+03  0.56682897164E+03  0.12699999809E+01 0.  1.
</event>
<event>
 5   0  0.1252124E-04  0.2206043E+04  0.7818609E-02  0.8515917E-01
       -2   -1    0    0    0  501  0.00000000000E+00  0.00000000000E+00  0.76995486530E+03  0.76995486530E+03  0.25500000920E-02 0.  1.
        2   -1    0    0  501    0  0.00000000000E+00  0.00000000000E+00 -0.15801654836E+04  0.15801654836E+04  0.25500000920E-02 0. -1.
    10030    2    1    2    0    0  0.00000000000E+00  0.00000000000E+00 -0.81021061826E+03  0.23501203489E+04  0.22060427032E+04 0.  0.
        3    1    3    3  502    0 -0.37791619966E+03 -0.35323260806E+03  0.63271823167E+03  0.81726758179E+03  0.10100000352E+00 0.  1.
       -3    1    3    3    0  502  0.37791619966E+03  0.35323260806E+03 -0.14429288499E+04  0.15328527671E+04  0.10100000352E+00 0. -1.
</event>
<event>
 5   0  0.1226021E-04  0.2212505E+04  0.7818609E-02  0.8513241E-01
        2   -1    0    0  501    0  0.00000000000E+00  0.00000000000E+00  0.11051411762E+04  0.11051411762E+04  0.25500000920E-02 0.  1.
       -2   -1    0    0    0  501  0.00000000000E+00  0.00000000000E+00 -0.11073651596E+04  0.11073651596E+04  0.25500000920E-02 0. -1.
    10030    2    1    2    0    0  0.00000000000E+00  0.00000000000E+00 -0.22239833997E+01  0.22125063358E+04  0.22125052180E+04 0.  0.
        2    1    3    3  502    0 -0.69415672491E+03  0.44547341860E+02 -0.86131984924E+03  0.11071178379E+04  0.25500000920E-02 0. -1.
       -2    1    3    3    0  502  0.69415672491E+03 -0.44547341860E+02  0.85909586584E+03  0.11053884978E+04  0.25500000920E-02 0.  1.
</event>
<event>
 5   0  0.5861816E-05  0.2175812E+04  0.7818609E-02  0.8528564E-01
       -1   -1    0    0    0  501  0.00000000000E+00  0.00000000000E+00  0.12118104080E+04  0.12118104080E+04  0.50400001928E-02 0. -1.
        1   -1    0    0  501    0  0.00000000000E+00  0.00000000000E+00 -0.97667059158E+03  0.97667059160E+03  0.50400001928E-02 0.  1.
    10030    2    1    2    0    0  0.00000000000E+00  0.00000000000E+00  0.23513981644E+03  0.21884809996E+04  0.21758121133E+04 0.  0.
        1    1    3    3  502    0  0.26306181756E+03  0.28889892704E+03 -0.90366227954E+03  0.98451491882E+03  0.50400001928E-02 0. -1.
       -1    1    3    3    0  502 -0.26306181756E+03 -0.28889892704E+03  0.11388020960E+04  0.12039660808E+04  0.50400001928E-02 0.  1.
</event>
<event>
 5   0  0.1404159E-04  0.2747797E+04  0.7818609E-02  0.8319661E-01
        2   -1    0    0  501    0  0.00000000000E+00  0.00000000000E+00  0.93118250216E+03  0.93118250216E+03  0.25500000920E-02 0.  1.
       -2   -1    0    0    0  501  0.00000000000E+00  0.00000000000E+00 -0.20270971900E+04  0.20270971900E+04  0.25500000920E-02 0. -1.
    10030    2    1    2    0    0  0.00000000000E+00  0.00000000000E+00 -0.10959146878E+04  0.29582796921E+04  0.27477972512E+04 0.  0.
        5    1    3    3  502    0  0.12855285257E+04  0.41815926392E+03 -0.81196510840E+03  0.15769433051E+04  0.46999998093E+01 0.  1.
       -5    1    3    3    0  502 -0.12855285257E+04 -0.41815926392E+03 -0.28394957940E+03  0.13813363870E+04  0.46999998093E+01 0. -1.
</event>
<event>
 5   0  0.1241430E-04  0.2183212E+04  0.7818609E-02  0.8525448E-01
       -2   -1    0    0    0  501  0.00000000000E+00  0.00000000000E+00  0.59724814542E+03  0.59724814543E+03  0.25500000920E-02 0. -1.
        2   -1    0    0  501    0  0.00000000000E+00  0.00000000000E+00 -0.19951560957E+04  0.19951560957E+04  0.25500000920E-02 0.  1.
    10030    2    1    2    0    0  0.00000000000E+00  0.00000000000E+00 -0.13979079503E+04  0.25924042411E+04  0.21832116508E+04 0.  0.
        1    1    3    3  502    0 -0.74035367824E+03  0.53834812375E+03  0.72017303671E+01  0.91542019651E+03  0.50400001928E-02 0. -1.
       -1    1    3    3    0  502  0.74035367824E+03 -0.53834812375E+03 -0.14051096806E+04  0.16769840446E+04  0.50400001928E-02 0.  1.
</event>
<event>
 5   0  0.1252124E-04  0.2218439E+04  0.7818609E-02  0.8510793E-01
        2   -1    0    0  501    0  0.00000000000E+00  0.00000000000E+00  0.10098718858E+04  0.10098718859E+04  0.25500000920E-02 0.  1.
       -2   -1    0    0    0  501  0.00000000000E+00  0.00000000000E+00 -0.12183400371E+04  0.12183400371E+04  0.25500000920E-02 0. -1.
    10030    2    1    2    0    0  0.00000000000E+00  0.00000000000E+00 -0.20846815129E+03  0.22282119230E+04  0.22184385057E+04 0.  0.
        3    1    3    3  502    0 -0.27244536597E+03 -0.32359454848E+03 -0.11341428325E+04  0.12104626735E+04  0.10100000352E+00 0. -1.
       -3    1    3    3    0  502  0.27244536597E+03  0.32359454848E+03  0.92567468120E+03  0.10177492495E+04  0.10100000352E+00 0.  1.
</event>
<event>
 5   0  0.5861816E-05  0.2166689E+04  0.7818609E-02  0.8532422E-01
       -1   -1    0    0    0  501  0.00000000000E+00  0.00000000000E+00  0.10865591571E+04  0.10865591571E+04  0.50400001928E-02 0.  1.
        1   -1    0    0  501    0  0.00000000000E+00  0.00000000000E+00 -0.10801391447E+04  0.10801391447E+04  0.50400001928E-02 0. -1.
    10030    2    1    2    0    0  0.00000000000E+00  0.00000000000E+00  0.64200123742E+01  0.21666983018E+04  0.21666887904E+04 0.  0.
        1    1    3    3  502    0 -0.21643282168E+03  0.47165830097E+03 -0.94775702748E+03  0.10805313981E+04  0.50400001928E-02 0. -1.
       -1    1    3    3    0  502  0.21643282168E+03 -0.47165830097E+03  0.95417703985E+03  0.10861669036E+04  0.50400001928E-02 0.  1.
</event>
<event>
 5   0  0.5849604E-05  0.2198375E+04  0.7818609E-02  0.8519105E-01
        1   -1    0    0  501    0  0.00000000000E+00  0.00000000000E+00  0.14379471317E+04  0.14379471317E+04  0.50400001928E-02 0.  1.
       -1   -1    0    0    0  501  0.00000000000E+00  0.00000000000E+00 -0.84023481246E+03  0.84023481247E+03  0.50400001928E-02 0. -1.
    10030    2    1    2    0    0  0.00000000000E+00  0.00000000000E+00  0.59771231924E+03  0.22781819442E+04  0.21983750713E+04 0.  0.
        2    1    3    3  502    0 -0.51181386270E+03 -0.83231348396E+03 -0.22292410796E+03  0.10021947533E+04  0.25500000920E-02 0. -1.
       -2    1    3    3    0  502  0.51181386270E+03  0.83231348396E+03  0.82063642719E+03  0.12759871909E+04  0.25500000920E-02 0.  1.
</event>
<event>
 5   0  0.1241430E-04  0.2190816E+04  0.7818609E-02  0.8522261E-01
        2   -1    0    0  501    0  0.00000000000E+00  0.00000000000E+00  0.24642432371E+04  0.24642432371E+04  0.25500000920E-02 0.  1.
       -2   -1    0    0    0  501  0.00000000000E+00  0.00000000000E+00 -0.48693181653E+03  0.48693181654E+03  0.25500000920E-02 0. -1.
    10030    2    1    2    0    0  0.00000000000E+00  0.00000000000E+00  0.19773114206E+04  0.29511750537E+04  0.21908157712E+04 0.  0.
        1    1    3    3  502    0 -0.24552543879E+01 -0.27416207110E+03  0.24172754399E+04  0.24327744289E+04  0.50400001928E-02 0.  1.
       -1    1    3    3    0  502  0.24552543879E+01  0.27416207110E+03 -0.43996401928E+03  0.51840062480E+03  0.50400001928E-02 0. -1.
</event>
<event>
 5   0  0.1252124E-04  0.2244089E+04  0.7818609E-02  0.8500298E-01
       -2   -1    0    0    0  501  0.00000000000E+00  0.00000000000E+00  0.84760710638E+03  0.84760710639E+03  0.25500000920E-02 0. -1.
        2   -1    0    0  501    0  0.00000000000E+00  0.00000000000E+00 -0.14853385619E+04  0.14853385619E+04  0.25500000920E-02 0.  1.
    10030    2    1    2    0    0  0.00000000000E+00  0.00000000000E+00 -0.63773145556E+03  0.23329456683E+04  0.22440886974E+04 0.  0.
        3    1    3    3  502    0  0.67529408613E+03  0.75197442576E+03 -0.82549775150E+03  0.13049652056E+04  0.10100000352E+00 0.  1.
       -3    1    3    3    0  502 -0.67529408613E+03 -0.75197442576E+03  0.18776629593E+03  0.10279804628E+04  0.10100000352E+00 0. -1.
</event>
<event>
 5   0  0.5895063E-05  0.2185647E+04  0.7818609E-02  0.8524426E-01
       -1   -1    0    0    0  501  0.00000000000E+00  0.00000000000E+00  0.79952562239E+03  0.79952562241E+03  0.50400001928E-02 0. -1.
        1   -1    0    0  501    0  0.00000000000E+00  0.00000000000E+00 -0.14937145232E+04  0.14937145232E+04  0.50400001928E-02 0.  1.
    10030    2    1    2    0    0  0.00000000000E+00  0.00000000000E+00 -0.69418890078E+03  0.22932401456E+04  0.21856468460E+04 0.  0.
        5    1    3    3  502    0 -0.10898748131E+04 -0.22682972313E+02 -0.26650643444E+03  0.11222251980E+04  0.46999998093E+01 0. -1.
       -5    1    3    3    0  502  0.10898748131E+04  0.22682972313E+02 -0.42768246634E+03  0.11710149476E+04  0.46999998093E+01 0.  1.
</event>
<event>
 5   0  0.1252124E-04  0.2230972E+04  0.7818609E-02  0.8505646E-01
       -2   -1    0    0    0  501  0.00000000000E+00  0.00000000000E+00  0.98677157118E+03  0.98677157119E+03  0.25500000920E-02 0.  1.
        2   -1    0    0  501    0  0.00000000000E+00  0.00000000000E+00 -0.12609903357E+04  0.12609903357E+04  0.25500000920E-02 0. -1.
    10030    2    1    2    0    0  0.00000000000E+00  0.00000000000E+00 -0.27421876449E+03  0.22477619069E+04  0.22309723573E+04 0.  0.
        3    1    3    3  502    0 -0.74496774891E+02  0.16417877884E+03  0.97199515309E+03  0.98857424037E+03  0.10100000352E+00 0.  1.
       -3    1    3    3    0  502  0.74496774891E+02 -0.16417877884E+03 -0.12462139176E+04  0.12591876665E+04  0.10100000352E+00 0. -1.
</event>
<event>
 5   0  0.5849604E-05  0.2192542E+04  0.7818609E-02  0.8521539E-01
       -1   -1    0    0    0  501  0.00000000000E+00  0.00000000000E+00  0.12427598517E+04  0.12427598517E+04  0.50400001928E-02 0.  1.
        1   -1    0    0  501    0  0.00000000000E+00  0.00000000000E+00 -0.96704958825E+03  0.96704958826E+03  0.50400001928E-02 0. -1.
    10030    2    1    2    0    0  0.00000000000E+00  0.00000000000E+00  0.27571026342E+03  0.22098094399E+04  0.21925422713E+04 0.  0.
        2    1    3    3  502    0 -0.90714690258E+03  0.52022549045E+03  0.46947576236E+03  0.11462798765E+04  0.25500000920E-02 0.  1.
       -2    1    3    3    0  502  0.90714690258E+03 -0.52022549045E+03 -0.19376549894E+03  0.10635295635E+04  0.25500000920E-02 0. -1.
</event>
<event>
 5   0  0.5981239E-05  0.2226368E+04  0.7818609E-02  0.8507533E-01
       -1   -1    0    0    0  501  0.00000000000E+00  0.00000000000E+00  0.25674842650E+04  0.25674842650E+04  0.50400001928E-02 0.  1.
        1   -1    0    0  501    0  0.00000000000E+00  0.00000000000E+00 -0.48264326959E+03  0.48264326962E+03  0.50400001928E-02 0. -1.
    10030    2    1    2    0    0  0.00000000000E+00  0.00000000000E+00  0.20848409954E+04  0.30501275346E+04  0.22263683436E+04 0.  0.
        4    1    3    3  502    0 -0.40352812646E+03  0.97877868522E+03  0.15136984054E+04  0.18471943966E+04  0.12699999809E+01 0. -1.
       -4    1    3    3    0  502  0.40352812646E+03 -0.97877868522E+03  0.57114258999E+03  0.12029331380E+04  0.12699999809E+01 0.  1.
</event>
<event>
 5   0  0.1252124E-04  0.2231808E+04  0.7818609E-02  0.8505304E-01
        2   -1    0    0  501    0  0.00000000000E+00  0.00000000000E+00  0.70219705291E+03  0.70219705291E+03  0.25500000920E-02 0.  1.
       -2   -1    0    0    0  501  0.00000000000E+00  0.00000000000E+00 -0.17733515917E+04  0.17733515917E+04  0.25500000920E-02 0. -1.
    10030    2    1    2    0    0  0.00000000000E+00  0.00000000000E+00 -0.10711545388E+04  0.24755486446E+04  0.22318084698E+04 0.  0.
        3    1    3    3  502    0  0.52915035356E+03 -0.90903006750E+03 -0.94898235356E+03  0.14166521372E+04  0.10100000352E+00 0. -1.
       -3    1    3    3    0  502 -0.52915035356E+03  0.90903006750E+03 -0.12217218520E+03  0.10588965074E+04  0.10100000352E+00 0.  1.
</event>
<event>
 5   0  0.6263558E-05  0.2182518E+04  0.7818609E-02  0.8525740E-01
       -1   -1    0    0    0  501  0.00000000000E+00  0.00000000000E+00  0.57793689118E+03  0.57793689120E+03  0.50400001928E-02 0. -1.
        1   -1    0    0  501    0  0.00000000000E+00  0.00000000000E+00 -0.20605121224E+04  0.20605121224E+04  0.50400001928E-02 0.  1.
    10030    2    1    2    0    0  0.00000000000E+00  0.00000000000E+00 -0.14825752312E+04  0.26384490136E+04  0.21825177849E+04 0.  0.
        3    1    3    3  502    0 -0.36255346534E+03  0.98678492552E+03 -0.38747691405E+03  0.11204141527E+04  0.10100000352E+00 0. -1.
       -3    1    3    3    0  502  0.36255346534E+03 -0.98678492552E+03 -0.10950983172E+04  0.15180348609E+04  0.10100000352E+00 0.  1.
</event>
<event>
 5   0  0.5861816E-05  0.2084805E+04  0.7818609E-02  0.8567967E-01
       -1   -1    0    0    0  501  0.00000000000E+00  0.00000000000E+00  0.96452995170E+03  0.96452995171E+03  0.50400001928E-02 0.  1.
        1   -1    0    0  501    0  0.00000000000E+00  0.00000000000E+00 -0.11265619667E+04  0.11265619667E+04  0.50400001928E-02 0. -1.
    10030    2    1    2    0    0  0.00000000000E+00  0.00000000000E+00 -0.16203201497E+03  0.20910919184E+04  0.20848047960E+04 0.  0.
        1    1    3    3  502    0 -0.67931857442E+03 -0.44324844867E+03 -0.73771164039E+03  0.10964312004E+04  0.50400001928E-02 0. -1.
       -1    1    3    3    0  502  0.67931857442E+03  0.44324844867E+03  0.57567962542E+03  0.99466071801E+03  0.50400001928E-02 0.  1.
</event>
<event>
 5   0  0.5981239E-05  0.2094746E+04  0.7818609E-02  0.8563561E-01
        1   -1    0    0  501    0  0.00000000000E+00  0.00000000000E+00  0.14659908432E+04  0.14659908432E+04  0.50400001928E-02 0. -1.
       -1   -1    0    0    0  501  0.00000000000E+00  0.00000000000E+00 -0.74829250794E+03  0.74829250796E+03  0.50400001928E-02 0.  1.
    10030    2    1    2    0    0  0.00000000000E+00  0.00000000000E+00  0.71769833521E+03  0.22142833511E+04  0.20947457742E+04 0.  0.
        4    1    3    3  502    0 -0.12402731895E+03 -0.84310327313E+03  0.10025164799E+04  0.13157685246E+04  0.12699999809E+01 0. -1.
       -4    1    3    3    0  502  0.12402731895E+03  0.84310327313E+03 -0.28481814468E+03  0.89851482651E+03  0.12699999809E+01 0.  1.
</event>
<event>
 5   0  0.1226021E-04  0.2181908E+04  0.7818609E-02  0.8525997E-01
        2   -1    0    0  501    0  0.00000000000E+00  0.00000000000E+00  0.12041388794E+04  0.12041388794E+04  0.25500000920E-02 0. -1.
       -2   -1    0    0    0  501  0.00000000000E+00  0.00000000000E+00 -0.98840770178E+03  0.98840770178E+03  0.25500000920E-02 0.  1.
    10030    2    1    2    0    0  0.00000000000E+00  0.00000000000E+00  0.21573117762E+03  0.21925465812E+04  0.21819075530E+04 0.  0.
        2    1    3    3  502    0 -0.10594132639E+03  0.63360914142E+03  0.99392241200E+03  0.11834550561E+04  0.25500000920E-02 0. -1.
       -2    1    3    3    0  502  0.10594132639E+03 -0.63360914142E+03 -0.77819123438E+03  0.10090915251E+04  0.25500000920E-02 0.  1.
</event>
<event>
 5   0  0.1226021E-04  0.1918621E+04  0.7818609E-02  0.8645642E-01
        2   -1    0    0  501    0  0.00000000000E+00  0.00000000000E+00  0.25585655364E+04  0.25585655364E+04  0.25500000920E-02 0. -1.
       -2   -1    0    0    0  501  0.00000000000E+00  0.00000000000E+00 -0.35968472201E+03  0.35968472202E+03  0.25500000920E-02 0.  1.
    10030    2    1    2    0    0  0.00000000000E+00  0.00000000000E+00  0.21988808144E+04  0.29182502585E+04  0.19186213110E+04 0.  0.
        2    1    3    3  502    0  0.75560410623E+03 -0.21568904440E+03  0.19364372665E+04  0.20897963098E+04  0.25500000920E-02 0. -1.
       -2    1    3    3    0  502 -0.75560410623E+03  0.21568904440E+03  0.26244354789E+03  0.82845394867E+03  0.25500000920E-02 0.  1.
</event>
<event>
 5   0  0.1226021E-04  0.2204931E+04  0.7818609E-02  0.8516378E-01
       -2   -1    0    0    0  501  0.00000000000E+00  0.00000000000E+00  0.14625651407E+04  0.14625651407E+04  0.25500000920E-02 0.  1.
        2   -1    0    0  501    0  0.00000000000E+00  0.00000000000E+00 -0.83102667956E+03  0.83102667957E+03  0.25500000920E-02 0. -1.
    10030    2    1    2    0    0  0.00000000000E+00  0.00000000000E+00  0.63153846112E+03  0.22935918203E+04  0.22049314298E+04 0.  0.
        2    1    3    3  502    0  0.66335869242E+03 -0.85576201690E+03  0.99923094422E+02  0.10873628691E+04  0.25500000920E-02 0.  1.
       -2    1    3    3    0  502 -0.66335869242E+03  0.85576201690E+03  0.53161536670E+03  0.12062289511E+04  0.25500000920E-02 0. -1.
</event>
<event>
 5   0  0.5849604E-05  0.2193520E+04  0.7818609E-02  0.8521130E-01
        1   -1    0    0  501    0  0.00000000000E+00  0.00000000000E+00  0.12859902558E+04  0.12859902559E+04  0.50400001928E-02 0.  1.
       -1   -1    0    0    0  501  0.00000000000E+00  0.00000000000E+00 -0.93537475823E+03  0.93537475824E+03  0.50400001928E-02 0. -1.
    10030    2    1    2    0    0  0.00000000000E+00  0.00000000000E+00  0.35061549762E+03  0.22213650141E+04  0.21935202982E+04 0.  0.
        2    1    3    3  502    0  0.74785343808E+03  0.30912438229E+03  0.92500249709E+03  0.12290127209E+04  0.25500000920E-02 0.  1.
       -2    1    3    3    0  502 -0.74785343808E+03 -0.30912438229E+03 -0.57438699948E+03  0.99235229317E+03  0.25500000920E-02 0. -1.
</event>
<event>
 5   0  0.5981239E-05  0.2175872E+04  0.7818609E-02  0.8528538E-01
        1   -1    0    0  501    0  0.00000000000E+00  0.00000000000E+00  0.13024824278E+04  0.13024824278E+04  0.50400001928E-02 0.  1.
       -1   -1    0    0    0  501  0.00000000000E+00  0.00000000000E+00 -0.90872979688E+03  0.90872979690E+03  0.50400001928E-02 0. -1.
    10030    2    1    2    0    0  0.00000000000E+00  0.00000000000E+00  0.39375263095E+03  0.22112122247E+04  0.21758718640E+04 0.  0.
        4    1    3    3  502    0 -0.78360649126E+03 -0.60149562957E+03  0.66009411787E+03  0.11880917401E+04  0.12699999809E+01 0.  1.
       -4    1    3    3    0  502  0.78360649126E+03  0.60149562957E+03 -0.26634148692E+03  0.10231204846E+04  0.12699999809E+01 0. -1.
</event>
<event>
 5   0  0.6263558E-05  0.2067314E+04  0.7818609E-02  0.8575780E-01
        1   -1    0    0  501    0  0.00000000000E+00  0.00000000000E+00  0.11370542025E+04  0.11370542025E+04  0.50400001928E-02 0. -1.
       -1   -1    0    0    0  501  0.00000000000E+00  0.00000000000E+00 -0.93966250985E+03  0.93966250986E+03  0.50400001928E-02 0.  1.
    10030    2    1    2    0    0  0.00000000000E+00  0.00000000000E+00  0.19739169263E+03  0.20767167124E+04  0.20673143987E+04 0.  0.
        3    1    3    3  502    0  0.53697977150E+03 -0.60689728813E+03 -0.54592008393E+03  0.97708768367E+03  0.10100000352E+00 0.  1.
       -3    1    3    3    0  502 -0.53697977150E+03  0.60689728813E+03  0.74331177656E+03  0.10996290287E+04  0.10100000352E+00 0. -1.
</event>
<event>
 5   0  0.1404159E-04  0.2201512E+04  0.7818609E-02  0.8517799E-01
        2   -1    0    0  501    0  0.00000000000E+00  0.00000000000E+00  0.13432643359E+04  0.13432643359E+04  0.25500000920E-02 0. -1.
       -2   -1    0    0    0  501  0.00000000000E+00  0.00000000000E+00 -0.90202959491E+03  0.90202959491E+03  0.25500000920E-02 0.  1.
    10030    2    1    2    0    0  0.00000000000E+00  0.00000000000E+00  0.44123474097E+03  0.22452939308E+04  0.22015123754E+04 0.  0.
        5    1    3    3  502    0  0.10612616458E+04 -0.18298021673E+03  0.45292796880E+03  0.11682995658E+04  0.46999998093E+01 0. -1.
       -5    1    3    3    0  502 -0.10612616458E+04  0.18298021673E+03 -0.11693227825E+02  0.10769943650E+04  0.46999998093E+01 0.  1.
</event>
<event>
 5   0  0.5981239E-05  0.1908039E+04  0.7818609E-02  0.8650865E-01
        1   -1    0    0  501    0  0.00000000000E+00  0.00000000000E+00  0.12206482226E+04  0.12206482226E+04  0.50400001928E-02 0.  1.
       -1   -1    0    0    0  501  0.00000000000E+00  0.00000000000E+00 -0.74563087334E+03  0.74563087335E+03  0.50400001928E-02 0. -1.
    10030    2    1    2    0    0  0.00000000000E+00  0.00000000000E+00  0.47501734927E+03  0.19662790960E+04  0.19080387840E+04 0.  0.
        4    1    3    3  502    0 -0.86612710354E+03  0.71569951519E+02  0.64303376853E+03  0.10811070520E+04  0.12699999809E+01 0.  1.
       -4    1    3    3    0  502  0.86612710354E+03 -0.71569951519E+02 -0.16801641926E+03  0.88517204400E+03  0.12699999809E+01 0. -1.
</event>
<event>
 5   0  0.1252124E-04  0.2204679E+04  0.7818609E-02  0.8516483E-01
       -2   -1    0    0    0  501  0.00000000000E+00  0.00000000000E+00  0.11162863368E+04  0.11162863368E+04  0.25500000920E-02 0.  1.
        2   -1    0    0  501    0  0.00000000000E+00  0.00000000000E+00 -0.10885671434E+04  0.10885671434E+04  0.25500000920E-02 0. -1.
    10030    2    1    2    0    0  0.00000000000E+00  0.00000000000E+00  0.27719193398E+02  0.22048534803E+04  0.22046792320E+04 0.  0.
        3    1    3    3  502    0 -0.54475778429E+03  0.22923374229E+03  0.94444024181E+03  0.11141259052E+04  0.10100000352E+00 0.  1.
       -3    1    3    3    0  502  0.54475778429E+03 -0.22923374229E+03 -0.91672104842E+03  0.10907275750E+04  0.10100000352E+00 0. -1.
</event>
<event>
 5   0  0.5981239E-05  0.2168860E+04  0.7818609E-02  0.8531502E-01
       -1   -1    0    0    0  501  0.00000000000E+00  0.00000000000E+00  0.65008400051E+03  0.65008400053E+03  0.50400001928E-02 0. -1.
        1   -1    0    0  501    0  0.00000000000E+00  0.00000000000E+00 -0.18089797211E+04  0.18089797212E+04  0.50400001928E-02 0.  1.
    10030    2    1    2    0    0  0.00000000000E+00  0.00000000000E+00 -0.11588957206E+04  0.24590637217E+04  0.21688603219E+04 0.  0.
        4    1    3    3  502    0  0.50063795444E+02 -0.58905777671E+03 -0.16102076087E+04  0.17153033563E+04  0.12699999809E+01 0.  1.
       -4    1    3    3    0  502 -0.50063795444E+02  0.58905777671E+03  0.45131188810E+03  0.74376036541E+03  0.12699999809E+01 0. -1.
</event>
<event>
 5   0  0.5895063E-05  0.2202093E+04  0.7818609E-02  0.8517557E-01
        1   -1    0    0  501    0  0.00000000000E+00  0.00000000000E+00  0.19402382831E+04  0.19402382831E+04  0.50400001928E-02 0.  1.
       -1   -1    0    0    0  501  0.00000000000E+00  0.00000000000E+00 -0.62482191641E+03  0.62482191643E+03  0.50400001928E-02 0. -1.
    10030    2    1    2    0    0  0.00000000000E+00  0.00000000000E+00  0.13154163667E+04  0.25650601996E+04  0.22020930066E+04 0.  0.
        5    1    3    3  502    0 -0.10518944136E+04 -0.17013140565E+03  0.33478643960E+03  0.11169290948E+04  0.46999998093E+01 0. -1.
       -5    1    3    3    0  502  0.10518944136E+04  0.17013140565E+03  0.98062992711E+03  0.14481311048E+04  0.46999998093E+01 0.  1.
</event>
<event>
 5   0  0.6263558E-05  0.2236846E+04  0.7818609E-02  0.8503247E-01
        1   -1    0    0  501    0  0.00000000000E+00  0.00000000000E+00  0.20296464370E+04  0.20296464370E+04  0.50400001928E-02 0.  1.
       -1   -1    0    0    0  501  0.00000000000E+00  0.00000000000E+00 -0.61629923126E+03  0.61629923128E+03  0.50400001928E-02 0. -1.
    10030    2    1    2    0    0  0.00000000000E+00  0.00000000000E+00  0.14133472058E+04  0.26459456683E+04  0.22368455815E+04 0.  0.
        3    1    3    3  502    0 -0.15615138835E+03 -0.68784888000E+03  0.17333731477E+04  0.18713903433E+04  0.10100000352E+00 0.  1.
       -3    1    3    3    0  502  0.15615138835E+03  0.68784888000E+03 -0.32002594189E+03  0.77455532500E+03  0.10100000352E+00 0. -1.
</event>
<event>
 5   0  0.5861816E-05  0.2243736E+04  0.7818609E-02  0.8500442E-01
        1   -1    0    0  501    0  0.00000000000E+00  0.00000000000E+00  0.10152460766E+04  0.10152460766E+04  0.50400001928E-02 0. -1.
       -1   -1    0    0    0  501  0.00000000000E+00  0.00000000000E+00 -0.12396872609E+04  0.12396872610E+04  0.50400001928E-02 0.  1.
    10030    2    1    2    0    0  0.00000000000E+00  0.00000000000E+00 -0.22444118434E+03  0.22549333376E+04  0.22437358382E+04 0.  0.
        1    1    3    3  502    0 -0.93874910443E+03  0.56597808403E+03  0.12773141202E+03  0.11035834297E+04  0.50400001928E-02 0. -1.
       -1    1    3    3    0  502  0.93874910443E+03 -0.56597808403E+03 -0.35217259636E+03  0.11513499079E+04  0.50400001928E-02 0.  1.
</event>
<event>
 5   0  0.1311472E-04  0.2170410E+04  0.7818609E-02  0.8530846E-01
        2   -1    0    0  501    0  0.00000000000E+00  0.00000000000E+00  0.15689983863E+04  0.15689983863E+04  0.25500000920E-02 0. -1.
       -2   -1    0    0    0  501  0.00000000000E+00  0.00000000000E+00 -0.75058710613E+03  0.75058710613E+03  0.25500000920E-02 0.  1.
    10030    2    1    2    0    0  0.00000000000E+00  0.00000000000E+00  0.81841128015E+03  0.23195854924E+04  0.21704100611E+04 0.  0.
        4    1    3    3  502    0  0.92760259060E+03  0.31958883076E+03  0.90485369706E+03  0.13346705259E+04  0.12699999809E+01 0.  1.
       -4    1    3    3    0  502 -0.92760259060E+03 -0.31958883076E+03 -0.86442416911E+02  0.98491496647E+03  0.12699999809E+01 0. -1.
</event>
<event>
 5   0  0.1226021E-04  0.2113403E+04  0.7818609E-02  0.8555362E-01
       -2   -1    0    0    0  501  0.00000000000E+00  0.00000000000E+00  0.81743941932E+03  0.81743941932E+03  0.25500000920E-02 0.  1.
        2   -1    0    0  501    0  0.00000000000E+00  0.00000000000E+00 -0.13659946697E+04  0.13659946697E+04  0.25500000920E-02 0. -1.
    10030    2    1    2    0    0  0.00000000000E+00  0.00000000000E+00 -0.54855525042E+03  0.21834340891E+04  0.21134028387E+04 0.  0.
        2    1    3    3  502    0  0.46299465464E+03  0.52969179621E+03 -0.10888719909E+04  0.12963717298E+04  0.25500000920E-02 0. -1.
       -2    1    3    3    0  502 -0.46299465464E+03 -0.52969179621E+03  0.54031674048E+03  0.88706235928E+03  0.25500000920E-02 0.  1.
</event>
<event>
 5   0  0.6263558E-05  0.2181254E+04  0.7818609E-02  0.8526272E-01
       -1   -1    0    0    0  501  0.00000000000E+00  0.00000000000E+00  0.11333845760E+04  0.11333845760E+04  0.50400001928E-02 0.  1.
        1   -1    0    0  501    0  0.00000000000E+00  0.00000000000E+00 -0.10494820527E+04  0.10494820527E+04  0.50400001928E-02 0. -1.
    10030    2    1    2    0    0  0.00000000000E+00  0.00000000000E+00  0.83902523305E+02  0.21828666287E+04  0.21812535582E+04 0.  0.
        3    1    3    3  502    0 -0.78753250762E+03  0.70835525278E+03  0.30193588872E+03  0.11014263052E+04  0.10100000352E+00 0. -1.
       -3    1    3    3    0  502  0.78753250762E+03 -0.70835525278E+03 -0.21803336541E+03  0.10814403235E+04  0.10100000352E+00 0.  1.
</event>
<event>
 5   0  0.1252124E-04  0.1610311E+04  0.7818609E-02  0.8814239E-01
       -2   -1    0    0    0  501  0.00000000000E+00  0.00000000000E+00  0.30429396344E+03  0.30429396345E+03  0.25500000920E-02 0. -1.
        2   -1    0    0  501    0  0.00000000000E+00  0.00000000000E+00 -0.21304240791E+04  0.21304240791E+04  0.25500000920E-02 0.  1.
    10030    2    1    2    0    0  0.00000000000E+00  0.00000000000E+00 -0.18261301157E+04  0.24347180426E+04  0.16103107612E+04 0.  0.
        3    1    3    3  502    0  0.43885771602E+03 -0.58456379297E+03 -0.40265020418E+03  0.83452868140E+03  0.10100000352E+00 0. -1.
       -3    1    3    3    0  502 -0.43885771602E+03  0.58456379297E+03 -0.14234799115E+04  0.16001893612E+04  0.10100000352E+00 0.  1.
</event>
<event>
 5   0  0.5861816E-05  0.2172704E+04  0.7818609E-02  0.8529876E-01
        1   -1    0    0  501    0  0.00000000000E+00  0.00000000000E+00  0.11088119111E+04  0.11088119111E+04  0.50400001928E-02 0.  1.
       -1   -1    0    0    0  501  0.00000000000E+00  0.00000000000E+00 -0.10643469237E+04  0.10643469237E+04  0.50400001928E-02 0. -1.
    10030    2    1    2    0    0  0.00000000000E+00  0.00000000000E+00  0.44464987458E+02  0.21731588348E+04  0.21727038883E+04 0.  0.
        1    1    3    3  502    0 -0.95677030843E+03 -0.41765420488E+03 -0.27835678663E+03  0.10804290623E+04  0.50400001928E-02 0.  1.
       -1    1    3    3    0  502  0.95677030843E+03  0.41765420488E+03  0.32282177409E+03  0.10927297725E+04  0.50400001928E-02 0. -1.
</event>
<event>
 5   0  0.5981239E-05  0.2212081E+04  0.7818609E-02  0.8513416E-01
       -1   -1    0    0    0  501  0.00000000000E+00  0.00000000000E+00  0.67137891857E+03  0.67137891859E+03  0.50400001928E-02 0.  1.
        1   -1    0    0  501    0  0.00000000000E+00  0.00000000000E+00 -0.18221094508E+04  0.18221094508E+04  0.50400001928E-02 0. -1.
    10030    2    1    2    0    0  0.00000000000E+00  0.00000000000E+00 -0.11507305322E+04  0.24934883694E+04  0.22120812577E+04 0.  0.
        4    1    3    3  502    0  0.90393197159E+03 -0.62879246946E+03 -0.45794399647E+03  0.11925549445E+04  0.12699999809E+01 0. -1.
       -4    1    3    3    0  502 -0.90393197159E+03  0.62879246946E+03 -0.69278653576E+03  0.13009334249E+04  0.12699999809E+01 0.  1.
</event>
<event>
 5   0  0.5895063E-05  0.2181191E+04  0.7818609E-02  0.8526298E-01
       -1   -1    0    0    0  501  0.00000000000E+00  0.00000000000E+00  0.14534373522E+04  0.14534373522E+04  0.50400001928E-02 0. -1.
        1   -1    0    0  501    0  0.00000000000E+00  0.00000000000E+00 -0.81833483651E+03  0.81833483652E+03  0.50400001928E-02 0.  1.
    10030    2    1    2    0    0  0.00000000000E+00  0.00000000000E+00  0.63510251565E+03  0.22717721887E+04  0.21811908839E+04 0.  0.
        5    1    3    3  502    0  0.94967554257E+03 -0.44557765394E+03  0.69151004729E+01  0.10490438458E+04  0.46999998093E+01 0. -1.
       -5    1    3    3    0  502 -0.94967554257E+03  0.44557765394E+03  0.62818741518E+03  0.12227283429E+04  0.46999998093E+01 0.  1.
</event>
<event>
 5   0  0.1252124E-04  0.2187431E+04  0.7818609E-02  0.8523678E-01
        2   -1    0    0  501    0  0.00000000000E+00  0.00000000000E+00  0.17760893250E+04  0.17760893251E+04  0.25500000920E-02 0.  1.
       -2   -1    0    0    0  501  0.00000000000E+00  0.00000000000E+00 -0.67351005417E+03  0.67351005417E+03  0.25500000920E-02 0. -1.
    10030    2    1    2    0    0  0.00000000000E+00  0.00000000000E+00  0.11025792709E+04  0.24495993792E+04  0.21874313864E+04 0.  0.
        3    1    3    3  502    0  0.22912976127E+03  0.17841503240E+03  0.17321264994E+04  0.17563013954E+04  0.10100000352E+00 0.  1.
       -3    1    3    3    0  502 -0.22912976127E+03 -0.17841503240E+03 -0.62954722851E+03  0.69329798385E+03  0.10100000352E+00 0. -1.
</event>
<event>
 5   0  0.5861816E-05  0.2189485E+04  0.7818609E-02  0.8522817E-01
        1   -1    0    0  501    0  0.00000000000E+00  0.00000000000E+00  0.94906308083E+03  0.94906308084E+03  0.50400001928E-02 0.  1.
       -1   -1    0    0    0  501  0.00000000000E+00  0.00000000000E+00 -0.12627836087E+04  0.12627836088E+04  0.50400001928E-02 0. -1.
    10030    2    1    2    0    0  0.00000000000E+00  0.00000000000E+00 -0.31372052792E+03  0.22118466896E+04  0.21894851469E+04 0.  0.
        1    1    3    3  502    0 -0.10573539890E+04 -0.10578788573E+03 -0.42274553895E+03  0.11436355738E+04  0.50400001928E-02 0. -1.
       -1    1    3    3    0  502  0.10573539890E+04  0.10578788573E+03  0.10902501103E+03  0.10682111158E+04  0.50400001928E-02 0.  1.
</event>
<event>
 5   0  0.1241430E-04  0.2170804E+04  0.7818609E-02  0.8530679E-01
        2   -1    0    0  501    0  0.00000000000E+00  0.00000000000E+00  0.14223997928E+04  0.14223997928E+04  0.25500000920E-02 0. -1.
       -2   -1    0    0    0  501  0.00000000000E+00  0.00000000000E+00 -0.82824629114E+03  0.82824629114E+03  0.25500000920E-02 0.  1.
    10030    2    1    2    0    0  0.00000000000E+00  0.00000000000E+00  0.59415350168E+03  0.22506460840E+04  0.21708038630E+04 0.  0.
        1    1    3    3  502    0  0.96691440076E+03  0.41287122251E+03  0.17508775535E+02  0.10515192162E+04  0.50400001928E-02 0.  1.
       -1    1    3    3    0  502 -0.96691440076E+03 -0.41287122251E+03  0.57664472614E+03  0.11991268678E+04  0.50400001928E-02 0. -1.
</event>
<event>
 5   0  0.5981239E-05  0.1782179E+04  0.7818609E-02  0.8715834E-01
        1   -1    0    0  501    0  0.00000000000E+00  0.00000000000E+00  0.18605063805E+04  0.18605063805E+04  0.50400001928E-02 0.  1.
       -1   -1    0    0    0  501  0.00000000000E+00  0.00000000000E+00 -0.42678725038E+03  0.42678725041E+03  0.50400001928E-02 0. -1.
    10030    2    1    2    0    0  0.00000000000E+00  0.00000000000E+00  0.14337191301E+04  0.22872936309E+04  0.17821788939E+04 0.  0.
        4    1    3    3  502    0  0.23899776516E+03 -0.60630084870E+03  0.14968170742E+04  0.16325390094E+04  0.12699999809E+01 0.  1.
       -4    1    3    3    0  502 -0.23899776516E+03  0.60630084870E+03 -0.63097944068E+02  0.65475462147E+03  0.12699999809E+01 0. -1.
</event>
<event>
 5   0  0.5895063E-05  0.2215710E+04  0.7818609E-02  0.8511918E-01
       -1   -1    0    0    0  501  0.00000000000E+00  0.00000000000E+00  0.15306263408E+04  0.15306263408E+04  0.50400001928E-02 0. -1.
        1   -1    0    0  501    0  0.00000000000E+00  0.00000000000E+00 -0.80185622600E+03  0.80185622601E+03  0.50400001928E-02 0.  1.
    10030    2    1    2    0    0  0.00000000000E+00  0.00000000000E+00  0.72877011480E+03  0.23324825668E+04  0.22157096029E+04 0.  0.
        5    1    3    3  502    0 -0.11012578463E+03 -0.10697092726E+04  0.64471743277E+03  0.12538294439E+04  0.46999998093E+01 0. -1.
       -5    1    3    3    0  502  0.11012578463E+03  0.10697092726E+04  0.84052682026E+02  0.10786531229E+04  0.46999998093E+01 0.  1.
</event>
<event>
 5   0  0.5849604E-05  0.2240338E+04  0.7818609E-02  0.8501824E-01
       -1   -1    0    0    0  501  0.00000000000E+00  0.00000000000E+00  0.75597294757E+03  0.75597294758E+03  0.50400001928E-02 0. -1.
        1   -1    0    0  501    0  0.00000000000E+00  0.00000000000E+00 -0.16598197361E+04  0.16598197361E+04  0.50400001928E-02 0.  1.
    10030    2    1    2    0    0  0.00000000000E+00  0.00000000000E+00 -0.90384678855E+03  0.24157926837E+04  0.22403382052E+04 0.  0.
        2    1    3    3  502    0 -0.16829696343E+03  0.70567041063E+03 -0.13722800377E+04  0.15522393818E+04  0.25500000920E-02 0.  1.
       -2    1    3    3    0  502  0.16829696343E+03 -0.70567041063E+03  0.46843324919E+03  0.86355330194E+03  0.25500000920E-02 0. -1.
</event>
<event>
 5   0  0.5849604E-05  0.2171028E+04  0.7818609E-02  0.8530585E-01
       -1   -1    0    0    0  501  0.00000000000E+00  0.00000000000E+00  0.73943274963E+03  0.73943274964E+03  0.50400001928E-02 0.  1.
        1   -1    0    0  501    0  0.00000000000E+00  0.00000000000E+00 -0.15935735244E+04  0.15935735244E+04  0.50400001928E-02 0. -1.
    10030    2    1    2    0    0  0.00000000000E+00  0.00000000000E+00 -0.85414077477E+03  0.23330062740E+04  0.21710278238E+04 0.  0.
        2    1    3    3  502    0  0.10973365696E+03 -0.13095024395E+03  0.72489404209E+03  0.74475553984E+03  0.25500000920E-02 0.  1.
       -2    1    3    3    0  502 -0.10973365696E+03  0.13095024395E+03 -0.15790348169E+04  0.15882507342E+04  0.25500000920E-02 0. -1.
</event>
<event>
 5   0  0.5895063E-05  0.2187789E+04  0.7818609E-02  0.8523528E-01
        1   -1    0    0  501    0  0.00000000000E+00  0.00000000000E+00  0.20828733095E+04  0.20828733095E+04  0.50400001928E-02 0.  1.
       -1   -1    0    0    0  501  0.00000000000E+00  0.00000000000E+00 -0.57449755670E+03  0.57449755672E+03  0.50400001928E-02 0. -1.
    10030    2    1    2    0    0  0.00000000000E+00  0.00000000000E+00  0.15083757528E+04  0.26573708662E+04  0.21877894115E+04 0.  0.
        5    1    3    3  502    0  0.38611857817E+03 -0.99143339417E+03  0.44557481240E+03  0.11535106133E+04  0.46999998093E+01 0. -1.
       -5    1    3    3    0  502 -0.38611857817E+03  0.99143339417E+03  0.10628009404E+04  0.15038602529E+04  0.46999998093E+01 0.  1.
</event>
<event>
 5   0  0.1226021E-04  0.1389782E+04  0.7818609E-02  0.8961249E-01
        2   -1    0    0  501    0  0.00000000000E+00  0.00000000000E+00  0.91709001049E+03  0.91709001050E+03  0.25500000920E-02 0. -1.
       -2   -1    0    0    0  501  0.00000000000E+00  0.00000000000E+00 -0.52652763776E+03  0.52652763777E+03  0.25500000920E-02 0.  1.
    10030    2    1    2    0    0  0.00000000000E+00  0.00000000000E+00  0.39056237273E+03  0.14436176483E+04  0.13897816186E+04 0.  0.
        2    1    3    3  502    0 -0.61192316334E+03  0.77190692950E+02 -0.13721994594E+03  0.63185257337E+03  0.25500000920E-02 0. -1.
       -2    1    3    3    0  502  0.61192316334E+03 -0.77190692950E+02  0.52778231867E+03  0.81176507489E+03  0.25500000920E-02 0.  1.
</event>
<event>
 5   0  0.5981239E-05  0.2189921E+04  0.7818609E-02  0.8522635E-01
        1   -1    0    0  501    0  0.00000000000E+00  0.00000000000E+00  0.84643590063E+03  0.84643590065E+03  0.50400001928E-02 0.  1.
       -1   -1    0    0    0  501  0.00000000000E+00  0.00000000000E+00 -0.14164555085E+04  0.14164555085E+04  0.50400001928E-02 0. -1.
    10030    2    1    2    0    0  0.00000000000E+00  0.00000000000E+00 -0.57001960782E+03  0.22628914091E+04  0.21899212717E+04 0.  0.
        4    1    3    3  502    0  0.17047851902E+03  0.10640948855E+04 -0.48531508232E+03  0.11819023618E+04  0.12699999809E+01 0.  1.
       -4    1    3    3    0  502 -0.17047851902E+03 -0.10640948855E+04 -0.84704525502E+02  0.10809890473E+04  0.12699999809E+01 0. -1.
</event>
<event>
 5   0  0.5861816E-05  0.2180780E+04  0.7818609E-02  0.8526471E-01
       -1   -1    0    0    0  501  0.00000000000E+00  0.00000000000E+00  0.12833863171E+04  0.12833863171E+04  0.50400001928E-02 0. -1.
        1   -1    0    0  501    0  0.00000000000E+00  0.00000000000E+00 -0.92641697901E+03  0.92641697902E+03  0.50400001928E-02 0.  1.
    10030    2    1    2    0    0  0.00000000000E+00  0.00000000000E+00  0.35696933807E+03  0.22098032961E+04  0.21807804794E+04 0.  0.
        1    1    3    3  502    0  0.12190996744E+03 -0.97431102306E+03 -0.30196339814E+03  0.10272905644E+04  0.50400001928E-02 0.  1.
       -1    1    3    3    0  502 -0.12190996744E+03  0.97431102306E+03  0.65893273621E+03  0.11825127317E+04  0.50400001928E-02 0. -1.
</event>
<event>
 5   0  0.5861816E-05  0.2199705E+04  0.7818609E-02  0.8518551E-01
       -1   -1    0    0    0  501  0.00000000000E+00  0.00000000000E+00  0.48072580138E+03  0.48072580141E+03  0.50400001928E-02 0. -1.
        1   -1    0    0  501    0  0.00000000000E+00  0.00000000000E+00 -0.25163516750E+04  0.25163516750E+04  0.50400001928E-02 0.  1.
    10030    2    1    2    0    0  0.00000000000E+00  0.00000000000E+00 -0.20356258736E+04  0.29970774764E+04  0.21997046852E+04 0.  0.
        1    1    3    3  502    0  0.10354185039E+04 -0.10804767786E+02 -0.51264852761E+03  0.11554292424E+04  0.50400001928E-02 0. -1.
       -1    1    3    3    0  502 -0.10354185039E+04  0.10804767786E+02 -0.15229773460E+04  0.18416482340E+04  0.50400001928E-02 0.  1.
</event>
<event>
 5   0  0.1311472E-04  0.2226574E+04  0.7818609E-02  0.8507448E-01
        2   -1    0    0  501    0  0.00000000000E+00  0.00000000000E+00  0.82559020477E+03  0.82559020478E+03  0.25500000920E-02 0.  1.
       -2   -1    0    0    0  501  0.00000000000E+00  0.00000000000E+00 -0.15012385877E+04  0.15012385877E+04  0.25500000920E-02 0. -1.
    10030    2    1    2    0    0  0.00000000000E+00  0.00000000000E+00 -0.67564838288E+03  0.23268287924E+04  0.22265739359E+04 0.  0.
        4    1    3    3  502    0 -0.89507018764E+02  0.21099732700E+03 -0.14763156524E+04  0.14940016388E+04  0.12699999809E+01 0. -1.
       -4    1    3    3    0  502  0.89507018764E+02 -0.21099732700E+03  0.80066726952E+03  0.83282715361E+03  0.12699999809E+01 0.  1.
</event>
<event>
 5   0  0.6263558E-05  0.2189495E+04  0.7818609E-02  0.8522813E-01
       -1   -1    0    0    0  501  0.00000000000E+00  0.00000000000E+00  0.10561243492E+04  0.10561243492E+04  0.50400001928E-02 0. -1.
        1   -1    0    0  501    0  0.00000000000E+00  0.00000000000E+00 -0.11347829531E+04  0.11347829531E+04  0.50400001928E-02 0.  1.
    10030    2    1    2    0    0  0.00000000000E+00  0.00000000000E+00 -0.78658603859E+02  0.21909073023E+04  0.21894948347E+04 0.  0.
        3    1    3    3  502    0  0.59487297988E+03  0.33157006807E+03 -0.89700494284E+03  0.11262461764E+04  0.10100000352E+00 0.  1.
       -3    1    3    3    0  502 -0.59487297988E+03 -0.33157006807E+03  0.81834633898E+03  0.10646611259E+04  0.10100000352E+00 0. -1.
</event>
<event>
 5   0  0.1311472E-04  0.2290092E+04  0.7818609E-02  0.8481838E-01
       -2   -1    0    0    0  501  0.00000000000E+00  0.00000000000E+00  0.82186949578E+03  0.82186949579E+03  0.25500000920E-02 0.  1.
        2   -1    0    0  501    0  0.00000000000E+00  0.00000000000E+00 -0.15953024425E+04  0.15953024425E+04  0.25500000920E-02 0. -1.
    10030    2    1    2    0    0  0.00000000000E+00  0.00000000000E+00 -0.77343294669E+03  0.24171719383E+04  0.22900920628E+04 0.  0.
        4    1    3    3  502    0  0.46852350383E+03  0.72165348984E+03 -0.11841753362E+04  0.14637523263E+04  0.12699999809E+01 0. -1.
       -4    1    3    3    0  502 -0.46852350383E+03 -0.72165348984E+03  0.41074238949E+03  0.95341961196E+03  0.12699999809E+01 0.  1.
</event>
<event>
 5   0  0.1252124E-04  0.2230089E+04  0.7818609E-02  0.8506008E-01
        2   -1    0    0  501    0  0.00000000000E+00  0.00000000000E+00  0.10984918085E+04  0.10984918085E+04  0.25500000920E-02 0. -1.
       -2   -1    0    0    0  501  0.00000000000E+00  0.00000000000E+00 -0.11318467086E+04  0.11318467086E+04  0.25500000920E-02 0.  1.
    10030    2    1    2    0    0  0.00000000000E+00  0.00000000000E+00 -0.33354900103E+02  0.22303385172E+04  0.22300890906E+04 0.  0.
        3    1    3    3  502    0 -0.10354515170E+04  0.41090713200E+03 -0.64847270323E+02  0.11158896423E+04  0.10100000352E+00 0.  1.
       -3    1    3    3    0  502  0.10354515170E+04 -0.41090713200E+03  0.31492370221E+02  0.11144488749E+04  0.10100000352E+00 0. -1.
</event>
<event>
 5   0  0.1241430E-04  0.2196597E+04  0.7818609E-02  0.8519846E-01
       -2   -1    0    0    0  501  0.00000000000E+00  0.00000000000E+00  0.12443590195E+04  0.12443590195E+04  0.25500000920E-02 0.  1.
        2   -1    0    0  501    0  0.00000000000E+00  0.00000000000E+00 -0.96938243668E+03  0.96938243668E+03  0.25500000920E-02 0. -1.
    10030    2    1    2    0    0  0.00000000000E+00  0.00000000000E+00  0.27497658285E+03  0.22137414562E+04  0.21965971669E+04 0.  0.
        1    1    3    3  502    0  0.71000920369E+02 -0.51878243744E+03  0.11104682006E+04  0.12277279718E+04  0.50400001928E-02 0.  1.
       -1    1    3    3    0  502 -0.71000920369E+02  0.51878243744E+03 -0.83549161777E+03  0.98601348443E+03  0.50400001928E-02 0. -1.
</event>
<event>
 5   0  0.1311472E-04  0.2189647E+04  0.7818609E-02  0.8522750E-01
       -2   -1    0    0    0  501  0.00000000000E+00  0.00000000000E+00  0.89350477822E+03  0.89350477823E+03  0.25500000920E-02 0. -1.
        2   -1    0    0  501    0  0.00000000000E+00  0.00000000000E+00 -0.13415023719E+04  0.13415023719E+04  0.25500000920E-02 0.  1.
    10030    2    1    2    0    0  0.00000000000E+00  0.00000000000E+00 -0.44799759364E+03  0.22350071501E+04  0.21896472586E+04 0.  0.
        4    1    3    3  502    0 -0.78288773761E+03  0.35055186166E+03  0.47041598623E+03  0.97831111126E+03  0.12699999809E+01 0. -1.
       -4    1    3    3    0  502  0.78288773761E+03 -0.35055186166E+03 -0.91841357987E+03  0.12566960388E+04  0.12699999809E+01 0.  1.
</event>
<event>
 5   0  0.6263558E-05  0.2177075E+04  0.7818609E-02  0.8528031E-01
        1   -1    0    0  501    0  0.00000000000E+00  0.00000000000E+00  0.21885115069E+04  0.21885115069E+04  0.50400001928E-02 0.  1.
       -1   -1    0    0    0  501  0.00000000000E+00  0.00000000000E+00 -0.54142436348E+03  0.54142436350E+03  0.50400001928E-02 0. -1.
    10030    2    1    2    0    0  0.00000000000E+00  0.00000000000E+00  0.16470871434E+04  0.27299358704E+04  0.21770745965E+04 0.  0.
        3    1    3    3  502    0  0.57008687707E+03 -0.37040924324E+03 -0.24246717479E+03  0.72179802988E+03  0.10100000352E+00 0. -1.
       -3    1    3    3    0  502 -0.57008687707E+03  0.37040924324E+03  0.18895543182E+04  0.20081378405E+04  0.10100000352E+00 0.  1.
</event>
<event>
 5   0  0.1252124E-04  0.2195032E+04  0.7818609E-02  0.8520499E-01
       -2   -1    0    0    0  501  0.00000000000E+00  0.00000000000E+00  0.66980341956E+03  0.66980341957E+03  0.25500000920E-02 0.  1.
        2   -1    0    0  501    0  0.00000000000E+00  0.00000000000E+00 -0.17983507824E+04  0.17983507824E+04  0.25500000920E-02 0. -1.
    10030    2    1    2    0    0  0.00000000000E+00  0.00000000000E+00 -0.11285473628E+04  0.24681542020E+04  0.21950321215E+04 0.  0.
        3    1    3    3  502    0 -0.33192653212E+03 -0.36225301931E+03 -0.16677827299E+04  0.17386493946E+04  0.10100000352E+00 0. -1.
       -3    1    3    3    0  502  0.33192653212E+03  0.36225301931E+03  0.53923536709E+03  0.72950480742E+03  0.10100000352E+00 0.  1.
</event>
<event>
 5   0  0.5861816E-05  0.2154455E+04  0.7818609E-02  0.8537628E-01
       -1   -1    0    0    0  501  0.00000000000E+00  0.00000000000E+00  0.52500332597E+03  0.52500332599E+03  0.50400001928E-02 0. -1.
        1   -1    0    0  501    0  0.00000000000E+00  0.00000000000E+00 -0.22103084372E+04  0.22103084372E+04  0.50400001928E-02 0.  1.
    10030    2    1    2    0    0  0.00000000000E+00  0.00000000000E+00 -0.16853051112E+04  0.27353117632E+04  0.21544551803E+04 0.  0.
        1    1    3    3  502    0  0.72043949657E+03  0.28033991637E+03 -0.17951082259E+04  0.19544915144E+04  0.50400001928E-02 0.  1.
       -1    1    3    3    0  502 -0.72043949657E+03 -0.28033991637E+03  0.10980311472E+03  0.78082024881E+03  0.50400001928E-02 0. -1.
</event>
<event>
 5   0  0.1311472E-04  0.2182907E+04  0.7818609E-02  0.8525577E-01
       -2   -1    0    0    0  501  0.00000000000E+00  0.00000000000E+00  0.56785341306E+03  0.56785341307E+03  0.25500000920E-02 0.  1.
        2   -1    0    0  501    0  0.00000000000E+00  0.00000000000E+00 -0.20978484429E+04  0.20978484429E+04  0.25500000920E-02 0. -1.
    10030    2    1    2    0    0  0.00000000000E+00  0.00000000000E+00 -0.15299950298E+04  0.26657018560E+04  0.21829066846E+04 0.  0.
        4    1    3    3  502    0  0.31939241326E+03  0.82822519452E+03 -0.15405133600E+04  0.17779627419E+04  0.12699999809E+01 0. -1.
       -4    1    3    3    0  502 -0.31939241326E+03 -0.82822519452E+03  0.10518330115E+02  0.88773911407E+03  0.12699999809E+01 0.  1.
</event>
<event>
 5   0  0.1226021E-04  0.2260933E+04  0.7818609E-02  0.8493486E-01
        2   -1    0    0  501    0  0.00000000000E+00  0.00000000000E+00  0.10153727652E+04  0.10153727652E+04  0.25500000920E-02 0. -1.
       -2   -1    0    0    0  501  0.00000000000E+00  0.00000000000E+00 -0.12586060097E+04  0.12586060097E+04  0.25500000920E-02 0.  1.
    10030    2    1    2    0    0  0.00000000000E+00  0.00000000000E+00 -0.24323324447E+03  0.22739787749E+04  0.22609327848E+04 0.  0.
        2    1    3    3  502    0 -0.56300724461E+03  0.45182878205E+03  0.75336173391E+03  0.10433984416E+04  0.25500000920E-02 0. -1.
       -2    1    3    3    0  502  0.56300724461E+03 -0.45182878205E+03 -0.99659497837E+03  0.12305803333E+04  0.25500000920E-02 0.  1.
</event>
<event>
 5   0  0.1241430E-04  0.1956898E+04  0.7818609E-02  0.8627041E-01
        2   -1    0    0  501    0  0.00000000000E+00  0.00000000000E+00  0.96967714043E+03  0.96967714043E+03  0.25500000920E-02 0. -1.
       -2   -1    0    0    0  501  0.00000000000E+00  0.00000000000E+00 -0.98730054113E+03  0.98730054113E+03  0.25500000920E-02 0.  1.
    10030    2    1    2    0    0  0.00000000000E+00  0.00000000000E+00 -0.17623400700E+02  0.19569776816E+04  0.19568983269E+04 0.  0.
        1    1    3    3  502    0  0.83747729781E+03 -0.29989823831E+03  0.39870401167E+03  0.97481899173E+03  0.50400001928E-02 0.  1.
       -1    1    3    3    0  502 -0.83747729781E+03  0.29989823831E+03 -0.41632741237E+03  0.98215868983E+03  0.50400001928E-02 0. -1.
</event>
<event>
 5   0  0.1241430E-04  0.1999423E+04  0.7818609E-02  0.8606890E-01
        2   -1    0    0  501    0  0.00000000000E+00  0.00000000000E+00  0.19570946357E+04  0.19570946357E+04  0.25500000920E-02 0.  1.
       -2   -1    0    0    0  501  0.00000000000E+00  0.00000000000E+00 -0.51066684562E+03  0.51066684563E+03  0.25500000920E-02 0. -1.
    10030    2    1    2    0    0  0.00000000000E+00  0.00000000000E+00  0.14464277901E+04  0.24677614814E+04  0.19994232611E+04 0.  0.
        1    1    3    3  502    0 -0.21994616074E+03  0.45315665212E+03  0.17890228642E+04  0.18585828132E+04  0.50400001928E-02 0.  1.
       -1    1    3    3    0  502  0.21994616074E+03 -0.45315665212E+03 -0.34259507404E+03  0.60917866818E+03  0.50400001928E-02 0. -1.
</event>
<event>
 5   0  0.1226021E-04  0.2005951E+04  0.7818609E-02  0.8603844E-01
        2   -1    0    0  501    0  0.00000000000E+00  0.00000000000E+00  0.78426026092E+03  0.78426026092E+03  0.25500000920E-02 0. -1.
       -2   -1    0    0    0  501  0.00000000000E+00  0.00000000000E+00 -0.12826858256E+04  0.12826858256E+04  0.25500000920E-02 0.  1.
    10030    2    1    2    0    0  0.00000000000E+00  0.00000000000E+00 -0.49842556466E+03  0.20669460865E+04  0.20059506676E+04 0.  0.
        2    1    3    3  502    0  0.28300699032E+03  0.86620245347E+03 -0.68095202951E+03  0.11375831018E+04  0.25500000920E-02 0.  1.
       -2    1    3    3    0  502 -0.28300699032E+03 -0.86620245347E+03  0.18252646486E+03  0.92936298471E+03  0.25500000920E-02 0. -1.
</event>
<event>
 5   0  0.5849604E-05  0.2159477E+04  0.7818609E-02  0.8535487E-01
        1   -1    0    0  501    0  0.00000000000E+00  0.00000000000E+00  0.15672369742E+04  0.15672369742E+04  0.50400001928E-02 0. -1.
       -1   -1    0    0    0  501  0.00000000000E+00  0.00000000000E+00 -0.74387923419E+03  0.74387923421E+03  0.50400001928E-02 0.  1.
    10030    2    1    2    0    0  0.00000000000E+00  0.00000000000E+00  0.82335773996E+03  0.23111162084E+04  0.21594768257E+04 0.  0.
        2    1    3    3  502    0 -0.71482000904E+03  0.65586303331E+03 -0.95645208979E+02  0.97481894206E+03  0.25500000920E-02 0.  1.
       -2    1    3    3    0  502  0.71482000904E+03 -0.65586303331E+03  0.91900294894E+03  0.13362972663E+04  0.25500000920E-02 0. -1.
</event>
<event>
 5   0  0.5849604E-05  0.2187770E+04  0.7818609E-02  0.8523536E-01
        1   -1    0    0  501    0  0.00000000000E+00  0.00000000000E+00  0.11493701714E+04  0.11493701714E+04  0.50400001928E-02 0.  1.
       -1   -1    0    0    0  501  0.00000000000E+00  0.00000000000E+00 -0.10410786141E+04  0.10410786141E+04  0.50400001928E-02 0. -1.
    10030    2    1    2    0    0  0.00000000000E+00  0.00000000000E+00  0.10829155732E+03  0.21904487856E+04  0.21877702852E+04 0.  0.
        2    1    3    3  502    0  0.49824070859E+03  0.96513476973E+03 -0.75842975756E+02  0.10887979998E+04  0.25500000920E-02 0.  1.
       -2    1    3    3    0  502 -0.49824070859E+03 -0.96513476973E+03  0.18413453308E+03  0.11016507857E+04  0.25500000920E-02 0. -1.
</event>
<event>
 5   0  0.5981239E-05  0.2253347E+04  0.7818609E-02  0.8496546E-01
        1   -1    0    0  501    0  0.00000000000E+00  0.00000000000E+00  0.16217447953E+04  0.16217447953E+04  0.50400001928E-02 0.  1.
       -1   -1    0    0    0  501  0.00000000000E+00  0.00000000000E+00 -0.78273286876E+03  0.78273286878E+03  0.50400001928E-02 0. -1.
    10030    2    1    2    0    0  0.00000000000E+00  0.00000000000E+00  0.83901192656E+03  0.24044776641E+04  0.22533468052E+04 0.  0.
        4    1    3    3  502    0  0.81373890350E+03 -0.77211649127E+03  0.30730390141E+03  0.11630873483E+04  0.12699999809E+01 0.  1.
       -4    1    3    3    0  502 -0.81373890350E+03  0.77211649127E+03  0.53170802516E+03  0.12413903158E+04  0.12699999809E+01 0. -1.
</event>
<event>
 5   0  0.5895063E-05  0.2336541E+04  0.7818609E-02  0.8463651E-01
       -1   -1    0    0    0  501  0.00000000000E+00  0.00000000000E+00  0.73518276574E+03  0.73518276576E+03  0.50400001928E-02 0.  1.
        1   -1    0    0  501    0  0.00000000000E+00  0.00000000000E+00 -0.18564859666E+04  0.18564859666E+04  0.50400001928E-02 0. -1.
    10030    2    1    2    0    0  0.00000000000E+00  0.00000000000E+00 -0.11213032009E+04  0.25916687324E+04  0.23365414505E+04 0.  0.
        5    1    3    3  502    0 -0.13235168289E+03  0.84363732118E+03  0.32364045403E+03  0.91323936136E+03  0.46999998093E+01 0.  1.
       -5    1    3    3    0  502  0.13235168289E+03 -0.84363732118E+03 -0.14449436549E+04  0.16784293710E+04  0.46999998093E+01 0. -1.
</event>
<event>
 5   0  0.5895063E-05  0.2201292E+04  0.7818609E-02  0.8517890E-01
       -1   -1    0    0    0  501  0.00000000000E+00  0.00000000000E+00  0.82546328094E+03  0.82546328095E+03  0.50400001928E-02 0. -1.
        1   -1    0    0  501    0  0.00000000000E+00  0.00000000000E+00 -0.14675663865E+04  0.14675663865E+04  0.50400001928E-02 0.  1.
    10030    2    1    2    0    0  0.00000000000E+00  0.00000000000E+00 -0.64210310559E+03  0.22930296675E+04  0.22012924971E+04 0.  0.
        5    1    3    3  502    0  0.50126467124E+03  0.96329961893E+03 -0.50793745522E+03  0.11988473526E+04  0.46999998093E+01 0.  1.
       -5    1    3    3    0  502 -0.50126467124E+03 -0.96329961893E+03 -0.13416565038E+03  0.10941823149E+04  0.46999998093E+01 0. -1.
</event>
<event>
 5   0  0.1252124E-04  0.2153161E+04  0.7818609E-02  0.8538181E-01
        2   -1    0    0  501    0  0.00000000000E+00  0.00000000000E+00  0.12485056441E+04  0.12485056441E+04  0.25500000920E-02 0.  1.
       -2   -1    0    0    0  501  0.00000000000E+00  0.00000000000E+00 -0.92832995818E+03  0.92832995818E+03  0.25500000920E-02 0. -1.
    10030    2    1    2    0    0  0.00000000000E+00  0.00000000000E+00  0.32017568589E+03  0.21768356023E+04  0.21531606464E+04 0.  0.
        3    1    3    3  502    0  0.76896763290E+03 -0.72834853530E+03  0.35514021027E+03  0.11171067042E+04  0.10100000352E+00 0. -1.
       -3    1    3    3    0  502 -0.76896763290E+03  0.72834853530E+03 -0.34964524377E+02  0.10597288981E+04  0.10100000352E+00 0.  1.
</event>
<event>
 5   0  0.1252124E-04  0.2308201E+04  0.7818609E-02  0.8474695E-01
        2   -1    0    0  501    0  0.00000000000E+00  0.00000000000E+00  0.88102256907E+03  0.88102256908E+03  0.25500000920E-02 0.  1.
       -2   -1    0    0    0  501  0.00000000000E+00  0.00000000000E+00 -0.15118203761E+04  0.15118203761E+04  0.25500000920E-02 0. -1.
    10030    2    1    2    0    0  0.00000000000E+00  0.00000000000E+00 -0.63079780706E+03  0.23928429452E+04  0.23082009200E+04 0.  0.
        3    1    3    3  502    0  0.50713726768E+03 -0.70774952677E+03 -0.11007066408E+04  0.14034431660E+04  0.10100000352E+00 0. -1.
       -3    1    3    3    0  502 -0.50713726768E+03  0.70774952677E+03  0.46990883372E+03  0.98939977922E+03  0.10100000352E+00 0.  1.
</event>
<event>
 5   0  0.5895063E-05  0.2076151E+04  0.7818609E-02  0.8571822E-01
       -1   -1    0    0    0  501  0.00000000000E+00  0.00000000000E+00  0.13824982244E+04  0.13824982244E+04  0.50400001928E-02 0. -1.
        1   -1    0    0  501    0  0.00000000000E+00  0.00000000000E+00 -0.77945899696E+03  0.77945899698E+03  0.50400001928E-02 0.  1.
    10030    2    1    2    0    0  0.00000000000E+00  0.00000000000E+00  0.60303922747E+03  0.21619572214E+04  0.20761509380E+04 0.  0.
        5    1    3    3  502    0  0.92278572763E+03 -0.69608433082E+02  0.79127643609E+03  0.12175875005E+04  0.46999998093E+01 0. -1.
       -5    1    3    3    0  502 -0.92278572763E+03  0.69608433082E+02 -0.18823720862E+03  0.94436972092E+03  0.46999998093E+01 0.  1.
</event>
<event>
 5   0  0.1241430E-04  0.2262596E+04  0.7818609E-02  0.8492817E-01
       -2   -1    0    0    0  501  0.00000000000E+00  0.00000000000E+00  0.11569270295E+04  0.11569270295E+04  0.25500000920E-02 0.  1.
        2   -1    0    0  501    0  0.00000000000E+00  0.00000000000E+00 -0.11062367817E+04  0.11062367817E+04  0.25500000920E-02 0. -1.
    10030    2    1    2    0    0  0.00000000000E+00  0.00000000000E+00  0.50690247845E+02  0.22631638112E+04  0.22625960609E+04 0.  0.
        1    1    3    3  502    0 -0.22142066667E+03 -0.93856449319E+02 -0.10803729392E+04  0.11068160789E+04  0.50400001928E-02 0. -1.
       -1    1    3    3    0  502  0.22142066667E+03  0.93856449319E+02  0.11310631871E+04  0.11563477323E+04  0.50400001928E-02 0.  1.
</event>
<event>
 5   0  0.5849604E-05  0.2115113E+04  0.7818609E-02  0.8554615E-01
       -1   -1    0    0    0  501  0.00000000000E+00  0.00000000000E+00  0.10385598350E+04  0.10385598350E+04  0.50400001928E-02 0. -1.
        1   -1    0    0  501    0  0.00000000000E+00  0.00000000000E+00 -0.10769008585E+04  0.10769008585E+04  0.50400001928E-02 0.  1.
    10030    2    1    2    0    0  0.00000000000E+00  0.00000000000E+00 -0.38341023459E+02  0.21154606935E+04  0.21151132149E+04 0.  0.
        2    1    3    3  502    0 -0.72415912490E+03  0.26781774729E+03 -0.74198778920E+03  0.10708308285E+04  0.25500000920E-02 0.  1.
       -2    1    3    3    0  502  0.72415912490E+03 -0.26781774729E+03  0.70364676574E+03  0.10446298650E+04  0.25500000920E-02 0. -1.
</event>
<event>
 5   0  0.1252124E-04  0.2198339E+04  0.7818609E-02  0.8519120E-01
       -2   -1    0    0    0  501  0.00000000000E+00  0.00000000000E+00  0.11683755795E+04  0.11683755795E+04  0.25500000920E-02 0.  1.
        2   -1    0    0  501    0  0.00000000000E+00  0.00000000000E+00 -0.10340624572E+04  0.10340624572E+04  0.25500000920E-02 0. -1.
    10030    2    1    2    0    0  0.00000000000E+00  0.00000000000E+00  0.13431312229E+03  0.22024380368E+04  0.21983387571E+04 0.  0.
        3    1    3    3  502    0 -0.40808168036E+03  0.39061745519E+03 -0.87750181249E+03  0.10436101261E+04  0.10100000352E+00 0. -1.
       -3    1    3    3    0  502  0.40808168036E+03 -0.39061745519E+03  0.10118149348E+04  0.11588279107E+04  0.10100000352E+00 0.  1.
</event>
<event>
 5   0  0.1311472E-04  0.2187774E+04  0.7818609E-02  0.8523534E-01
       -2   -1    0    0    0  501  0.00000000000E+00  0.00000000000E+00  0.64493475961E+03  0.64493475961E+03  0.25500000920E-02 0. -1.
        2   -1    0    0  501    0  0.00000000000E+00  0.00000000000E+00 -0.18553646386E+04  0.18553646386E+04  0.25500000920E-02 0.  1.
    10030    2    1    2    0    0  0.00000000000E+00  0.00000000000E+00 -0.12104298790E+04  0.25002993982E+04  0.21877743459E+04 0.  0.
        4    1    3    3  502    0 -0.75820011615E+03 -0.54351499233E+03 -0.12580533942E+04  0.15661979181E+04  0.12699999809E+01 0.  1.
       -4    1    3    3    0  502  0.75820011615E+03  0.54351499233E+03  0.47623515243E+02  0.93410148010E+03  0.12699999809E+01 0. -1.
</event>
<event>
 5   0  0.1404159E-04  0.2184040E+04  0.7818609E-02  0.8525101E-01
        2   -1    0    0  501    0  0.00000000000E+00  0.00000000000E+00  0.15252868239E+04  0.15252868239E+04  0.25500000920E-02 0.  1.
       -2   -1    0    0    0  501  0.00000000000E+00  0.00000000000E+00 -0.78182512225E+03  0.78182512225E+03  0.25500000920E-02 0. -1.
    10030    2    1    2    0    0  0.00000000000E+00  0.00000000000E+00  0.74346170169E+03  0.23071119462E+04  0.21840398875E+04 0.  0.
        5    1    3    3  502    0  0.34669906100E+02  0.34433625393E+03  0.14658143884E+04  0.15061219636E+04  0.46999998093E+01 0.  1.
       -5    1    3    3    0  502 -0.34669906100E+02 -0.34433625393E+03 -0.72235268670E+03  0.80098998255E+03  0.46999998093E+01 0. -1.
</event>
<event>
 5   0  0.5861816E-05  0.2277552E+04  0.7818609E-02  0.8486825E-01
        1   -1    0    0  501    0  0.00000000000E+00  0.00000000000E+00  0.88484495932E+03  0.88484495933E+03  0.50400001928E-02 0.  1.
       -1   -1    0    0    0  501  0.00000000000E+00  0.00000000000E+00 -0.14655795226E+04  0.14655795226E+04  0.50400001928E-02 0. -1.
    10030    2    1    2    0    0  0.00000000000E+00  0.00000000000E+00 -0.58073456327E+03  0.23504244819E+04  0.22775518901E+04 0.  0.
        1    1    3    3  502    0 -0.14793121584E+02  0.68702487809E+02  0.88260494251E+03  0.88539841476E+03  0.50400001928E-02 0.  1.
       -1    1    3    3    0  502  0.14793121584E+02 -0.68702487809E+02 -0.14633395058E+04  0.14650260672E+04  0.50400001928E-02 0. -1.
</event>
<event>
 5   0  0.6263558E-05  0.2190371E+04  0.7818609E-02  0.8522447E-01
       -1   -1    0    0    0  501  0.00000000000E+00  0.00000000000E+00  0.80081205995E+03  0.80081205997E+03  0.50400001928E-02 0.  1.
        1   -1    0    0  501    0  0.00000000000E+00  0.00000000000E+00 -0.14977689882E+04  0.14977689882E+04  0.50400001928E-02 0. -1.
    10030    2    1    2    0    0  0.00000000000E+00  0.00000000000E+00 -0.69695692822E+03  0.22985810482E+04  0.21903711729E+04 0.  0.
        3    1    3    3  502    0  0.81138604780E+03 -0.31888616551E+03 -0.10440952192E+04  0.13602097419E+04  0.10100000352E+00 0. -1.
       -3    1    3    3    0  502 -0.81138604780E+03  0.31888616551E+03  0.34713829095E+03  0.93837130623E+03  0.10100000352E+00 0.  1.
</event>
<event>
 5   0  0.5981239E-05  0.2209099E+04  0.7818609E-02  0.8514650E-01
       -1   -1    0    0    0  501  0.00000000000E+00  0.00000000000E+00  0.15394241539E+04  0.15394241539E+04  0.50400001928E-02 0. -1.
        1   -1    0    0  501    0  0.00000000000E+00  0.00000000000E+00 -0.79252351002E+03  0.79252351004E+03  0.50400001928E-02 0.  1.
    10030    2    1    2    0    0  0.00000000000E+00  0.00000000000E+00  0.74690064386E+03  0.23319476639E+04  0.22090992136E+04 0.  0.
        4    1    3    3  502    0 -0.77809937585E+02 -0.70356764556E+03 -0.52162148189E+03  0.87929085150E+03  0.12699999809E+01 0.  1.
       -4    1    3    3    0  502  0.77809937585E+02  0.70356764556E+03  0.12685221258E+04  0.14526568124E+04  0.12699999809E+01 0. -1.
</event>
<event>
 5   0  0.5895063E-05  0.2159110E+04  0.7818609E-02  0.8535643E-01
       -1   -1    0    0    0  501  0.00000000000E+00  0.00000000000E+00  0.57671409678E+03  0.57671409680E+03  0.50400001928E-02 0.  1.
        1   -1    0    0  501    0  0.00000000000E+00  0.00000000000E+00 -0.20208265106E+04  0.20208265106E+04  0.50400001928E-02 0. -1.
    10030    2    1    2    0    0  0.00000000000E+00  0.00000000000E+00 -0.14441124139E+04  0.25975406074E+04  0.21591101277E+04 0.  0.
        5    1    3    3  502    0  0.87030546083E+03  0.18531452178E+03  0.13331803674E+02  0.88992858934E+03  0.46999998093E+01 0.  1.
       -5    1    3    3    0  502 -0.87030546083E+03 -0.18531452178E+03 -0.14574442175E+04  0.17076120181E+04  0.46999998093E+01 0. -1.
</event>
<event>
 5   0  0.1252124E-04  0.2214530E+04  0.7818609E-02  0.8512405E-01
        2   -1    0    0  501    0  0.00000000000E+00  0.00000000000E+00  0.29228444421E+04  0.29228444421E+04  0.25500000920E-02 0.  1.
       -2   -1    0    0    0  501  0.00000000000E+00  0.00000000000E+00 -0.41946655558E+03  0.41946655559E+03  0.25500000920E-02 0. -1.
    10030    2    1    2    0    0  0.00000000000E+00  0.00000000000E+00  0.25033778865E+04  0.33423109977E+04  0.22145297385E+04 0.  0.
        3    1    3    3  502    0 -0.78575352764E+03 -0.67252022164E+03  0.18484564292E+04  0.21181320156E+04  0.10100000352E+00 0. -1.
       -3    1    3    3    0  502  0.78575352764E+03  0.67252022164E+03  0.65492145735E+03  0.12241789821E+04  0.10100000352E+00 0.  1.
</event>
<event>
 5   0  0.5849604E-05  0.2183285E+04  0.7818609E-02  0.8525418E-01
       -1   -1    0    0    0  501  0.00000000000E+00  0.00000000000E+00  0.78821600288E+03  0.78821600289E+03  0.50400001928E-02 0. -1.
        1   -1    0    0  501    0  0.00000000000E+00  0.00000000000E+00 -0.15118736496E+04  0.15118736496E+04  0.50400001928E-02 0.  1.
    10030    2    1    2    0    0  0.00000000000E+00  0.00000000000E+00 -0.72365764673E+03  0.23000896525E+04  0.21832846859E+04 0.  0.
        2    1    3    3  502    0 -0.95571140502E+01 -0.10885798399E+04 -0.44732211310E+03  0.11769428529E+04  0.25500000920E-02 0.  1.
       -2    1    3    3    0  502  0.95571140502E+01  0.10885798399E+04 -0.27633553363E+03  0.11231467996E+04  0.25500000920E-02 0. -1.
</event>
<event>
 5   0  0.5981239E-05  0.2174280E+04  0.7818609E-02  0.8529210E-01
       -1   -1    0    0    0  501  0.00000000000E+00  0.00000000000E+00  0.86255721314E+03  0.86255721316E+03  0.50400001928E-02 0.  1.
        1   -1    0    0  501    0  0.00000000000E+00  0.00000000000E+00 -0.13701974387E+04  0.13701974387E+04  0.50400001928E-02 0. -1.
    10030    2    1    2    0    0  0.00000000000E+00  0.00000000000E+00 -0.50764022558E+03  0.22327546519E+04  0.21742802802E+04 0.  0.
        4    1    3    3  502    0 -0.91731931897E+03 -0.77265121730E+01  0.34525388100E+03  0.98017156008E+03  0.12699999809E+01 0.  1.
       -4    1    3    3    0  502  0.91731931897E+03  0.77265121730E+01 -0.85289410658E+03  0.12525830918E+04  0.12699999809E+01 0. -1.
</event>
<event>
 5   0  0.6263558E-05  0.2108605E+04  0.7818609E-02  0.8557462E-01
       -1   -1    0    0    0  501  0.00000000000E+00  0.00000000000E+00  0.43234531927E+03  0.43234531930E+03  0.50400001928E-02 0. -1.
        1   -1    0    0  501    0  0.00000000000E+00  0.00000000000E+00 -0.25709862522E+04  0.25709862522E+04  0.50400001928E-02 0.  1.
    10030    2    1    2    0    0  0.00000000000E+00  0.00000000000E+00 -0.21386409329E+04  0.30033315715E+04  0.21086051049E+04 0.  0.
        3    1    3    3  502    0 -0.99968728237E+03 -0.33226894017E+03 -0.10092865277E+04  0.14589162472E+04  0.10100000352E+00 0.  1.
       -3    1    3    3    0  502  0.99968728237E+03  0.33226894017E+03 -0.11293544053E+04  0.15444153243E+04  0.10100000352E+00 0. -1.
</event>
<event>
 5   0  0.5981239E-05  0.2182086E+04  0.7818609E-02  0.8525921E-01
        1   -1    0    0  501    0  0.00000000000E+00  0.00000000000E+00  0.14270116454E+04  0.14270116455E+04  0.50400001928E-02 0. -1.
       -1   -1    0    0    0  501  0.00000000000E+00  0.00000000000E+00 -0.83417341412E+03  0.83417341414E+03  0.50400001928E-02 0.  1.
    10030    2    1    2    0    0  0.00000000000E+00  0.00000000000E+00  0.59283823132E+03  0.22611850596E+04  0.21820863194E+04 0.  0.
        4    1    3    3  502    0 -0.63065947318E+03 -0.84159472160E+03 -0.45582223447E+01  0.10516821938E+04  0.12699999809E+01 0. -1.
       -4    1    3    3    0  502  0.63065947318E+03  0.84159472160E+03  0.59739645367E+03  0.12095028658E+04  0.12699999809E+01 0.  1.
</event>
<event>
 5   0  0.1226021E-04  0.2065458E+04  0.7818609E-02  0.8576614E-01
       -2   -1    0    0    0  501  0.00000000000E+00  0.00000000000E+00  0.80938141354E+03  0.80938141354E+03  0.25500000920E-02 0.  1.
        2   -1    0    0  501    0  0.00000000000E+00  0.00000000000E+00 -0.13177094744E+04  0.13177094744E+04  0.25500000920E-02 0. -1.
    10030    2    1    2    0    0  0.00000000000E+00  0.00000000000E+00 -0.50832806083E+03  0.21270908879E+04  0.20654583579E+04 0.  0.
        2    1    3    3  502    0  0.76418982871E+03  0.68692435677E+03 -0.14774421323E+03  0.10381134422E+04  0.25500000920E-02 0.  1.
       -2    1    3    3    0  502 -0.76418982871E+03 -0.68692435677E+03 -0.36058384760E+03  0.10889774458E+04  0.25500000920E-02 0. -1.
</event>
<event>
 5   0  0.1404159E-04  0.2206843E+04  0.7818609E-02  0.8515585E-01
        2   -1    0    0  501    0  0.00000000000E+00  0.00000000000E+00  0.10314720225E+04  0.10314720225E+04  0.25500000920E-02 0.  1.
       -2   -1    0    0    0  501  0.00000000000E+00  0.00000000000E+00 -0.11803892552E+04  0.11803892552E+04  0.25500000920E-02 0. -1.
    10030    2    1    2    0    0  0.00000000000E+00  0.00000000000E+00 -0.14891723267E+03  0.22118612778E+04  0.22068425340E+04 0.  0.
        5    1    3    3  502    0 -0.96786100662E+03  0.52921395168E+03 -0.48053538285E+02  0.11041528732E+04  0.46999998093E+01 0.  1.
       -5    1    3    3    0  502  0.96786100662E+03 -0.52921395168E+03 -0.10086369439E+03  0.11077084046E+04  0.46999998093E+01 0. -1.
</event>
<event>
 5   0  0.1252124E-04  0.2167815E+04  0.7818609E-02  0.8531945E-01
       -2   -1    0    0    0  501  0.00000000000E+00  0.00000000000E+00  0.78762426758E+03  0.78762426759E+03  0.25500000920E-02 0. -1.
        2   -1    0    0  501    0  0.00000000000E+00  0.00000000000E+00 -0.14916445270E+04  0.14916445270E+04  0.25500000920E-02 0.  1.
    10030    2    1    2    0    0  0.00000000000E+00  0.00000000000E+00 -0.70402025943E+03  0.22792687946E+04  0.21678149627E+04 0.  0.
        3    1    3    3  502    0  0.76809794074E+03  0.19274477769E+03 -0.11301483846E+04  0.13799856439E+04  0.10100000352E+00 0.  1.
       -3    1    3    3    0  502 -0.76809794074E+03 -0.19274477769E+03  0.42612812518E+03  0.89928315072E+03  0.10100000352E+00 0. -1.
</event>
<event>
 5   0  0.1404159E-04  0.2231369E+04  0.7818609E-02  0.8505484E-01
        2   -1    0    0  501    0  0.00000000000E+00  0.00000000000E+00  0.24267009105E+04  0.24267009105E+04  0.25500000920E-02 0. -1.
       -2   -1    0    0    0  501  0.00000000000E+00  0.00000000000E+00 -0.51294012395E+03  0.51294012395E+03  0.25500000920E-02 0.  1.
    10030    2    1    2    0    0  0.00000000000E+00  0.00000000000E+00  0.19137607866E+04  0.29396410345E+04  0.22313693247E+04 0.  0.
        5    1    3    3  502    0  0.57268796124E+02  0.11107965161E+04  0.84217016357E+03  0.13951420320E+04  0.46999998093E+01 0.  1.
       -5    1    3    3    0  502 -0.57268796124E+02 -0.11107965161E+04  0.10715906230E+04  0.15444990024E+04  0.46999998093E+01 0. -1.
</event>
<event>
 5   0  0.5981239E-05  0.2213483E+04  0.7818609E-02  0.8512837E-01
        1   -1    0    0  501    0  0.00000000000E+00  0.00000000000E+00  0.19720693922E+04  0.19720693922E+04  0.50400001928E-02 0.  1.
       -1   -1    0    0    0  501  0.00000000000E+00  0.00000000000E+00 -0.62111240115E+03  0.62111240117E+03  0.50400001928E-02 0. -1.
    10030    2    1    2    0    0  0.00000000000E+00  0.00000000000E+00  0.13509569910E+04  0.25931817934E+04  0.22134830069E+04 0.  0.
        4    1    3    3  502    0 -0.70037475508E+03 -0.85445167407E+03  0.75196736163E+03  0.13364389199E+04  0.12699999809E+01 0.  1.
       -4    1    3    3    0  502  0.70037475508E+03  0.85445167407E+03  0.59898962941E+03  0.12567428734E+04  0.12699999809E+01 0. -1.
</event>
<event>
 5   0  0.6263558E-05  0.1727397E+04  0.7818609E-02  0.8745891E-01
        1   -1    0    0  501    0  0.00000000000E+00  0.00000000000E+00  0.93769933807E+03  0.93769933808E+03  0.50400001928E-02 0.  1.
       -1   -1    0    0    0  501  0.00000000000E+00  0.00000000000E+00 -0.79553772080E+03  0.79553772082E+03  0.50400001928E-02 0. -1.
    10030    2    1    2    0    0  0.00000000000E+00  0.00000000000E+00  0.14216161726E+03  0.17332370589E+04  0.17273971104E+04 0.  0.
        3    1    3    3  502    0 -0.77811489279E+03 -0.29591062824E+03  0.30196589416E+03  0.88555592580E+03  0.10100000352E+00 0.  1.
       -3    1    3    3    0  502  0.77811489279E+03  0.29591062824E+03 -0.15980427690E+03  0.84768113309E+03  0.10100000352E+00 0. -1.
</event>
<event>
 5   0  0.6263558E-05  0.2148503E+04  0.7818609E-02  0.8540173E-01
        1   -1    0    0  501    0  0.00000000000E+00  0.00000000000E+00  0.11975300941E+04  0.11975300941E+04  0.50400001928E-02 0. -1.
       -1   -1    0    0    0  501  0.00000000000E+00  0.00000000000E+00 -0.96366407366E+03  0.96366407367E+03  0.50400001928E-02 0.  1.
    10030    2    1    2    0    0  0.00000000000E+00  0.00000000000E+00  0.23386602041E+03  0.21611941677E+04  0.21485034129E+04 0.  0.
        3    1    3    3  502    0 -0.40164511789E+03  0.35212411503E+03  0.10544826707E+04  0.11820507206E+04  0.10100000352E+00 0. -1.
       -3    1    3    3    0  502  0.40164511789E+03 -0.35212411503E+03 -0.82061665029E+03  0.97914344713E+03  0.10100000352E+00 0.  1.
</event>
<event>
 5   0  0.5895063E-05  0.2201028E+04  0.7818609E-02  0.8518000E-01
        1   -1    0    0  501    0  0.00000000000E+00  0.00000000000E+00  0.99374019867E+03  0.99374019868E+03  0.50400001928E-02 0.  1.
       -1   -1    0    0    0  501  0.00000000000E+00  0.00000000000E+00 -0.12187600979E+04  0.12187600979E+04  0.50400001928E-02 0. -1.
    10030    2    1    2    0    0  0.00000000000E+00  0.00000000000E+00 -0.22501989918E+03  0.22125002965E+04  0.22010278524E+04 0.  0.
        5    1    3    3  502    0 -0.57413318795E+03 -0.65962464200E+03  0.55908564833E+03  0.10379462597E+04  0.46999998093E+01 0.  1.
       -5    1    3    3    0  502  0.57413318795E+03  0.65962464200E+03 -0.78410554752E+03  0.11745540369E+04  0.46999998093E+01 0. -1.
</event>
<event>
 5   0  0.1226021E-04  0.2199449E+04  0.7818609E-02  0.8518658E-01
       -2   -1    0    0    0  501  0.00000000000E+00  0.00000000000E+00  0.60769272887E+03  0.60769272888E+03  0.25500000920E-02 0.  1.
        2   -1    0    0  501    0  0.00000000000E+00  0.00000000000E+00 -0.19901399504E+04  0.19901399504E+04  0.25500000920E-02 0. -1.
    10030    2    1    2    0    0  0.00000000000E+00  0.00000000000E+00 -0.13824472216E+04  0.25978326793E+04  0.21994486376E+04 0.  0.
        2    1    3    3  502    0  0.35754596464E+03 -0.10148610554E+04 -0.42289277318E+03  0.11561229935E+04  0.25500000920E-02 0.  1.
       -2    1    3    3    0  502 -0.35754596464E+03  0.10148610554E+04 -0.95955444838E+03  0.14417096858E+04  0.25500000920E-02 0. -1.
</event>
<event>
 5   0  0.1252124E-04  0.1942683E+04  0.7818609E-02  0.8633897E-01
        2   -1    0    0  501    0  0.00000000000E+00  0.00000000000E+00  0.98182248892E+03  0.98182248893E+03  0.25500000920E-02 0. -1.
       -2   -1    0    0    0  501  0.00000000000E+00  0.00000000000E+00 -0.96097257740E+03  0.96097257740E+03  0.25500000920E-02 0.  1.
    10030    2    1    2    0    0  0.00000000000E+00  0.00000000000E+00  0.20849911524E+02  0.19427950663E+04  0.19426831834E+04 0.  0.
        3    1    3    3  502    0  0.55825341833E+03  0.70230555720E+03  0.38276951469E+03  0.97539350332E+03  0.10100000352E+00 0. -1.
       -3    1    3    3    0  502 -0.55825341833E+03 -0.70230555720E+03 -0.36191960317E+03  0.96740156301E+03  0.10100000352E+00 0.  1.
</event>
<event>
 5   0  0.1252124E-04  0.2155815E+04  0.7818609E-02  0.8537047E-01
        2   -1    0    0  501    0  0.00000000000E+00  0.00000000000E+00  0.68350191245E+03  0.68350191246E+03  0.25500000920E-02 0.  1.
       -2   -1    0    0    0  501  0.00000000000E+00  0.00000000000E+00 -0.16999000739E+04  0.16999000739E+04  0.25500000920E-02 0. -1.
    10030    2    1    2    0    0  0.00000000000E+00  0.00000000000E+00 -0.10163981615E+04  0.23834019864E+04  0.21558153460E+04 0.  0.
        3    1    3    3  502    0  0.77057700287E+03  0.32461598112E+03 -0.12602462881E+04  0.15124103839E+04  0.10100000352E+00 0. -1.
       -3    1    3    3    0  502 -0.77057700287E+03 -0.32461598112E+03  0.24384812660E+03  0.87099160248E+03  0.10100000352E+00 0.  1.
</event>
<event>
 5   0  0.5849604E-05  0.2170601E+04  0.7818609E-02  0.8530765E-01
       -1   -1    0    0    0  501  0.00000000000E+00  0.00000000000E+00  0.92511471997E+03  0.92511471999E+03  0.50400001928E-02 0. -1.
        1   -1    0    0  501    0  0.00000000000E+00  0.00000000000E+00 -0.12732228220E+04  0.12732228220E+04  0.50400001928E-02 0.  1.
    10030    2    1    2    0    0  0.00000000000E+00  0.00000000000E+00 -0.34810810202E+03  0.21983375420E+04  0.21706009992E+04 0.  0.
        2    1    3    3  502    0 -0.65020794811E+03 -0.74889268565E+03 -0.62044294929E+03  0.11698547276E+04  0.25500000920E-02 0.  1.
       -2    1    3    3    0  502  0.65020794811E+03  0.74889268565E+03  0.27233484727E+03  0.10284828144E+04  0.25500000920E-02 0. -1.
</event>
<event>
 5   0  0.1311472E-04  0.2133007E+04  0.7818609E-02  0.8546841E-01
        2   -1    0    0  501    0  0.00000000000E+00  0.00000000000E+00  0.14538589417E+04  0.14538589417E+04  0.25500000920E-02 0. -1.
       -2   -1    0    0    0  501  0.00000000000E+00  0.00000000000E+00 -0.78235206964E+03  0.78235206965E+03  0.25500000920E-02 0.  1.
    10030    2    1    2    0    0  0.00000000000E+00  0.00000000000E+00  0.67150687205E+03  0.22362110113E+04  0.21330068467E+04 0.  0.
        4    1    3    3  502    0 -0.36496682482E+02  0.84594083943E+03  0.10155723105E+04  0.13222468160E+04  0.12699999809E+01 0. -1.
       -4    1    3    3    0  502  0.36496682482E+02 -0.84594083943E+03 -0.34406543841E+03  0.91396419539E+03  0.12699999809E+01 0.  1.
</event>
<event>
 5   0  0.1241430E-04  0.2162539E+04  0.7818609E-02  0.8534184E-01
        2   -1    0    0  501    0  0.00000000000E+00  0.00000000000E+00  0.18557889539E+04  0.18557889539E+04  0.25500000920E-02 0. -1.
       -2   -1    0    0    0  501  0.00000000000E+00  0.00000000000E+00 -0.62999805124E+03  0.62999805125E+03  0.25500000920E-02 0.  1.
    10030    2    1    2    0    0  0.00000000000E+00  0.00000000000E+00  0.12257909026E+04  0.24857870051E+04  0.21625387159E+04 0.  0.
        1    1    3    3  502    0  0.73982207889E+03 -0.43892122651E+03  0.13659163789E+04  0.16142230656E+04  0.50400001928E-02 0. -1.
       -1    1    3    3    0  502 -0.73982207889E+03  0.43892122651E+03 -0.14012547625E+03  0.87156393949E+03  0.50400001928E-02 0.  1.
</event>
<event>
 5   0  0.1252124E-04  0.2282517E+04  0.7818609E-02  0.8484846E-01
       -2   -1    0    0    0  501  0.00000000000E+00  0.00000000000E+00  0.77943662347E+03  0.77943662348E+03  0.25500000920E-02 0.  1.
        2   -1    0    0  501    0  0.00000000000E+00  0.00000000000E+00 -0.16710417322E+04  0.16710417322E+04  0.25500000920E-02 0. -1.
    10030    2    1    2    0    0  0.00000000000E+00  0.00000000000E+00 -0.89160510876E+03  0.24504783557E+04  0.22825171416E+04 0.  0.
        3    1    3    3  502    0 -0.86394561261E+03 -0.52286870059E+03 -0.10166004709E+04  0.14329236641E+04  0.10100000352E+00 0. -1.
       -3    1    3    3    0  502  0.86394561261E+03  0.52286870059E+03  0.12499536213E+03  0.10175546916E+04  0.10100000352E+00 0.  1.
</event>
<event>
 5   0  0.1252124E-04  0.2197947E+04  0.7818609E-02  0.8519283E-01
       -2   -1    0    0    0  501  0.00000000000E+00  0.00000000000E+00  0.66359848332E+03  0.66359848333E+03  0.25500000920E-02 0. -1.
        2   -1    0    0  501    0  0.00000000000E+00  0.00000000000E+00 -0.18199900022E+04  0.18199900022E+04  0.25500000920E-02 0.  1.
    10030    2    1    2    0    0  0.00000000000E+00  0.00000000000E+00 -0.11563915189E+04  0.24835884856E+04  0.21979468648E+04 0.  0.
        3    1    3    3  502    0 -0.31581410786E+03  0.80571347660E+03  0.18720391777E+03  0.88541406931E+03  0.10100000352E+00 0. -1.
       -3    1    3    3    0  502  0.31581410786E+03 -0.80571347660E+03 -0.13435954367E+04  0.15981744162E+04  0.10100000352E+00 0.  1.
</event>
<event>
 5   0  0.1404159E-04  0.2309209E+04  0.7818609E-02  0.8474299E-01
       -2   -1    0    0    0  501  0.00000000000E+00  0.00000000000E+00  0.81887104345E+03  0.81887104345E+03  0.25500000920E-02 0.  1.
        2   -1    0    0  501    0  0.00000000000E+00  0.00000000000E+00 -0.16279871217E+04  0.16279871218E+04  0.25500000920E-02 0. -1.
    10030    2    1    2    0    0  0.00000000000E+00  0.00000000000E+00 -0.80911607830E+03  0.24468581652E+04  0.23092089668E+04 0.  0.
        5    1    3    3  502    0 -0.57760269556E+03 -0.52702398304E+03 -0.13047331552E+04  0.15210949506E+04  0.46999998093E+01 0. -1.
       -5    1    3    3    0  502  0.57760269556E+03  0.52702398304E+03  0.49561707685E+03  0.92576321459E+03  0.46999998093E+01 0.  1.
</event>
<event>
 5   0  0.6263558E-05  0.1948959E+04  0.7818609E-02  0.8630863E-01
        1   -1    0    0  501    0  0.00000000000E+00  0.00000000000E+00  0.78170339759E+03  0.78170339761E+03  0.50400001928E-02 0.  1.
       -1   -1    0    0    0  501  0.00000000000E+00  0.00000000000E+00 -0.12147958312E+04  0.12147958312E+04  0.50400001928E-02 0. -1.
    10030    2    1    2    0    0  0.00000000000E+00  0.00000000000E+00 -0.43309243361E+03  0.19964992288E+04  0.19489587257E+04 0.  0.
        3    1    3    3  502    0  0.17865698315E+03  0.37082563411E+03 -0.11213698287E+04  0.11945293096E+04  0.10100000352E+00 0. -1.
       -3    1    3    3    0  502 -0.17865698315E+03 -0.37082563411E+03  0.68827739510E+03  0.80196991923E+03  0.10100000352E+00 0.  1.
</event>
<event>
 5   0  0.5849604E-05  0.2154105E+04  0.7818609E-02  0.8537777E-01
        1   -1    0    0  501    0  0.00000000000E+00  0.00000000000E+00  0.12515290769E+04  0.12515290769E+04  0.50400001928E-02 0. -1.
       -1   -1    0    0    0  501  0.00000000000E+00  0.00000000000E+00 -0.92690013020E+03  0.92690013021E+03  0.50400001928E-02 0.  1.
    10030    2    1    2    0    0  0.00000000000E+00  0.00000000000E+00  0.32462894668E+03  0.21784292071E+04  0.21541053496E+04 0.  0.
        2    1    3    3  502    0  0.19073522865E+03  0.39159136509E+03 -0.83385612914E+03  0.94076552274E+03  0.25500000920E-02 0.  1.
       -2    1    3    3    0  502 -0.19073522865E+03 -0.39159136509E+03  0.11584850758E+04  0.12376636844E+04  0.25500000920E-02 0. -1.
</event>
<event>
 5   0  0.5981239E-05  0.2238995E+04  0.7818609E-02  0.8502371E-01
       -1   -1    0    0    0  501  0.00000000000E+00  0.00000000000E+00  0.62982560713E+03  0.62982560715E+03  0.50400001928E-02 0.  1.
        1   -1    0    0  501    0  0.00000000000E+00  0.00000000000E+00 -0.19898752160E+04  0.19898752160E+04  0.50400001928E-02 0. -1.
    10030    2    1    2    0    0  0.00000000000E+00  0.00000000000E+00 -0.13600496089E+04  0.26197008232E+04  0.22389947441E+04 0.  0.
        4    1    3    3  502    0  0.33593507541E+03  0.91137941974E+03 -0.13312705340E+04  0.16479525689E+04  0.12699999809E+01 0. -1.
       -4    1    3    3    0  502 -0.33593507541E+03 -0.91137941974E+03 -0.28779074831E+02  0.97174825426E+03  0.12699999809E+01 0.  1.
</event>
<event>
 5   0  0.1252124E-04  0.2186613E+04  0.7818609E-02  0.8524021E-01
       -2   -1    0    0    0  501  0.00000000000E+00  0.00000000000E+00  0.10669924851E+04  0.10669924851E+04  0.25500000920E-02 0.  1.
        2   -1    0    0  501    0  0.00000000000E+00  0.00000000000E+00 -0.11202697709E+04  0.11202697709E+04  0.25500000920E-02 0. -1.
    10030    2    1    2    0    0  0.00000000000E+00  0.00000000000E+00 -0.53277285762E+02  0.21872622559E+04  0.21866132962E+04 0.  0.
        3    1    3    3  502    0  0.55975718783E+02  0.65370075681E+03 -0.90146178285E+03  0.11149400507E+04  0.10100000352E+00 0. -1.
       -3    1    3    3    0  502 -0.55975718783E+02 -0.65370075681E+03  0.84818449709E+03  0.10723222052E+04  0.10100000352E+00 0.  1.
</event>
<event>
 5   0  0.1252124E-04  0.2203729E+04  0.7818609E-02  0.8516878E-01
        2   -1    0    0  501    0  0.00000000000E+00  0.00000000000E+00  0.18282373134E+04  0.18282373134E+04  0.25500000920E-02 0.  1.
       -2   -1    0    0    0  501  0.00000000000E+00  0.00000000000E+00 -0.66408516803E+03  0.66408516804E+03  0.25500000920E-02 0. -1.
    10030    2    1    2    0    0  0.00000000000E+00  0.00000000000E+00  0.11641521454E+04  0.24923224815E+04  0.22037289157E+04 0.  0.
        3    1    3    3  502    0  0.24247843935E+03  0.58904730498E+03  0.15988892195E+04  0.17211098941E+04  0.10100000352E+00 0.  1.
       -3    1    3    3    0  502 -0.24247843935E+03 -0.58904730498E+03 -0.43473707414E+03  0.77121258735E+03  0.10100000352E+00 0. -1.
</event>
<event>
 5   0  0.1241430E-04  0.2187428E+04  0.7818609E-02  0.8523679E-01
        2   -1    0    0  501    0  0.00000000000E+00  0.00000000000E+00  0.48351634883E+03  0.48351634884E+03  0.25500000920E-02 0.  1.
       -2   -1    0    0    0  501  0.00000000000E+00  0.00000000000E+00 -0.24739810086E+04  0.24739810086E+04  0.25500000920E-02 0. -1.
    10030    2    1    2    0    0  0.00000000000E+00  0.00000000000E+00 -0.19904646597E+04  0.29574973574E+04  0.21874279548E+04 0.  0.
        1    1    3    3  502    0  0.50615163796E+03 -0.14265717164E+03 -0.22918339201E+04  0.23513917723E+04  0.50400001928E-02 0. -1.
       -1    1    3    3    0  502 -0.50615163796E+03  0.14265717164E+03  0.30136926038E+03  0.60610558516E+03  0.50400001928E-02 0.  1.
</event>
<event>
 5   0  0.5861816E-05  0.2204575E+04  0.7818609E-02  0.8516526E-01
        1   -1    0    0  501    0  0.00000000000E+00  0.00000000000E+00  0.15053380091E+04  0.15053380091E+04  0.50400001928E-02 0. -1.
       -1   -1    0    0    0  501  0.00000000000E+00  0.00000000000E+00 -0.80715292095E+03  0.80715292097E+03  0.50400001928E-02 0.  1.
    10030    2    1    2    0    0  0.00000000000E+00  0.00000000000E+00  0.69818508811E+03  0.23124909300E+04  0.22045752163E+04 0.  0.
        1    1    3    3  502    0 -0.80283743157E+03  0.71114261872E+03  0.82142901634E+02  0.10756482799E+04  0.50400001928E-02 0.  1.
       -1    1    3    3    0  502  0.80283743157E+03 -0.71114261872E+03  0.61604218647E+03  0.12368426502E+04  0.50400001928E-02 0. -1.
</event>
<event>
 5   0  0.1226021E-04  0.2171037E+04  0.7818609E-02  0.8530581E-01
        2   -1    0    0  501    0  0.00000000000E+00  0.00000000000E+00  0.10402488638E+04  0.10402488638E+04  0.25500000920E-02 0. -1.
       -2   -1    0    0    0  501  0.00000000000E+00  0.00000000000E+00 -0.11327586946E+04  0.11327586946E+04  0.25500000920E-02 0.  1.
    10030    2    1    2    0    0  0.00000000000E+00  0.00000000000E+00 -0.92509830804E+02  0.21730075585E+04  0.21710374894E+04 0.  0.
        2    1    3    3  502    0  0.89032801722E+03 -0.61338187296E+03 -0.14344939085E+03  0.10906415672E+04  0.25500000920E-02 0.  1.
       -2    1    3    3    0  502 -0.89032801722E+03  0.61338187296E+03  0.50939560046E+02  0.10823659913E+04  0.25500000920E-02 0. -1.
</event>
<event>
 5   0  0.1252124E-04  0.2135680E+04  0.7818609E-02  0.8545687E-01
        2   -1    0    0  501    0  0.00000000000E+00  0.00000000000E+00  0.15466608094E+04  0.15466608094E+04  0.25500000920E-02 0. -1.
       -2   -1    0    0    0  501  0.00000000000E+00  0.00000000000E+00 -0.73725404685E+03  0.73725404686E+03  0.25500000920E-02 0.  1.
    10030    2    1    2    0    0  0.00000000000E+00  0.00000000000E+00  0.80940676253E+03  0.22839148562E+04  0.21356796959E+04 0.  0.
        3    1    3    3  502    0 -0.79935881005E+02 -0.10531699419E+04  0.23654666571E+03  0.10823636204E+04  0.10100000352E+00 0.  1.
       -3    1    3    3    0  502  0.79935881005E+02  0.10531699419E+04  0.57286009682E+03  0.12015512358E+04  0.10100000352E+00 0. -1.
</event>
<event>
 5   0  0.5861816E-05  0.2187598E+04  0.7818609E-02  0.8523608E-01
        1   -1    0    0  501    0  0.00000000000E+00  0.00000000000E+00  0.14593616842E+04  0.14593616842E+04  0.50400001928E-02 0. -1.
       -1   -1    0    0    0  501  0.00000000000E+00  0.00000000000E+00 -0.81980754178E+03  0.81980754180E+03  0.50400001928E-02 0.  1.
    10030    2    1    2    0    0  0.00000000000E+00  0.00000000000E+00  0.63955414243E+03  0.22791692260E+04  0.21875975086E+04 0.  0.
        1    1    3    3  502    0  0.93782599529E+03  0.37563313330E+02 -0.26539851548E+03  0.97537939900E+03  0.50400001928E-02 0.  1.
       -1    1    3    3    0  502 -0.93782599529E+03 -0.37563313330E+02  0.90495265790E+03  0.13037898270E+04  0.50400001928E-02 0. -1.
</event>
<event>
 5   0  0.1311472E-04  0.1585557E+04  0.7818609E-02  0.8829470E-01
        2   -1    0    0  501    0  0.00000000000E+00  0.00000000000E+00  0.12055552303E+04  0.12055552303E+04  0.25500000920E-02 0. -1.
       -2   -1    0    0    0  501  0.00000000000E+00  0.00000000000E+00 -0.52133455633E+03  0.52133455633E+03  0.25500000920E-02 0.  1.
    10030    2    1    2    0    0  0.00000000000E+00  0.00000000000E+00  0.68422067393E+03  0.17268897866E+04  0.15855568121E+04 0.  0.
        4    1    3    3  502    0 -0.47201729966E+03  0.48592805141E+03  0.79060449753E+03  0.10411452765E+04  0.12699999809E+01 0. -1.
       -4    1    3    3    0  502  0.47201729966E+03 -0.48592805141E+03 -0.10638382360E+03  0.68574451011E+03  0.12699999809E+01 0.  1.
</event>
<event>
 5   0  0.5895063E-05  0.2236975E+04  0.7818609E-02  0.8503194E-01
        1   -1    0    0  501    0  0.00000000000E+00  0.00000000000E+00  0.15484283500E+04  0.15484283500E+04  0.50400001928E-02 0.  1.
       -1   -1    0    0    0  501  0.00000000000E+00  0.00000000000E+00 -0.80792516153E+03  0.80792516155E+03  0.50400001928E-02 0. -1.
    10030    2    1    2    0    0  0.00000000000E+00  0.00000000000E+00  0.74050318848E+03  0.23563535116E+04  0.22369749438E+04 0.  0.
        5    1    3    3  502    0 -0.92515333916E+03  0.19492147756E+03 -0.25920761768E+03  0.98036409688E+03  0.46999998093E+01 0. -1.
       -5    1    3    3    0  502  0.92515333916E+03 -0.19492147756E+03  0.99971080616E+03  0.13759894147E+04  0.46999998093E+01 0.  1.
</event>
<event>
 5   0  0.1404159E-04  0.2200271E+04  0.7818609E-02  0.8518316E-01
        2   -1    0    0  501    0  0.00000000000E+00  0.00000000000E+00  0.14659282446E+04  0.14659282446E+04  0.25500000920E-02 0. -1.
       -2   -1    0    0    0  501  0.00000000000E+00  0.00000000000E+00 -0.82561860641E+03  0.82561860641E+03  0.25500000920E-02 0.  1.
    10030    2    1    2    0    0  0.00000000000E+00  0.00000000000E+00  0.64030963817E+03  0.22915468510E+04  0.22002705601E+04 0.  0.
        5    1    3    3  502    0 -0.42129079989E+03  0.97009586794E+03  0.63554333614E+03  0.12339000580E+04  0.46999998093E+01 0. -1.
       -5    1    3    3    0  502  0.42129079989E+03 -0.97009586794E+03  0.47663020318E+01  0.10576467930E+04  0.46999998093E+01 0.  1.
</event>
<event>
 5   0  0.1226021E-04  0.2103387E+04  0.7818609E-02  0.8559753E-01
       -2   -1    0    0    0  501  0.00000000000E+00  0.00000000000E+00  0.12408277906E+04  0.12408277906E+04  0.25500000920E-02 0. -1.
        2   -1    0    0  501    0  0.00000000000E+00  0.00000000000E+00 -0.89138797402E+03  0.89138797403E+03  0.25500000920E-02 0.  1.
    10030    2    1    2    0    0  0.00000000000E+00  0.00000000000E+00  0.34943981659E+03  0.21322157646E+04  0.21033867646E+04 0.  0.
        2    1    3    3  502    0 -0.27806585846E+00  0.95670759197E+03  0.61747794925E+03  0.11386696236E+04  0.25500000920E-02 0. -1.
       -2    1    3    3    0  502  0.27806585846E+00 -0.95670759197E+03 -0.26803813266E+03  0.99354614106E+03  0.25500000920E-02 0.  1.
</event>
<event>
 5   0  0.1252124E-04  0.2100724E+04  0.7818609E-02  0.8560924E-01
        2   -1    0    0  501    0  0.00000000000E+00  0.00000000000E+00  0.13602039349E+04  0.13602039349E+04  0.25500000920E-02 0.  1.
       -2   -1    0    0    0  501  0.00000000000E+00  0.00000000000E+00 -0.81109939685E+03  0.81109939685E+03  0.25500000920E-02 0. -1.
    10030    2    1    2    0    0  0.00000000000E+00  0.00000000000E+00  0.54910453803E+03  0.21713033317E+04  0.21007242477E+04 0.  0.
        3    1    3    3  502    0 -0.43346461041E+02 -0.77445265339E+03  0.10065879869E+04  0.12707774052E+04  0.10100000352E+00 0. -1.
       -3    1    3    3    0  502  0.43346461041E+02  0.77445265339E+03 -0.45748344891E+03  0.90052592648E+03  0.10100000352E+00 0.  1.
</event>
<event>
 5   0  0.1252124E-04  0.2106714E+04  0.7818609E-02  0.8558292E-01
       -2   -1    0    0    0  501  0.00000000000E+00  0.00000000000E+00  0.49901837768E+03  0.49901837768E+03  0.25500000920E-02 0.  1.
        2   -1    0    0  501    0  0.00000000000E+00  0.00000000000E+00 -0.22234870692E+04  0.22234870692E+04  0.25500000920E-02 0. -1.
    10030    2    1    2    0    0  0.00000000000E+00  0.00000000000E+00 -0.17244686916E+04  0.27225054469E+04  0.21067139437E+04 0.  0.
        3    1    3    3  502    0 -0.42733490608E+02 -0.79691131708E+03  0.26231782264E+02  0.79848726672E+03  0.10100000352E+00 0.  1.
       -3    1    3    3    0  502  0.42733490608E+02  0.79691131708E+03 -0.17507004738E+04  0.19240181802E+04  0.10100000352E+00 0. -1.
</event>
<event>
 5   0  0.1226021E-04  0.2159601E+04  0.7818609E-02  0.8535434E-01
       -2   -1    0    0    0  501  0.00000000000E+00  0.00000000000E+00  0.79706508988E+03  0.79706508988E+03  0.25500000920E-02 0.  1.
        2   -1    0    0  501    0  0.00000000000E+00  0.00000000000E+00 -0.14628279601E+04  0.14628279601E+04  0.25500000920E-02 0. -1.
    10030    2    1    2    0    0  0.00000000000E+00  0.00000000000E+00 -0.66576287021E+03  0.22598930500E+04  0.21596009812E+04 0.  0.
        2    1    3    3  502    0  0.76247800256E+03 -0.46657905606E+03 -0.96673429024E+03  0.13166791211E+04  0.25500000920E-02 0. -1.
       -2    1    3    3    0  502 -0.76247800256E+03  0.46657905606E+03  0.30097142004E+03  0.94321392888E+03  0.25500000920E-02 0.  1.
</event>
<event>
 5   0  0.1252124E-04  0.2214863E+04  0.7818609E-02  0.8512267E-01
        2   -1    0    0  501    0  0.00000000000E+00  0.00000000000E+00  0.10335737447E+04  0.10335737447E+04  0.25500000920E-02 0.  1.
       -2   -1    0    0    0  501  0.00000000000E+00  0.00000000000E+00 -0.11865673324E+04  0.11865673324E+04  0.25500000920E-02 0. -1.
    10030    2    1    2    0    0  0.00000000000E+00  0.00000000000E+00 -0.15299358769E+03  0.22201410771E+04  0.22148632834E+04 0.  0.
        3    1    3    3  502    0  0.81866679859E+03 -0.42395646595E+03  0.53852080126E+03  0.10676886605E+04  0.10100000352E+00 0.  1.
       -3    1    3    3    0  502 -0.81866679859E+03  0.42395646595E+03 -0.69151438894E+03  0.11524524166E+04  0.10100000352E+00 0. -1.
</event>
<event>
 5   0  0.5895063E-05  0.2205299E+04  0.7818609E-02  0.8516226E-01
        1   -1    0    0  501    0  0.00000000000E+00  0.00000000000E+00  0.10101369757E+04  0.10101369757E+04  0.50400001928E-02 0. -1.
       -1   -1    0    0    0  501  0.00000000000E+00  0.00000000000E+00 -0.12036342362E+04  0.12036342362E+04  0.50400001928E-02 0.  1.
    10030    2    1    2    0    0  0.00000000000E+00  0.00000000000E+00 -0.19349726047E+03  0.22137712119E+04  0.22052985714E+04 0.  0.
        5    1    3    3  502    0  0.37045929659E+03  0.10065178956E+04  0.16015449523E+03  0.10844306880E+04  0.46999998093E+01 0. -1.
       -5    1    3    3    0  502 -0.37045929659E+03 -0.10065178956E+04 -0.35365175570E+03  0.11293405239E+04  0.46999998093E+01 0.  1.
</event>
<event>
 5   0  0.1241430E-04  0.2252570E+04  0.7818609E-02  0.8496861E-01
       -2   -1    0    0    0  501  0.00000000000E+00  0.00000000000E+00  0.90616423984E+03  0.90616423984E+03  0.25500000920E-02 0. -1.
        2   -1    0    0  501    0  0.00000000000E+00  0.00000000000E+00 -0.13998759777E+04  0.13998759777E+04  0.25500000920E-02 0.  1.
    10030    2    1    2    0    0  0.00000000000E+00  0.00000000000E+00 -0.49371173783E+03  0.23060402175E+04  0.22525696892E+04 0.  0.
        1    1    3    3  502    0  0.78854333084E+03 -0.37880148092E+03  0.47936772036E+03  0.99753925131E+03  0.50400001928E-02 0. -1.
       -1    1    3    3    0  502 -0.78854333084E+03  0.37880148092E+03 -0.97307945818E+03  0.13085009662E+04  0.50400001928E-02 0.  1.
</event>
<event>
 5   0  0.5861816E-05  0.2200226E+04  0.7818609E-02  0.8518334E-01
        1   -1    0    0  501    0  0.00000000000E+00  0.00000000000E+00  0.12256479149E+04  0.12256479149E+04  0.50400001928E-02 0. -1.
       -1   -1    0    0    0  501  0.00000000000E+00  0.00000000000E+00 -0.98743613908E+03  0.98743613910E+03  0.50400001928E-02 0.  1.
    10030    2    1    2    0    0  0.00000000000E+00  0.00000000000E+00  0.23821177580E+03  0.22130840540E+04  0.22002263929E+04 0.  0.
        1    1    3    3  502    0  0.69413560715E+03 -0.84641592567E+03  0.88987981877E+01  0.10946795645E+04  0.50400001928E-02 0.  1.
       -1    1    3    3    0  502 -0.69413560715E+03  0.84641592567E+03  0.22931297761E+03  0.11184044895E+04  0.50400001928E-02 0. -1.
</event>
<event>
 5   0  0.1311472E-04  0.2247058E+04  0.7818609E-02  0.8499093E-01
        2   -1    0    0  501    0  0.00000000000E+00  0.00000000000E+00  0.16170597879E+04  0.16170597879E+04  0.25500000920E-02 0.  1.
       -2   -1    0    0    0  501  0.00000000000E+00  0.00000000000E+00 -0.78062535941E+03  0.78062535941E+03  0.25500000920E-02 0. -1.
    10030    2    1    2    0    0  0.00000000000E+00  0.00000000000E+00  0.83643442852E+03  0.23976851473E+04  0.22470584133E+04 0.  0.
        4    1    3    3  502    0 -0.35828895461E+03  0.87207570012E+03  0.10702688141E+04  0.14263113086E+04  0.12699999809E+01 0.  1.
       -4    1    3    3    0  502  0.35828895461E+03 -0.87207570012E+03 -0.23383438561E+03  0.97137383871E+03  0.12699999809E+01 0. -1.
</event>
<event>
 5   0  0.1311472E-04  0.2195787E+04  0.7818609E-02  0.8520184E-01
       -2   -1    0    0    0  501  0.00000000000E+00  0.00000000000E+00  0.88363047236E+03  0.88363047237E+03  0.25500000920E-02 0.  1.
        2   -1    0    0  501    0  0.00000000000E+00  0.00000000000E+00 -0.13641116072E+04  0.13641116072E+04  0.25500000920E-02 0. -1.
    10030    2    1    2    0    0  0.00000000000E+00  0.00000000000E+00 -0.48048113486E+03  0.22477420796E+04  0.21957874067E+04 0.  0.
        4    1    3    3  502    0  0.88689594703E+00 -0.31984936895E+03  0.83487871947E+03  0.89405172922E+03  0.12699999809E+01 0.  1.
       -4    1    3    3    0  502 -0.88689594703E+00  0.31984936895E+03 -0.13153598543E+04  0.13536903504E+04  0.12699999809E+01 0. -1.
</event>
<event>
 5   0  0.4586375E-05  0.1909268E+04  0.7818609E-02  0.8650257E-01
        3   -1    0    0  501    0  0.00000000000E+00  0.00000000000E+00  0.14323844412E+04  0.14323844448E+04  0.10100000352E+00 0.  1.
       -3   -1    0    0    0  501  0.00000000000E+00  0.00000000000E+00 -0.63622990976E+03  0.63622991778E+03  0.10100000352E+00 0. -1.
    10030    2    1    2    0    0  0.00000000000E+00  0.00000000000E+00  0.79615453145E+03  0.20686143626E+04  0.19092677505E+04 0.  0.
        1    1    3    3  502    0  0.66383381144E+03 -0.25409244113E+03 -0.29235730651E+03  0.76857731721E+03  0.50400001928E-02 0. -1.
       -1    1    3    3    0  502 -0.66383381144E+03  0.25409244113E+03  0.10885118380E+04  0.13000370453E+04  0.50400001928E-02 0.  1.
</event>
<event>
 5   0  0.1311472E-04  0.2253096E+04  0.7818609E-02  0.8496648E-01
       -2   -1    0    0    0  501  0.00000000000E+00  0.00000000000E+00  0.55195426047E+03  0.55195426047E+03  0.25500000920E-02 0. -1.
        2   -1    0    0  501    0  0.00000000000E+00  0.00000000000E+00 -0.22993027345E+04  0.22993027345E+04  0.25500000920E-02 0.  1.
    10030    2    1    2    0    0  0.00000000000E+00  0.00000000000E+00 -0.17473484740E+04  0.28512569949E+04  0.22530955953E+04 0.  0.
        4    1    3    3  502    0  0.67696074360E+03  0.76783689928E+03 -0.14689349134E+04  0.17904247387E+04  0.12699999809E+01 0.  1.
       -4    1    3    3    0  502 -0.67696074360E+03 -0.76783689928E+03 -0.27841356064E+03  0.10608322563E+04  0.12699999809E+01 0. -1.
</event>
<event>
 5   0  0.1241430E-04  0.2238336E+04  0.7818609E-02  0.8502639E-01
       -2   -1    0    0    0  501  0.00000000000E+00  0.00000000000E+00  0.67853658660E+03  0.67853658661E+03  0.25500000920E-02 0.  1.
        2   -1    0    0  501    0  0.00000000000E+00  0.00000000000E+00 -0.18459383829E+04  0.18459383829E+04  0.25500000920E-02 0. -1.
    10030    2    1    2    0    0  0.00000000000E+00  0.00000000000E+00 -0.11674017963E+04  0.25244749695E+04  0.22383357473E+04 0.  0.
        1    1    3    3  502    0 -0.16672535225E+03 -0.58541100716E+03 -0.16429261816E+04  0.17520587400E+04  0.50400001928E-02 0. -1.
       -1    1    3    3    0  502  0.16672535225E+03  0.58541100716E+03  0.47552438534E+03  0.77241622942E+03  0.50400001928E-02 0.  1.
</event>
<event>
 5   0  0.5981239E-05  0.2192862E+04  0.7818609E-02  0.8521405E-01
        1   -1    0    0  501    0  0.00000000000E+00  0.00000000000E+00  0.16129296980E+04  0.16129296980E+04  0.50400001928E-02 0. -1.
       -1   -1    0    0    0  501  0.00000000000E+00  0.00000000000E+00 -0.74532733652E+03  0.74532733653E+03  0.50400001928E-02 0.  1.
    10030    2    1    2    0    0  0.00000000000E+00  0.00000000000E+00  0.86760236150E+03  0.23582570346E+04  0.21928616882E+04 0.  0.
        4    1    3    3  502    0 -0.75728121990E+03 -0.38829981521E+03 -0.30964882968E+03  0.90561338502E+03  0.12699999809E+01 0.  1.
       -4    1    3    3    0  502  0.75728121990E+03  0.38829981521E+03  0.11772511912E+04  0.14526436495E+04  0.12699999809E+01 0. -1.
</event>
<event>
 5   0  0.4586375E-05  0.2214646E+04  0.7818609E-02  0.8512357E-01
       -3   -1    0    0    0  501  0.00000000000E+00  0.00000000000E+00  0.12010891389E+04  0.12010891431E+04  0.10100000352E+00 0. -1.
        3   -1    0    0  501    0  0.00000000000E+00  0.00000000000E+00 -0.10208766788E+04  0.10208766838E+04  0.10100000352E+00 0.  1.
    10030    2    1    2    0    0  0.00000000000E+00  0.00000000000E+00  0.18021246010E+03  0.22219658269E+04  0.22146457064E+04 0.  0.
        5    1    3    3  502    0 -0.82804687958E+03 -0.66861809026E+03  0.39677980161E+03  0.11358556626E+04  0.46999998093E+01 0. -1.
       -5    1    3    3    0  502  0.82804687958E+03  0.66861809026E+03 -0.21656734150E+03  0.10861101642E+04  0.46999998093E+01 0.  1.
</event>
<event>
 5   0  0.5895063E-05  0.2155714E+04  0.7818609E-02  0.8537090E-01
        1   -1    0    0  501    0  0.00000000000E+00  0.00000000000E+00  0.13468189625E+04  0.13468189625E+04  0.50400001928E-02 0. -1.
       -1   -1    0    0    0  501  0.00000000000E+00  0.00000000000E+00 -0.86260722137E+03  0.86260722138E+03  0.50400001928E-02 0.  1.
    10030    2    1    2    0    0  0.00000000000E+00  0.00000000000E+00  0.48421174112E+03  0.22094261839E+04  0.21557140468E+04 0.  0.
        5    1    3    3  502    0  0.22818939188E+03 -0.47181319474E+03 -0.72320824697E+03  0.89315751566E+03  0.46999998093E+01 0.  1.
       -5    1    3    3    0  502 -0.22818939188E+03  0.47181319474E+03  0.12074199881E+04  0.13162686682E+04  0.46999998093E+01 0. -1.
</event>
<event>
 5   0  0.1311472E-04  0.2199266E+04  0.7818609E-02  0.8518734E-01
        2   -1    0    0  501    0  0.00000000000E+00  0.00000000000E+00  0.16317739696E+04  0.16317739696E+04  0.25500000920E-02 0. -1.
       -2   -1    0    0    0  501  0.00000000000E+00  0.00000000000E+00 -0.74102974004E+03  0.74102974004E+03  0.25500000920E-02 0.  1.
    10030    2    1    2    0    0  0.00000000000E+00  0.00000000000E+00  0.89074422961E+03  0.23728037097E+04  0.21992662781E+04 0.  0.
        4    1    3    3  502    0  0.34815487719E+03 -0.98201190065E+03  0.82473064994E+03  0.13288120444E+04  0.12699999809E+01 0. -1.
       -4    1    3    3    0  502 -0.34815487719E+03  0.98201190065E+03  0.66013579662E+02  0.10439916653E+04  0.12699999809E+01 0.  1.
</event>
<event>
 5   0  0.1241430E-04  0.2164898E+04  0.7818609E-02  0.8533182E-01
       -2   -1    0    0    0  501  0.00000000000E+00  0.00000000000E+00  0.62814509953E+03  0.62814509953E+03  0.25500000920E-02 0. -1.
        2   -1    0    0  501    0  0.00000000000E+00  0.00000000000E+00 -0.18653274039E+04  0.18653274039E+04  0.25500000920E-02 0.  1.
    10030    2    1    2    0    0  0.00000000000E+00  0.00000000000E+00 -0.12371823043E+04  0.24934725034E+04  0.21648983974E+04 0.  0.
        1    1    3    3  502    0  0.60078250077E+03  0.74704079269E+03 -0.11975640889E+04  0.15340043371E+04  0.50400001928E-02 0.  1.
       -1    1    3    3    0  502 -0.60078250077E+03 -0.74704079269E+03 -0.39618215461E+02  0.95946816633E+03  0.50400001928E-02 0. -1.
</event>
<event>
 5   0  0.1226021E-04  0.2212005E+04  0.7818609E-02  0.8513448E-01
        2   -1    0    0  501    0  0.00000000000E+00  0.00000000000E+00  0.15541024559E+04  0.15541024559E+04  0.25500000920E-02 0.  1.
       -2   -1    0    0    0  501  0.00000000000E+00  0.00000000000E+00 -0.78710457961E+03  0.78710457961E+03  0.25500000920E-02 0. -1.
    10030    2    1    2    0    0  0.00000000000E+00  0.00000000000E+00  0.76699787626E+03  0.23412070355E+04  0.22120046656E+04 0.  0.
        2    1    3    3  502    0 -0.56692055567E+03  0.38028748552E+03  0.13045121772E+04  0.14723347135E+04  0.25500000920E-02 0.  1.
       -2    1    3    3    0  502  0.56692055567E+03 -0.38028748552E+03 -0.53751430099E+03  0.86887232195E+03  0.25500000920E-02 0. -1.
</event>
<event>
 5   0  0.1404159E-04  0.2218828E+04  0.7818609E-02  0.8510632E-01
        2   -1    0    0  501    0  0.00000000000E+00  0.00000000000E+00  0.10213844692E+04  0.10213844692E+04  0.25500000920E-02 0. -1.
       -2   -1    0    0    0  501  0.00000000000E+00  0.00000000000E+00 -0.12050299771E+04  0.12050299771E+04  0.25500000920E-02 0.  1.
    10030    2    1    2    0    0  0.00000000000E+00  0.00000000000E+00 -0.18364550791E+03  0.22264144462E+04  0.22188275314E+04 0.  0.
        5    1    3    3  502    0 -0.82939971761E+02  0.98340444538E+03  0.41667772453E+03  0.10712636269E+04  0.46999998093E+01 0. -1.
       -5    1    3    3    0  502  0.82939971761E+02 -0.98340444538E+03 -0.60032323244E+03  0.11551508194E+04  0.46999998093E+01 0.  1.
</event>
<event>
 5   0  0.1226021E-04  0.2299720E+04  0.7818609E-02  0.8478032E-01
        2   -1    0    0  501    0  0.00000000000E+00  0.00000000000E+00  0.18965418275E+04  0.18965418275E+04  0.25500000920E-02 0.  1.
       -2   -1    0    0    0  501  0.00000000000E+00  0.00000000000E+00 -0.69715188187E+03  0.69715188188E+03  0.25500000920E-02 0. -1.
    10030    2    1    2    0    0  0.00000000000E+00  0.00000000000E+00  0.11993899457E+04  0.25936937094E+04  0.22997197256E+04 0.  0.
        2    1    3    3  502    0  0.40513449611E+02 -0.11437157955E+04  0.47384940215E+03  0.12386526618E+04  0.25500000920E-02 0. -1.
       -2    1    3    3    0  502 -0.40513449611E+02  0.11437157955E+04  0.72554054351E+03  0.13550410477E+04  0.25500000920E-02 0.  1.
</event>
<event>
 5   0  0.6263558E-05  0.2295235E+04  0.7818609E-02  0.8479802E-01
       -1   -1    0    0    0  501  0.00000000000E+00  0.00000000000E+00  0.11569416010E+04  0.11569416010E+04  0.50400001928E-02 0. -1.
        1   -1    0    0  501    0  0.00000000000E+00  0.00000000000E+00 -0.11383680827E+04  0.11383680827E+04  0.50400001928E-02 0.  1.
    10030    2    1    2    0    0  0.00000000000E+00  0.00000000000E+00  0.18573518309E+02  0.22953096837E+04  0.22952345346E+04 0.  0.
        3    1    3    3  502    0  0.39179521581E+02 -0.35849254488E+03 -0.10802320199E+04  0.11388385165E+04  0.10100000352E+00 0.  1.
       -3    1    3    3    0  502 -0.39179521581E+02  0.35849254488E+03  0.10988055382E+04  0.11564711672E+04  0.10100000352E+00 0. -1.
</event>
<event>
 5   0  0.1241430E-04  0.2086783E+04  0.7818609E-02  0.8567088E-01
        2   -1    0    0  501    0  0.00000000000E+00  0.00000000000E+00  0.10157606541E+04  0.10157606541E+04  0.25500000920E-02 0. -1.
       -2   -1    0    0    0  501  0.00000000000E+00  0.00000000000E+00 -0.10717744661E+04  0.10717744661E+04  0.25500000920E-02 0.  1.
    10030    2    1    2    0    0  0.00000000000E+00  0.00000000000E+00 -0.56013812009E+02  0.20875351202E+04  0.20867834892E+04 0.  0.
        1    1    3    3  502    0  0.50570716665E+03  0.26497334001E+03 -0.90165744368E+03  0.10672097990E+04  0.50400001928E-02 0.  1.
       -1    1    3    3    0  502 -0.50570716665E+03 -0.26497334001E+03  0.84564363167E+03  0.10203253212E+04  0.50400001928E-02 0. -1.
</event>
<event>
 5   0  0.5849604E-05  0.2148136E+04  0.7818609E-02  0.8540331E-01
       -1   -1    0    0    0  501  0.00000000000E+00  0.00000000000E+00  0.15415611255E+04  0.15415611255E+04  0.50400001928E-02 0.  1.
        1   -1    0    0  501    0  0.00000000000E+00  0.00000000000E+00 -0.74834650939E+03  0.74834650940E+03  0.50400001928E-02 0. -1.
    10030    2    1    2    0    0  0.00000000000E+00  0.00000000000E+00  0.79321461610E+03  0.22899076349E+04  0.21481358312E+04 0.  0.
        2    1    3    3  502    0  0.21783358562E+03 -0.42601050799E+03 -0.62846202512E+03  0.78987400322E+03  0.25500000920E-02 0. -1.
       -2    1    3    3    0  502 -0.21783358562E+03  0.42601050799E+03  0.14216766412E+04  0.15000336317E+04  0.25500000920E-02 0.  1.
</event>
<event>
 5   0  0.5981239E-05  0.1465849E+04  0.7818609E-02  0.8907486E-01
        1   -1    0    0  501    0  0.00000000000E+00  0.00000000000E+00  0.12316178353E+04  0.12316178354E+04  0.50400001928E-02 0. -1.
       -1   -1    0    0    0  501  0.00000000000E+00  0.00000000000E+00 -0.43615682855E+03  0.43615682858E+03  0.50400001928E-02 0.  1.
    10030    2    1    2    0    0  0.00000000000E+00  0.00000000000E+00  0.79546100679E+03  0.16677746639E+04  0.14658492816E+04 0.  0.
        4    1    3    3  502    0  0.24990592883E+02  0.60230752251E+03  0.87202217016E+03  0.10601052587E+04  0.12699999809E+01 0.  1.
       -4    1    3    3    0  502 -0.24990592883E+02 -0.60230752251E+03 -0.76561163364E+02  0.60766940522E+03  0.12699999809E+01 0. -1.
</event>
<event>
 5   0  0.1252124E-04  0.2206154E+04  0.7818609E-02  0.8515871E-01
       -2   -1    0    0    0  501  0.00000000000E+00  0.00000000000E+00  0.77501495110E+03  0.77501495110E+03  0.25500000920E-02 0.  1.
        2   -1    0    0  501    0  0.00000000000E+00  0.00000000000E+00 -0.15700063539E+04  0.15700063539E+04  0.25500000920E-02 0. -1.
    10030    2    1    2    0    0  0.00000000000E+00  0.00000000000E+00 -0.79499140276E+03  0.23450213050E+04  0.22061535736E+04 0.  0.
        3    1    3    3  502    0 -0.10442678832E+04  0.84207056197E+02 -0.30522058317E+02  0.10481020210E+04  0.10100000352E+00 0.  1.
       -3    1    3    3    0  502  0.10442678832E+04 -0.84207056197E+02 -0.76446934444E+03  0.12969192839E+04  0.10100000352E+00 0. -1.
</event>
<event>
 5   0  0.1404159E-04  0.2203042E+04  0.7818609E-02  0.8517163E-01
        2   -1    0    0  501    0  0.00000000000E+00  0.00000000000E+00  0.11594058534E+04  0.11594058534E+04  0.25500000920E-02 0. -1.
       -2   -1    0    0    0  501  0.00000000000E+00  0.00000000000E+00 -0.10465257719E+04  0.10465257719E+04  0.25500000920E-02 0.  1.
    10030    2    1    2    0    0  0.00000000000E+00  0.00000000000E+00  0.11288008144E+03  0.22059316253E+04  0.22030416298E+04 0.  0.
        5    1    3    3  502    0  0.10766605712E+03  0.26940282186E+03 -0.10075715190E+04  0.10485191063E+04  0.46999998093E+01 0.  1.
       -5    1    3    3    0  502 -0.10766605712E+03 -0.26940282186E+03  0.11204516005E+04  0.11574125190E+04  0.46999998093E+01 0. -1.
</event>
<event>
 5   0  0.4586375E-05  0.2208261E+04  0.7818609E-02  0.8514998E-01
        3   -1    0    0  501    0  0.00000000000E+00  0.00000000000E+00  0.20923356089E+04  0.20923356113E+04  0.10100000352E+00 0. -1.
       -3   -1    0    0    0  501  0.00000000000E+00  0.00000000000E+00 -0.58265203705E+03  0.58265204580E+03  0.10100000352E+00 0.  1.
    10030    2    1    2    0    0  0.00000000000E+00  0.00000000000E+00  0.15096835718E+04  0.26749876571E+04  0.22082605097E+04 0.  0.
        3    1    3    3  502    0 -0.85289977161E+03  0.43357932281E+03  0.87304264604E+02  0.96075548107E+03  0.10100000352E+00 0.  1.
       -3    1    3    3    0  502  0.85289977161E+03 -0.43357932281E+03  0.14223793072E+04  0.17142321761E+04  0.10100000352E+00 0. -1.
</event>
<event>
 5   0  0.1404159E-04  0.2184003E+04  0.7818609E-02  0.8525116E-01
        2   -1    0    0  501    0  0.00000000000E+00  0.00000000000E+00  0.16743750618E+04  0.16743750618E+04  0.25500000920E-02 0. -1.
       -2   -1    0    0    0  501  0.00000000000E+00  0.00000000000E+00 -0.71218649886E+03  0.71218649886E+03  0.25500000920E-02 0.  1.
    10030    2    1    2    0    0  0.00000000000E+00  0.00000000000E+00  0.96218856296E+03  0.23865615607E+04  0.21840030339E+04 0.  0.
        5    1    3    3  502    0 -0.53650923472E+03  0.14543312674E+03  0.15081900724E+04  0.16073743614E+04  0.46999998093E+01 0. -1.
       -5    1    3    3    0  502  0.53650923472E+03 -0.14543312674E+03 -0.54600150940E+03  0.77918719930E+03  0.46999998093E+01 0.  1.
</event>
<event>
 5   0  0.1241430E-04  0.2212466E+04  0.7818609E-02  0.8513257E-01
       -2   -1    0    0    0  501  0.00000000000E+00  0.00000000000E+00  0.59953827995E+03  0.59953827995E+03  0.25500000920E-02 0. -1.
        2   -1    0    0  501    0  0.00000000000E+00  0.00000000000E+00 -0.20411569400E+04  0.20411569400E+04  0.25500000920E-02 0.  1.
    10030    2    1    2    0    0  0.00000000000E+00  0.00000000000E+00 -0.14416186601E+04  0.26406952200E+04  0.22124662447E+04 0.  0.
        1    1    3    3  502    0  0.32101104250E+03  0.67907849038E+03 -0.16901300033E+04  0.18495229422E+04  0.50400001928E-02 0. -1.
       -1    1    3    3    0  502 -0.32101104250E+03 -0.67907849038E+03  0.24851134320E+03  0.79117227784E+03  0.50400001928E-02 0.  1.
</event>
<event>
 5   0  0.5981239E-05  0.2345951E+04  0.7818609E-02  0.8460020E-01
       -1   -1    0    0    0  501  0.00000000000E+00  0.00000000000E+00  0.67020863462E+03  0.67020863464E+03  0.50400001928E-02 0.  1.
        1   -1    0    0  501    0  0.00000000000E+00  0.00000000000E+00 -0.20529009680E+04  0.20529009680E+04  0.50400001928E-02 0. -1.
    10030    2    1    2    0    0  0.00000000000E+00  0.00000000000E+00 -0.13826923334E+04  0.27231096027E+04  0.23459513676E+04 0.  0.
        4    1    3    3  502    0  0.43631175027E+02  0.55830917369E+03  0.50501146908E+03  0.75408952364E+03  0.12699999809E+01 0.  1.
       -4    1    3    3    0  502 -0.43631175027E+02 -0.55830917369E+03 -0.18877038025E+04  0.19690200790E+04  0.12699999809E+01 0. -1.
</event>
<event>
 5   0  0.5895063E-05  0.1982161E+04  0.7818609E-02  0.8615007E-01
       -1   -1    0    0    0  501  0.00000000000E+00  0.00000000000E+00  0.80700652788E+03  0.80700652790E+03  0.50400001928E-02 0. -1.
        1   -1    0    0  501    0  0.00000000000E+00  0.00000000000E+00 -0.12171410718E+04  0.12171410718E+04  0.50400001928E-02 0.  1.
    10030    2    1    2    0    0  0.00000000000E+00  0.00000000000E+00 -0.41013454391E+03  0.20241475997E+04  0.19821612349E+04 0.  0.
        5    1    3    3  502    0  0.94789953861E+03 -0.77401866895E+02  0.79610235831E+02  0.95439219608E+03  0.46999998093E+01 0. -1.
       -5    1    3    3    0  502 -0.94789953861E+03  0.77401866895E+02 -0.48974477974E+03  0.10697554036E+04  0.46999998093E+01 0.  1.
</event>
<event>
 5   0  0.1404159E-04  0.2285264E+04  0.7818609E-02  0.8483754E-01
        2   -1    0    0  501    0  0.00000000000E+00  0.00000000000E+00  0.10612706463E+04  0.10612706463E+04  0.25500000920E-02 0.  1.
       -2   -1    0    0    0  501  0.00000000000E+00  0.00000000000E+00 -0.12302309301E+04  0.12302309301E+04  0.25500000920E-02 0. -1.
    10030    2    1    2    0    0  0.00000000000E+00  0.00000000000E+00 -0.16896028375E+03  0.22915015764E+04  0.22852640760E+04 0.  0.
        5    1    3    3  502    0  0.21026241496E+03 -0.51483004794E+02 -0.12094715721E+04  0.12287002713E+04  0.46999998093E+01 0. -1.
       -5    1    3    3    0  502 -0.21026241496E+03  0.51483004794E+02  0.10405112884E+04  0.10628013051E+04  0.46999998093E+01 0.  1.
</event>
<event>
 5   0  0.1226021E-04  0.2137916E+04  0.7818609E-02  0.8544722E-01
        2   -1    0    0  501    0  0.00000000000E+00  0.00000000000E+00  0.13388284205E+04  0.13388284205E+04  0.25500000920E-02 0.  1.
       -2   -1    0    0    0  501  0.00000000000E+00  0.00000000000E+00 -0.85348621446E+03  0.85348621446E+03  0.25500000920E-02 0. -1.
    10030    2    1    2    0    0  0.00000000000E+00  0.00000000000E+00  0.48534220608E+03  0.21923146350E+04  0.21379163692E+04 0.  0.
        2    1    3    3  502    0  0.63227503970E+03  0.62497989333E+03  0.85132232289E+03  0.12309026324E+04  0.25500000920E-02 0.  1.
       -2    1    3    3    0  502 -0.63227503970E+03 -0.62497989333E+03 -0.36598011681E+03  0.96141200263E+03  0.25500000920E-02 0. -1.
</event>
<event>
 5   0  0.1252124E-04  0.1835551E+04  0.7818609E-02  0.8687619E-01
       -2   -1    0    0    0  501  0.00000000000E+00  0.00000000000E+00  0.36279031580E+03  0.36279031581E+03  0.25500000920E-02 0.  1.
        2   -1    0    0  501    0  0.00000000000E+00  0.00000000000E+00 -0.23217594167E+04  0.23217594167E+04  0.25500000920E-02 0. -1.
    10030    2    1    2    0    0  0.00000000000E+00  0.00000000000E+00 -0.19589691009E+04  0.26845497325E+04  0.18355509603E+04 0.  0.
        3    1    3    3  502    0 -0.51641565090E+03 -0.41797691225E+03 -0.19055356476E+04  0.20180326901E+04  0.10100000352E+00 0. -1.
       -3    1    3    3    0  502  0.51641565090E+03  0.41797691225E+03 -0.53433453246E+02  0.66651704239E+03  0.10100000352E+00 0.  1.
</event>
<event>
 5   0  0.5861816E-05  0.2199462E+04  0.7818609E-02  0.8518652E-01
       -1   -1    0    0    0  501  0.00000000000E+00  0.00000000000E+00  0.69196828599E+03  0.69196828601E+03  0.50400001928E-02 0. -1.
        1   -1    0    0  501    0  0.00000000000E+00  0.00000000000E+00 -0.17477805541E+04  0.17477805541E+04  0.50400001928E-02 0.  1.
    10030    2    1    2    0    0  0.00000000000E+00  0.00000000000E+00 -0.10558122681E+04  0.24397488402E+04  0.21994624019E+04 0.  0.
        1    1    3    3  502    0 -0.20434393783E+03  0.76222575020E+03 -0.13775234637E+04  0.15875501353E+04  0.50400001928E-02 0.  1.
       -1    1    3    3    0  502  0.20434393783E+03 -0.76222575020E+03  0.32171119551E+03  0.85219870484E+03  0.50400001928E-02 0. -1.
</event>
<event>
 5   0  0.1252124E-04  0.2059718E+04  0.7818609E-02  0.8579198E-01
       -2   -1    0    0    0  501  0.00000000000E+00  0.00000000000E+00  0.85940269741E+03  0.85940269741E+03  0.25500000920E-02 0. -1.
        2   -1    0    0  501    0  0.00000000000E+00  0.00000000000E+00 -0.12341244005E+04  0.12341244005E+04  0.25500000920E-02 0.  1.
    10030    2    1    2    0    0  0.00000000000E+00  0.00000000000E+00 -0.37472170309E+03  0.20935270979E+04  0.20597182708E+04 0.  0.
        3    1    3    3  502    0  0.23346574482E+03  0.80983694263E+03 -0.78890957714E+03  0.11544351254E+04  0.10100000352E+00 0.  1.
       -3    1    3    3    0  502 -0.23346574482E+03 -0.80983694263E+03  0.41418787404E+03  0.93909197252E+03  0.10100000352E+00 0. -1.
</event>
<event>
 5   0  0.1404159E-04  0.2178105E+04  0.7818609E-02  0.8527597E-01
        2   -1    0    0  501    0  0.00000000000E+00  0.00000000000E+00  0.11986190160E+04  0.11986190160E+04  0.25500000920E-02 0.  1.
       -2   -1    0    0    0  501  0.00000000000E+00  0.00000000000E+00 -0.98950131610E+03  0.98950131610E+03  0.25500000920E-02 0. -1.
    10030    2    1    2    0    0  0.00000000000E+00  0.00000000000E+00  0.20911769988E+03  0.21881203321E+04  0.21781047668E+04 0.  0.
        5    1    3    3  502    0  0.57445962748E+02  0.10875181837E+04  0.10872101200E+03  0.10944579420E+04  0.46999998093E+01 0.  1.
       -5    1    3    3    0  502 -0.57445962748E+02 -0.10875181837E+04  0.10039668789E+03  0.10936623900E+04  0.46999998093E+01 0. -1.
</event>
<event>
 5   0  0.5861816E-05  0.2246072E+04  0.7818609E-02  0.8499493E-01
        1   -1    0    0  501    0  0.00000000000E+00  0.00000000000E+00  0.90112566426E+03  0.90112566427E+03  0.50400001928E-02 0. -1.
       -1   -1    0    0    0  501  0.00000000000E+00  0.00000000000E+00 -0.13995943574E+04  0.13995943574E+04  0.50400001928E-02 0.  1.
    10030    2    1    2    0    0  0.00000000000E+00  0.00000000000E+00 -0.49846869310E+03  0.23007200216E+04  0.22460724788E+04 0.  0.
        1    1    3    3  502    0  0.53228578970E+03  0.94318038804E+03  0.55136543474E+02  0.10844157158E+04  0.50400001928E-02 0.  1.
       -1    1    3    3    0  502 -0.53228578970E+03 -0.94318038804E+03 -0.55360523657E+03  0.12163043058E+04  0.50400001928E-02 0. -1.
</event>
<event>
 5   0  0.5849604E-05  0.2164059E+04  0.7818609E-02  0.8533538E-01
       -1   -1    0    0    0  501  0.00000000000E+00  0.00000000000E+00  0.12822316128E+04  0.12822316128E+04  0.50400001928E-02 0.  1.
        1   -1    0    0  501    0  0.00000000000E+00  0.00000000000E+00 -0.91308601254E+03  0.91308601255E+03  0.50400001928E-02 0. -1.
    10030    2    1    2    0    0  0.00000000000E+00  0.00000000000E+00  0.36914560022E+03  0.21953176253E+04  0.21640589183E+04 0.  0.
        2    1    3    3  502    0  0.99860179250E+03 -0.16464224905E+03 -0.20367610970E+03  0.10323742383E+04  0.25500000920E-02 0. -1.
       -2    1    3    3    0  502 -0.99860179250E+03  0.16464224905E+03  0.57282170992E+03  0.11629433871E+04  0.25500000920E-02 0.  1.
</event>
<event>
 5   0  0.1311472E-04  0.1763264E+04  0.7818609E-02  0.8726083E-01
       -2   -1    0    0    0  501  0.00000000000E+00  0.00000000000E+00  0.32113413605E+03  0.32113413606E+03  0.25500000920E-02 0.  1.
        2   -1    0    0  501    0  0.00000000000E+00  0.00000000000E+00 -0.24204071305E+04  0.24204071305E+04  0.25500000920E-02 0. -1.
    10030    2    1    2    0    0  0.00000000000E+00  0.00000000000E+00 -0.20992729944E+04  0.27415412665E+04  0.17632644189E+04 0.  0.
        4    1    3    3  502    0 -0.24392540179E+02 -0.35467323229E+03 -0.23040181387E+04  0.23312849019E+04  0.12699999809E+01 0. -1.
       -4    1    3    3    0  502  0.24392540179E+02  0.35467323229E+03  0.20474514425E+03  0.41025636462E+03  0.12699999809E+01 0.  1.
</event>
<event>
 5   0  0.1311472E-04  0.2165288E+04  0.7818609E-02  0.8533017E-01
        2   -1    0    0  501    0  0.00000000000E+00  0.00000000000E+00  0.33048255794E+04  0.33048255794E+04  0.25500000920E-02 0. -1.
       -2   -1    0    0    0  501  0.00000000000E+00  0.00000000000E+00 -0.35466857150E+03  0.35466857151E+03  0.25500000920E-02 0.  1.
    10030    2    1    2    0    0  0.00000000000E+00  0.00000000000E+00  0.29501570079E+04  0.36594941509E+04  0.21652877567E+04 0.  0.
        4    1    3    3  502    0 -0.34999276269E+03 -0.64345565566E+03  0.28224663077E+04  0.29159642977E+04  0.12699999809E+01 0. -1.
       -4    1    3    3    0  502  0.34999276269E+03  0.64345565566E+03  0.12769070020E+03  0.74352985317E+03  0.12699999809E+01 0.  1.
</event>
<event>
 5   0  0.1226021E-04  0.2156589E+04  0.7818609E-02  0.8536717E-01
       -2   -1    0    0    0  501  0.00000000000E+00  0.00000000000E+00  0.10124468914E+04  0.10124468914E+04  0.25500000920E-02 0.  1.
        2   -1    0    0  501    0  0.00000000000E+00  0.00000000000E+00 -0.11484247963E+04  0.11484247963E+04  0.25500000920E-02 0. -1.
    10030    2    1    2    0    0  0.00000000000E+00  0.00000000000E+00 -0.13597790487E+03  0.21608716877E+04  0.21565890800E+04 0.  0.
        2    1    3    3  502    0 -0.40124354905E+03 -0.43948502279E+03  0.83300506061E+03  0.10237386883E+04  0.25500000920E-02 0.  1.
       -2    1    3    3    0  502  0.40124354905E+03  0.43948502279E+03 -0.96898296548E+03  0.11371329994E+04  0.25500000920E-02 0. -1.
</event>
<event>
 5   0  0.1241430E-04  0.2199458E+04  0.7818609E-02  0.8518654E-01
        2   -1    0    0  501    0  0.00000000000E+00  0.00000000000E+00  0.16487761428E+04  0.16487761428E+04  0.25500000920E-02 0.  1.
       -2   -1    0    0    0  501  0.00000000000E+00  0.00000000000E+00 -0.73351594676E+03  0.73351594677E+03  0.25500000920E-02 0. -1.
    10030    2    1    2    0    0  0.00000000000E+00  0.00000000000E+00  0.91526019599E+03  0.23822920895E+04  0.21994577453E+04 0.  0.
        1    1    3    3  502    0 -0.67622007059E+03  0.13890730336E+03  0.13848493047E+04  0.15473772712E+04  0.50400001928E-02 0.  1.
       -1    1    3    3    0  502  0.67622007059E+03 -0.13890730336E+03 -0.46958910869E+03  0.83491481830E+03  0.50400001928E-02 0. -1.
</event>
<event>
 5   0  0.1311472E-04  0.2198852E+04  0.7818609E-02  0.8518906E-01
        2   -1    0    0  501    0  0.00000000000E+00  0.00000000000E+00  0.96284034536E+03  0.96284034536E+03  0.25500000920E-02 0. -1.
       -2   -1    0    0    0  501  0.00000000000E+00  0.00000000000E+00 -0.12553872794E+04  0.12553872794E+04  0.25500000920E-02 0.  1.
    10030    2    1    2    0    0  0.00000000000E+00  0.00000000000E+00 -0.29254693403E+03  0.22182276248E+04  0.21988519929E+04 0.  0.
        4    1    3    3  502    0  0.72032363536E+03 -0.79562049111E+03 -0.38682335005E+03  0.11408382982E+04  0.12699999809E+01 0.  1.
       -4    1    3    3    0  502 -0.72032363536E+03  0.79562049111E+03  0.94276416023E+02  0.10773893266E+04  0.12699999809E+01 0. -1.
</event>
<event>
 5   0  0.1252124E-04  0.1998574E+04  0.7818609E-02  0.8607288E-01
        2   -1    0    0  501    0  0.00000000000E+00  0.00000000000E+00  0.46180562892E+03  0.46180562893E+03  0.25500000920E-02 0. -1.
       -2   -1    0    0    0  501  0.00000000000E+00  0.00000000000E+00 -0.21623255275E+04  0.21623255275E+04  0.25500000920E-02 0.  1.
    10030    2    1    2    0    0  0.00000000000E+00  0.00000000000E+00 -0.17005198986E+04  0.26241311565E+04  0.19985735915E+04 0.  0.
        3    1    3    3  502    0  0.11146191511E+03 -0.83239676718E+03 -0.13921637420E+03  0.85128687619E+03  0.10100000352E+00 0.  1.
       -3    1    3    3    0  502 -0.11146191511E+03  0.83239676718E+03 -0.15613035244E+04  0.17728442803E+04  0.10100000352E+00 0. -1.
</event>
<event>
 5   0  0.5861816E-05  0.1839243E+04  0.7818609E-02  0.8685704E-01
       -1   -1    0    0    0  501  0.00000000000E+00  0.00000000000E+00  0.81759510906E+03  0.81759510908E+03  0.50400001928E-02 0. -1.
        1   -1    0    0  501    0  0.00000000000E+00  0.00000000000E+00 -0.10343798207E+04  0.10343798207E+04  0.50400001928E-02 0.  1.
    10030    2    1    2    0    0  0.00000000000E+00  0.00000000000E+00 -0.21678471160E+03  0.18519749298E+04  0.18392431947E+04 0.  0.
        1    1    3    3  502    0  0.22931966097E+03  0.58968366039E+03  0.56360251787E+03  0.84732645681E+03  0.50400001928E-02 0. -1.
       -1    1    3    3    0  502 -0.22931966097E+03 -0.58968366039E+03 -0.78038722947E+03  0.10046484729E+04  0.50400001928E-02 0.  1.
</event>
<event>
 5   0  0.6263558E-05  0.2169785E+04  0.7818609E-02  0.8531110E-01
        1   -1    0    0  501    0  0.00000000000E+00  0.00000000000E+00  0.11735429963E+04  0.11735429963E+04  0.50400001928E-02 0. -1.
       -1   -1    0    0    0  501  0.00000000000E+00  0.00000000000E+00 -0.10029389925E+04  0.10029389925E+04  0.50400001928E-02 0.  1.
    10030    2    1    2    0    0  0.00000000000E+00  0.00000000000E+00  0.17060400377E+03  0.21764819888E+04  0.21697852708E+04 0.  0.
        3    1    3    3  502    0 -0.74954924893E+03  0.74459332343E+03  0.33253526967E+03  0.11076204267E+04  0.10100000352E+00 0. -1.
       -3    1    3    3    0  502  0.74954924893E+03 -0.74459332343E+03 -0.16193126590E+03  0.10688615621E+04  0.10100000352E+00 0.  1.
</event>
<event>
 5   0  0.5981239E-05  0.1801672E+04  0.7818609E-02  0.8705411E-01
        1   -1    0    0  501    0  0.00000000000E+00  0.00000000000E+00  0.22915159906E+04  0.22915159906E+04  0.50400001928E-02 0. -1.
       -1   -1    0    0    0  501  0.00000000000E+00  0.00000000000E+00 -0.35413463224E+03  0.35413463228E+03  0.50400001928E-02 0.  1.
    10030    2    1    2    0    0  0.00000000000E+00  0.00000000000E+00  0.19373813583E+04  0.26456506229E+04  0.18016716378E+04 0.  0.
        4    1    3    3  502    0 -0.40816152070E+03 -0.59532542220E+03  0.17601461051E+04  0.19023995662E+04  0.12699999809E+01 0. -1.
       -4    1    3    3    0  502  0.40816152070E+03  0.59532542220E+03  0.17723525320E+03  0.74325105662E+03  0.12699999809E+01 0.  1.
</event>
<event>
 5   0  0.5861816E-05  0.2184387E+04  0.7818609E-02  0.8524955E-01
       -1   -1    0    0    0  501  0.00000000000E+00  0.00000000000E+00  0.92393957474E+03  0.92393957475E+03  0.50400001928E-02 0.  1.
        1   -1    0    0  501    0  0.00000000000E+00  0.00000000000E+00 -0.12910870187E+04  0.12910870187E+04  0.50400001928E-02 0. -1.
    10030    2    1    2    0    0  0.00000000000E+00  0.00000000000E+00 -0.36714744398E+03  0.22150265935E+04  0.21843867707E+04 0.  0.
        1    1    3    3  502    0 -0.47454154180E+03  0.27996847651E+03 -0.11398360820E+04  0.12660167126E+04  0.50400001928E-02 0. -1.
       -1    1    3    3    0  502  0.47454154180E+03 -0.27996847651E+03  0.77268863800E+03  0.94900988090E+03  0.50400001928E-02 0.  1.
</event>
<event>
 5   0  0.1241430E-04  0.2183699E+04  0.7818609E-02  0.8525244E-01
       -2   -1    0    0    0  501  0.00000000000E+00  0.00000000000E+00  0.76263166324E+03  0.76263166325E+03  0.25500000920E-02 0.  1.
        2   -1    0    0  501    0  0.00000000000E+00  0.00000000000E+00 -0.15631867661E+04  0.15631867661E+04  0.25500000920E-02 0. -1.
    10030    2    1    2    0    0  0.00000000000E+00  0.00000000000E+00 -0.80055510286E+03  0.23258184294E+04  0.21836993597E+04 0.  0.
        1    1    3    3  502    0 -0.95623471035E+03  0.15489162324E+02  0.16080020597E+03  0.96978422430E+03  0.50400001928E-02 0. -1.
       -1    1    3    3    0  502  0.95623471035E+03 -0.15489162324E+02 -0.96135530884E+03  0.13560342051E+04  0.50400001928E-02 0.  1.
</event>
<event>
 5   0  0.1311472E-04  0.2167921E+04  0.7818609E-02  0.8531900E-01
       -2   -1    0    0    0  501  0.00000000000E+00  0.00000000000E+00  0.96102398116E+03  0.96102398116E+03  0.25500000920E-02 0. -1.
        2   -1    0    0  501    0  0.00000000000E+00  0.00000000000E+00 -0.12226233671E+04  0.12226233671E+04  0.25500000920E-02 0.  1.
    10030    2    1    2    0    0  0.00000000000E+00  0.00000000000E+00 -0.26159938590E+03  0.21836473482E+04  0.21679210093E+04 0.  0.
        4    1    3    3  502    0  0.74709969511E+03  0.47722594652E+03 -0.75907617382E+03  0.11670907458E+04  0.12699999809E+01 0.  1.
       -4    1    3    3    0  502 -0.74709969511E+03 -0.47722594652E+03  0.49747678791E+03  0.10165566024E+04  0.12699999809E+01 0. -1.
</event>
<event>
 5   0  0.1226021E-04  0.2130228E+04  0.7818609E-02  0.8548044E-01
       -2   -1    0    0    0  501  0.00000000000E+00  0.00000000000E+00  0.69032757165E+03  0.69032757165E+03  0.25500000920E-02 0.  1.
        2   -1    0    0  501    0  0.00000000000E+00  0.00000000000E+00 -0.16433753424E+04  0.16433753424E+04  0.25500000920E-02 0. -1.
    10030    2    1    2    0    0  0.00000000000E+00  0.00000000000E+00 -0.95304777074E+03  0.23337029140E+04  0.21302275084E+04 0.  0.
        2    1    3    3  502    0  0.35975841118E+03 -0.10063385643E+03 -0.15692526004E+04  0.16131047739E+04  0.25500000920E-02 0. -1.
       -2    1    3    3    0  502 -0.35975841118E+03  0.10063385643E+03  0.61620482970E+03  0.72059814017E+03  0.25500000920E-02 0.  1.
</event>
<event>
 5   0  0.5895063E-05  0.2295865E+04  0.7818609E-02  0.8479553E-01
       -1   -1    0    0    0  501  0.00000000000E+00  0.00000000000E+00  0.18373952395E+04  0.18373952395E+04  0.50400001928E-02 0.  1.
        1   -1    0    0  501    0  0.00000000000E+00  0.00000000000E+00 -0.71718325092E+03  0.71718325094E+03  0.50400001928E-02 0. -1.
    10030    2    1    2    0    0  0.00000000000E+00  0.00000000000E+00  0.11202119886E+04  0.25545784905E+04  0.22958650580E+04 0.  0.
        5    1    3    3  502    0  0.89552717164E+03  0.53090183774E+03  0.10982385090E+04  0.15132665294E+04  0.46999998093E+01 0.  1.
       -5    1    3    3    0  502 -0.89552717164E+03 -0.53090183774E+03  0.21973479636E+02  0.10413119611E+04  0.46999998093E+01 0. -1.
</event>
<event>
 5   0  0.6263558E-05  0.2230704E+04  0.7818609E-02  0.8505756E-01
        1   -1    0    0  501    0  0.00000000000E+00  0.00000000000E+00  0.15549549012E+04  0.15549549012E+04  0.50400001928E-02 0.  1.
       -1   -1    0    0    0  501  0.00000000000E+00  0.00000000000E+00 -0.80002943897E+03  0.80002943899E+03  0.50400001928E-02 0. -1.
    10030    2    1    2    0    0  0.00000000000E+00  0.00000000000E+00  0.75492546220E+03  0.23549843402E+04  0.22307036533E+04 0.  0.
        3    1    3    3  502    0  0.75402696326E+02  0.32703952705E+02  0.15517535859E+04  0.15539286717E+04  0.10100000352E+00 0.  1.
       -3    1    3    3    0  502 -0.75402696326E+02 -0.32703952705E+02 -0.79682812368E+03  0.80105566849E+03  0.10100000352E+00 0. -1.
</event>
<event>
 5   0  0.1241430E-04  0.2204652E+04  0.7818609E-02  0.8516494E-01
       -2   -1    0    0    0  501  0.00000000000E+00  0.00000000000E+00  0.77942569417E+03  0.77942569417E+03  0.25500000920E-02 0. -1.
        2   -1    0    0  501    0  0.00000000000E+00  0.00000000000E+00 -0.15589973709E+04  0.15589973709E+04  0.25500000920E-02 0.  1.
    10030    2    1    2    0    0  0.00000000000E+00  0.00000000000E+00 -0.77957167676E+03  0.23384230651E+04  0.22046519980E+04 0.  0.
        1    1    3    3  502    0 -0.55543511739E+03 -0.93391321700E+03 -0.19300088468E+03  0.11036083581E+04  0.50400001928E-02 0. -1.
       -1    1    3    3    0  502  0.55543511739E+03  0.93391321700E+03 -0.58657079208E+03  0.12348147070E+04  0.50400001928E-02 0.  1.
</event>
<event>
 5   0  0.5981239E-05  0.2165102E+04  0.7818609E-02  0.8533096E-01
        1   -1    0    0  501    0  0.00000000000E+00  0.00000000000E+00  0.24763153165E+04  0.24763153165E+04  0.50400001928E-02 0.  1.
       -1   -1    0    0    0  501  0.00000000000E+00  0.00000000000E+00 -0.47325003563E+03  0.47325003566E+03  0.50400001928E-02 0. -1.
    10030    2    1    2    0    0  0.00000000000E+00  0.00000000000E+00  0.20030652808E+04  0.29495653521E+04  0.21651016713E+04 0.  0.
        4    1    3    3  502    0  0.80425887092E+03 -0.32206504228E+03  0.18858426979E+04  0.20753222682E+04  0.12699999809E+01 0.  1.
       -4    1    3    3    0  502 -0.80425887092E+03  0.32206504228E+03  0.11722258296E+03  0.87424308391E+03  0.12699999809E+01 0. -1.
</event>
<event>
 5   0  0.6263558E-05  0.2091683E+04  0.7818609E-02  0.8564916E-01
        1   -1    0    0  501    0  0.00000000000E+00  0.00000000000E+00  0.14726094833E+04  0.14726094833E+04  0.50400001928E-02 0.  1.
       -1   -1    0    0    0  501  0.00000000000E+00  0.00000000000E+00 -0.74275261432E+03  0.74275261434E+03  0.50400001928E-02 0. -1.
    10030    2    1    2    0    0  0.00000000000E+00  0.00000000000E+00  0.72985686900E+03  0.22153620977E+04  0.20916830961E+04 0.  0.
        3    1    3    3  502    0  0.96147915924E+03  0.39868721554E+03  0.47289136483E+03  0.11432497201E+04  0.10100000352E+00 0.  1.
       -3    1    3    3    0  502 -0.96147915924E+03 -0.39868721554E+03  0.25696550417E+03  0.10721123775E+04  0.10100000352E+00 0. -1.
</event>
<event>
 5   0  0.5861816E-05  0.2186253E+04  0.7818609E-02  0.8524172E-01
        1   -1    0    0  501    0  0.00000000000E+00  0.00000000000E+00  0.93275266260E+03  0.93275266261E+03  0.50400001928E-02 0. -1.
       -1   -1    0    0    0  501  0.00000000000E+00  0.00000000000E+00 -0.12810738857E+04  0.12810738857E+04  0.50400001928E-02 0.  1.
    10030    2    1    2    0    0  0.00000000000E+00  0.00000000000E+00 -0.34832122312E+03  0.22138265483E+04  0.21862525727E+04 0.  0.
        1    1    3    3  502    0 -0.64015618269E+03 -0.52396086758E+03 -0.89772881414E+03  0.12207587611E+04  0.50400001928E-02 0. -1.
       -1    1    3    3    0  502  0.64015618269E+03  0.52396086758E+03  0.54940759102E+03  0.99306778726E+03  0.50400001928E-02 0.  1.
</event>
<event>
 5   0  0.5895063E-05  0.2141211E+04  0.7818609E-02  0.8543304E-01
        1   -1    0    0  501    0  0.00000000000E+00  0.00000000000E+00  0.23407298092E+04  0.23407298092E+04  0.50400001928E-02 0.  1.
       -1   -1    0    0    0  501  0.00000000000E+00  0.00000000000E+00 -0.48967466922E+03  0.48967466924E+03  0.50400001928E-02 0. -1.
    10030    2    1    2    0    0  0.00000000000E+00  0.00000000000E+00  0.18510551400E+04  0.28304044785E+04  0.21412109612E+04 0.  0.
        5    1    3    3  502    0  0.41651612628E+03 -0.74950431516E+03  0.17728989977E+04  0.19693743545E+04  0.46999998093E+01 0.  1.
       -5    1    3    3    0  502 -0.41651612628E+03  0.74950431516E+03  0.78156142291E+02  0.86103012402E+03  0.46999998093E+01 0. -1.
</event>
<event>
 5   0  0.6263558E-05  0.2039856E+04  0.7818609E-02  0.8588210E-01
       -1   -1    0    0    0  501  0.00000000000E+00  0.00000000000E+00  0.67590102107E+03  0.67590102109E+03  0.50400001928E-02 0.  1.
        1   -1    0    0  501    0  0.00000000000E+00  0.00000000000E+00 -0.15390609347E+04  0.15390609347E+04  0.50400001928E-02 0. -1.
    10030    2    1    2    0    0  0.00000000000E+00  0.00000000000E+00 -0.86315991362E+03  0.22149619558E+04  0.20398557373E+04 0.  0.
        3    1    3    3  502    0  0.79392568848E+03  0.16976297568E+03 -0.11019198327E+04  0.13687091709E+04  0.10100000352E+00 0. -1.
       -3    1    3    3    0  502 -0.79392568848E+03 -0.16976297568E+03  0.23875991905E+03  0.84625278486E+03  0.10100000352E+00 0.  1.
</event>
<event>
 5   0  0.1311472E-04  0.2182992E+04  0.7818609E-02  0.8525541E-01
        2   -1    0    0  501    0  0.00000000000E+00  0.00000000000E+00  0.77711395581E+03  0.77711395582E+03  0.25500000920E-02 0. -1.
       -2   -1    0    0    0  501  0.00000000000E+00  0.00000000000E+00 -0.15330611793E+04  0.15330611793E+04  0.25500000920E-02 0.  1.
    10030    2    1    2    0    0  0.00000000000E+00  0.00000000000E+00 -0.75594722347E+03  0.23101751351E+04  0.21829917430E+04 0.  0.
        4    1    3    3  502    0 -0.26047422712E+02  0.46502628641E+03  0.66667194606E+03  0.81325335034E+03  0.12699999809E+01 0. -1.
       -4    1    3    3    0  502  0.26047422712E+02 -0.46502628641E+03 -0.14226191695E+04  0.14969217848E+04  0.12699999809E+01 0.  1.
</event>
<event>
 5   0  0.1241430E-04  0.1518519E+04  0.7818609E-02  0.8872231E-01
       -2   -1    0    0    0  501  0.00000000000E+00  0.00000000000E+00  0.10038167423E+04  0.10038167423E+04  0.25500000920E-02 0.  1.
        2   -1    0    0  501    0  0.00000000000E+00  0.00000000000E+00 -0.57428284613E+03  0.57428284614E+03  0.25500000920E-02 0. -1.
    10030    2    1    2    0    0  0.00000000000E+00  0.00000000000E+00  0.42953389621E+03  0.15780995885E+04  0.15185186674E+04 0.  0.
        1    1    3    3  502    0 -0.51383681043E+03  0.51285220792E+03  0.44581671716E+03  0.85193790868E+03  0.50400001928E-02 0. -1.
       -1    1    3    3    0  502  0.51383681043E+03 -0.51285220792E+03 -0.16282820955E+02  0.72616167980E+03  0.50400001928E-02 0.  1.
</event>
<event>
 5   0  0.5981239E-05  0.2188158E+04  0.7818609E-02  0.8523373E-01
        1   -1    0    0  501    0  0.00000000000E+00  0.00000000000E+00  0.40588900264E+03  0.40588900267E+03  0.50400001928E-02 0. -1.
       -1   -1    0    0    0  501  0.00000000000E+00  0.00000000000E+00 -0.29491045158E+04  0.29491045158E+04  0.50400001928E-02 0.  1.
    10030    2    1    2    0    0  0.00000000000E+00  0.00000000000E+00 -0.25432155131E+04  0.33549935185E+04  0.21881582124E+04 0.  0.
        4    1    3    3  502    0  0.11835311275E+03 -0.10748881086E+04 -0.15264022218E+04  0.18706408691E+04  0.12699999809E+01 0.  1.
       -4    1    3    3    0  502 -0.11835311275E+03  0.10748881086E+04 -0.10168132913E+04  0.14843526494E+04  0.12699999809E+01 0. -1.
</event>
<event>
 5   0  0.1404159E-04  0.2008605E+04  0.7818609E-02  0.8602608E-01
        2   -1    0    0  501    0  0.00000000000E+00  0.00000000000E+00  0.15971210009E+04  0.15971210009E+04  0.25500000920E-02 0. -1.
       -2   -1    0    0    0  501  0.00000000000E+00  0.00000000000E+00 -0.63152611858E+03  0.63152611858E+03  0.25500000920E-02 0.  1.
    10030    2    1    2    0    0  0.00000000000E+00  0.00000000000E+00  0.96559488234E+03  0.22286471195E+04  0.20086051146E+04 0.  0.
        5    1    3    3  502    0  0.39436976711E+03 -0.49047418726E+02 -0.54055890642E+03  0.67093903135E+03  0.46999998093E+01 0.  1.
       -5    1    3    3    0  502 -0.39436976711E+03  0.49047418726E+02  0.15061537888E+04  0.15577080881E+04  0.46999998093E+01 0. -1.
</event>
<event>
 5   0  0.5981239E-05  0.2313931E+04  0.7818609E-02  0.8472448E-01
       -1   -1    0    0    0  501  0.00000000000E+00  0.00000000000E+00  0.89655259711E+03  0.89655259713E+03  0.50400001928E-02 0.  1.
        1   -1    0    0  501    0  0.00000000000E+00  0.00000000000E+00 -0.14930184770E+04  0.14930184770E+04  0.50400001928E-02 0. -1.
    10030    2    1    2    0    0  0.00000000000E+00  0.00000000000E+00 -0.59646587992E+03  0.23895710742E+04  0.23139313673E+04 0.  0.
        4    1    3    3  502    0  0.25427625173E+03 -0.22788189442E+03 -0.14398009200E+04  0.14797347303E+04  0.12699999809E+01 0. -1.
       -4    1    3    3    0  502 -0.25427625173E+03  0.22788189442E+03  0.84333504004E+03  0.90983634388E+03  0.12699999809E+01 0.  1.
</event>
<event>
 5   0  0.5861816E-05  0.2155850E+04  0.7818609E-02  0.8537033E-01
       -1   -1    0    0    0  501  0.00000000000E+00  0.00000000000E+00  0.10845603508E+04  0.10845603509E+04  0.50400001928E-02 0.  1.
        1   -1    0    0  501    0  0.00000000000E+00  0.00000000000E+00 -0.10713297787E+04  0.10713297787E+04  0.50400001928E-02 0. -1.
    10030    2    1    2    0    0  0.00000000000E+00  0.00000000000E+00  0.13230572139E+02  0.21558901296E+04  0.21558495316E+04 0.  0.
        1    1    3    3  502    0 -0.30379333858E+03 -0.25463428838E+03  0.10090276918E+04  0.10840968113E+04  0.50400001928E-02 0.  1.
       -1    1    3    3    0  502  0.30379333858E+03  0.25463428838E+03 -0.99579711971E+03  0.10717933182E+04  0.50400001928E-02 0. -1.
</event>
<event>
 5   0  0.5861816E-05  0.1921941E+04  0.7818609E-02  0.8644011E-01
        1   -1    0    0  501    0  0.00000000000E+00  0.00000000000E+00  0.13465006727E+04  0.13465006728E+04  0.50400001928E-02 0. -1.
       -1   -1    0    0    0  501  0.00000000000E+00  0.00000000000E+00 -0.68582530362E+03  0.68582530363E+03  0.50400001928E-02 0.  1.
    10030    2    1    2    0    0  0.00000000000E+00  0.00000000000E+00  0.66067536913E+03  0.20323259764E+04  0.19219409281E+04 0.  0.
        1    1    3    3  502    0  0.17950054980E+03  0.33648161025E+03  0.12630544972E+04  0.13193737091E+04  0.50400001928E-02 0. -1.
       -1    1    3    3    0  502 -0.17950054980E+03 -0.33648161025E+03 -0.60237912808E+03  0.71295226725E+03  0.50400001928E-02 0.  1.
</event>
<event>
 5   0  0.6263558E-05  0.2066792E+04  0.7818609E-02  0.8576014E-01
       -1   -1    0    0    0  501  0.00000000000E+00  0.00000000000E+00  0.14361328756E+04  0.14361328756E+04  0.50400001928E-02 0.  1.
        1   -1    0    0  501    0  0.00000000000E+00  0.00000000000E+00 -0.74359937671E+03  0.74359937673E+03  0.50400001928E-02 0. -1.
    10030    2    1    2    0    0  0.00000000000E+00  0.00000000000E+00  0.69253349884E+03  0.21797322523E+04  0.20667922113E+04 0.  0.
        3    1    3    3  502    0  0.47459914456E+01 -0.23021229069E+03 -0.71619973286E+03  0.75230465290E+03  0.10100000352E+00 0. -1.
       -3    1    3    3    0  502 -0.47459914456E+01  0.23021229069E+03  0.14087332317E+04  0.14274275994E+04  0.10100000352E+00 0.  1.
</event>
<event>
 5   0  0.1404159E-04  0.2134536E+04  0.7818609E-02  0.8546181E-01
       -2   -1    0    0    0  501  0.00000000000E+00  0.00000000000E+00  0.10073760986E+04  0.10073760986E+04  0.25500000920E-02 0.  1.
        2   -1    0    0  501    0  0.00000000000E+00  0.00000000000E+00 -0.11307211824E+04  0.11307211824E+04  0.25500000920E-02 0. -1.
    10030    2    1    2    0    0  0.00000000000E+00  0.00000000000E+00 -0.12334508377E+03  0.21380972810E+04  0.21345364774E+04 0.  0.
        5    1    3    3  502    0 -0.84374940240E+03  0.33784562901E+03 -0.62205793711E+03  0.11013768157E+04  0.46999998093E+01 0. -1.
       -5    1    3    3    0  502  0.84374940240E+03 -0.33784562901E+03  0.49871285334E+03  0.10367204653E+04  0.46999998093E+01 0.  1.
</event>
<event>
 5   0  0.1241430E-04  0.2190505E+04  0.7818609E-02  0.8522391E-01
       -2   -1    0    0    0  501  0.00000000000E+00  0.00000000000E+00  0.10338373590E+04  0.10338373590E+04  0.25500000920E-02 0. -1.
        2   -1    0    0  501    0  0.00000000000E+00  0.00000000000E+00 -0.11603159123E+04  0.11603159123E+04  0.25500000920E-02 0.  1.
    10030    2    1    2    0    0  0.00000000000E+00  0.00000000000E+00 -0.12647855338E+03  0.21941532713E+04  0.21905049084E+04 0.  0.
        1    1    3    3  502    0  0.39097362377E+03 -0.60410109021E+03 -0.89031387018E+03  0.11447520645E+04  0.50400001928E-02 0.  1.
       -1    1    3    3    0  502 -0.39097362377E+03  0.60410109021E+03  0.76383531680E+03  0.10494012068E+04  0.50400001928E-02 0. -1.
</event>
<event>
 5   0  0.5981239E-05  0.2230693E+04  0.7818609E-02  0.8505760E-01
        1   -1    0    0  501    0  0.00000000000E+00  0.00000000000E+00  0.18265237397E+04  0.18265237397E+04  0.50400001928E-02 0.  1.
       -1   -1    0    0    0  501  0.00000000000E+00  0.00000000000E+00 -0.68107419622E+03  0.68107419624E+03  0.50400001928E-02 0. -1.
    10030    2    1    2    0    0  0.00000000000E+00  0.00000000000E+00  0.11454495435E+04  0.25075979359E+04  0.22306933343E+04 0.  0.
        4    1    3    3  502    0 -0.15454116857E+03 -0.94636429271E+03  0.12130946427E+04  0.15463145128E+04  0.12699999809E+01 0.  1.
       -4    1    3    3    0  502  0.15454116857E+03  0.94636429271E+03 -0.67645099254E+02  0.96128342316E+03  0.12699999809E+01 0. -1.
</event>
<event>
 5   0  0.6263558E-05  0.2219776E+04  0.7818609E-02  0.8510242E-01
       -1   -1    0    0    0  501  0.00000000000E+00  0.00000000000E+00  0.66074964166E+03  0.66074964167E+03  0.50400001928E-02 0.  1.
        1   -1    0    0  501    0  0.00000000000E+00  0.00000000000E+00 -0.18643238541E+04  0.18643238541E+04  0.50400001928E-02 0. -1.
    10030    2    1    2    0    0  0.00000000000E+00  0.00000000000E+00 -0.12035742124E+04  0.25250734957E+04  0.22197759513E+04 0.  0.
        3    1    3    3  502    0  0.90670254749E+03  0.37398681295E+03 -0.10842542134E+02  0.98086350570E+03  0.10100000352E+00 0.  1.
       -3    1    3    3    0  502 -0.90670254749E+03 -0.37398681295E+03 -0.11927316703E+04  0.15442099901E+04  0.10100000352E+00 0. -1.
</event>
<event>
 5   0  0.1404159E-04  0.2190182E+04  0.7818609E-02  0.8522526E-01
       -2   -1    0    0    0  501  0.00000000000E+00  0.00000000000E+00  0.80357701197E+03  0.80357701197E+03  0.25500000920E-02 0. -1.
        2   -1    0    0  501    0  0.00000000000E+00  0.00000000000E+00 -0.14923582987E+04  0.14923582987E+04  0.25500000920E-02 0.  1.
    10030    2    1    2    0    0  0.00000000000E+00  0.00000000000E+00 -0.68878128674E+03  0.22959353107E+04  0.21901824787E+04 0.  0.
        5    1    3    3  502    0  0.86195442590E+03  0.63209913076E+03 -0.59397931670E+03  0.12228443327E+04  0.46999998093E+01 0. -1.
       -5    1    3    3    0  502 -0.86195442590E+03 -0.63209913076E+03 -0.94801970043E+02  0.10730909780E+04  0.46999998093E+01 0.  1.
</event>
<event>
 5   0  0.6263558E-05  0.2199992E+04  0.7818609E-02  0.8518431E-01
        1   -1    0    0  501    0  0.00000000000E+00  0.00000000000E+00  0.17291295504E+04  0.17291295504E+04  0.50400001928E-02 0.  1.
       -1   -1    0    0    0  501  0.00000000000E+00  0.00000000000E+00 -0.69976915004E+03  0.69976915006E+03  0.50400001928E-02 0. -1.
    10030    2    1    2    0    0  0.00000000000E+00  0.00000000000E+00  0.10293604003E+04  0.24288987004E+04  0.21999922871E+04 0.  0.
        3    1    3    3  502    0  0.83910904917E+03  0.48651634996E+03  0.10874988925E+04  0.14572082921E+04  0.10100000352E+00 0. -1.
       -3    1    3    3    0  502 -0.83910904917E+03 -0.48651634996E+03 -0.58138492183E+02  0.97169040833E+03  0.10100000352E+00 0.  1.
</event>
<event>
 5   0  0.5861816E-05  0.2214601E+04  0.7818609E-02  0.8512375E-01
       -1   -1    0    0    0  501  0.00000000000E+00  0.00000000000E+00  0.80994209060E+03  0.80994209062E+03  0.50400001928E-02 0. -1.
        1   -1    0    0  501    0  0.00000000000E+00  0.00000000000E+00 -0.15138295083E+04  0.15138295083E+04  0.50400001928E-02 0.  1.
    10030    2    1    2    0    0  0.00000000000E+00  0.00000000000E+00 -0.70388741774E+03  0.23237715990E+04  0.22146008551E+04 0.  0.
        1    1    3    3  502    0  0.21652920320E+03 -0.10858664427E+04 -0.36360032737E+03  0.11654166745E+04  0.50400001928E-02 0.  1.
       -1    1    3    3    0  502 -0.21652920320E+03  0.10858664427E+04 -0.34028709037E+03  0.11583549245E+04  0.50400001928E-02 0. -1.
</event>
<event>
 5   0  0.1311472E-04  0.2161275E+04  0.7818609E-02  0.8534721E-01
       -2   -1    0    0    0  501  0.00000000000E+00  0.00000000000E+00  0.85760136313E+03  0.85760136313E+03  0.25500000920E-02 0. -1.
        2   -1    0    0  501    0  0.00000000000E+00  0.00000000000E+00 -0.13616790160E+04  0.13616790160E+04  0.25500000920E-02 0.  1.
    10030    2    1    2    0    0  0.00000000000E+00  0.00000000000E+00 -0.50407765288E+03  0.22192803791E+04  0.21612753460E+04 0.  0.
        4    1    3    3  502    0  0.93292083214E+03  0.51528881404E+03 -0.68604205258E+02  0.10679756508E+04  0.12699999809E+01 0. -1.
       -4    1    3    3    0  502 -0.93292083214E+03 -0.51528881404E+03 -0.43547344762E+03  0.11513047283E+04  0.12699999809E+01 0.  1.
</event>
<event>
 5   0  0.1226021E-04  0.2205980E+04  0.7818609E-02  0.8515943E-01
        2   -1    0    0  501    0  0.00000000000E+00  0.00000000000E+00  0.19923365789E+04  0.19923365790E+04  0.25500000920E-02 0. -1.
       -2   -1    0    0    0  501  0.00000000000E+00  0.00000000000E+00 -0.61063335536E+03  0.61063335537E+03  0.25500000920E-02 0.  1.
    10030    2    1    2    0    0  0.00000000000E+00  0.00000000000E+00  0.13817032236E+04  0.26029699343E+04  0.22059802086E+04 0.  0.
        2    1    3    3  502    0  0.48068917316E+03  0.87972196606E+03  0.14805128693E+03  0.10133567991E+04  0.25500000920E-02 0.  1.
       -2    1    3    3    0  502 -0.48068917316E+03 -0.87972196606E+03  0.12336519367E+04  0.15896131352E+04  0.25500000920E-02 0. -1.
</event>
<event>
 5   0  0.5849604E-05  0.1471618E+04  0.7818609E-02  0.8903549E-01
       -1   -1    0    0    0  501  0.00000000000E+00  0.00000000000E+00  0.65201832842E+03  0.65201832844E+03  0.50400001928E-02 0. -1.
        1   -1    0    0  501    0  0.00000000000E+00  0.00000000000E+00 -0.83036795187E+03  0.83036795188E+03  0.50400001928E-02 0.  1.
    10030    2    1    2    0    0  0.00000000000E+00  0.00000000000E+00 -0.17834962345E+03  0.14823862803E+04  0.14716183255E+04 0.  0.
        2    1    3    3  502    0 -0.71438032570E+03  0.17584696054E+03 -0.10166394665E+03  0.74269573941E+03  0.25500000920E-02 0. -1.
       -2    1    3    3    0  502  0.71438032570E+03 -0.17584696054E+03 -0.76685676804E+02  0.73969054091E+03  0.25500000920E-02 0.  1.
</event>
<event>
 5   0  0.1226021E-04  0.1361575E+04  0.7818609E-02  0.8982112E-01
        2   -1    0    0  501    0  0.00000000000E+00  0.00000000000E+00  0.68557420950E+03  0.68557420950E+03  0.25500000920E-02 0. -1.
       -2   -1    0    0    0  501  0.00000000000E+00  0.00000000000E+00 -0.67603439835E+03  0.67603439835E+03  0.25500000920E-02 0.  1.
    10030    2    1    2    0    0  0.00000000000E+00  0.00000000000E+00  0.95398111496E+01  0.13616086079E+04  0.13615751882E+04 0.  0.
        2    1    3    3  502    0 -0.21511681746E+03 -0.25976111316E+03  0.59615627259E+03  0.68494772240E+03  0.25500000920E-02 0. -1.
       -2    1    3    3    0  502  0.21511681746E+03  0.25976111316E+03 -0.58661646144E+03  0.67666088546E+03  0.25500000920E-02 0.  1.
</event>
<event>
 5   0  0.5849604E-05  0.2153748E+04  0.7818609E-02  0.8537930E-01
        1   -1    0    0  501    0  0.00000000000E+00  0.00000000000E+00  0.10536799220E+04  0.10536799220E+04  0.50400001928E-02 0. -1.
       -1   -1    0    0    0  501  0.00000000000E+00  0.00000000000E+00 -0.11005788231E+04  0.11005788231E+04  0.50400001928E-02 0.  1.
    10030    2    1    2    0    0  0.00000000000E+00  0.00000000000E+00 -0.46898901127E+02  0.21542587451E+04  0.21537481825E+04 0.  0.
        2    1    3    3  502    0 -0.50799975162E+03 -0.71836450112E+03 -0.64452055721E+03  0.10906502889E+04  0.25500000920E-02 0. -1.
       -2    1    3    3    0  502  0.50799975162E+03  0.71836450112E+03  0.59762165608E+03  0.10636084561E+04  0.25500000920E-02 0.  1.
</event>
<event>
 5   0  0.4586375E-05  0.2196288E+04  0.7818609E-02  0.8519975E-01
       -3   -1    0    0    0  501  0.00000000000E+00  0.00000000000E+00  0.12403666016E+04  0.12403666058E+04  0.10100000352E+00 0. -1.
        3   -1    0    0  501    0  0.00000000000E+00  0.00000000000E+00 -0.97222847430E+03  0.97222847955E+03  0.10100000352E+00 0.  1.
    10030    2    1    2    0    0  0.00000000000E+00  0.00000000000E+00  0.26813812735E+03  0.22125950853E+04  0.21962875395E+04 0.  0.
        1    1    3    3  502    0 -0.44585205876E+03  0.86297052103E+03 -0.38200162457E+03  0.10437563986E+04  0.50400001928E-02 0.  1.
       -1    1    3    3    0  502  0.44585205876E+03 -0.86297052103E+03  0.65013975192E+03  0.11688386867E+04  0.50400001928E-02 0. -1.
</event>
<event>
 5   0  0.5861816E-05  0.2118032E+04  0.7818609E-02  0.8553341E-01
       -1   -1    0    0    0  501  0.00000000000E+00  0.00000000000E+00  0.10362268854E+04  0.10362268855E+04  0.50400001928E-02 0.  1.
        1   -1    0    0  501    0  0.00000000000E+00  0.00000000000E+00 -0.10823063591E+04  0.10823063591E+04  0.50400001928E-02 0. -1.
    10030    2    1    2    0    0  0.00000000000E+00  0.00000000000E+00 -0.46079473642E+02  0.21185332445E+04  0.21180320560E+04 0.  0.
        1    1    3    3  502    0  0.22374599648E+03  0.56638331840E+03  0.84357315997E+03  0.10404172291E+04  0.50400001928E-02 0.  1.
       -1    1    3    3    0  502 -0.22374599648E+03 -0.56638331840E+03 -0.88965263361E+03  0.10781160155E+04  0.50400001928E-02 0. -1.
</event>
<event>
 5   0  0.1226021E-04  0.2205887E+04  0.7818609E-02  0.8515982E-01
        2   -1    0    0  501    0  0.00000000000E+00  0.00000000000E+00  0.16670418588E+04  0.16670418588E+04  0.25500000920E-02 0.  1.
       -2   -1    0    0    0  501  0.00000000000E+00  0.00000000000E+00 -0.72972656638E+03  0.72972656638E+03  0.25500000920E-02 0. -1.
    10030    2    1    2    0    0  0.00000000000E+00  0.00000000000E+00  0.93731529237E+03  0.23967684251E+04  0.22058873331E+04 0.  0.
        2    1    3    3  502    0 -0.71593101419E+03  0.79240155191E+03  0.76824778722E+03  0.13155463120E+04  0.25500000920E-02 0.  1.
       -2    1    3    3    0  502  0.71593101419E+03 -0.79240155191E+03  0.16906750515E+03  0.10812221131E+04  0.25500000920E-02 0. -1.
</event>
<event>
 5   0  0.1311472E-04  0.2244970E+04  0.7818609E-02  0.8499940E-01
       -2   -1    0    0    0  501  0.00000000000E+00  0.00000000000E+00  0.97362460136E+03  0.97362460136E+03  0.25500000920E-02 0.  1.
        2   -1    0    0  501    0  0.00000000000E+00  0.00000000000E+00 -0.12941046426E+04  0.12941046426E+04  0.25500000920E-02 0. -1.
    10030    2    1    2    0    0  0.00000000000E+00  0.00000000000E+00 -0.32048004126E+03  0.22677292440E+04  0.22449695916E+04 0.  0.
        4    1    3    3  502    0  0.29234226228E+03 -0.18680636644E+03  0.91810774314E+03  0.98147035502E+03  0.12699999809E+01 0.  1.
       -4    1    3    3    0  502 -0.29234226228E+03  0.18680636644E+03 -0.12385877844E+04  0.12862588890E+04  0.12699999809E+01 0. -1.
</event>
<event>
 5   0  0.1241430E-04  0.2377012E+04  0.7818609E-02  0.8448160E-01
       -2   -1    0    0    0  501  0.00000000000E+00  0.00000000000E+00  0.10279200518E+04  0.10279200518E+04  0.25500000920E-02 0. -1.
        2   -1    0    0  501    0  0.00000000000E+00  0.00000000000E+00 -0.13741793471E+04  0.13741793471E+04  0.25500000920E-02 0.  1.
    10030    2    1    2    0    0  0.00000000000E+00  0.00000000000E+00 -0.34625929535E+03  0.24020993989E+04  0.23770119946E+04 0.  0.
        1    1    3    3  502    0 -0.12295854836E+03 -0.55711588950E+03  0.88049101478E+03  0.10491717429E+04  0.50400001928E-02 0. -1.
       -1    1    3    3    0  502  0.12295854836E+03  0.55711588950E+03 -0.12267503101E+04  0.13529276560E+04  0.50400001928E-02 0.  1.
</event>
<event>
 5   0  0.1241430E-04  0.2021863E+04  0.7818609E-02  0.8596467E-01
        2   -1    0    0  501    0  0.00000000000E+00  0.00000000000E+00  0.16610307550E+04  0.16610307550E+04  0.25500000920E-02 0. -1.
       -2   -1    0    0    0  501  0.00000000000E+00  0.00000000000E+00 -0.61527023763E+03  0.61527023764E+03  0.25500000920E-02 0.  1.
    10030    2    1    2    0    0  0.00000000000E+00  0.00000000000E+00  0.10457605174E+04  0.22763009926E+04  0.20218632865E+04 0.  0.
        1    1    3    3  502    0  0.30458163356E+03 -0.39911304247E+03  0.15107533413E+04  0.15919914731E+04  0.50400001928E-02 0. -1.
       -1    1    3    3    0  502 -0.30458163356E+03  0.39911304247E+03 -0.46499282394E+03  0.68430951953E+03  0.50400001928E-02 0.  1.
</event>
<event>
 5   0  0.5849604E-05  0.2163901E+04  0.7818609E-02  0.8533605E-01
        1   -1    0    0  501    0  0.00000000000E+00  0.00000000000E+00  0.17710040767E+04  0.17710040767E+04  0.50400001928E-02 0.  1.
       -1   -1    0    0    0  501  0.00000000000E+00  0.00000000000E+00 -0.66099059310E+03  0.66099059312E+03  0.50400001928E-02 0. -1.
    10030    2    1    2    0    0  0.00000000000E+00  0.00000000000E+00  0.11100134836E+04  0.24319946698E+04  0.21639011392E+04 0.  0.
        2    1    3    3  502    0  0.10701812205E+04 -0.15347473363E+03  0.60235317158E+03  0.12376072406E+04  0.25500000920E-02 0.  1.
       -2    1    3    3    0  502 -0.10701812205E+04  0.15347473363E+03  0.50766031198E+03  0.11943874292E+04  0.25500000920E-02 0. -1.
</event>
<event>
 5   0  0.1404159E-04  0.2323205E+04  0.7818609E-02  0.8468827E-01
        2   -1    0    0  501    0  0.00000000000E+00  0.00000000000E+00  0.22237335667E+04  0.22237335667E+04  0.25500000920E-02 0.  1.
       -2   -1    0    0    0  501  0.00000000000E+00  0.00000000000E+00 -0.60678172539E+03  0.60678172540E+03  0.25500000920E-02 0. -1.
    10030    2    1    2    0    0  0.00000000000E+00  0.00000000000E+00  0.16169518413E+04  0.28305152921E+04  0.23232054497E+04 0.  0.
        5    1    3    3  502    0  0.69296466204E+02  0.40057542496E+03  0.21342220413E+04  0.21725994759E+04  0.46999998093E+01 0.  1.
       -5    1    3    3    0  502 -0.69296466204E+02 -0.40057542496E+03 -0.51727020001E+03  0.65791581614E+03  0.46999998093E+01 0. -1.
</event>
<event>
 5   0  0.1241430E-04  0.2250008E+04  0.7818609E-02  0.8497897E-01
        2   -1    0    0  501    0  0.00000000000E+00  0.00000000000E+00  0.10912022743E+04  0.10912022743E+04  0.25500000920E-02 0.  1.
       -2   -1    0    0    0  501  0.00000000000E+00  0.00000000000E+00 -0.11598523917E+04  0.11598523917E+04  0.25500000920E-02 0. -1.
    10030    2    1    2    0    0  0.00000000000E+00  0.00000000000E+00 -0.68650117367E+02  0.22510546660E+04  0.22500076157E+04 0.  0.
        1    1    3    3  502    0 -0.91321457741E+03 -0.32680410225E+03 -0.60456554584E+03  0.11429178820E+04  0.50400001928E-02 0. -1.
       -1    1    3    3    0  502  0.91321457741E+03  0.32680410225E+03  0.53591542847E+03  0.11081367840E+04  0.50400001928E-02 0.  1.
</event>
<event>
 5   0  0.1404159E-04  0.2130243E+04  0.7818609E-02  0.8548037E-01
       -2   -1    0    0    0  501  0.00000000000E+00  0.00000000000E+00  0.55144014530E+03  0.55144014530E+03  0.25500000920E-02 0.  1.
        2   -1    0    0  501    0  0.00000000000E+00  0.00000000000E+00 -0.20573111584E+04  0.20573111584E+04  0.25500000920E-02 0. -1.
    10030    2    1    2    0    0  0.00000000000E+00  0.00000000000E+00 -0.15058710131E+04  0.26087513037E+04  0.21302431449E+04 0.  0.
        5    1    3    3  502    0 -0.38574140063E+03  0.73073999926E+03 -0.15759757977E+04  0.17794659816E+04  0.46999998093E+01 0. -1.
       -5    1    3    3    0  502  0.38574140063E+03 -0.73073999926E+03  0.70104784594E+02  0.82928532213E+03  0.46999998093E+01 0.  1.
</event>
<event>
 5   0  0.1311472E-04  0.2160910E+04  0.7818609E-02  0.8534877E-01
        2   -1    0    0  501    0  0.00000000000E+00  0.00000000000E+00  0.11737305291E+04  0.11737305291E+04  0.25500000920E-02 0.  1.
       -2   -1    0    0    0  501  0.00000000000E+00  0.00000000000E+00 -0.99459170889E+03  0.99459170889E+03  0.25500000920E-02 0. -1.
    10030    2    1    2    0    0  0.00000000000E+00  0.00000000000E+00  0.17913882024E+03  0.21683222380E+04  0.21609096721E+04 0.  0.
        4    1    3    3  502    0 -0.64187356803E+03  0.74209699080E+03  0.54352755286E+03  0.11216654736E+04  0.12699999809E+01 0.  1.
       -4    1    3    3    0  502  0.64187356803E+03 -0.74209699080E+03 -0.36438873262E+03  0.10466567644E+04  0.12699999809E+01 0. -1.
</event>
<event>
 5   0  0.5861816E-05  0.2167568E+04  0.7818609E-02  0.8532050E-01
        1   -1    0    0  501    0  0.00000000000E+00  0.00000000000E+00  0.11462126184E+04  0.11462126184E+04  0.50400001928E-02 0. -1.
       -1   -1    0    0    0  501  0.00000000000E+00  0.00000000000E+00 -0.10247555179E+04  0.10247555179E+04  0.50400001928E-02 0.  1.
    10030    2    1    2    0    0  0.00000000000E+00  0.00000000000E+00  0.12145710058E+03  0.21709681363E+04  0.21675679509E+04 0.  0.
        1    1    3    3  502    0  0.38387889681E+03 -0.40339258216E+03  0.99197151908E+03  0.11375834376E+04  0.50400001928E-02 0. -1.
       -1    1    3    3    0  502 -0.38387889681E+03  0.40339258216E+03 -0.87051441850E+03  0.10333846987E+04  0.50400001928E-02 0.  1.
</event>
<event>
 5   0  0.1252124E-04  0.2203170E+04  0.7818609E-02  0.8517110E-01
       -2   -1    0    0    0  501  0.00000000000E+00  0.00000000000E+00  0.10871999521E+04  0.10871999521E+04  0.25500000920E-02 0.  1.
        2   -1    0    0  501    0  0.00000000000E+00  0.00000000000E+00 -0.11161599772E+04  0.11161599772E+04  0.25500000920E-02 0. -1.
    10030    2    1    2    0    0  0.00000000000E+00  0.00000000000E+00 -0.28960025016E+02  0.22033599293E+04  0.22031696020E+04 0.  0.
        3    1    3    3  502    0  0.33698015464E+03 -0.74255800859E+03  0.72621953628E+03  0.10919445251E+04  0.10100000352E+00 0.  1.
       -3    1    3    3    0  502 -0.33698015464E+03  0.74255800859E+03 -0.75517956130E+03  0.11114154042E+04  0.10100000352E+00 0. -1.
</event>
<event>
 5   0  0.1241430E-04  0.2179488E+04  0.7818609E-02  0.8527015E-01
        2   -1    0    0  501    0  0.00000000000E+00  0.00000000000E+00  0.27978722371E+04  0.27978722371E+04  0.25500000920E-02 0. -1.
       -2   -1    0    0    0  501  0.00000000000E+00  0.00000000000E+00 -0.42444457614E+03  0.42444457615E+03  0.25500000920E-02 0.  1.
    10030    2    1    2    0    0  0.00000000000E+00  0.00000000000E+00  0.23734276609E+04  0.32223168132E+04  0.21794877341E+04 0.  0.
        1    1    3    3  502    0 -0.52269698317E+03 -0.93209447011E+03  0.15021852717E+04  0.18435218545E+04  0.50400001928E-02 0.  1.
       -1    1    3    3    0  502  0.52269698317E+03  0.93209447011E+03  0.87124238923E+03  0.13787949587E+04  0.50400001928E-02 0. -1.
</event>
<event>
 5   0  0.5981239E-05  0.2214045E+04  0.7818609E-02  0.8512605E-01
        1   -1    0    0  501    0  0.00000000000E+00  0.00000000000E+00  0.77209740451E+03  0.77209740452E+03  0.50400001928E-02 0. -1.
       -1   -1    0    0    0  501  0.00000000000E+00  0.00000000000E+00 -0.15872334161E+04  0.15872334161E+04  0.50400001928E-02 0.  1.
    10030    2    1    2    0    0  0.00000000000E+00  0.00000000000E+00 -0.81513601154E+03  0.23593308206E+04  0.22140449868E+04 0.  0.
        4    1    3    3  502    0 -0.22031727761E+03  0.10575478530E+04 -0.66541729461E+03  0.12687509421E+04  0.12699999809E+01 0.  1.
       -4    1    3    3    0  502  0.22031727761E+03 -0.10575478530E+04 -0.14971871694E+03  0.10905798785E+04  0.12699999809E+01 0. -1.
</event>
<event>
 5   0  0.1252124E-04  0.2257445E+04  0.7818609E-02  0.8494892E-01
       -2   -1    0    0    0  501  0.00000000000E+00  0.00000000000E+00  0.53625633093E+03  0.53625633093E+03  0.25500000920E-02 0. -1.
        2   -1    0    0  501    0  0.00000000000E+00  0.00000000000E+00 -0.23757555057E+04  0.23757555057E+04  0.25500000920E-02 0.  1.
    10030    2    1    2    0    0  0.00000000000E+00  0.00000000000E+00 -0.18394991748E+04  0.29120118366E+04  0.22574445116E+04 0.  0.
        3    1    3    3  502    0  0.61962454155E+03  0.71133028410E+03 -0.12029877844E+03  0.95099797679E+03  0.10100000352E+00 0. -1.
       -3    1    3    3    0  502 -0.61962454155E+03 -0.71133028410E+03 -0.17192003963E+04  0.19610138599E+04  0.10100000352E+00 0.  1.
</event>
<event>
 5   0  0.1241430E-04  0.2207928E+04  0.7818609E-02  0.8515136E-01
       -2   -1    0    0    0  501  0.00000000000E+00  0.00000000000E+00  0.92304131606E+03  0.92304131606E+03  0.25500000920E-02 0.  1.
        2   -1    0    0  501    0  0.00000000000E+00  0.00000000000E+00 -0.13203486439E+04  0.13203486439E+04  0.25500000920E-02 0. -1.
    10030    2    1    2    0    0  0.00000000000E+00  0.00000000000E+00 -0.39730732787E+03  0.22433899600E+04  0.22079278520E+04 0.  0.
        1    1    3    3  502    0 -0.49548540258E+03  0.38694595444E+03 -0.11206996694E+04  0.12849905466E+04  0.50400001928E-02 0. -1.
       -1    1    3    3    0  502  0.49548540258E+03 -0.38694595444E+03  0.72339234152E+03  0.95839941340E+03  0.50400001928E-02 0.  1.
</event>
<event>
 5   0  0.5849604E-05  0.2394940E+04  0.7818609E-02  0.8441400E-01
        1   -1    0    0  501    0  0.00000000000E+00  0.00000000000E+00  0.25279330309E+04  0.25279330309E+04  0.50400001928E-02 0. -1.
       -1   -1    0    0    0  501  0.00000000000E+00  0.00000000000E+00 -0.56723604933E+03  0.56723604936E+03  0.50400001928E-02 0.  1.
    10030    2    1    2    0    0  0.00000000000E+00  0.00000000000E+00  0.19606969816E+04  0.30951690803E+04  0.23949402878E+04 0.  0.
        2    1    3    3  502    0  0.20409867806E+02  0.17989808254E+03  0.25101418019E+04  0.25166628198E+04  0.25500000920E-02 0. -1.
       -2    1    3    3    0  502 -0.20409867806E+02 -0.17989808254E+03 -0.54944482034E+03  0.57850626048E+03  0.25500000920E-02 0.  1.
</event>
<event>
 5   0  0.1404159E-04  0.2180731E+04  0.7818609E-02  0.8526492E-01
       -2   -1    0    0    0  501  0.00000000000E+00  0.00000000000E+00  0.58009612713E+03  0.58009612713E+03  0.25500000920E-02 0. -1.
        2   -1    0    0  501    0  0.00000000000E+00  0.00000000000E+00 -0.20494818399E+04  0.20494818399E+04  0.25500000920E-02 0.  1.
    10030    2    1    2    0    0  0.00000000000E+00  0.00000000000E+00 -0.14693857128E+04  0.26295779670E+04  0.21807305913E+04 0.  0.
        5    1    3    3  502    0 -0.37846763904E+03 -0.36580712813E+03 -0.18861267704E+04  0.19582004220E+04  0.46999998093E+01 0.  1.
       -5    1    3    3    0  502  0.37846763904E+03  0.36580712813E+03  0.41674105764E+03  0.67137754499E+03  0.46999998093E+01 0. -1.
</event>
<event>
 5   0  0.5861816E-05  0.2202328E+04  0.7818609E-02  0.8517460E-01
        1   -1    0    0  501    0  0.00000000000E+00  0.00000000000E+00  0.18961253498E+04  0.18961253498E+04  0.50400001928E-02 0. -1.
       -1   -1    0    0    0  501  0.00000000000E+00  0.00000000000E+00 -0.63949444556E+03  0.63949444558E+03  0.50400001928E-02 0.  1.
    10030    2    1    2    0    0  0.00000000000E+00  0.00000000000E+00  0.12566309042E+04  0.25356197954E+04  0.22023275227E+04 0.  0.
        1    1    3    3  502    0  0.10932309566E+04  0.13040006341E+03  0.60518739456E+03  0.12563478355E+04  0.50400001928E-02 0. -1.
       -1    1    3    3    0  502 -0.10932309566E+04 -0.13040006341E+03  0.65144350965E+03  0.12792719599E+04  0.50400001928E-02 0.  1.
</event>
<event>
 5   0  0.1241430E-04  0.2145870E+04  0.7818609E-02  0.8541302E-01
        2   -1    0    0  501    0  0.00000000000E+00  0.00000000000E+00  0.14068271985E+04  0.14068271985E+04  0.25500000920E-02 0.  1.
       -2   -1    0    0    0  501  0.00000000000E+00  0.00000000000E+00 -0.81828809353E+03  0.81828809354E+03  0.25500000920E-02 0. -1.
    10030    2    1    2    0    0  0.00000000000E+00  0.00000000000E+00  0.58853910499E+03  0.22251152921E+04  0.21458704026E+04 0.  0.
        1    1    3    3  502    0 -0.73622797823E+03  0.19805072609E+03 -0.48854951532E+03  0.90550337105E+03  0.50400001928E-02 0. -1.
       -1    1    3    3    0  502  0.73622797823E+03 -0.19805072609E+03  0.10770886203E+04  0.13196119210E+04  0.50400001928E-02 0.  1.
</event>
<event>
 5   0  0.1226021E-04  0.2229397E+04  0.7818609E-02  0.8506291E-01
       -2   -1    0    0    0  501  0.00000000000E+00  0.00000000000E+00  0.58211262477E+03  0.58211262477E+03  0.25500000920E-02 0. -1.
        2   -1    0    0  501    0  0.00000000000E+00  0.00000000000E+00 -0.21345563681E+04  0.21345563681E+04  0.25500000920E-02 0.  1.
    10030    2    1    2    0    0  0.00000000000E+00  0.00000000000E+00 -0.15524437433E+04  0.27166689929E+04  0.22293965194E+04 0.  0.
        2    1    3    3  502    0  0.10677922331E+04  0.28436342264E+03 -0.59750581820E+03  0.12562069941E+04  0.25500000920E-02 0. -1.
       -2    1    3    3    0  502 -0.10677922331E+04 -0.28436342264E+03 -0.95493792511E+03  0.14604619988E+04  0.25500000920E-02 0.  1.
</event>
<event>
 5   0  0.5895063E-05  0.2206769E+04  0.7818609E-02  0.8515616E-01
       -1   -1    0    0    0  501  0.00000000000E+00  0.00000000000E+00  0.51932821260E+03  0.51932821262E+03  0.50400001928E-02 0.  1.
        1   -1    0    0  501    0  0.00000000000E+00  0.00000000000E+00 -0.23442925860E+04  0.23442925860E+04  0.50400001928E-02 0. -1.
    10030    2    1    2    0    0  0.00000000000E+00  0.00000000000E+00 -0.18249643734E+04  0.28636207986E+04  0.22067689309E+04 0.  0.
        5    1    3    3  502    0  0.48639645153E+03 -0.98323308655E+03 -0.75835955870E+03  0.13335891874E+04  0.46999998093E+01 0.  1.
       -5    1    3    3    0  502 -0.48639645153E+03  0.98323308655E+03 -0.10666048147E+04  0.15300316112E+04  0.46999998093E+01 0. -1.
</event>
<event>
 5   0  0.6263558E-05  0.2155297E+04  0.7818609E-02  0.8537268E-01
       -1   -1    0    0    0  501  0.00000000000E+00  0.00000000000E+00  0.83144479807E+03  0.83144479808E+03  0.50400001928E-02 0.  1.
        1   -1    0    0  501    0  0.00000000000E+00  0.00000000000E+00 -0.13967563783E+04  0.13967563783E+04  0.50400001928E-02 0. -1.
    10030    2    1    2    0    0  0.00000000000E+00  0.00000000000E+00 -0.56531158025E+03  0.22282011764E+04  0.21552965689E+04 0.  0.
        3    1    3    3  502    0  0.92959204901E+03 -0.21661218108E+03 -0.79984112961E+03  0.12453144412E+04  0.10100000352E+00 0. -1.
       -3    1    3    3    0  502 -0.92959204901E+03  0.21661218108E+03  0.23452954936E+03  0.98288673524E+03  0.10100000352E+00 0.  1.
</event>
<event>
 5   0  0.1241430E-04  0.2210275E+04  0.7818609E-02  0.8514163E-01
        2   -1    0    0  501    0  0.00000000000E+00  0.00000000000E+00  0.14034638895E+04  0.14034638895E+04  0.25500000920E-02 0.  1.
       -2   -1    0    0    0  501  0.00000000000E+00  0.00000000000E+00 -0.87022483318E+03  0.87022483318E+03  0.25500000920E-02 0. -1.
    10030    2    1    2    0    0  0.00000000000E+00  0.00000000000E+00  0.53323905629E+03  0.22736887227E+04  0.22102752128E+04 0.  0.
        1    1    3    3  502    0 -0.84513218076E+03  0.29987068709E+03 -0.39778884565E+03  0.98102334207E+03  0.50400001928E-02 0. -1.
       -1    1    3    3    0  502  0.84513218076E+03 -0.29987068709E+03  0.93102790194E+03  0.12926653806E+04  0.50400001928E-02 0.  1.
</event>
<event>
 5   0  0.1404159E-04  0.1717432E+04  0.7818609E-02  0.8751484E-01
       -2   -1    0    0    0  501  0.00000000000E+00  0.00000000000E+00  0.93339169191E+03  0.93339169191E+03  0.25500000920E-02 0. -1.
        2   -1    0    0  501    0  0.00000000000E+00  0.00000000000E+00 -0.79001477729E+03  0.79001477730E+03  0.25500000920E-02 0.  1.
    10030    2    1    2    0    0  0.00000000000E+00  0.00000000000E+00  0.14337691462E+03  0.17234064692E+04  0.17174320710E+04 0.  0.
        5    1    3    3  502    0  0.67813393190E+03  0.52595954782E+03  0.10132191647E+03  0.86416855780E+03  0.46999998093E+01 0.  1.
       -5    1    3    3    0  502 -0.67813393190E+03 -0.52595954782E+03  0.42054998149E+02  0.85923791141E+03  0.46999998093E+01 0. -1.
</event>
<event>
 5   0  0.5895063E-05  0.2179664E+04  0.7818609E-02  0.8526940E-01
       -1   -1    0    0    0  501  0.00000000000E+00  0.00000000000E+00  0.84095578039E+03  0.84095578040E+03  0.50400001928E-02 0.  1.
        1   -1    0    0  501    0  0.00000000000E+00  0.00000000000E+00 -0.14123613813E+04  0.14123613813E+04  0.50400001928E-02 0. -1.
    10030    2    1    2    0    0  0.00000000000E+00  0.00000000000E+00 -0.57140560089E+03  0.22533171617E+04  0.21796637058E+04 0.  0.
        5    1    3    3  502    0 -0.18830143928E+03  0.79795536698E+02 -0.13923358990E+04  0.14072832356E+04  0.46999998093E+01 0. -1.
       -5    1    3    3    0  502  0.18830143928E+03 -0.79795536698E+02  0.82093029809E+03  0.84603392605E+03  0.46999998093E+01 0.  1.
</event>
<event>
 5   0  0.1241430E-04  0.2222881E+04  0.7818609E-02  0.8508964E-01
        2   -1    0    0  501    0  0.00000000000E+00  0.00000000000E+00  0.14560692544E+04  0.14560692544E+04  0.25500000920E-02 0. -1.
       -2   -1    0    0    0  501  0.00000000000E+00  0.00000000000E+00 -0.84838030356E+03  0.84838030356E+03  0.25500000920E-02 0.  1.
    10030    2    1    2    0    0  0.00000000000E+00  0.00000000000E+00  0.60768895083E+03  0.23044495579E+04  0.22228814418E+04 0.  0.
        1    1    3    3  502    0  0.10143634526E+04  0.35380589690E+03  0.84525874141E+01  0.10743292200E+04  0.50400001928E-02 0. -1.
       -1    1    3    3    0  502 -0.10143634526E+04 -0.35380589690E+03  0.59923636342E+03  0.12301203380E+04  0.50400001928E-02 0.  1.
</event>
<event>
 5   0  0.5861816E-05  0.2222691E+04  0.7818609E-02  0.8509042E-01
       -1   -1    0    0    0  501  0.00000000000E+00  0.00000000000E+00  0.13747571772E+04  0.13747571772E+04  0.50400001928E-02 0. -1.
        1   -1    0    0  501    0  0.00000000000E+00  0.00000000000E+00 -0.89840537049E+03  0.89840537051E+03  0.50400001928E-02 0.  1.
    10030    2    1    2    0    0  0.00000000000E+00  0.00000000000E+00  0.47635180668E+03  0.22731625477E+04  0.22226913696E+04 0.  0.
        1    1    3    3  502    0  0.15048397584E+03  0.93780413267E+02 -0.88384582025E+03  0.90145639212E+03  0.50400001928E-02 0.  1.
       -1    1    3    3    0  502 -0.15048397584E+03 -0.93780413267E+02  0.13601976269E+04  0.13717061556E+04  0.50400001928E-02 0. -1.
</event>
<event>
 5   0  0.1252124E-04  0.2195017E+04  0.7818609E-02  0.8520505E-01
       -2   -1    0    0    0  501  0.00000000000E+00  0.00000000000E+00  0.65312800561E+03  0.65312800561E+03  0.25500000920E-02 0.  1.
        2   -1    0    0  501    0  0.00000000000E+00  0.00000000000E+00 -0.18442399058E+04  0.18442399058E+04  0.25500000920E-02 0. -1.
    10030    2    1    2    0    0  0.00000000000E+00  0.00000000000E+00 -0.11911119002E+04  0.24973679114E+04  0.21950168396E+04 0.  0.
        3    1    3    3  502    0  0.32791543534E+03 -0.18076034260E+03 -0.17693209828E+04  0.18085075572E+04  0.10100000352E+00 0. -1.
       -3    1    3    3    0  502 -0.32791543534E+03  0.18076034260E+03  0.57820908259E+03  0.68886035420E+03  0.10100000352E+00 0.  1.
</event>
<event>
 5   0  0.1311472E-04  0.2207204E+04  0.7818609E-02  0.8515436E-01
       -2   -1    0    0    0  501  0.00000000000E+00  0.00000000000E+00  0.53224643076E+03  0.53224643077E+03  0.25500000920E-02 0.  1.
        2   -1    0    0  501    0  0.00000000000E+00  0.00000000000E+00 -0.22882955806E+04  0.22882955806E+04  0.25500000920E-02 0. -1.
    10030    2    1    2    0    0  0.00000000000E+00  0.00000000000E+00 -0.17560491498E+04  0.28205420114E+04  0.22072038015E+04 0.  0.
        4    1    3    3  502    0 -0.89954886386E+03  0.30849612836E+03 -0.15936118346E+04  0.18557904817E+04  0.12699999809E+01 0. -1.
       -4    1    3    3    0  502  0.89954886386E+03 -0.30849612836E+03 -0.16243731520E+03  0.96475152965E+03  0.12699999809E+01 0.  1.
</event>
<event>
 5   0  0.1226021E-04  0.2252068E+04  0.7818609E-02  0.8497063E-01
       -2   -1    0    0    0  501  0.00000000000E+00  0.00000000000E+00  0.15969184074E+04  0.15969184074E+04  0.25500000920E-02 0. -1.
        2   -1    0    0  501    0  0.00000000000E+00  0.00000000000E+00 -0.79399989455E+03  0.79399989456E+03  0.25500000920E-02 0.  1.
    10030    2    1    2    0    0  0.00000000000E+00  0.00000000000E+00  0.80291851283E+03  0.23909183019E+04  0.22520684244E+04 0.  0.
        2    1    3    3  502    0 -0.10798596638E+04 -0.31435873036E+03  0.34297431537E+03  0.11758187300E+04  0.25500000920E-02 0.  1.
       -2    1    3    3    0  502  0.10798596638E+04  0.31435873036E+03  0.45994419746E+03  0.12150995719E+04  0.25500000920E-02 0. -1.
</event>
<event>
 5   0  0.1226021E-04  0.2162486E+04  0.7818609E-02  0.8534206E-01
        2   -1    0    0  501    0  0.00000000000E+00  0.00000000000E+00  0.79846884197E+03  0.79846884197E+03  0.25500000920E-02 0. -1.
       -2   -1    0    0    0  501  0.00000000000E+00  0.00000000000E+00 -0.14641603828E+04  0.14641603828E+04  0.25500000920E-02 0.  1.
    10030    2    1    2    0    0  0.00000000000E+00  0.00000000000E+00 -0.66569154087E+03  0.22626292248E+04  0.21624860188E+04 0.  0.
        2    1    3    3  502    0  0.39546828257E+03 -0.11362411133E+03  0.71334886729E+03  0.82351211750E+03  0.25500000920E-02 0. -1.
       -2    1    3    3    0  502 -0.39546828257E+03  0.11362411133E+03 -0.13790404082E+04  0.14391171073E+04  0.25500000920E-02 0.  1.
</event>
<event>
 5   0  0.1241430E-04  0.2200162E+04  0.7818609E-02  0.8518360E-01
        2   -1    0    0  501    0  0.00000000000E+00  0.00000000000E+00  0.16460582337E+04  0.16460582337E+04  0.25500000920E-02 0. -1.
       -2   -1    0    0    0  501  0.00000000000E+00  0.00000000000E+00 -0.73519800663E+03  0.73519800664E+03  0.25500000920E-02 0.  1.
    10030    2    1    2    0    0  0.00000000000E+00  0.00000000000E+00  0.91086022702E+03  0.23812562403E+04  0.22001624778E+04 0.  0.
        1    1    3    3  502    0  0.39260378653E+03  0.66969159756E+03 -0.38818407976E+03  0.86793516396E+03  0.50400001928E-02 0.  1.
       -1    1    3    3    0  502 -0.39260378653E+03 -0.66969159756E+03  0.12990443068E+04  0.15133210763E+04  0.50400001928E-02 0. -1.
</event>
<event>
 5   0  0.5895063E-05  0.2260223E+04  0.7818609E-02  0.8493772E-01
       -1   -1    0    0    0  501  0.00000000000E+00  0.00000000000E+00  0.14366489266E+04  0.14366489266E+04  0.50400001928E-02 0.  1.
        1   -1    0    0  501    0  0.00000000000E+00  0.00000000000E+00 -0.88897955245E+03  0.88897955246E+03  0.50400001928E-02 0. -1.
    10030    2    1    2    0    0  0.00000000000E+00  0.00000000000E+00  0.54766937414E+03  0.23256284791E+04  0.22602225729E+04 0.  0.
        5    1    3    3  502    0  0.14459258194E+03  0.10433316293E+04  0.69517376300E+03  0.12620366691E+04  0.46999998093E+01 0.  1.
       -5    1    3    3    0  502 -0.14459258194E+03 -0.10433316293E+04 -0.14750438886E+03  0.10635918099E+04  0.46999998093E+01 0. -1.
</event>
<event>
 5   0  0.5861816E-05  0.2214759E+04  0.7818609E-02  0.8512310E-01
        1   -1    0    0  501    0  0.00000000000E+00  0.00000000000E+00  0.14104605369E+04  0.14104605369E+04  0.50400001928E-02 0.  1.
       -1   -1    0    0    0  501  0.00000000000E+00  0.00000000000E+00 -0.86942442599E+03  0.86942442601E+03  0.50400001928E-02 0. -1.
    10030    2    1    2    0    0  0.00000000000E+00  0.00000000000E+00  0.54103611089E+03  0.22798849629E+04  0.22147585355E+04 0.  0.
        1    1    3    3  502    0  0.48169935328E+03 -0.73783615784E+03  0.96095108803E+03  0.13037881179E+04  0.50400001928E-02 0.  1.
       -1    1    3    3    0  502 -0.48169935328E+03  0.73783615784E+03 -0.41991497714E+03  0.97609684500E+03  0.50400001928E-02 0. -1.
</event>
<event>
 5   0  0.1241430E-04  0.2220977E+04  0.7818609E-02  0.8509747E-01
        2   -1    0    0  501    0  0.00000000000E+00  0.00000000000E+00  0.23619485410E+04  0.23619485410E+04  0.25500000920E-02 0. -1.
       -2   -1    0    0    0  501  0.00000000000E+00  0.00000000000E+00 -0.52210494818E+03  0.52210494818E+03  0.25500000920E-02 0.  1.
    10030    2    1    2    0    0  0.00000000000E+00  0.00000000000E+00  0.18398435928E+04  0.28840534892E+04  0.22209772809E+04 0.  0.
        1    1    3    3  502    0 -0.70516013036E+03  0.47710162776E+01  0.20338878957E+04  0.21526666124E+04  0.50400001928E-02 0. -1.
       -1    1    3    3    0  502  0.70516013036E+03 -0.47710162776E+01 -0.19404430283E+03  0.73138687679E+03  0.50400001928E-02 0.  1.
</event>
<event>
 5   0  0.5849604E-05  0.2214714E+04  0.7818609E-02  0.8512329E-01
       -1   -1    0    0    0  501  0.00000000000E+00  0.00000000000E+00  0.89402482301E+03  0.89402482302E+03  0.50400001928E-02 0.  1.
        1   -1    0    0  501    0  0.00000000000E+00  0.00000000000E+00 -0.13715942459E+04  0.13715942459E+04  0.50400001928E-02 0. -1.
    10030    2    1    2    0    0  0.00000000000E+00  0.00000000000E+00 -0.47756942287E+03  0.22656190689E+04  0.22147137991E+04 0.  0.
        2    1    3    3  502    0 -0.49728166885E+03  0.76381590452E+01  0.77334610464E+03  0.91946266766E+03  0.25500000920E-02 0.  1.
       -2    1    3    3    0  502  0.49728166885E+03 -0.76381590452E+01 -0.12509155275E+04  0.13461564012E+04  0.25500000920E-02 0. -1.
</event>
<event>
 5   0  0.6263558E-05  0.2242899E+04  0.7818609E-02  0.8500782E-01
       -1   -1    0    0    0  501  0.00000000000E+00  0.00000000000E+00  0.97685425504E+03  0.97685425505E+03  0.50400001928E-02 0. -1.
        1   -1    0    0  501    0  0.00000000000E+00  0.00000000000E+00 -0.12874476855E+04  0.12874476855E+04  0.50400001928E-02 0.  1.
    10030    2    1    2    0    0  0.00000000000E+00  0.00000000000E+00 -0.31059343042E+03  0.22643019405E+04  0.22428987937E+04 0.  0.
        3    1    3    3  502    0 -0.30018029090E+03 -0.13925862074E+03  0.92644484798E+03  0.98376889412E+03  0.10100000352E+00 0. -1.
       -3    1    3    3    0  502  0.30018029090E+03  0.13925862074E+03 -0.12370382784E+04  0.12805330464E+04  0.10100000352E+00 0.  1.
</event>
<event>
 5   0  0.5981239E-05  0.2202693E+04  0.7818609E-02  0.8517308E-01
       -1   -1    0    0    0  501  0.00000000000E+00  0.00000000000E+00  0.62570493603E+03  0.62570493605E+03  0.50400001928E-02 0.  1.
        1   -1    0    0  501    0  0.00000000000E+00  0.00000000000E+00 -0.19385569277E+04  0.19385569277E+04  0.50400001928E-02 0. -1.
    10030    2    1    2    0    0  0.00000000000E+00  0.00000000000E+00 -0.13128519917E+04  0.25642618638E+04  0.22026934771E+04 0.  0.
        4    1    3    3  502    0 -0.96217407743E+03  0.38389722406E+03 -0.22114194637E+03  0.10592740001E+04  0.12699999809E+01 0.  1.
       -4    1    3    3    0  502  0.96217407743E+03 -0.38389722406E+03 -0.10917100453E+04  0.15049878637E+04  0.12699999809E+01 0. -1.
</event>
<event>
 5   0  0.1241430E-04  0.2157875E+04  0.7818609E-02  0.8536169E-01
       -2   -1    0    0    0  501  0.00000000000E+00  0.00000000000E+00  0.72194092355E+03  0.72194092355E+03  0.25500000920E-02 0. -1.
        2   -1    0    0  501    0  0.00000000000E+00  0.00000000000E+00 -0.16124671231E+04  0.16124671231E+04  0.25500000920E-02 0.  1.
    10030    2    1    2    0    0  0.00000000000E+00  0.00000000000E+00 -0.89052619953E+03  0.23344080466E+04  0.21578748843E+04 0.  0.
        1    1    3    3  502    0  0.94753594897E+02 -0.10538853210E+04 -0.67335162888E+03  0.12542148659E+04  0.50400001928E-02 0. -1.
       -1    1    3    3    0  502 -0.94753594897E+02  0.10538853210E+04 -0.21717457065E+03  0.10801931808E+04  0.50400001928E-02 0.  1.
</event>
<event>
 5   0  0.5849604E-05  0.2210715E+04  0.7818609E-02  0.8513981E-01
        1   -1    0    0  501    0  0.00000000000E+00  0.00000000000E+00  0.89773071621E+03  0.89773071623E+03  0.50400001928E-02 0. -1.
       -1   -1    0    0    0  501  0.00000000000E+00  0.00000000000E+00 -0.13610046050E+04  0.13610046051E+04  0.50400001928E-02 0.  1.
    10030    2    1    2    0    0  0.00000000000E+00  0.00000000000E+00 -0.46327388884E+03  0.22587353213E+04  0.22107153945E+04 0.  0.
        2    1    3    3  502    0  0.95799585944E+03  0.13074256399E+03  0.31569109205E+03  0.10171089176E+04  0.25500000920E-02 0. -1.
       -2    1    3    3    0  502 -0.95799585944E+03 -0.13074256399E+03 -0.77896498089E+03  0.12416264036E+04  0.25500000920E-02 0.  1.
</event>
<event>
 5   0  0.6263558E-05  0.2073011E+04  0.7818609E-02  0.8573226E-01
       -1   -1    0    0    0  501  0.00000000000E+00  0.00000000000E+00  0.13463965323E+04  0.13463965323E+04  0.50400001928E-02 0. -1.
        1   -1    0    0  501    0  0.00000000000E+00  0.00000000000E+00 -0.79793970982E+03  0.79793970983E+03  0.50400001928E-02 0.  1.
    10030    2    1    2    0    0  0.00000000000E+00  0.00000000000E+00  0.54845682245E+03  0.21443362421E+04  0.20730106206E+04 0.  0.
        3    1    3    3  502    0 -0.47950633429E+03  0.91472939833E+03  0.36492088496E+03  0.10953645326E+04  0.10100000352E+00 0. -1.
       -3    1    3    3    0  502  0.47950633429E+03 -0.91472939833E+03  0.18353593749E+03  0.10489717095E+04  0.10100000352E+00 0.  1.
</event>
<event>
 5   0  0.5895063E-05  0.1914057E+04  0.7818609E-02  0.8647891E-01
       -1   -1    0    0    0  501  0.00000000000E+00  0.00000000000E+00  0.65151234662E+03  0.65151234664E+03  0.50400001928E-02 0.  1.
        1   -1    0    0  501    0  0.00000000000E+00  0.00000000000E+00 -0.14058116277E+04  0.14058116277E+04  0.50400001928E-02 0. -1.
    10030    2    1    2    0    0  0.00000000000E+00  0.00000000000E+00 -0.75429928105E+03  0.20573239743E+04  0.19140570864E+04 0.  0.
        5    1    3    3  502    0  0.58552968397E+03  0.41601555689E+03  0.30261755156E+03  0.77943147672E+03  0.46999998093E+01 0.  1.
       -5    1    3    3    0  502 -0.58552968397E+03 -0.41601555689E+03 -0.10569168326E+04  0.12778924976E+04  0.46999998093E+01 0. -1.
</event>
<event>
 5   0  0.1241430E-04  0.2196639E+04  0.7818609E-02  0.8519828E-01
        2   -1    0    0  501    0  0.00000000000E+00  0.00000000000E+00  0.10772827754E+04  0.10772827754E+04  0.25500000920E-02 0. -1.
       -2   -1    0    0    0  501  0.00000000000E+00  0.00000000000E+00 -0.11197668960E+04  0.11197668960E+04  0.25500000920E-02 0.  1.
    10030    2    1    2    0    0  0.00000000000E+00  0.00000000000E+00 -0.42484120625E+02  0.21970496713E+04  0.21966388774E+04 0.  0.
        1    1    3    3  502    0 -0.55355565861E+03 -0.82151561007E+03 -0.49566590542E+03  0.11076987201E+04  0.50400001928E-02 0.  1.
       -1    1    3    3    0  502  0.55355565861E+03  0.82151561007E+03  0.45318178480E+03  0.10893509512E+04  0.50400001928E-02 0. -1.
</event>
<event>
 5   0  0.5895063E-05  0.2157892E+04  0.7818609E-02  0.8536162E-01
        1   -1    0    0  501    0  0.00000000000E+00  0.00000000000E+00  0.15502126724E+04  0.15502126724E+04  0.50400001928E-02 0.  1.
       -1   -1    0    0    0  501  0.00000000000E+00  0.00000000000E+00 -0.75094490036E+03  0.75094490037E+03  0.50400001928E-02 0. -1.
    10030    2    1    2    0    0  0.00000000000E+00  0.00000000000E+00  0.79926777201E+03  0.23011575727E+04  0.21578918423E+04 0.  0.
        5    1    3    3  502    0  0.14772951872E+03  0.71712981021E+03  0.12447133660E+04  0.14441027072E+04  0.46999998093E+01 0.  1.
       -5    1    3    3    0  502 -0.14772951872E+03 -0.71712981021E+03 -0.44544559399E+03  0.85705486557E+03  0.46999998093E+01 0. -1.
</event>
<event>
 5   0  0.1226021E-04  0.2216925E+04  0.7818609E-02  0.8511417E-01
        2   -1    0    0  501    0  0.00000000000E+00  0.00000000000E+00  0.12287904489E+04  0.12287904489E+04  0.25500000920E-02 0. -1.
       -2   -1    0    0    0  501  0.00000000000E+00  0.00000000000E+00 -0.99991712494E+03  0.99991712494E+03  0.25500000920E-02 0.  1.
    10030    2    1    2    0    0  0.00000000000E+00  0.00000000000E+00  0.22887332394E+03  0.22287075738E+04  0.22169245479E+04 0.  0.
        2    1    3    3  502    0  0.48028392511E+03 -0.71699832090E+03 -0.58491106508E+03  0.10425354646E+04  0.25500000920E-02 0.  1.
       -2    1    3    3    0  502 -0.48028392511E+03  0.71699832090E+03  0.81378438901E+03  0.11861721092E+04  0.25500000920E-02 0. -1.
</event>
<event>
 5   0  0.5849604E-05  0.2181510E+04  0.7818609E-02  0.8526164E-01
       -1   -1    0    0    0  501  0.00000000000E+00  0.00000000000E+00  0.11864555115E+04  0.11864555115E+04  0.50400001928E-02 0. -1.
        1   -1    0    0  501    0  0.00000000000E+00  0.00000000000E+00 -0.10027733682E+04  0.10027733682E+04  0.50400001928E-02 0.  1.
    10030    2    1    2    0    0  0.00000000000E+00  0.00000000000E+00  0.18368214329E+03  0.21892288797E+04  0.21815095595E+04 0.  0.
        2    1    3    3  502    0  0.20571979909E+03  0.94034196385E+03 -0.42298724280E+03  0.10514189709E+04  0.25500000920E-02 0.  1.
       -2    1    3    3    0  502 -0.20571979909E+03 -0.94034196385E+03  0.60666938609E+03  0.11378099089E+04  0.25500000920E-02 0. -1.
</event>
<event>
 5   0  0.1404159E-04  0.2262841E+04  0.7818609E-02  0.8492718E-01
       -2   -1    0    0    0  501  0.00000000000E+00  0.00000000000E+00  0.12301887408E+04  0.12301887408E+04  0.25500000920E-02 0. -1.
        2   -1    0    0  501    0  0.00000000000E+00  0.00000000000E+00 -0.10405820808E+04  0.10405820808E+04  0.25500000920E-02 0.  1.
    10030    2    1    2    0    0  0.00000000000E+00  0.00000000000E+00  0.18960666004E+03  0.22707708216E+04  0.22628410105E+04 0.  0.
        5    1    3    3  502    0 -0.67844531380E+03  0.28572201706E+02 -0.81334641340E+03  0.10595559885E+04  0.46999998093E+01 0. -1.
       -5    1    3    3    0  502  0.67844531380E+03 -0.28572201706E+02  0.10029530734E+04  0.12112148332E+04  0.46999998093E+01 0.  1.
</event>
<event>
 5   0  0.1311472E-04  0.2166324E+04  0.7818609E-02  0.8532577E-01
       -2   -1    0    0    0  501  0.00000000000E+00  0.00000000000E+00  0.70244110136E+03  0.70244110136E+03  0.25500000920E-02 0. -1.
        2   -1    0    0  501    0  0.00000000000E+00  0.00000000000E+00 -0.16702322037E+04  0.16702322037E+04  0.25500000920E-02 0.  1.
    10030    2    1    2    0    0  0.00000000000E+00  0.00000000000E+00 -0.96779110233E+03  0.23726733050E+04  0.21663238435E+04 0.  0.
        4    1    3    3  502    0 -0.31955767973E+03  0.82755293036E+03  0.19681751390E+03  0.90868020222E+03  0.12699999809E+01 0.  1.
       -4    1    3    3    0  502  0.31955767973E+03 -0.82755293036E+03 -0.11646086162E+04  0.14639931028E+04  0.12699999809E+01 0. -1.
</event>
<event>
 5   0  0.1311472E-04  0.2234971E+04  0.7818609E-02  0.8504012E-01
       -2   -1    0    0    0  501  0.00000000000E+00  0.00000000000E+00  0.15340065243E+04  0.15340065243E+04  0.25500000920E-02 0.  1.
        2   -1    0    0  501    0  0.00000000000E+00  0.00000000000E+00 -0.81406020815E+03  0.81406020816E+03  0.25500000920E-02 0. -1.
    10030    2    1    2    0    0  0.00000000000E+00  0.00000000000E+00  0.71994631616E+03  0.23480667325E+04  0.22349708459E+04 0.  0.
        4    1    3    3  502    0 -0.77389233503E+03 -0.51564184636E+03  0.10109877529E+04  0.13736424970E+04  0.12699999809E+01 0.  1.
       -4    1    3    3    0  502  0.77389233503E+03  0.51564184636E+03 -0.29104143679E+03  0.97442423552E+03  0.12699999809E+01 0. -1.
</event>
<event>
 5   0  0.5895063E-05  0.1921430E+04  0.7818609E-02  0.8644262E-01
        1   -1    0    0  501    0  0.00000000000E+00  0.00000000000E+00  0.66394708664E+03  0.66394708666E+03  0.50400001928E-02 0. -1.
       -1   -1    0    0    0  501  0.00000000000E+00  0.00000000000E+00 -0.13901313390E+04  0.13901313390E+04  0.50400001928E-02 0.  1.
    10030    2    1    2    0    0  0.00000000000E+00  0.00000000000E+00 -0.72618425236E+03  0.20540784257E+04  0.19214303553E+04 0.  0.
        5    1    3    3  502    0  0.64799720552E+03  0.42989402955E+02  0.39373945468E+03  0.75947436777E+03  0.46999998093E+01 0. -1.
       -5    1    3    3    0  502 -0.64799720552E+03 -0.42989402955E+02 -0.11199237070E+04  0.12946040579E+04  0.46999998093E+01 0.  1.
</event>
<event>
 5   0  0.5895063E-05  0.2175499E+04  0.7818609E-02  0.8528696E-01
       -1   -1    0    0    0  501  0.00000000000E+00  0.00000000000E+00  0.50439194082E+03  0.50439194085E+03  0.50400001928E-02 0. -1.
        1   -1    0    0  501    0  0.00000000000E+00  0.00000000000E+00 -0.23457930412E+04  0.23457930412E+04  0.50400001928E-02 0.  1.
    10030    2    1    2    0    0  0.00000000000E+00  0.00000000000E+00 -0.18414011003E+04  0.28501849820E+04  0.21754991196E+04 0.  0.
        5    1    3    3  502    0 -0.12232745623E+03  0.81280986633E+03 -0.18540728124E+04  0.20281104430E+04  0.46999998093E+01 0.  1.
       -5    1    3    3    0  502  0.12232745623E+03 -0.81280986633E+03  0.12671712086E+02  0.82207453898E+03  0.46999998093E+01 0. -1.
</event>
<event>
 5   0  0.5895063E-05  0.2151873E+04  0.7818609E-02  0.8538731E-01
        1   -1    0    0  501    0  0.00000000000E+00  0.00000000000E+00  0.10796282485E+04  0.10796282485E+04  0.50400001928E-02 0. -1.
       -1   -1    0    0    0  501  0.00000000000E+00  0.00000000000E+00 -0.10722572491E+04  0.10722572491E+04  0.50400001928E-02 0.  1.
    10030    2    1    2    0    0  0.00000000000E+00  0.00000000000E+00  0.73709994093E+01  0.21518854977E+04  0.21518728734E+04 0.  0.
        5    1    3    3  502    0  0.28972915753E+03  0.20379917617E+02 -0.10323026242E+04  0.10723941084E+04  0.46999998093E+01 0.  1.
       -5    1    3    3    0  502 -0.28972915753E+03 -0.20379917617E+02  0.10396736236E+04  0.10794913892E+04  0.46999998093E+01 0. -1.
</event>
<event>
 5   0  0.1311472E-04  0.2207872E+04  0.7818609E-02  0.8515159E-01
        2   -1    0    0  501    0  0.00000000000E+00  0.00000000000E+00  0.86400864487E+03  0.86400864487E+03  0.25500000920E-02 0. -1.
       -2   -1    0    0    0  501  0.00000000000E+00  0.00000000000E+00 -0.14104891052E+04  0.14104891052E+04  0.25500000920E-02 0.  1.
    10030    2    1    2    0    0  0.00000000000E+00  0.00000000000E+00 -0.54648046032E+03  0.22744977501E+04  0.22078720800E+04 0.  0.
        4    1    3    3  502    0 -0.47744835188E+03 -0.14393636156E+02  0.75203586239E+03  0.89091169972E+03  0.12699999809E+01 0. -1.
       -4    1    3    3    0  502  0.47744835188E+03  0.14393636156E+02 -0.12985163227E+04  0.13835860503E+04  0.12699999809E+01 0.  1.
</event>
<event>
 5   0  0.1404159E-04  0.2192617E+04  0.7818609E-02  0.8521507E-01
       -2   -1    0    0    0  501  0.00000000000E+00  0.00000000000E+00  0.78976793349E+03  0.78976793350E+03  0.25500000920E-02 0. -1.
        2   -1    0    0  501    0  0.00000000000E+00  0.00000000000E+00 -0.15218301989E+04  0.15218301989E+04  0.25500000920E-02 0.  1.
    10030    2    1    2    0    0  0.00000000000E+00  0.00000000000E+00 -0.73206226537E+03  0.23115981324E+04  0.21926173321E+04 0.  0.
        5    1    3    3  502    0 -0.51659894458E+03 -0.65437364275E+03  0.38449194977E+03  0.91811517975E+03  0.46999998093E+01 0. -1.
       -5    1    3    3    0  502  0.51659894458E+03  0.65437364275E+03 -0.11165542151E+04  0.13934829526E+04  0.46999998093E+01 0.  1.
</event>
<event>
 5   0  0.6263558E-05  0.2244622E+04  0.7818609E-02  0.8500082E-01
        1   -1    0    0  501    0  0.00000000000E+00  0.00000000000E+00  0.15855209854E+04  0.15855209854E+04  0.50400001928E-02 0.  1.
       -1   -1    0    0    0  501  0.00000000000E+00  0.00000000000E+00 -0.79442771536E+03  0.79442771537E+03  0.50400001928E-02 0. -1.
    10030    2    1    2    0    0  0.00000000000E+00  0.00000000000E+00  0.79109327000E+03  0.23799487007E+04  0.22446218515E+04 0.  0.
        3    1    3    3  502    0 -0.84451860744E+03  0.32747258183E+03 -0.30707556919E+03  0.95642322512E+03  0.10100000352E+00 0. -1.
       -3    1    3    3    0  502  0.84451860744E+03 -0.32747258183E+03  0.10981688392E+04  0.14235254756E+04  0.10100000352E+00 0.  1.
</event>
<event>
 5   0  0.1311472E-04  0.2138589E+04  0.7818609E-02  0.8544433E-01
       -2   -1    0    0    0  501  0.00000000000E+00  0.00000000000E+00  0.92465936545E+03  0.92465936546E+03  0.25500000920E-02 0. -1.
        2   -1    0    0  501    0  0.00000000000E+00  0.00000000000E+00 -0.12365534976E+04  0.12365534976E+04  0.25500000920E-02 0.  1.
    10030    2    1    2    0    0  0.00000000000E+00  0.00000000000E+00 -0.31189413213E+03  0.21612128630E+04  0.21385890418E+04 0.  0.
        4    1    3    3  502    0  0.10286125683E+03 -0.47782530767E+03  0.80516161226E+03  0.94190461171E+03  0.12699999809E+01 0. -1.
       -4    1    3    3    0  502 -0.10286125683E+03  0.47782530767E+03 -0.11170557444E+04  0.12193082513E+04  0.12699999809E+01 0.  1.
</event>
<event>
 5   0  0.1241430E-04  0.2195592E+04  0.7818609E-02  0.8520265E-01
        2   -1    0    0  501    0  0.00000000000E+00  0.00000000000E+00  0.94816200516E+03  0.94816200516E+03  0.25500000920E-02 0. -1.
       -2   -1    0    0    0  501  0.00000000000E+00  0.00000000000E+00 -0.12710448581E+04  0.12710448581E+04  0.25500000920E-02 0.  1.
    10030    2    1    2    0    0  0.00000000000E+00  0.00000000000E+00 -0.32288285298E+03  0.22192068633E+04  0.21955923496E+04 0.  0.
        1    1    3    3  502    0  0.85742095367E+03 -0.49331194605E+03 -0.64261735122E+03  0.11796119820E+04  0.50400001928E-02 0.  1.
       -1    1    3    3    0  502 -0.85742095367E+03  0.49331194605E+03  0.31973449824E+03  0.10395948813E+04  0.50400001928E-02 0. -1.
</event>
<event>
 5   0  0.5861816E-05  0.2217775E+04  0.7818609E-02  0.8511066E-01
        1   -1    0    0  501    0  0.00000000000E+00  0.00000000000E+00  0.89312064424E+03  0.89312064426E+03  0.50400001928E-02 0. -1.
       -1   -1    0    0    0  501  0.00000000000E+00  0.00000000000E+00 -0.13767803418E+04  0.13767803418E+04  0.50400001928E-02 0.  1.
    10030    2    1    2    0    0  0.00000000000E+00  0.00000000000E+00 -0.48365969759E+03  0.22699009861E+04  0.22177745114E+04 0.  0.
        1    1    3    3  502    0 -0.75756000388E+03  0.80930354223E+03 -0.21358479343E+03  0.11289321711E+04  0.50400001928E-02 0.  1.
       -1    1    3    3    0  502  0.75756000388E+03 -0.80930354223E+03 -0.27007490416E+03  0.11409688150E+04  0.50400001928E-02 0. -1.
</event>
<event>
 5   0  0.1252124E-04  0.2116767E+04  0.7818609E-02  0.8553893E-01
       -2   -1    0    0    0  501  0.00000000000E+00  0.00000000000E+00  0.11117657936E+04  0.11117657936E+04  0.25500000920E-02 0. -1.
        2   -1    0    0  501    0  0.00000000000E+00  0.00000000000E+00 -0.10075639893E+04  0.10075639894E+04  0.25500000920E-02 0.  1.
    10030    2    1    2    0    0  0.00000000000E+00  0.00000000000E+00  0.10420180421E+03  0.21193297829E+04  0.21167665702E+04 0.  0.
        3    1    3    3  502    0 -0.72582489404E+03 -0.62640642894E+03 -0.39673690899E+03  0.10375967310E+04  0.10100000352E+00 0.  1.
       -3    1    3    3    0  502  0.72582489404E+03  0.62640642894E+03  0.50093871320E+03  0.10817330519E+04  0.10100000352E+00 0. -1.
</event>
<event>
 5   0  0.6263558E-05  0.2198812E+04  0.7818609E-02  0.8518923E-01
        1   -1    0    0  501    0  0.00000000000E+00  0.00000000000E+00  0.18560777497E+04  0.18560777497E+04  0.50400001928E-02 0. -1.
       -1   -1    0    0    0  501  0.00000000000E+00  0.00000000000E+00 -0.65120837811E+03  0.65120837813E+03  0.50400001928E-02 0.  1.
    10030    2    1    2    0    0  0.00000000000E+00  0.00000000000E+00  0.12048693716E+04  0.25072861278E+04  0.21988118438E+04 0.  0.
        3    1    3    3  502    0  0.10344984135E+04 -0.18478663988E+03  0.23406533231E+03  0.10766241962E+04  0.10100000352E+00 0. -1.
       -3    1    3    3    0  502 -0.10344984135E+04  0.18478663988E+03  0.97080403929E+03  0.14306619317E+04  0.10100000352E+00 0.  1.
</event>
<event>
 5   0  0.5895063E-05  0.2340107E+04  0.7818609E-02  0.8462273E-01
        1   -1    0    0  501    0  0.00000000000E+00  0.00000000000E+00  0.11413349561E+04  0.11413349561E+04  0.50400001928E-02 0. -1.
       -1   -1    0    0    0  501  0.00000000000E+00  0.00000000000E+00 -0.11994950784E+04  0.11994950784E+04  0.50400001928E-02 0.  1.
    10030    2    1    2    0    0  0.00000000000E+00  0.00000000000E+00 -0.58160122356E+02  0.23408300345E+04  0.23401074015E+04 0.  0.
        5    1    3    3  502    0  0.44503732074E+03 -0.77296158615E+03  0.72843560155E+03  0.11515938286E+04  0.46999998093E+01 0. -1.
       -5    1    3    3    0  502 -0.44503732074E+03  0.77296158615E+03 -0.78659572390E+03  0.11892362059E+04  0.46999998093E+01 0.  1.
</event>
<event>
 5   0  0.5861816E-05  0.2045674E+04  0.7818609E-02  0.8585560E-01
        1   -1    0    0  501    0  0.00000000000E+00  0.00000000000E+00  0.24590423784E+04  0.24590423784E+04  0.50400001928E-02 0. -1.
       -1   -1    0    0    0  501  0.00000000000E+00  0.00000000000E+00 -0.42544818355E+03  0.42544818358E+03  0.50400001928E-02 0.  1.
    10030    2    1    2    0    0  0.00000000000E+00  0.00000000000E+00  0.20335941948E+04  0.28844905619E+04  0.20456735939E+04 0.  0.
        1    1    3    3  502    0  0.38864548229E+03  0.30119393442E+03 -0.24787360171E+03  0.55064000898E+03  0.50400001928E-02 0.  1.
       -1    1    3    3    0  502 -0.38864548229E+03 -0.30119393442E+03  0.22814677965E+04  0.23338505530E+04  0.50400001928E-02 0. -1.
</event>
<event>
 5   0  0.5861816E-05  0.2288860E+04  0.7818609E-02  0.8482326E-01
        1   -1    0    0  501    0  0.00000000000E+00  0.00000000000E+00  0.10116180559E+04  0.10116180559E+04  0.50400001928E-02 0.  1.
       -1   -1    0    0    0  501  0.00000000000E+00  0.00000000000E+00 -0.12946787369E+04  0.12946787370E+04  0.50400001928E-02 0. -1.
    10030    2    1    2    0    0  0.00000000000E+00  0.00000000000E+00 -0.28306068103E+03  0.23062967929E+04  0.22888603163E+04 0.  0.
        1    1    3    3  502    0 -0.22491613856E+02  0.10959697172E+04 -0.47276686563E+03  0.11938023299E+04  0.50400001928E-02 0.  1.
       -1    1    3    3    0  502  0.22491613856E+02 -0.10959697172E+04  0.18970618460E+03  0.11124944630E+04  0.50400001928E-02 0. -1.
</event>
<event>
 5   0  0.1252124E-04  0.2334846E+04  0.7818609E-02  0.8464307E-01
        2   -1    0    0  501    0  0.00000000000E+00  0.00000000000E+00  0.10705822431E+04  0.10705822431E+04  0.25500000920E-02 0. -1.
       -2   -1    0    0    0  501  0.00000000000E+00  0.00000000000E+00 -0.12730238504E+04  0.12730238504E+04  0.25500000920E-02 0.  1.
    10030    2    1    2    0    0  0.00000000000E+00  0.00000000000E+00 -0.20244160728E+03  0.23436060935E+04  0.23348462299E+04 0.  0.
        3    1    3    3  502    0 -0.72737880584E+03 -0.87440080673E+03  0.16286326267E+03  0.11489913622E+04  0.10100000352E+00 0. -1.
       -3    1    3    3    0  502  0.72737880584E+03  0.87440080673E+03 -0.36530486995E+03  0.11946147313E+04  0.10100000352E+00 0.  1.
</event>
<event>
 5   0  0.5861816E-05  0.2121895E+04  0.7818609E-02  0.8551659E-01
       -1   -1    0    0    0  501  0.00000000000E+00  0.00000000000E+00  0.13275743460E+04  0.13275743460E+04  0.50400001928E-02 0. -1.
        1   -1    0    0  501    0  0.00000000000E+00  0.00000000000E+00 -0.84786943009E+03  0.84786943011E+03  0.50400001928E-02 0.  1.
    10030    2    1    2    0    0  0.00000000000E+00  0.00000000000E+00  0.47970491588E+03  0.21754437761E+04  0.21218951003E+04 0.  0.
        1    1    3    3  502    0 -0.85720446837E+03  0.30477738181E+03  0.79944829679E+03  0.12111178028E+04  0.50400001928E-02 0. -1.
       -1    1    3    3    0  502  0.85720446837E+03 -0.30477738181E+03 -0.31974338090E+03  0.96432597326E+03  0.50400001928E-02 0.  1.
</event>
<event>
 5   0  0.5849604E-05  0.2162976E+04  0.7818609E-02  0.8533998E-01
        1   -1    0    0  501    0  0.00000000000E+00  0.00000000000E+00  0.58898950900E+03  0.58898950902E+03  0.50400001928E-02 0.  1.
       -1   -1    0    0    0  501  0.00000000000E+00  0.00000000000E+00 -0.19858010355E+04  0.19858010355E+04  0.50400001928E-02 0. -1.
    10030    2    1    2    0    0  0.00000000000E+00  0.00000000000E+00 -0.13968115265E+04  0.25747905445E+04  0.21629757067E+04 0.  0.
        2    1    3    3  502    0  0.98638769505E+03  0.42632609118E+03 -0.84371832476E+03  0.13662266402E+04  0.25500000920E-02 0. -1.
       -2    1    3    3    0  502 -0.98638769505E+03 -0.42632609118E+03 -0.55309320176E+03  0.12085639043E+04  0.25500000920E-02 0.  1.
</event>
<event>
 5   0  0.5895063E-05  0.2211756E+04  0.7818609E-02  0.8513551E-01
        1   -1    0    0  501    0  0.00000000000E+00  0.00000000000E+00  0.10276260524E+04  0.10276260524E+04  0.50400001928E-02 0.  1.
       -1   -1    0    0    0  501  0.00000000000E+00  0.00000000000E+00 -0.11900884776E+04  0.11900884776E+04  0.50400001928E-02 0. -1.
    10030    2    1    2    0    0  0.00000000000E+00  0.00000000000E+00 -0.16246242523E+03  0.22177145300E+04  0.22117557950E+04 0.  0.
        5    1    3    3  502    0 -0.35047555014E+03  0.57788642103E+03 -0.95889391043E+03  0.11731519289E+04  0.46999998093E+01 0. -1.
       -5    1    3    3    0  502  0.35047555014E+03 -0.57788642103E+03  0.79643148521E+03  0.10445626010E+04  0.46999998093E+01 0.  1.
</event>
<event>
 5   0  0.1311472E-04  0.2233088E+04  0.7818609E-02  0.8504781E-01
        2   -1    0    0  501    0  0.00000000000E+00  0.00000000000E+00  0.18012363381E+04  0.18012363381E+04  0.25500000920E-02 0.  1.
       -2   -1    0    0    0  501  0.00000000000E+00  0.00000000000E+00 -0.69211924025E+03  0.69211924025E+03  0.25500000920E-02 0. -1.
    10030    2    1    2    0    0  0.00000000000E+00  0.00000000000E+00  0.11091170979E+04  0.24933555784E+04  0.22330878405E+04 0.  0.
        4    1    3    3  502    0  0.16112213405E+03  0.26100299610E+03 -0.64415398031E+03  0.71345558327E+03  0.12699999809E+01 0. -1.
       -4    1    3    3    0  502 -0.16112213405E+03 -0.26100299610E+03  0.17532710782E+04  0.17798999951E+04  0.12699999809E+01 0.  1.
</event>
<event>
 5   0  0.1252124E-04  0.2164722E+04  0.7818609E-02  0.8533257E-01
        2   -1    0    0  501    0  0.00000000000E+00  0.00000000000E+00  0.13763862136E+04  0.13763862136E+04  0.25500000920E-02 0.  1.
       -2   -1    0    0    0  501  0.00000000000E+00  0.00000000000E+00 -0.85114587332E+03  0.85114587332E+03  0.25500000920E-02 0. -1.
    10030    2    1    2    0    0  0.00000000000E+00  0.00000000000E+00  0.52524034028E+03  0.22275320869E+04  0.21647221030E+04 0.  0.
        3    1    3    3  502    0  0.42305747784E+03  0.45177479733E+03 -0.65107778834E+03  0.89832087460E+03  0.10100000352E+00 0. -1.
       -3    1    3    3    0  502 -0.42305747784E+03 -0.45177479733E+03  0.11763181286E+04  0.13292112123E+04  0.10100000352E+00 0.  1.
</event>
<event>
 5   0  0.5981239E-05  0.2202627E+04  0.7818609E-02  0.8517336E-01
       -1   -1    0    0    0  501  0.00000000000E+00  0.00000000000E+00  0.87789113282E+03  0.87789113284E+03  0.50400001928E-02 0.  1.
        1   -1    0    0  501    0  0.00000000000E+00  0.00000000000E+00 -0.13815963485E+04  0.13815963485E+04  0.50400001928E-02 0. -1.
    10030    2    1    2    0    0  0.00000000000E+00  0.00000000000E+00 -0.50370521567E+03  0.22594874813E+04  0.22026267805E+04 0.  0.
        4    1    3    3  502    0  0.66172238185E+02 -0.10806484248E+04 -0.45882786995E+03  0.11758845226E+04  0.12699999809E+01 0. -1.
       -4    1    3    3    0  502 -0.66172238185E+02  0.10806484248E+04 -0.44877345713E+02  0.10836029588E+04  0.12699999809E+01 0.  1.
</event>
<event>
 5   0  0.5849604E-05  0.2144976E+04  0.7818609E-02  0.8541686E-01
       -1   -1    0    0    0  501  0.00000000000E+00  0.00000000000E+00  0.61951802438E+03  0.61951802440E+03  0.50400001928E-02 0. -1.
        1   -1    0    0  501    0  0.00000000000E+00  0.00000000000E+00 -0.18566537482E+04  0.18566537483E+04  0.50400001928E-02 0.  1.
    10030    2    1    2    0    0  0.00000000000E+00  0.00000000000E+00 -0.12371357239E+04  0.24761717727E+04  0.21449759552E+04 0.  0.
        2    1    3    3  502    0  0.37769329138E+03  0.54209642179E+03  0.35668928760E+03  0.75083153953E+03  0.25500000920E-02 0. -1.
       -2    1    3    3    0  502 -0.37769329138E+03 -0.54209642179E+03 -0.15938250115E+04  0.17253402331E+04  0.25500000920E-02 0.  1.
</event>
<event>
 5   0  0.5981239E-05  0.2190628E+04  0.7818609E-02  0.8522339E-01
       -1   -1    0    0    0  501  0.00000000000E+00  0.00000000000E+00  0.11254619392E+04  0.11254619392E+04  0.50400001928E-02 0. -1.
        1   -1    0    0  501    0  0.00000000000E+00  0.00000000000E+00 -0.10659737005E+04  0.10659737005E+04  0.50400001928E-02 0.  1.
    10030    2    1    2    0    0  0.00000000000E+00  0.00000000000E+00  0.59488238714E+02  0.21914356398E+04  0.21906280635E+04 0.  0.
        4    1    3    3  502    0  0.27069839554E+01  0.73441040781E+03  0.84265998428E+03  0.11177850584E+04  0.12699999809E+01 0. -1.
       -4    1    3    3    0  502 -0.27069839554E+01 -0.73441040781E+03 -0.78317174557E+03  0.10736505813E+04  0.12699999809E+01 0.  1.
</event>
<event>
 5   0  0.5861816E-05  0.2109200E+04  0.7818609E-02  0.8557201E-01
        1   -1    0    0  501    0  0.00000000000E+00  0.00000000000E+00  0.17014448634E+04  0.17014448634E+04  0.50400001928E-02 0. -1.
       -1   -1    0    0    0  501  0.00000000000E+00  0.00000000000E+00 -0.65366870053E+03  0.65366870055E+03  0.50400001928E-02 0.  1.
    10030    2    1    2    0    0  0.00000000000E+00  0.00000000000E+00  0.10477761629E+04  0.23551135640E+04  0.21092000881E+04 0.  0.
        1    1    3    3  502    0  0.49506494341E+03  0.41132299868E+03 -0.40892007585E+03  0.76255592312E+03  0.50400001928E-02 0.  1.
       -1    1    3    3    0  502 -0.49506494341E+03 -0.41132299868E+03  0.14566962387E+04  0.15925576408E+04  0.50400001928E-02 0. -1.
</event>
<event>
 5   0  0.4586375E-05  0.2237458E+04  0.7818609E-02  0.8502997E-01
       -3   -1    0    0    0  501  0.00000000000E+00  0.00000000000E+00  0.71185317531E+03  0.71185318248E+03  0.10100000352E+00 0.  1.
        3   -1    0    0  501    0  0.00000000000E+00  0.00000000000E+00 -0.17581637304E+04  0.17581637333E+04  0.10100000352E+00 0. -1.
    10030    2    1    2    0    0  0.00000000000E+00  0.00000000000E+00 -0.10463105551E+04  0.24700169157E+04  0.22374578848E+04 0.  0.
        3    1    3    3  502    0 -0.51977653005E+03  0.90053127631E+03 -0.67414011143E+02  0.10419543560E+04  0.10100000352E+00 0. -1.
       -3    1    3    3    0  502  0.51977653005E+03 -0.90053127631E+03 -0.97889654392E+03  0.14280625598E+04  0.10100000352E+00 0.  1.
</event>
<event>
 5   0  0.5981239E-05  0.2179635E+04  0.7818609E-02  0.8526952E-01
        1   -1    0    0  501    0  0.00000000000E+00  0.00000000000E+00  0.18463046154E+04  0.18463046154E+04  0.50400001928E-02 0. -1.
       -1   -1    0    0    0  501  0.00000000000E+00  0.00000000000E+00 -0.64328632794E+03  0.64328632796E+03  0.50400001928E-02 0.  1.
    10030    2    1    2    0    0  0.00000000000E+00  0.00000000000E+00  0.12030182875E+04  0.24895909434E+04  0.21796353056E+04 0.  0.
        4    1    3    3  502    0  0.30170235821E+03 -0.68182524704E+03 -0.30637588077E+03  0.80608794413E+03  0.12699999809E+01 0.  1.
       -4    1    3    3    0  502 -0.30170235821E+03  0.68182524704E+03  0.15093941682E+04  0.16835029992E+04  0.12699999809E+01 0. -1.
</event>
<event>
 5   0  0.1311472E-04  0.2153339E+04  0.7818609E-02  0.8538104E-01
        2   -1    0    0  501    0  0.00000000000E+00  0.00000000000E+00  0.14125063329E+04  0.14125063329E+04  0.25500000920E-02 0. -1.
       -2   -1    0    0    0  501  0.00000000000E+00  0.00000000000E+00 -0.82068090982E+03  0.82068090982E+03  0.25500000920E-02 0.  1.
    10030    2    1    2    0    0  0.00000000000E+00  0.00000000000E+00  0.59182542305E+03  0.22331872427E+04  0.21533387865E+04 0.  0.
        4    1    3    3  502    0 -0.10520664616E+03 -0.34190115418E+03  0.13490739533E+04  0.13956958773E+04  0.12699999809E+01 0. -1.
       -4    1    3    3    0  502  0.10520664616E+03  0.34190115418E+03 -0.75724853024E+03  0.83749136537E+03  0.12699999809E+01 0.  1.
</event>
<event>
 5   0  0.1311472E-04  0.2180246E+04  0.7818609E-02  0.8526695E-01
        2   -1    0    0  501    0  0.00000000000E+00  0.00000000000E+00  0.18023135931E+04  0.18023135931E+04  0.25500000920E-02 0. -1.
       -2   -1    0    0    0  501  0.00000000000E+00  0.00000000000E+00 -0.65935698207E+03  0.65935698208E+03  0.25500000920E-02 0.  1.
    10030    2    1    2    0    0  0.00000000000E+00  0.00000000000E+00  0.11429566110E+04  0.24616705752E+04  0.21802459049E+04 0.  0.
        4    1    3    3  502    0 -0.80848612566E+03 -0.65406890013E+02  0.13938004763E+04  0.16126404613E+04  0.12699999809E+01 0. -1.
       -4    1    3    3    0  502  0.80848612566E+03  0.65406890013E+02 -0.25084386530E+03  0.84903011390E+03  0.12699999809E+01 0.  1.
</event>
<event>
 5   0  0.5861816E-05  0.2294291E+04  0.7818609E-02  0.8480176E-01
        1   -1    0    0  501    0  0.00000000000E+00  0.00000000000E+00  0.14038812547E+04  0.14038812547E+04  0.50400001928E-02 0.  1.
       -1   -1    0    0    0  501  0.00000000000E+00  0.00000000000E+00 -0.93736034660E+03  0.93736034661E+03  0.50400001928E-02 0. -1.
    10030    2    1    2    0    0  0.00000000000E+00  0.00000000000E+00  0.46652090810E+03  0.23412416013E+04  0.22942908443E+04 0.  0.
        1    1    3    3  502    0 -0.87479522389E+03 -0.67640175656E+03 -0.78201191578E+02  0.11085582738E+04  0.50400001928E-02 0.  1.
       -1    1    3    3    0  502  0.87479522389E+03  0.67640175656E+03  0.54472209967E+03  0.12326833275E+04  0.50400001928E-02 0. -1.
</event>
<event>
 5   0  0.5981239E-05  0.2102109E+04  0.7818609E-02  0.8560315E-01
       -1   -1    0    0    0  501  0.00000000000E+00  0.00000000000E+00  0.67800895291E+03  0.67800895293E+03  0.50400001928E-02 0. -1.
        1   -1    0    0  501    0  0.00000000000E+00  0.00000000000E+00 -0.16293521497E+04  0.16293521497E+04  0.50400001928E-02 0.  1.
    10030    2    1    2    0    0  0.00000000000E+00  0.00000000000E+00 -0.95134319678E+03  0.23073611026E+04  0.21021087935E+04 0.  0.
        4    1    3    3  502    0 -0.58232581030E+03  0.27338787989E+03  0.43667188094E+03  0.77751413281E+03  0.12699999809E+01 0. -1.
       -4    1    3    3    0  502  0.58232581030E+03 -0.27338787989E+03 -0.13880150777E+04  0.15298469698E+04  0.12699999809E+01 0.  1.
</event>
<event>
 5   0  0.1311472E-04  0.2195665E+04  0.7818609E-02  0.8520235E-01
       -2   -1    0    0    0  501  0.00000000000E+00  0.00000000000E+00  0.54767376067E+03  0.54767376067E+03  0.25500000920E-02 0. -1.
        2   -1    0    0  501    0  0.00000000000E+00  0.00000000000E+00 -0.22006462074E+04  0.22006462074E+04  0.25500000920E-02 0.  1.
    10030    2    1    2    0    0  0.00000000000E+00  0.00000000000E+00 -0.16529724468E+04  0.27483199681E+04  0.21956649875E+04 0.  0.
        4    1    3    3  502    0  0.34568298368E+03 -0.10407784207E+04 -0.76367462124E+03  0.13363820510E+04  0.12699999809E+01 0. -1.
       -4    1    3    3    0  502 -0.34568298368E+03  0.10407784207E+04 -0.88929782554E+03  0.14119379171E+04  0.12699999809E+01 0.  1.
</event>
<event>
 5   0  0.1311472E-04  0.2147896E+04  0.7818609E-02  0.8540433E-01
        2   -1    0    0  501    0  0.00000000000E+00  0.00000000000E+00  0.10809127923E+04  0.10809127923E+04  0.25500000920E-02 0.  1.
       -2   -1    0    0    0  501  0.00000000000E+00  0.00000000000E+00 -0.10670279511E+04  0.10670279511E+04  0.25500000920E-02 0. -1.
    10030    2    1    2    0    0  0.00000000000E+00  0.00000000000E+00  0.13884841241E+02  0.21479407434E+04  0.21478958653E+04 0.  0.
        4    1    3    3  502    0 -0.79839006131E+03  0.44080235463E+03  0.57407783977E+03  0.10776364809E+04  0.12699999809E+01 0.  1.
       -4    1    3    3    0  502  0.79839006131E+03 -0.44080235463E+03 -0.56019299853E+03  0.10703042625E+04  0.12699999809E+01 0. -1.
</event>
<event>
 5   0  0.1404159E-04  0.2194197E+04  0.7818609E-02  0.8520847E-01
        2   -1    0    0  501    0  0.00000000000E+00  0.00000000000E+00  0.15005239358E+04  0.15005239358E+04  0.25500000920E-02 0. -1.
       -2   -1    0    0    0  501  0.00000000000E+00  0.00000000000E+00 -0.80213628232E+03  0.80213628232E+03  0.25500000920E-02 0.  1.
    10030    2    1    2    0    0  0.00000000000E+00  0.00000000000E+00  0.69838765352E+03  0.23026602182E+04  0.21941966105E+04 0.  0.
        5    1    3    3  502    0 -0.10770337113E+04  0.17622199030E+03  0.46674331457E+03  0.11869823996E+04  0.46999998093E+01 0.  1.
       -5    1    3    3    0  502  0.10770337113E+04 -0.17622199030E+03  0.23164433895E+03  0.11156778186E+04  0.46999998093E+01 0. -1.
</event>
<event>
 5   0  0.1241430E-04  0.2222396E+04  0.7818609E-02  0.8509164E-01
       -2   -1    0    0    0  501  0.00000000000E+00  0.00000000000E+00  0.89297206232E+03  0.89297206232E+03  0.25500000920E-02 0.  1.
        2   -1    0    0  501    0  0.00000000000E+00  0.00000000000E+00 -0.13827544885E+04  0.13827544885E+04  0.25500000920E-02 0. -1.
    10030    2    1    2    0    0  0.00000000000E+00  0.00000000000E+00 -0.48978242619E+03  0.22757265508E+04  0.22223961189E+04 0.  0.
        1    1    3    3  502    0  0.46480996930E+02  0.51247033564E+03  0.76361558965E+03  0.92081219408E+03  0.50400001928E-02 0.  1.
       -1    1    3    3    0  502 -0.46480996930E+02 -0.51247033564E+03 -0.12533980158E+04  0.13549143568E+04  0.50400001928E-02 0. -1.
</event>
<event>
 5   0  0.5895063E-05  0.2193086E+04  0.7818609E-02  0.8521311E-01
       -1   -1    0    0    0  501  0.00000000000E+00  0.00000000000E+00  0.86488216986E+03  0.86488216987E+03  0.50400001928E-02 0.  1.
        1   -1    0    0  501    0  0.00000000000E+00  0.00000000000E+00 -0.13902552533E+04  0.13902552533E+04  0.50400001928E-02 0. -1.
    10030    2    1    2    0    0  0.00000000000E+00  0.00000000000E+00 -0.52537308344E+03  0.22551374232E+04  0.21930863915E+04 0.  0.
        5    1    3    3  502    0 -0.12432703277E+03 -0.65238702219E+02 -0.13809634428E+04  0.13880905661E+04  0.46999998093E+01 0. -1.
       -5    1    3    3    0  502  0.12432703277E+03  0.65238702219E+02  0.85559035936E+03  0.86704685708E+03  0.46999998093E+01 0.  1.
</event>
<event>
 5   0  0.1404159E-04  0.2160632E+04  0.7818609E-02  0.8534995E-01
        2   -1    0    0  501    0  0.00000000000E+00  0.00000000000E+00  0.10803296569E+04  0.10803296569E+04  0.25500000920E-02 0.  1.
       -2   -1    0    0    0  501  0.00000000000E+00  0.00000000000E+00 -0.10803023465E+04  0.10803023465E+04  0.25500000920E-02 0. -1.
    10030    2    1    2    0    0  0.00000000000E+00  0.00000000000E+00  0.27310399332E-01  0.21606320035E+04  0.21606320033E+04 0.  0.
        5    1    3    3  502    0  0.49171613943E+03  0.29895473573E+03 -0.91426304132E+03  0.10803044453E+04  0.46999998093E+01 0. -1.
       -5    1    3    3    0  502 -0.49171613943E+03 -0.29895473573E+03  0.91429035172E+03  0.10803275582E+04  0.46999998093E+01 0.  1.
</event>
<event>
 5   0  0.5849604E-05  0.2224247E+04  0.7818609E-02  0.8508403E-01
       -1   -1    0    0    0  501  0.00000000000E+00  0.00000000000E+00  0.96759093309E+03  0.96759093310E+03  0.50400001928E-02 0. -1.
        1   -1    0    0  501    0  0.00000000000E+00  0.00000000000E+00 -0.12782456826E+04  0.12782456826E+04  0.50400001928E-02 0.  1.
    10030    2    1    2    0    0  0.00000000000E+00  0.00000000000E+00 -0.31065474951E+03  0.22458366157E+04  0.22242472280E+04 0.  0.
        2    1    3    3  502    0  0.34668663305E+03 -0.63619761100E+01  0.91161595344E+03  0.97533365719E+03  0.25500000920E-02 0. -1.
       -2    1    3    3    0  502 -0.34668663305E+03  0.63619761100E+01 -0.12222707030E+04  0.12705029585E+04  0.25500000920E-02 0.  1.
</event>
<event>
 5   0  0.1404159E-04  0.2161802E+04  0.7818609E-02  0.8534497E-01
       -2   -1    0    0    0  501  0.00000000000E+00  0.00000000000E+00  0.76669211621E+03  0.76669211621E+03  0.25500000920E-02 0. -1.
        2   -1    0    0  501    0  0.00000000000E+00  0.00000000000E+00 -0.15238803330E+04  0.15238803330E+04  0.25500000920E-02 0.  1.
    10030    2    1    2    0    0  0.00000000000E+00  0.00000000000E+00 -0.75718821679E+03  0.22905724492E+04  0.21618020607E+04 0.  0.
        5    1    3    3  502    0  0.78142920564E+03  0.51406783255E+03 -0.95255009820E+03  0.13350172731E+04  0.46999998093E+01 0.  1.
       -5    1    3    3    0  502 -0.78142920564E+03 -0.51406783255E+03  0.19536188141E+03  0.95555517612E+03  0.46999998093E+01 0. -1.
</event>
<event>
 5   0  0.6263558E-05  0.2168876E+04  0.7818609E-02  0.8531495E-01
        1   -1    0    0  501    0  0.00000000000E+00  0.00000000000E+00  0.75404632966E+03  0.75404632968E+03  0.50400001928E-02 0.  1.
       -1   -1    0    0    0  501  0.00000000000E+00  0.00000000000E+00 -0.15595935631E+04  0.15595935631E+04  0.50400001928E-02 0. -1.
    10030    2    1    2    0    0  0.00000000000E+00  0.00000000000E+00 -0.80554723341E+03  0.23136398928E+04  0.21688760241E+04 0.  0.
        3    1    3    3  502    0 -0.10079888337E+04  0.32562756700E+03 -0.65050454770E+03  0.12430731990E+04  0.10100000352E+00 0. -1.
       -3    1    3    3    0  502  0.10079888337E+04 -0.32562756700E+03 -0.15504268571E+03  0.10705666938E+04  0.10100000352E+00 0.  1.
</event>
<event>
 5   0  0.5981239E-05  0.2185101E+04  0.7818609E-02  0.8524655E-01
        1   -1    0    0  501    0  0.00000000000E+00  0.00000000000E+00  0.11469677504E+04  0.11469677504E+04  0.50400001928E-02 0. -1.
       -1   -1    0    0    0  501  0.00000000000E+00  0.00000000000E+00 -0.10407151784E+04  0.10407151784E+04  0.50400001928E-02 0.  1.
    10030    2    1    2    0    0  0.00000000000E+00  0.00000000000E+00  0.10625257202E+03  0.21876829288E+04  0.21851011391E+04 0.  0.
        4    1    3    3  502    0 -0.10464439321E+04 -0.27862974913E+03 -0.91909275838E+02  0.10867972985E+04  0.12699999809E+01 0. -1.
       -4    1    3    3    0  502  0.10464439321E+04  0.27862974913E+03  0.19816184786E+03  0.11008856303E+04  0.12699999809E+01 0.  1.
</event>
<event>
 5   0  0.6263558E-05  0.2093222E+04  0.7818609E-02  0.8564235E-01
       -1   -1    0    0    0  501  0.00000000000E+00  0.00000000000E+00  0.69528976198E+03  0.69528976200E+03  0.50400001928E-02 0. -1.
        1   -1    0    0  501    0  0.00000000000E+00  0.00000000000E+00 -0.15754501229E+04  0.15754501229E+04  0.50400001928E-02 0.  1.
    10030    2    1    2    0    0  0.00000000000E+00  0.00000000000E+00 -0.88016036089E+03  0.22707398849E+04  0.20932217665E+04 0.  0.
        3    1    3    3  502    0  0.27878910257E+03  0.40755200017E+03 -0.14411466568E+04  0.15233928230E+04  0.10100000352E+00 0.  1.
       -3    1    3    3    0  502 -0.27878910257E+03 -0.40755200017E+03  0.56098629589E+03  0.74734706190E+03  0.10100000352E+00 0. -1.
</event>
<event>
 5   0  0.6263558E-05  0.2041697E+04  0.7818609E-02  0.8587371E-01
       -1   -1    0    0    0  501  0.00000000000E+00  0.00000000000E+00  0.99356970988E+03  0.99356970989E+03  0.50400001928E-02 0. -1.
        1   -1    0    0  501    0  0.00000000000E+00  0.00000000000E+00 -0.10488758294E+04  0.10488758294E+04  0.50400001928E-02 0.  1.
    10030    2    1    2    0    0  0.00000000000E+00  0.00000000000E+00 -0.55306119488E+02  0.20424455393E+04  0.20416966019E+04 0.  0.
        3    1    3    3  502    0  0.95350391532E+03  0.35158113809E+03  0.69089343369E+02  0.10186031419E+04  0.10100000352E+00 0. -1.
       -3    1    3    3    0  502 -0.95350391532E+03 -0.35158113809E+03 -0.12439546286E+03  0.10238423973E+04  0.10100000352E+00 0.  1.
</event>
<event>
 5   0  0.1226021E-04  0.2239471E+04  0.7818609E-02  0.8502177E-01
       -2   -1    0    0    0  501  0.00000000000E+00  0.00000000000E+00  0.67231194430E+03  0.67231194430E+03  0.25500000920E-02 0. -1.
        2   -1    0    0  501    0  0.00000000000E+00  0.00000000000E+00 -0.18649200105E+04  0.18649200105E+04  0.25500000920E-02 0.  1.
    10030    2    1    2    0    0  0.00000000000E+00  0.00000000000E+00 -0.11926080662E+04  0.25372319548E+04  0.22394713646E+04 0.  0.
        2    1    3    3  502    0  0.76833377997E+03  0.68885833381E+03 -0.10383058921E+03  0.10371322928E+04  0.25500000920E-02 0.  1.
       -2    1    3    3    0  502 -0.76833377997E+03 -0.68885833381E+03 -0.10887774770E+04  0.15000996620E+04  0.25500000920E-02 0. -1.
</event>
<event>
 5   0  0.5895063E-05  0.2276011E+04  0.7818609E-02  0.8487440E-01
       -1   -1    0    0    0  501  0.00000000000E+00  0.00000000000E+00  0.51268957624E+03  0.51268957627E+03  0.50400001928E-02 0. -1.
        1   -1    0    0  501    0  0.00000000000E+00  0.00000000000E+00 -0.25260054505E+04  0.25260054505E+04  0.50400001928E-02 0.  1.
    10030    2    1    2    0    0  0.00000000000E+00  0.00000000000E+00 -0.20133158743E+04  0.30386950268E+04  0.22760111283E+04 0.  0.
        5    1    3    3  502    0 -0.23074859495E+03  0.88348915749E+03 -0.99935004066E+02  0.91858973460E+03  0.46999998093E+01 0. -1.
       -5    1    3    3    0  502  0.23074859495E+03 -0.88348915749E+03 -0.19133808702E+04  0.21201052922E+04  0.46999998093E+01 0.  1.
</event>
<event>
 5   0  0.5849604E-05  0.2179977E+04  0.7818609E-02  0.8526809E-01
       -1   -1    0    0    0  501  0.00000000000E+00  0.00000000000E+00  0.14226443915E+04  0.14226443915E+04  0.50400001928E-02 0. -1.
        1   -1    0    0  501    0  0.00000000000E+00  0.00000000000E+00 -0.83511717339E+03  0.83511717341E+03  0.50400001928E-02 0.  1.
    10030    2    1    2    0    0  0.00000000000E+00  0.00000000000E+00  0.58752721813E+03  0.22577615649E+04  0.21799768467E+04 0.  0.
        2    1    3    3  502    0 -0.10820859472E+04 -0.34220408295E+02  0.16278479059E+03  0.10947967490E+04  0.25500000920E-02 0.  1.
       -2    1    3    3    0  502  0.10820859472E+04  0.34220408295E+02  0.42474242754E+03  0.11629648160E+04  0.25500000920E-02 0. -1.
</event>
<event>
 5   0  0.6263558E-05  0.2148095E+04  0.7818609E-02  0.8540348E-01
       -1   -1    0    0    0  501  0.00000000000E+00  0.00000000000E+00  0.11853993051E+04  0.11853993051E+04  0.50400001928E-02 0.  1.
        1   -1    0    0  501    0  0.00000000000E+00  0.00000000000E+00 -0.97315586684E+03  0.97315586686E+03  0.50400001928E-02 0. -1.
    10030    2    1    2    0    0  0.00000000000E+00  0.00000000000E+00  0.21224343823E+03  0.21585551719E+04  0.21480952384E+04 0.  0.
        3    1    3    3  502    0 -0.88272889776E+02  0.79776153996E+03 -0.61105005858E+03  0.10087605078E+04  0.10100000352E+00 0. -1.
       -3    1    3    3    0  502  0.88272889776E+02 -0.79776153996E+03  0.82329349682E+03  0.11497946642E+04  0.10100000352E+00 0.  1.
</event>
<event>
 5   0  0.1241430E-04  0.2199235E+04  0.7818609E-02  0.8518747E-01
        2   -1    0    0  501    0  0.00000000000E+00  0.00000000000E+00  0.15054965823E+04  0.15054965823E+04  0.25500000920E-02 0. -1.
       -2   -1    0    0    0  501  0.00000000000E+00  0.00000000000E+00 -0.80316240227E+03  0.80316240227E+03  0.25500000920E-02 0.  1.
    10030    2    1    2    0    0  0.00000000000E+00  0.00000000000E+00  0.70233418007E+03  0.23086589846E+04  0.21992346411E+04 0.  0.
        1    1    3    3  502    0 -0.40846915598E+03 -0.75087559461E+03  0.10773196091E+04  0.13752377068E+04  0.50400001928E-02 0. -1.
       -1    1    3    3    0  502  0.40846915598E+03  0.75087559461E+03 -0.37498542901E+03  0.93342127786E+03  0.50400001928E-02 0.  1.
</event>
<event>
 5   0  0.1226021E-04  0.2181653E+04  0.7818609E-02  0.8526104E-01
       -2   -1    0    0    0  501  0.00000000000E+00  0.00000000000E+00  0.57217116154E+03  0.57217116154E+03  0.25500000920E-02 0.  1.
        2   -1    0    0  501    0  0.00000000000E+00  0.00000000000E+00 -0.20796260839E+04  0.20796260839E+04  0.25500000920E-02 0. -1.
    10030    2    1    2    0    0  0.00000000000E+00  0.00000000000E+00 -0.15074549224E+04  0.26517972455E+04  0.21816526506E+04 0.  0.
        2    1    3    3  502    0 -0.28285168254E+03 -0.10060385109E+04 -0.11338184077E+04  0.15419671662E+04  0.25500000920E-02 0.  1.
       -2    1    3    3    0  502  0.28285168254E+03  0.10060385109E+04 -0.37363651466E+03  0.11098300793E+04  0.25500000920E-02 0. -1.
</event>
<event>
 5   0  0.6263558E-05  0.2190818E+04  0.7818609E-02  0.8522260E-01
       -1   -1    0    0    0  501  0.00000000000E+00  0.00000000000E+00  0.16611286849E+04  0.16611286849E+04  0.50400001928E-02 0. -1.
        1   -1    0    0  501    0  0.00000000000E+00  0.00000000000E+00 -0.72235288635E+03  0.72235288637E+03  0.50400001928E-02 0.  1.
    10030    2    1    2    0    0  0.00000000000E+00  0.00000000000E+00  0.93877579855E+03  0.23834815713E+04  0.21908182035E+04 0.  0.
        3    1    3    3  502    0 -0.45379580317E+03 -0.79638386509E+03  0.11219379464E+04  0.14487590059E+04  0.10100000352E+00 0. -1.
       -3    1    3    3    0  502  0.45379580317E+03  0.79638386509E+03 -0.18316214784E+03  0.93472256534E+03  0.10100000352E+00 0.  1.
</event>
<event>
 5   0  0.1241430E-04  0.2214345E+04  0.7818609E-02  0.8512481E-01
       -2   -1    0    0    0  501  0.00000000000E+00  0.00000000000E+00  0.60967189919E+03  0.60967189919E+03  0.25500000920E-02 0. -1.
        2   -1    0    0  501    0  0.00000000000E+00  0.00000000000E+00 -0.20106412740E+04  0.20106412740E+04  0.25500000920E-02 0.  1.
    10030    2    1    2    0    0  0.00000000000E+00  0.00000000000E+00 -0.14009693748E+04  0.26203131732E+04  0.22143454872E+04 0.  0.
        1    1    3    3  502    0  0.83436812241E+03  0.52919969010E+03 -0.12916894804E+04  0.16262485018E+04  0.50400001928E-02 0.  1.
       -1    1    3    3    0  502 -0.83436812241E+03 -0.52919969010E+03 -0.10927989445E+03  0.99406467147E+03  0.50400001928E-02 0. -1.
</event>
<event>
 5   0  0.5861816E-05  0.2268434E+04  0.7818609E-02  0.8490472E-01
        1   -1    0    0  501    0  0.00000000000E+00  0.00000000000E+00  0.11417628202E+04  0.11417628202E+04  0.50400001928E-02 0. -1.
       -1   -1    0    0    0  501  0.00000000000E+00  0.00000000000E+00 -0.11267207653E+04  0.11267207654E+04  0.50400001928E-02 0.  1.
    10030    2    1    2    0    0  0.00000000000E+00  0.00000000000E+00  0.15042054811E+02  0.22684835855E+04  0.22684337139E+04 0.  0.
        1    1    3    3  502    0 -0.34678110515E+03 -0.78621272799E+03  0.74784824461E+03  0.11391508177E+04  0.50400001928E-02 0. -1.
       -1    1    3    3    0  502  0.34678110515E+03  0.78621272799E+03 -0.73280618980E+03  0.11293327678E+04  0.50400001928E-02 0.  1.
</event>
<event>
 5   0  0.6263558E-05  0.2199333E+04  0.7818609E-02  0.8518706E-01
       -1   -1    0    0    0  501  0.00000000000E+00  0.00000000000E+00  0.11696561220E+04  0.11696561220E+04  0.50400001928E-02 0. -1.
        1   -1    0    0  501    0  0.00000000000E+00  0.00000000000E+00 -0.10338651813E+04  0.10338651813E+04  0.50400001928E-02 0.  1.
    10030    2    1    2    0    0  0.00000000000E+00  0.00000000000E+00  0.13579094071E+03  0.22035213033E+04  0.21993332978E+04 0.  0.
        3    1    3    3  502    0  0.70094142627E+03 -0.77314906738E+03 -0.27944662329E+03  0.10803558622E+04  0.10100000352E+00 0. -1.
       -3    1    3    3    0  502 -0.70094142627E+03  0.77314906738E+03  0.41523756400E+03  0.11231654412E+04  0.10100000352E+00 0.  1.
</event>
<event>
 5   0  0.1311472E-04  0.2214197E+04  0.7818609E-02  0.8512542E-01
        2   -1    0    0  501    0  0.00000000000E+00  0.00000000000E+00  0.14438485236E+04  0.14438485236E+04  0.25500000920E-02 0.  1.
       -2   -1    0    0    0  501  0.00000000000E+00  0.00000000000E+00 -0.84888861245E+03  0.84888861245E+03  0.25500000920E-02 0. -1.
    10030    2    1    2    0    0  0.00000000000E+00  0.00000000000E+00  0.59495991110E+03  0.22927371360E+04  0.22141965313E+04 0.  0.
        4    1    3    3  502    0  0.43794694911E+03  0.80996735503E+03  0.93395407598E+03  0.13115321099E+04  0.12699999809E+01 0.  1.
       -4    1    3    3    0  502 -0.43794694911E+03 -0.80996735503E+03 -0.33899416488E+03  0.98120502607E+03  0.12699999809E+01 0. -1.
</event>
<event>
 5   0  0.1404159E-04  0.2047944E+04  0.7818609E-02  0.8584528E-01
        2   -1    0    0  501    0  0.00000000000E+00  0.00000000000E+00  0.76735662463E+03  0.76735662464E+03  0.25500000920E-02 0.  1.
       -2   -1    0    0    0  501  0.00000000000E+00  0.00000000000E+00 -0.13664031110E+04  0.13664031110E+04  0.25500000920E-02 0. -1.
    10030    2    1    2    0    0  0.00000000000E+00  0.00000000000E+00 -0.59904648640E+03  0.21337597357E+04  0.20479438266E+04 0.  0.
        5    1    3    3  502    0 -0.93156164967E+03 -0.12819742700E+03 -0.72178950207E+03  0.11854298219E+04  0.46999998093E+01 0. -1.
       -5    1    3    3    0  502  0.93156164967E+03  0.12819742700E+03  0.12274301567E+03  0.94832991375E+03  0.46999998093E+01 0.  1.
</event>
<event>
 5   0  0.4586375E-05  0.2250213E+04  0.7818609E-02  0.8497814E-01
        3   -1    0    0  501    0  0.00000000000E+00  0.00000000000E+00  0.14193553378E+04  0.14193553414E+04  0.10100000352E+00 0. -1.
       -3   -1    0    0    0  501  0.00000000000E+00  0.00000000000E+00 -0.89185858966E+03  0.89185859538E+03  0.10100000352E+00 0.  1.
    10030    2    1    2    0    0  0.00000000000E+00  0.00000000000E+00  0.52749674817E+03  0.23112139368E+04  0.22502126660E+04 0.  0.
        5    1    3    3  502    0 -0.70530208170E+03  0.23359511799E+03 -0.60403694181E+03  0.95754917507E+03  0.46999998093E+01 0.  1.
       -5    1    3    3    0  502  0.70530208170E+03 -0.23359511799E+03  0.11315336900E+04  0.13536647617E+04  0.46999998093E+01 0. -1.
</event>
<event>
 5   0  0.1241430E-04  0.2060766E+04  0.7818609E-02  0.8578726E-01
        2   -1    0    0  501    0  0.00000000000E+00  0.00000000000E+00  0.18454265354E+04  0.18454265354E+04  0.25500000920E-02 0. -1.
       -2   -1    0    0    0  501  0.00000000000E+00  0.00000000000E+00 -0.57530819773E+03  0.57530819774E+03  0.25500000920E-02 0.  1.
    10030    2    1    2    0    0  0.00000000000E+00  0.00000000000E+00  0.12701183377E+04  0.24207347332E+04  0.20607658908E+04 0.  0.
        1    1    3    3  502    0  0.28705640871E+03  0.68668664142E+03  0.14720932099E+04  0.16495448899E+04  0.50400001928E-02 0. -1.
       -1    1    3    3    0  502 -0.28705640871E+03 -0.68668664142E+03 -0.20197487219E+03  0.77118984323E+03  0.50400001928E-02 0.  1.
</event>
<event>
 5   0  0.1404159E-04  0.2380727E+04  0.7818609E-02  0.8446755E-01
       -2   -1    0    0    0  501  0.00000000000E+00  0.00000000000E+00  0.78263746607E+03  0.78263746607E+03  0.25500000920E-02 0.  1.
        2   -1    0    0  501    0  0.00000000000E+00  0.00000000000E+00 -0.18105000860E+04  0.18105000860E+04  0.25500000920E-02 0. -1.
    10030    2    1    2    0    0  0.00000000000E+00  0.00000000000E+00 -0.10278626199E+04  0.25931375520E+04  0.23807269475E+04 0.  0.
        5    1    3    3  502    0 -0.64266466043E+03  0.88879930992E+03 -0.10177604788E+04  0.14962755633E+04  0.46999998093E+01 0. -1.
       -5    1    3    3    0  502  0.64266466043E+03 -0.88879930992E+03 -0.10102141093E+02  0.10968619887E+04  0.46999998093E+01 0.  1.
</event>
<event>
 5   0  0.1311472E-04  0.2243671E+04  0.7818609E-02  0.8500468E-01
       -2   -1    0    0    0  501  0.00000000000E+00  0.00000000000E+00  0.13563343397E+04  0.13563343397E+04  0.25500000920E-02 0.  1.
        2   -1    0    0  501    0  0.00000000000E+00  0.00000000000E+00 -0.92787962205E+03  0.92787962205E+03  0.25500000920E-02 0. -1.
    10030    2    1    2    0    0  0.00000000000E+00  0.00000000000E+00  0.42845471768E+03  0.22842139618E+04  0.22436710940E+04 0.  0.
        4    1    3    3  502    0  0.27667440163E+03 -0.48561021341E+03 -0.77605030614E+03  0.95635855956E+03  0.12699999809E+01 0. -1.
       -4    1    3    3    0  502 -0.27667440163E+03  0.48561021341E+03  0.12045050238E+04  0.13278554022E+04  0.12699999809E+01 0.  1.
</event>
<event>
 5   0  0.6263558E-05  0.1642888E+04  0.7818609E-02  0.8794625E-01
        1   -1    0    0  501    0  0.00000000000E+00  0.00000000000E+00  0.69089268115E+03  0.69089268117E+03  0.50400001928E-02 0. -1.
       -1   -1    0    0    0  501  0.00000000000E+00  0.00000000000E+00 -0.97666415839E+03  0.97666415840E+03  0.50400001928E-02 0.  1.
    10030    2    1    2    0    0  0.00000000000E+00  0.00000000000E+00 -0.28577147723E+03  0.16675568396E+04  0.16428878464E+04 0.  0.
        3    1    3    3  502    0 -0.79019087953E+03 -0.14629773006E+03  0.29862218730E+02  0.80417436804E+03  0.10100000352E+00 0.  1.
       -3    1    3    3    0  502  0.79019087953E+03  0.14629773006E+03 -0.31563369596E+03  0.86338247153E+03  0.10100000352E+00 0. -1.
</event>
<event>
 5   0  0.6263558E-05  0.2230610E+04  0.7818609E-02  0.8505794E-01
       -1   -1    0    0    0  501  0.00000000000E+00  0.00000000000E+00  0.12341562630E+04  0.12341562630E+04  0.50400001928E-02 0.  1.
        1   -1    0    0  501    0  0.00000000000E+00  0.00000000000E+00 -0.10078994742E+04  0.10078994742E+04  0.50400001928E-02 0. -1.
    10030    2    1    2    0    0  0.00000000000E+00  0.00000000000E+00  0.22625678875E+03  0.22420557372E+04  0.22306101843E+04 0.  0.
        3    1    3    3  502    0  0.87312855458E+03  0.24986676383E+03  0.76384392753E+03  0.11866947494E+04  0.10100000352E+00 0.  1.
       -3    1    3    3    0  502 -0.87312855458E+03 -0.24986676383E+03 -0.53758713877E+03  0.10553609878E+04  0.10100000352E+00 0. -1.
</event>
<event>
 5   0  0.1252124E-04  0.2220155E+04  0.7818609E-02  0.8510086E-01
        2   -1    0    0  501    0  0.00000000000E+00  0.00000000000E+00  0.15125570375E+04  0.15125570375E+04  0.25500000920E-02 0. -1.
       -2   -1    0    0    0  501  0.00000000000E+00  0.00000000000E+00 -0.81469431016E+03  0.81469431016E+03  0.25500000920E-02 0.  1.
    10030    2    1    2    0    0  0.00000000000E+00  0.00000000000E+00  0.69786272731E+03  0.23272513476E+04  0.22201546002E+04 0.  0.
        3    1    3    3  502    0  0.56112427826E+03 -0.81050642966E+03  0.88393409075E+03  0.13240546119E+04  0.10100000352E+00 0. -1.
       -3    1    3    3    0  502 -0.56112427826E+03  0.81050642966E+03 -0.18607136344E+03  0.10031967358E+04  0.10100000352E+00 0.  1.
</event>
<event>
 5   0  0.1311472E-04  0.2095857E+04  0.7818609E-02  0.8563071E-01
        2   -1    0    0  501    0  0.00000000000E+00  0.00000000000E+00  0.12305612347E+04  0.12305612347E+04  0.25500000920E-02 0.  1.
       -2   -1    0    0    0  501  0.00000000000E+00  0.00000000000E+00 -0.89240113299E+03  0.89240113300E+03  0.25500000920E-02 0. -1.
    10030    2    1    2    0    0  0.00000000000E+00  0.00000000000E+00  0.33816010172E+03  0.21229623677E+04  0.20958570944E+04 0.  0.
        4    1    3    3  502    0  0.39891943929E+03 -0.23285956944E+03 -0.78371897208E+03  0.90971277787E+03  0.12699999809E+01 0. -1.
       -4    1    3    3    0  502 -0.39891943929E+03  0.23285956944E+03  0.11218790738E+04  0.12132495898E+04  0.12699999809E+01 0.  1.
</event>
<event>
 5   0  0.5849604E-05  0.2136933E+04  0.7818609E-02  0.8545146E-01
        1   -1    0    0  501    0  0.00000000000E+00  0.00000000000E+00  0.12443131132E+04  0.12443131132E+04  0.50400001928E-02 0.  1.
       -1   -1    0    0    0  501  0.00000000000E+00  0.00000000000E+00 -0.91747032183E+03  0.91747032184E+03  0.50400001928E-02 0. -1.
    10030    2    1    2    0    0  0.00000000000E+00  0.00000000000E+00  0.32684279138E+03  0.21617834351E+04  0.21369327106E+04 0.  0.
        2    1    3    3  502    0 -0.52557341556E+02 -0.14636671895E+03  0.12328023521E+04  0.12425727866E+04  0.25500000920E-02 0.  1.
       -2    1    3    3    0  502  0.52557341556E+02  0.14636671895E+03 -0.90595956074E+03  0.91921064847E+03  0.25500000920E-02 0. -1.
</event>
<event>
 5   0  0.5861816E-05  0.1569806E+04  0.7818609E-02  0.8839315E-01
        1   -1    0    0  501    0  0.00000000000E+00  0.00000000000E+00  0.43736910463E+03  0.43736910466E+03  0.50400001928E-02 0.  1.
       -1   -1    0    0    0  501  0.00000000000E+00  0.00000000000E+00 -0.14085883438E+04  0.14085883438E+04  0.50400001928E-02 0. -1.
    10030    2    1    2    0    0  0.00000000000E+00  0.00000000000E+00 -0.97121923914E+03  0.18459574484E+04  0.15698063865E+04 0.  0.
        1    1    3    3  502    0  0.55775103895E+03 -0.39206433180E+02  0.16215752977E+03  0.58216701241E+03  0.50400001928E-02 0.  1.
       -1    1    3    3    0  502 -0.55775103895E+03  0.39206433180E+02 -0.11333767689E+04  0.12637904360E+04  0.50400001928E-02 0. -1.
</event>
<event>
 5   0  0.5849604E-05  0.2209607E+04  0.7818609E-02  0.8514440E-01
        1   -1    0    0  501    0  0.00000000000E+00  0.00000000000E+00  0.13745400372E+04  0.13745400372E+04  0.50400001928E-02 0. -1.
       -1   -1    0    0    0  501  0.00000000000E+00  0.00000000000E+00 -0.88799975786E+03  0.88799975787E+03  0.50400001928E-02 0.  1.
    10030    2    1    2    0    0  0.00000000000E+00  0.00000000000E+00  0.48654027933E+03  0.22625397951E+04  0.22096074042E+04 0.  0.
        2    1    3    3  502    0  0.11630337284E+03  0.50401558344E+03  0.12428904879E+04  0.13462299016E+04  0.25500000920E-02 0. -1.
       -2    1    3    3    0  502 -0.11630337284E+03 -0.50401558344E+03 -0.75635020860E+03  0.91630989350E+03  0.25500000920E-02 0.  1.
</event>
<event>
 5   0  0.1311472E-04  0.2256543E+04  0.7818609E-02  0.8495255E-01
       -2   -1    0    0    0  501  0.00000000000E+00  0.00000000000E+00  0.10891000933E+04  0.10891000933E+04  0.25500000920E-02 0. -1.
        2   -1    0    0  501    0  0.00000000000E+00  0.00000000000E+00 -0.11688520777E+04  0.11688520777E+04  0.25500000920E-02 0.  1.
    10030    2    1    2    0    0  0.00000000000E+00  0.00000000000E+00 -0.79751984329E+02  0.22579521710E+04  0.22565432917E+04 0.  0.
        4    1    3    3  502    0  0.50168112807E+03  0.85031525140E+03 -0.58636285139E+03  0.11482782709E+04  0.12699999809E+01 0.  1.
       -4    1    3    3    0  502 -0.50168112807E+03 -0.85031525140E+03  0.50661086706E+03  0.11096739001E+04  0.12699999809E+01 0. -1.
</event>
<event>
 5   0  0.1311472E-04  0.2191380E+04  0.7818609E-02  0.8522024E-01
        2   -1    0    0  501    0  0.00000000000E+00  0.00000000000E+00  0.26243930687E+04  0.26243930687E+04  0.25500000920E-02 0. -1.
       -2   -1    0    0    0  501  0.00000000000E+00  0.00000000000E+00 -0.45745310619E+03  0.45745310620E+03  0.25500000920E-02 0.  1.
    10030    2    1    2    0    0  0.00000000000E+00  0.00000000000E+00  0.21669399625E+04  0.30818461749E+04  0.21913801689E+04 0.  0.
        4    1    3    3  502    0  0.55246694441E+03  0.54242664285E+03  0.21738114617E+04  0.23075754097E+04  0.12699999809E+01 0. -1.
       -4    1    3    3    0  502 -0.55246694441E+03 -0.54242664285E+03 -0.68714991327E+01  0.77427076526E+03  0.12699999809E+01 0.  1.
</event>
<event>
 5   0  0.1404159E-04  0.2203800E+04  0.7818609E-02  0.8516848E-01
        2   -1    0    0  501    0  0.00000000000E+00  0.00000000000E+00  0.22172636914E+04  0.22172636914E+04  0.25500000920E-02 0.  1.
       -2   -1    0    0    0  501  0.00000000000E+00  0.00000000000E+00 -0.54760458070E+03  0.54760458070E+03  0.25500000920E-02 0. -1.
    10030    2    1    2    0    0  0.00000000000E+00  0.00000000000E+00  0.16696591107E+04  0.27648682721E+04  0.22038001307E+04 0.  0.
        5    1    3    3  502    0  0.40024137731E+03 -0.10252134900E+04  0.90245893379E+03  0.14232744209E+04  0.46999998093E+01 0. -1.
       -5    1    3    3    0  502 -0.40024137731E+03  0.10252134900E+04  0.76720017695E+03  0.13415938512E+04  0.46999998093E+01 0.  1.
</event>
<event>
 5   0  0.6263558E-05  0.2162582E+04  0.7818609E-02  0.8534166E-01
        1   -1    0    0  501    0  0.00000000000E+00  0.00000000000E+00  0.97683612100E+03  0.97683612101E+03  0.50400001928E-02 0.  1.
       -1   -1    0    0    0  501  0.00000000000E+00  0.00000000000E+00 -0.11969151031E+04  0.11969151031E+04  0.50400001928E-02 0. -1.
    10030    2    1    2    0    0  0.00000000000E+00  0.00000000000E+00 -0.22007898212E+03  0.21737512241E+04  0.21625817039E+04 0.  0.
        3    1    3    3  502    0 -0.55695695754E+03 -0.89464574024E+03 -0.35335967212E+03  0.11115102884E+04  0.10100000352E+00 0.  1.
       -3    1    3    3    0  502  0.55695695754E+03  0.89464574024E+03  0.13328069001E+03  0.10622409358E+04  0.10100000352E+00 0. -1.
</event>
<event>
 5   0  0.5849604E-05  0.2160628E+04  0.7818609E-02  0.8534997E-01
       -1   -1    0    0    0  501  0.00000000000E+00  0.00000000000E+00  0.13353788315E+04  0.13353788315E+04  0.50400001928E-02 0. -1.
        1   -1    0    0  501    0  0.00000000000E+00  0.00000000000E+00 -0.87396758781E+03  0.87396758782E+03  0.50400001928E-02 0.  1.
    10030    2    1    2    0    0  0.00000000000E+00  0.00000000000E+00  0.46141124368E+03  0.22093464193E+04  0.21606275164E+04 0.  0.
        2    1    3    3  502    0 -0.97121828036E+03 -0.46466121660E+03  0.32160795103E+03  0.11236577186E+04  0.25500000920E-02 0.  1.
       -2    1    3    3    0  502  0.97121828036E+03  0.46466121660E+03  0.13980329265E+03  0.10856887008E+04  0.25500000920E-02 0. -1.
</event>
<event>
 5   0  0.1241430E-04  0.2202501E+04  0.7818609E-02  0.8517388E-01
       -2   -1    0    0    0  501  0.00000000000E+00  0.00000000000E+00  0.81857289026E+03  0.81857289026E+03  0.25500000920E-02 0.  1.
        2   -1    0    0  501    0  0.00000000000E+00  0.00000000000E+00 -0.14815446725E+04  0.14815446725E+04  0.25500000920E-02 0. -1.
    10030    2    1    2    0    0  0.00000000000E+00  0.00000000000E+00 -0.66297178228E+03  0.23001175628E+04  0.22025006739E+04 0.  0.
        1    1    3    3  502    0  0.62272822482E+03  0.57193181457E+03 -0.10683472739E+04  0.13624471880E+04  0.50400001928E-02 0. -1.
       -1    1    3    3    0  502 -0.62272822482E+03 -0.57193181457E+03  0.40537549162E+03  0.93767037477E+03  0.50400001928E-02 0.  1.
</event>
<event>
 5   0  0.5981239E-05  0.2182328E+04  0.7818609E-02  0.8525820E-01
       -1   -1    0    0    0  501  0.00000000000E+00  0.00000000000E+00  0.64571900801E+03  0.64571900803E+03  0.50400001928E-02 0. -1.
        1   -1    0    0  501    0  0.00000000000E+00  0.00000000000E+00 -0.18438970491E+04  0.18438970491E+04  0.50400001928E-02 0.  1.
    10030    2    1    2    0    0  0.00000000000E+00  0.00000000000E+00 -0.11981780411E+04  0.24896160571E+04  0.21823284569E+04 0.  0.
        4    1    3    3  502    0  0.28539596434E+03 -0.83769606196E+03  0.12911085513E+03  0.89434712193E+03  0.12699999809E+01 0. -1.
       -4    1    3    3    0  502 -0.28539596434E+03  0.83769606196E+03 -0.13272888962E+04  0.15952689352E+04  0.12699999809E+01 0.  1.
</event>
<event>
 5   0  0.1311472E-04  0.2047239E+04  0.7818609E-02  0.8584848E-01
        2   -1    0    0  501    0  0.00000000000E+00  0.00000000000E+00  0.10382675955E+04  0.10382675955E+04  0.25500000920E-02 0. -1.
       -2   -1    0    0    0  501  0.00000000000E+00  0.00000000000E+00 -0.10091780557E+04  0.10091780557E+04  0.25500000920E-02 0.  1.
    10030    2    1    2    0    0  0.00000000000E+00  0.00000000000E+00  0.29089539828E+02  0.20474456513E+04  0.20472389928E+04 0.  0.
        4    1    3    3  502    0 -0.54587800266E+03 -0.66888210231E+03  0.56451772959E+03  0.10315366889E+04  0.12699999809E+01 0. -1.
       -4    1    3    3    0  502  0.54587800266E+03  0.66888210231E+03 -0.53542818976E+03  0.10159089624E+04  0.12699999809E+01 0.  1.
</event>
<event>
 5   0  0.4586375E-05  0.2109652E+04  0.7818609E-02  0.8557004E-01
        3   -1    0    0  501    0  0.00000000000E+00  0.00000000000E+00  0.59730335040E+03  0.59730335894E+03  0.10100000352E+00 0.  1.
       -3   -1    0    0    0  501  0.00000000000E+00  0.00000000000E+00 -0.18628013588E+04  0.18628013616E+04  0.10100000352E+00 0. -1.
    10030    2    1    2    0    0  0.00000000000E+00  0.00000000000E+00 -0.12654980084E+04  0.24601047205E+04  0.21096516363E+04 0.  0.
        3    1    3    3  502    0  0.63555886399E+03 -0.64639051642E+03 -0.37991839229E+01  0.90651542365E+03  0.10100000352E+00 0.  1.
       -3    1    3    3    0  502 -0.63555886399E+03  0.64639051642E+03 -0.12616988245E+04  0.15535892968E+04  0.10100000352E+00 0. -1.
</event>
<event>
 5   0  0.1226021E-04  0.2221502E+04  0.7818609E-02  0.8509531E-01
        2   -1    0    0  501    0  0.00000000000E+00  0.00000000000E+00  0.18406868453E+04  0.18406868453E+04  0.25500000920E-02 0. -1.
       -2   -1    0    0    0  501  0.00000000000E+00  0.00000000000E+00 -0.67027575448E+03  0.67027575448E+03  0.25500000920E-02 0.  1.
    10030    2    1    2    0    0  0.00000000000E+00  0.00000000000E+00  0.11704110908E+04  0.25109625997E+04  0.22215019820E+04 0.  0.
        2    1    3    3  502    0 -0.11259498885E+03 -0.23148421138E+03  0.18065072109E+04  0.18247550177E+04  0.25500000920E-02 0. -1.
       -2    1    3    3    0  502  0.11259498885E+03  0.23148421138E+03 -0.63609612010E+03  0.68620758204E+03  0.25500000920E-02 0.  1.
</event>
<event>
 5   0  0.5981239E-05  0.2191253E+04  0.7818609E-02  0.8522078E-01
       -1   -1    0    0    0  501  0.00000000000E+00  0.00000000000E+00  0.10549827078E+04  0.10549827078E+04  0.50400001928E-02 0. -1.
        1   -1    0    0  501    0  0.00000000000E+00  0.00000000000E+00 -0.11378357477E+04  0.11378357477E+04  0.50400001928E-02 0.  1.
    10030    2    1    2    0    0  0.00000000000E+00  0.00000000000E+00 -0.82853039881E+02  0.21928184556E+04  0.21912526447E+04 0.  0.
        4    1    3    3  502    0 -0.86093052738E+02  0.10671715872E+04  0.19139444082E+03  0.10876123644E+04  0.12699999809E+01 0. -1.
       -4    1    3    3    0  502  0.86093052738E+02 -0.10671715872E+04 -0.27424748070E+03  0.11052060911E+04  0.12699999809E+01 0.  1.
</event>
<event>
 5   0  0.1311472E-04  0.2199517E+04  0.7818609E-02  0.8518629E-01
       -2   -1    0    0    0  501  0.00000000000E+00  0.00000000000E+00  0.74030212228E+03  0.74030212229E+03  0.25500000920E-02 0.  1.
        2   -1    0    0  501    0  0.00000000000E+00  0.00000000000E+00 -0.16337500901E+04  0.16337500901E+04  0.25500000920E-02 0. -1.
    10030    2    1    2    0    0  0.00000000000E+00  0.00000000000E+00 -0.89344796780E+03  0.23740522124E+04  0.21995169097E+04 0.  0.
        4    1    3    3  502    0 -0.60582214533E+03  0.91577394075E+03 -0.38014746232E+03  0.11619707777E+04  0.12699999809E+01 0. -1.
       -4    1    3    3    0  502  0.60582214533E+03 -0.91577394075E+03 -0.51330050548E+03  0.12120814346E+04  0.12699999809E+01 0.  1.
</event>
<event>
 5   0  0.6263558E-05  0.2194094E+04  0.7818609E-02  0.8520890E-01
       -1   -1    0    0    0  501  0.00000000000E+00  0.00000000000E+00  0.13185911715E+04  0.13185911715E+04  0.50400001928E-02 0.  1.
        1   -1    0    0  501    0  0.00000000000E+00  0.00000000000E+00 -0.91272597944E+03  0.91272597946E+03  0.50400001928E-02 0. -1.
    10030    2    1    2    0    0  0.00000000000E+00  0.00000000000E+00  0.40586519205E+03  0.22313171510E+04  0.21940942719E+04 0.  0.
        3    1    3    3  502    0 -0.43048867549E+03  0.10056750489E+04  0.28685288424E+03  0.11309232472E+04  0.10100000352E+00 0. -1.
       -3    1    3    3    0  502  0.43048867549E+03 -0.10056750489E+04  0.11901230781E+03  0.11003939037E+04  0.10100000352E+00 0.  1.
</event>
<event>
 5   0  0.1404159E-04  0.2023545E+04  0.7818609E-02  0.8595691E-01
        2   -1    0    0  501    0  0.00000000000E+00  0.00000000000E+00  0.75284127435E+03  0.75284127436E+03  0.25500000920E-02 0. -1.
       -2   -1    0    0    0  501  0.00000000000E+00  0.00000000000E+00 -0.13597607884E+04  0.13597607884E+04  0.25500000920E-02 0.  1.
    10030    2    1    2    0    0  0.00000000000E+00  0.00000000000E+00 -0.60691951409E+03  0.21126020628E+04  0.20235454478E+04 0.  0.
        5    1    3    3  502    0  0.40426967274E+03  0.58357936851E+03  0.44914278259E+03  0.84008938620E+03  0.46999998093E+01 0. -1.
       -5    1    3    3    0  502 -0.40426967274E+03 -0.58357936851E+03 -0.10560622967E+04  0.12725126766E+04  0.46999998093E+01 0.  1.
</event>
<event>
 5   0  0.1404159E-04  0.2200973E+04  0.7818609E-02  0.8518023E-01
       -2   -1    0    0    0  501  0.00000000000E+00  0.00000000000E+00  0.50751048758E+03  0.50751048758E+03  0.25500000920E-02 0.  1.
        2   -1    0    0  501    0  0.00000000000E+00  0.00000000000E+00 -0.23862956208E+04  0.23862956208E+04  0.25500000920E-02 0. -1.
    10030    2    1    2    0    0  0.00000000000E+00  0.00000000000E+00 -0.18787851332E+04  0.28938061084E+04  0.22009725614E+04 0.  0.
        5    1    3    3  502    0  0.45880009468E+02 -0.23298548398E+02  0.50591470871E+03  0.50854653682E+03  0.46999998093E+01 0.  1.
       -5    1    3    3    0  502 -0.45880009468E+02  0.23298548398E+02 -0.23846998419E+04  0.23852595716E+04  0.46999998093E+01 0. -1.
</event>
<event>
 5   0  0.1241430E-04  0.2024985E+04  0.7818609E-02  0.8595028E-01
        2   -1    0    0  501    0  0.00000000000E+00  0.00000000000E+00  0.15453395220E+04  0.15453395220E+04  0.25500000920E-02 0. -1.
       -2   -1    0    0    0  501  0.00000000000E+00  0.00000000000E+00 -0.66337573793E+03  0.66337573794E+03  0.25500000920E-02 0.  1.
    10030    2    1    2    0    0  0.00000000000E+00  0.00000000000E+00  0.88196378408E+03  0.22087152600E+04  0.20249846871E+04 0.  0.
        1    1    3    3  502    0 -0.52815391746E+02  0.22705271211E+03 -0.63370636184E+03  0.67522303926E+03  0.50400001928E-02 0.  1.
       -1    1    3    3    0  502  0.52815391746E+02 -0.22705271211E+03  0.15156701459E+04  0.15334922207E+04  0.50400001928E-02 0. -1.
</event>
<event>
 5   0  0.5849604E-05  0.2171274E+04  0.7818609E-02  0.8530481E-01
       -1   -1    0    0    0  501  0.00000000000E+00  0.00000000000E+00  0.13192811778E+04  0.13192811778E+04  0.50400001928E-02 0. -1.
        1   -1    0    0  501    0  0.00000000000E+00  0.00000000000E+00 -0.89337077086E+03  0.89337077088E+03  0.50400001928E-02 0.  1.
    10030    2    1    2    0    0  0.00000000000E+00  0.00000000000E+00  0.42591040696E+03  0.22126519487E+04  0.21712735828E+04 0.  0.
        2    1    3    3  502    0  0.66003735681E+03  0.85218559044E+03  0.81115628020E+02  0.10809483512E+04  0.25500000920E-02 0.  1.
       -2    1    3    3    0  502 -0.66003735681E+03 -0.85218559044E+03  0.34479477894E+03  0.11317035975E+04  0.25500000920E-02 0. -1.
</event>
<event>
 5   0  0.6263558E-05  0.2251550E+04  0.7818609E-02  0.8497273E-01
       -1   -1    0    0    0  501  0.00000000000E+00  0.00000000000E+00  0.88939470255E+03  0.88939470257E+03  0.50400001928E-02 0.  1.
        1   -1    0    0  501    0  0.00000000000E+00  0.00000000000E+00 -0.14249797150E+04  0.14249797150E+04  0.50400001928E-02 0. -1.
    10030    2    1    2    0    0  0.00000000000E+00  0.00000000000E+00 -0.53558501244E+03  0.23143744176E+04  0.22515500526E+04 0.  0.
        3    1    3    3  502    0  0.22100101167E+03 -0.50515978313E+03  0.74109364232E+03  0.92371405236E+03  0.10100000352E+00 0.  1.
       -3    1    3    3    0  502 -0.22100101167E+03  0.50515978313E+03 -0.12766786548E+04  0.13906603652E+04  0.10100000352E+00 0. -1.
</event>
<event>
 5   0  0.5861816E-05  0.2251502E+04  0.7818609E-02  0.8497293E-01
       -1   -1    0    0    0  501  0.00000000000E+00  0.00000000000E+00  0.84267391356E+03  0.84267391357E+03  0.50400001928E-02 0.  1.
        1   -1    0    0  501    0  0.00000000000E+00  0.00000000000E+00 -0.15039210305E+04  0.15039210305E+04  0.50400001928E-02 0. -1.
    10030    2    1    2    0    0  0.00000000000E+00  0.00000000000E+00 -0.66124711692E+03  0.23465949441E+04  0.22515017393E+04 0.  0.
        1    1    3    3  502    0 -0.74030235401E+03 -0.80289138978E+03 -0.45895091446E+02  0.10930638218E+04  0.50400001928E-02 0.  1.
       -1    1    3    3    0  502  0.74030235401E+03  0.80289138978E+03 -0.61535202547E+03  0.12535311222E+04  0.50400001928E-02 0. -1.
</event>
<event>
 5   0  0.1311472E-04  0.2177512E+04  0.7818609E-02  0.8527847E-01
        2   -1    0    0  501    0  0.00000000000E+00  0.00000000000E+00  0.85926025838E+03  0.85926025838E+03  0.25500000920E-02 0.  1.
       -2   -1    0    0    0  501  0.00000000000E+00  0.00000000000E+00 -0.13795462201E+04  0.13795462201E+04  0.25500000920E-02 0. -1.
    10030    2    1    2    0    0  0.00000000000E+00  0.00000000000E+00 -0.52028596167E+03  0.22388064784E+04  0.21775116454E+04 0.  0.
        4    1    3    3  502    0 -0.19000179489E+03 -0.61878553226E+03 -0.11602235437E+04  0.13285768707E+04  0.12699999809E+01 0. -1.
       -4    1    3    3    0  502  0.19000179489E+03  0.61878553226E+03  0.63993758205E+03  0.91022960775E+03  0.12699999809E+01 0.  1.
</event>
<event>
 5   0  0.5895063E-05  0.2286857E+04  0.7818609E-02  0.8483121E-01
       -1   -1    0    0    0  501  0.00000000000E+00  0.00000000000E+00  0.56574694176E+03  0.56574694179E+03  0.50400001928E-02 0. -1.
        1   -1    0    0  501    0  0.00000000000E+00  0.00000000000E+00 -0.23109786564E+04  0.23109786564E+04  0.50400001928E-02 0.  1.
    10030    2    1    2    0    0  0.00000000000E+00  0.00000000000E+00 -0.17452317147E+04  0.28767255982E+04  0.22868573260E+04 0.  0.
        5    1    3    3  502    0  0.98000813876E+03 -0.58882128204E+03 -0.89368635045E+03  0.14511456981E+04  0.46999998093E+01 0.  1.
       -5    1    3    3    0  502 -0.98000813876E+03  0.58882128204E+03 -0.85154536422E+03  0.14255799001E+04  0.46999998093E+01 0. -1.
</event>
<event>
 5   0  0.5981239E-05  0.2194403E+04  0.7818609E-02  0.8520761E-01
        1   -1    0    0  501    0  0.00000000000E+00  0.00000000000E+00  0.28064122354E+04  0.28064122354E+04  0.50400001928E-02 0. -1.
       -1   -1    0    0    0  501  0.00000000000E+00  0.00000000000E+00 -0.42896430241E+03  0.42896430244E+03  0.50400001928E-02 0.  1.
    10030    2    1    2    0    0  0.00000000000E+00  0.00000000000E+00  0.23774479330E+04  0.32353765378E+04  0.21944025764E+04 0.  0.
        4    1    3    3  502    0 -0.57768155362E+03  0.76447621842E+03  0.40064337730E+03  0.10385839372E+04  0.12699999809E+01 0.  1.
       -4    1    3    3    0  502  0.57768155362E+03 -0.76447621842E+03  0.19768045557E+04  0.21967926006E+04  0.12699999809E+01 0. -1.
</event>
<event>
 5   0  0.5849604E-05  0.2199502E+04  0.7818609E-02  0.8518635E-01
        1   -1    0    0  501    0  0.00000000000E+00  0.00000000000E+00  0.17529443825E+04  0.17529443825E+04  0.50400001928E-02 0.  1.
       -1   -1    0    0    0  501  0.00000000000E+00  0.00000000000E+00 -0.68995468699E+03  0.68995468700E+03  0.50400001928E-02 0. -1.
    10030    2    1    2    0    0  0.00000000000E+00  0.00000000000E+00  0.10629896955E+04  0.24428990695E+04  0.21995019371E+04 0.  0.
        2    1    3    3  502    0 -0.46346189955E+03 -0.89809159732E+03  0.49813012812E+02  0.10118531444E+04  0.25500000920E-02 0. -1.
       -2    1    3    3    0  502  0.46346189955E+03  0.89809159732E+03  0.10131766827E+04  0.14310459252E+04  0.25500000920E-02 0.  1.
</event>
<event>
 5   0  0.1252124E-04  0.2182733E+04  0.7818609E-02  0.8525650E-01
       -2   -1    0    0    0  501  0.00000000000E+00  0.00000000000E+00  0.60026803616E+03  0.60026803616E+03  0.25500000920E-02 0. -1.
        2   -1    0    0  501    0  0.00000000000E+00  0.00000000000E+00 -0.19842475998E+04  0.19842475998E+04  0.25500000920E-02 0.  1.
    10030    2    1    2    0    0  0.00000000000E+00  0.00000000000E+00 -0.13839795636E+04  0.25845156360E+04  0.21827326084E+04 0.  0.
        3    1    3    3  502    0  0.77011344357E+03  0.30450809811E+03  0.14968612835E+03  0.84154966877E+03  0.10100000352E+00 0. -1.
       -3    1    3    3    0  502 -0.77011344357E+03 -0.30450809811E+03 -0.15336656920E+04  0.17429659672E+04  0.10100000352E+00 0.  1.
</event>
<event>
 5   0  0.1311472E-04  0.2211326E+04  0.7818609E-02  0.8513729E-01
       -2   -1    0    0    0  501  0.00000000000E+00  0.00000000000E+00  0.12059746892E+04  0.12059746892E+04  0.25500000920E-02 0. -1.
        2   -1    0    0  501    0  0.00000000000E+00  0.00000000000E+00 -0.10136947005E+04  0.10136947005E+04  0.25500000920E-02 0.  1.
    10030    2    1    2    0    0  0.00000000000E+00  0.00000000000E+00  0.19227998871E+03  0.22196693896E+04  0.22113255313E+04 0.  0.
        4    1    3    3  502    0 -0.61691920313E+03  0.14485403329E+01 -0.82487166708E+03  0.10300515917E+04  0.12699999809E+01 0.  1.
       -4    1    3    3    0  502  0.61691920313E+03 -0.14485403329E+01  0.10171516558E+04  0.11896177980E+04  0.12699999809E+01 0. -1.
</event>
<event>
 5   0  0.1241430E-04  0.2238136E+04  0.7818609E-02  0.8502720E-01
        2   -1    0    0  501    0  0.00000000000E+00  0.00000000000E+00  0.87409493244E+03  0.87409493245E+03  0.25500000920E-02 0.  1.
       -2   -1    0    0    0  501  0.00000000000E+00  0.00000000000E+00 -0.14326975644E+04  0.14326975644E+04  0.25500000920E-02 0. -1.
    10030    2    1    2    0    0  0.00000000000E+00  0.00000000000E+00 -0.55860263191E+03  0.23067924968E+04  0.22381364397E+04 0.  0.
        1    1    3    3  502    0 -0.76740316211E+03 -0.47569011511E+03 -0.96073686434E+03  0.13184096561E+04  0.50400001928E-02 0. -1.
       -1    1    3    3    0  502  0.76740316211E+03  0.47569011511E+03  0.40213423243E+03  0.98838284068E+03  0.50400001928E-02 0.  1.
</event>
<event>
 5   0  0.1252124E-04  0.2221571E+04  0.7818609E-02  0.8509503E-01
       -2   -1    0    0    0  501  0.00000000000E+00  0.00000000000E+00  0.11175840019E+04  0.11175840019E+04  0.25500000920E-02 0.  1.
        2   -1    0    0  501    0  0.00000000000E+00  0.00000000000E+00 -0.11040280361E+04  0.11040280362E+04  0.25500000920E-02 0. -1.
    10030    2    1    2    0    0  0.00000000000E+00  0.00000000000E+00  0.13555965788E+02  0.22216120381E+04  0.22215706794E+04 0.  0.
        3    1    3    3  502    0 -0.23762728004E+03 -0.32443181455E+03 -0.10286742148E+04  0.11044878346E+04  0.10100000352E+00 0. -1.
       -3    1    3    3    0  502  0.23762728004E+03  0.32443181455E+03  0.10422301806E+04  0.11171242035E+04  0.10100000352E+00 0.  1.
</event>
<event>
 5   0  0.5895063E-05  0.2027088E+04  0.7818609E-02  0.8594060E-01
       -1   -1    0    0    0  501  0.00000000000E+00  0.00000000000E+00  0.60803274060E+03  0.60803274063E+03  0.50400001928E-02 0.  1.
        1   -1    0    0  501    0  0.00000000000E+00  0.00000000000E+00 -0.16895001781E+04  0.16895001781E+04  0.50400001928E-02 0. -1.
    10030    2    1    2    0    0  0.00000000000E+00  0.00000000000E+00 -0.10814674375E+04  0.22975329187E+04  0.20270879839E+04 0.  0.
        5    1    3    3  502    0 -0.68118126037E+02 -0.99667547136E+02 -0.16813099678E+04  0.16856449795E+04  0.46999998093E+01 0. -1.
       -5    1    3    3    0  502  0.68118126037E+02  0.99667547136E+02  0.59984253030E+03  0.61188793925E+03  0.46999998093E+01 0.  1.
</event>
<event>
 5   0  0.5981239E-05  0.2175546E+04  0.7818609E-02  0.8528676E-01
        1   -1    0    0  501    0  0.00000000000E+00  0.00000000000E+00  0.12810330537E+04  0.12810330537E+04  0.50400001928E-02 0.  1.
       -1   -1    0    0    0  501  0.00000000000E+00  0.00000000000E+00 -0.92366850648E+03  0.92366850649E+03  0.50400001928E-02 0. -1.
    10030    2    1    2    0    0  0.00000000000E+00  0.00000000000E+00  0.35736454726E+03  0.22047015602E+04  0.21755458051E+04 0.  0.
        4    1    3    3  502    0 -0.81620298402E+03 -0.37156433097E+03 -0.44519864801E+03  0.10012246562E+04  0.12699999809E+01 0. -1.
       -4    1    3    3    0  502  0.81620298402E+03  0.37156433097E+03  0.80256319527E+03  0.12034769040E+04  0.12699999809E+01 0.  1.
</event>
<event>
 5   0  0.5895063E-05  0.2223576E+04  0.7818609E-02  0.8508679E-01
       -1   -1    0    0    0  501  0.00000000000E+00  0.00000000000E+00  0.11784921938E+04  0.11784921938E+04  0.50400001928E-02 0.  1.
        1   -1    0    0  501    0  0.00000000000E+00  0.00000000000E+00 -0.10488596682E+04  0.10488596682E+04  0.50400001928E-02 0. -1.
    10030    2    1    2    0    0  0.00000000000E+00  0.00000000000E+00  0.12963252564E+03  0.22273518620E+04  0.22235763368E+04 0.  0.
        5    1    3    3  502    0 -0.26585147230E+03 -0.10421666170E+04  0.34683040276E+03  0.11300892359E+04  0.46999998093E+01 0.  1.
       -5    1    3    3    0  502  0.26585147230E+03  0.10421666170E+04 -0.21719787712E+03  0.10972626261E+04  0.46999998093E+01 0. -1.
</event>
<event>
 5   0  0.5861816E-05  0.2348035E+04  0.7818609E-02  0.8459219E-01
        1   -1    0    0  501    0  0.00000000000E+00  0.00000000000E+00  0.10111700067E+04  0.10111700067E+04  0.50400001928E-02 0.  1.
       -1   -1    0    0    0  501  0.00000000000E+00  0.00000000000E+00 -0.13630908879E+04  0.13630908879E+04  0.50400001928E-02 0. -1.
    10030    2    1    2    0    0  0.00000000000E+00  0.00000000000E+00 -0.35192088117E+03  0.23742608946E+04  0.23480346013E+04 0.  0.
        1    1    3    3  502    0 -0.67250287933E+03  0.74399345519E+03  0.44120942401E+03  0.10956514683E+04  0.50400001928E-02 0.  1.
       -1    1    3    3    0  502  0.67250287933E+03 -0.74399345519E+03 -0.79313030518E+03  0.12786094263E+04  0.50400001928E-02 0. -1.
</event>
<event>
 5   0  0.1311472E-04  0.2168687E+04  0.7818609E-02  0.8531575E-01
       -2   -1    0    0    0  501  0.00000000000E+00  0.00000000000E+00  0.10070937625E+04  0.10070937626E+04  0.25500000920E-02 0.  1.
        2   -1    0    0  501    0  0.00000000000E+00  0.00000000000E+00 -0.11675185844E+04  0.11675185844E+04  0.25500000920E-02 0. -1.
    10030    2    1    2    0    0  0.00000000000E+00  0.00000000000E+00 -0.16042482183E+03  0.21746123469E+04  0.21686868691E+04 0.  0.
        4    1    3    3  502    0 -0.77989624384E+03 -0.50051622134E+03  0.48439303770E+03  0.10456542769E+04  0.12699999809E+01 0. -1.
       -4    1    3    3    0  502  0.77989624384E+03  0.50051622134E+03 -0.64481785953E+03  0.11289580700E+04  0.12699999809E+01 0.  1.
</event>
<event>
 5   0  0.1241430E-04  0.2158455E+04  0.7818609E-02  0.8535922E-01
       -2   -1    0    0    0  501  0.00000000000E+00  0.00000000000E+00  0.71593178695E+03  0.71593178696E+03  0.25500000920E-02 0. -1.
        2   -1    0    0  501    0  0.00000000000E+00  0.00000000000E+00 -0.16268759567E+04  0.16268759567E+04  0.25500000920E-02 0.  1.
    10030    2    1    2    0    0  0.00000000000E+00  0.00000000000E+00 -0.91094416979E+03  0.23428077437E+04  0.21584551984E+04 0.  0.
        1    1    3    3  502    0 -0.35850983407E+03 -0.82181451305E+03  0.19651832781E+03  0.91789315728E+03  0.50400001928E-02 0.  1.
       -1    1    3    3    0  502  0.35850983407E+03  0.82181451305E+03 -0.11074624976E+04  0.14249145864E+04  0.50400001928E-02 0. -1.
</event>
<event>
 5   0  0.1226021E-04  0.2183576E+04  0.7818609E-02  0.8525295E-01
       -2   -1    0    0    0  501  0.00000000000E+00  0.00000000000E+00  0.12505955621E+04  0.12505955621E+04  0.25500000920E-02 0.  1.
        2   -1    0    0  501    0  0.00000000000E+00  0.00000000000E+00 -0.95314698906E+03  0.95314698906E+03  0.25500000920E-02 0. -1.
    10030    2    1    2    0    0  0.00000000000E+00  0.00000000000E+00  0.29744857306E+03  0.22037425512E+04  0.21835763276E+04 0.  0.
        2    1    3    3  502    0  0.31361664970E+03 -0.10416773099E+04  0.24206832478E+03  0.11144703203E+04  0.25500000920E-02 0.  1.
       -2    1    3    3    0  502 -0.31361664970E+03  0.10416773099E+04  0.55380248283E+02  0.10892722309E+04  0.25500000920E-02 0. -1.
</event>
<event>
 5   0  0.6263558E-05  0.2364226E+04  0.7818609E-02  0.8453020E-01
        1   -1    0    0  501    0  0.00000000000E+00  0.00000000000E+00  0.10724734701E+04  0.10724734701E+04  0.50400001928E-02 0.  1.
       -1   -1    0    0    0  501  0.00000000000E+00  0.00000000000E+00 -0.13029605100E+04  0.13029605100E+04  0.50400001928E-02 0. -1.
    10030    2    1    2    0    0  0.00000000000E+00  0.00000000000E+00 -0.23048703996E+03  0.23754339801E+04  0.23642255219E+04 0.  0.
        3    1    3    3  502    0  0.33234290804E+03  0.80186361152E+03 -0.92151504210E+03  0.12659490681E+04  0.10100000352E+00 0. -1.
       -3    1    3    3    0  502 -0.33234290804E+03 -0.80186361152E+03  0.69102800214E+03  0.11094849120E+04  0.10100000352E+00 0.  1.
</event>
<event>
 5   0  0.1252124E-04  0.2187780E+04  0.7818609E-02  0.8523532E-01
       -2   -1    0    0    0  501  0.00000000000E+00  0.00000000000E+00  0.62781497064E+03  0.62781497065E+03  0.25500000920E-02 0.  1.
        2   -1    0    0  501    0  0.00000000000E+00  0.00000000000E+00 -0.19059675420E+04  0.19059675420E+04  0.25500000920E-02 0. -1.
    10030    2    1    2    0    0  0.00000000000E+00  0.00000000000E+00 -0.12781525714E+04  0.25337825127E+04  0.21877796566E+04 0.  0.
        3    1    3    3  502    0  0.23841458911E+03  0.28425674264E+03  0.55272485498E+03  0.66569376409E+03  0.10100000352E+00 0.  1.
       -3    1    3    3    0  502 -0.23841458911E+03 -0.28425674264E+03 -0.18308774264E+04  0.18680887486E+04  0.10100000352E+00 0. -1.
</event>
<event>
 5   0  0.1404159E-04  0.2234743E+04  0.7818609E-02  0.8504105E-01
        2   -1    0    0  501    0  0.00000000000E+00  0.00000000000E+00  0.16234712547E+04  0.16234712547E+04  0.25500000920E-02 0.  1.
       -2   -1    0    0    0  501  0.00000000000E+00  0.00000000000E+00 -0.76904304020E+03  0.76904304020E+03  0.25500000920E-02 0. -1.
    10030    2    1    2    0    0  0.00000000000E+00  0.00000000000E+00  0.85442821449E+03  0.23925142949E+04  0.22347431793E+04 0.  0.
        5    1    3    3  502    0 -0.13976925146E+03  0.96533734860E+03  0.10107501383E+04  0.14046528299E+04  0.46999998093E+01 0.  1.
       -5    1    3    3    0  502  0.13976925146E+03 -0.96533734860E+03 -0.15632192386E+03  0.98786146505E+03  0.46999998093E+01 0. -1.
</event>
<event>
 5   0  0.1241430E-04  0.1503864E+04  0.7818609E-02  0.8881888E-01
       -2   -1    0    0    0  501  0.00000000000E+00  0.00000000000E+00  0.46831417852E+03  0.46831417853E+03  0.25500000920E-02 0. -1.
        2   -1    0    0  501    0  0.00000000000E+00  0.00000000000E+00 -0.12073124725E+04  0.12073124725E+04  0.25500000920E-02 0.  1.
    10030    2    1    2    0    0  0.00000000000E+00  0.00000000000E+00 -0.73899829400E+03  0.16756266511E+04  0.15038637555E+04 0.  0.
        1    1    3    3  502    0  0.27467486702E+03  0.42237475886E+03  0.25242298260E+03  0.56352824389E+03  0.50400001928E-02 0. -1.
       -1    1    3    3    0  502 -0.27467486702E+03 -0.42237475886E+03 -0.99142127660E+03  0.11120984072E+04  0.50400001928E-02 0.  1.
</event>
<event>
 5   0  0.6263558E-05  0.2184795E+04  0.7818609E-02  0.8524783E-01
       -1   -1    0    0    0  501  0.00000000000E+00  0.00000000000E+00  0.11574634581E+04  0.11574634581E+04  0.50400001928E-02 0.  1.
        1   -1    0    0  501    0  0.00000000000E+00  0.00000000000E+00 -0.10309896388E+04  0.10309896388E+04  0.50400001928E-02 0. -1.
    10030    2    1    2    0    0  0.00000000000E+00  0.00000000000E+00  0.12647381936E+03  0.21884530969E+04  0.21847954893E+04 0.  0.
        3    1    3    3  502    0  0.77554442800E+03  0.60928036221E+03 -0.40727396170E+03  0.10670350555E+04  0.10100000352E+00 0. -1.
       -3    1    3    3    0  502 -0.77554442800E+03 -0.60928036221E+03  0.53374778106E+03  0.11214180414E+04  0.10100000352E+00 0.  1.
</event>
<event>
 5   0  0.5981239E-05  0.2152019E+04  0.7818609E-02  0.8538669E-01
       -1   -1    0    0    0  501  0.00000000000E+00  0.00000000000E+00  0.53538626808E+03  0.53538626810E+03  0.50400001928E-02 0.  1.
        1   -1    0    0  501    0  0.00000000000E+00  0.00000000000E+00 -0.21625436705E+04  0.21625436705E+04  0.50400001928E-02 0. -1.
    10030    2    1    2    0    0  0.00000000000E+00  0.00000000000E+00 -0.16271574024E+04  0.26979299386E+04  0.21520187595E+04 0.  0.
        4    1    3    3  502    0 -0.18711162853E+03 -0.35423148703E+03  0.43840410776E+03  0.59387749791E+03  0.12699999809E+01 0.  1.
       -4    1    3    3    0  502  0.18711162853E+03  0.35423148703E+03 -0.20655615101E+04  0.21040524407E+04  0.12699999809E+01 0. -1.
</event>
<event>
 5   0  0.6263558E-05  0.2186135E+04  0.7818609E-02  0.8524221E-01
        1   -1    0    0  501    0  0.00000000000E+00  0.00000000000E+00  0.11473634735E+04  0.11473634735E+04  0.50400001928E-02 0.  1.
       -1   -1    0    0    0  501  0.00000000000E+00  0.00000000000E+00 -0.10413406027E+04  0.10413406027E+04  0.50400001928E-02 0. -1.
    10030    2    1    2    0    0  0.00000000000E+00  0.00000000000E+00  0.10602287081E+03  0.21887040762E+04  0.21861346445E+04 0.  0.
        3    1    3    3  502    0 -0.82380916952E+03  0.70029772406E+03  0.21356734426E+03  0.11021295164E+04  0.10100000352E+00 0. -1.
       -3    1    3    3    0  502  0.82380916952E+03 -0.70029772406E+03 -0.10754447345E+03  0.10865745598E+04  0.10100000352E+00 0.  1.
</event>
<event>
 5   0  0.1311472E-04  0.2201815E+04  0.7818609E-02  0.8517673E-01
        2   -1    0    0  501    0  0.00000000000E+00  0.00000000000E+00  0.93948240525E+03  0.93948240525E+03  0.25500000920E-02 0.  1.
       -2   -1    0    0    0  501  0.00000000000E+00  0.00000000000E+00 -0.12900695946E+04  0.12900695946E+04  0.25500000920E-02 0. -1.
    10030    2    1    2    0    0  0.00000000000E+00  0.00000000000E+00 -0.35058718940E+03  0.22295519999E+04  0.22018153290E+04 0.  0.
        4    1    3    3  502    0 -0.11557366987E+03 -0.10846651030E+04 -0.32596456460E+03  0.11384683435E+04  0.12699999809E+01 0. -1.
       -4    1    3    3    0  502  0.11557366987E+03  0.10846651030E+04 -0.24622624795E+02  0.10910836564E+04  0.12699999809E+01 0.  1.
</event>
<event>
 5   0  0.1404159E-04  0.2146493E+04  0.7818609E-02  0.8541035E-01
       -2   -1    0    0    0  501  0.00000000000E+00  0.00000000000E+00  0.10106495190E+04  0.10106495190E+04  0.25500000920E-02 0. -1.
        2   -1    0    0  501    0  0.00000000000E+00  0.00000000000E+00 -0.11397201351E+04  0.11397201351E+04  0.25500000920E-02 0.  1.
    10030    2    1    2    0    0  0.00000000000E+00  0.00000000000E+00 -0.12907061611E+03  0.21503696541E+04  0.21464925868E+04 0.  0.
        5    1    3    3  502    0  0.12477812712E+03  0.10579275833E+04 -0.19536661450E+03  0.10830376524E+04  0.46999998093E+01 0.  1.
       -5    1    3    3    0  502 -0.12477812712E+03 -0.10579275833E+04  0.66295998389E+02  0.10673320017E+04  0.46999998093E+01 0. -1.
</event>
<event>
 5   0  0.1226021E-04  0.1608327E+04  0.7818609E-02  0.8815449E-01
        2   -1    0    0  501    0  0.00000000000E+00  0.00000000000E+00  0.14505394092E+04  0.14505394092E+04  0.25500000920E-02 0.  1.
       -2   -1    0    0    0  501  0.00000000000E+00  0.00000000000E+00 -0.44581977179E+03  0.44581977180E+03  0.25500000920E-02 0. -1.
    10030    2    1    2    0    0  0.00000000000E+00  0.00000000000E+00  0.10047196374E+04  0.18963591810E+04  0.16083272657E+04 0.  0.
        2    1    3    3  502    0  0.49329830617E+03  0.60457060307E+03  0.27302702835E+03  0.82667562634E+03  0.25500000920E-02 0. -1.
       -2    1    3    3    0  502 -0.49329830617E+03 -0.60457060307E+03  0.73169260908E+03  0.10696835547E+04  0.25500000920E-02 0.  1.
</event>
<event>
 5   0  0.1252124E-04  0.2140068E+04  0.7818609E-02  0.8543796E-01
       -2   -1    0    0    0  501  0.00000000000E+00  0.00000000000E+00  0.10723998191E+04  0.10723998191E+04  0.25500000920E-02 0.  1.
        2   -1    0    0  501    0  0.00000000000E+00  0.00000000000E+00 -0.10676731992E+04  0.10676731992E+04  0.25500000920E-02 0. -1.
    10030    2    1    2    0    0  0.00000000000E+00  0.00000000000E+00  0.47266199002E+01  0.21400730182E+04  0.21400677986E+04 0.  0.
        3    1    3    3  502    0  0.83505890662E+03  0.10794429880E+03  0.66266575055E+03  0.10714948699E+04  0.10100000352E+00 0.  1.
       -3    1    3    3    0  502 -0.83505890662E+03 -0.10794429880E+03 -0.65793913065E+03  0.10685781483E+04  0.10100000352E+00 0. -1.
</event>
<event>
 5   0  0.1226021E-04  0.2178617E+04  0.7818609E-02  0.8527381E-01
       -2   -1    0    0    0  501  0.00000000000E+00  0.00000000000E+00  0.42399165861E+03  0.42399165861E+03  0.25500000920E-02 0. -1.
        2   -1    0    0  501    0  0.00000000000E+00  0.00000000000E+00 -0.27986236717E+04  0.27986236717E+04  0.25500000920E-02 0.  1.
    10030    2    1    2    0    0  0.00000000000E+00  0.00000000000E+00 -0.23746320131E+04  0.32226153303E+04  0.21786170773E+04 0.  0.
        2    1    3    3  502    0  0.21061175192E+03  0.10321868327E+04 -0.15973142809E+04  0.19134209886E+04  0.25500000920E-02 0.  1.
       -2    1    3    3    0  502 -0.21061175192E+03 -0.10321868327E+04 -0.77731773221E+03  0.13091943417E+04  0.25500000920E-02 0. -1.
</event>
<event>
 5   0  0.1252124E-04  0.2167518E+04  0.7818609E-02  0.8532071E-01
        2   -1    0    0  501    0  0.00000000000E+00  0.00000000000E+00  0.10331836150E+04  0.10331836150E+04  0.25500000920E-02 0. -1.
       -2   -1    0    0    0  501  0.00000000000E+00  0.00000000000E+00 -0.11368101046E+04  0.11368101046E+04  0.25500000920E-02 0.  1.
    10030    2    1    2    0    0  0.00000000000E+00  0.00000000000E+00 -0.10362648958E+03  0.21699937195E+04  0.21675180030E+04 0.  0.
        3    1    3    3  502    0  0.93705216337E+01 -0.94902216475E+02 -0.11326014533E+04  0.11366091234E+04  0.10100000352E+00 0.  1.
       -3    1    3    3    0  502 -0.93705216337E+01  0.94902216475E+02  0.10289749637E+04  0.10333845961E+04  0.10100000352E+00 0. -1.
</event>
<event>
 5   0  0.1252124E-04  0.2186629E+04  0.7818609E-02  0.8524014E-01
       -2   -1    0    0    0  501  0.00000000000E+00  0.00000000000E+00  0.49705242732E+03  0.49705242733E+03  0.25500000920E-02 0.  1.
        2   -1    0    0  501    0  0.00000000000E+00  0.00000000000E+00 -0.24048503670E+04  0.24048503670E+04  0.25500000920E-02 0. -1.
    10030    2    1    2    0    0  0.00000000000E+00  0.00000000000E+00 -0.19077979397E+04  0.29019027944E+04  0.21866291065E+04 0.  0.
        3    1    3    3  502    0  0.30215052207E+03 -0.56493058968E+03  0.22184719441E+03  0.67798060224E+03  0.10100000352E+00 0.  1.
       -3    1    3    3    0  502 -0.30215052207E+03  0.56493058968E+03 -0.21296451341E+04  0.22239221921E+04  0.10100000352E+00 0. -1.
</event>
<event>
 5   0  0.1226021E-04  0.2235066E+04  0.7818609E-02  0.8503973E-01
       -2   -1    0    0    0  501  0.00000000000E+00  0.00000000000E+00  0.75146085749E+03  0.75146085750E+03  0.25500000920E-02 0.  1.
        2   -1    0    0  501    0  0.00000000000E+00  0.00000000000E+00 -0.16619363624E+04  0.16619363624E+04  0.25500000920E-02 0. -1.
    10030    2    1    2    0    0  0.00000000000E+00  0.00000000000E+00 -0.91047550488E+03  0.24133972199E+04  0.22350661055E+04 0.  0.
        2    1    3    3  502    0  0.12702319871E+03 -0.91094145362E+03  0.23017743287E+03  0.94811965254E+03  0.25500000920E-02 0. -1.
       -2    1    3    3    0  502 -0.12702319871E+03  0.91094145362E+03 -0.11406529377E+04  0.14652775673E+04  0.25500000920E-02 0.  1.
</event>
<event>
 5   0  0.6263558E-05  0.2172187E+04  0.7818609E-02  0.8530095E-01
        1   -1    0    0  501    0  0.00000000000E+00  0.00000000000E+00  0.11164686129E+04  0.11164686129E+04  0.50400001928E-02 0.  1.
       -1   -1    0    0    0  501  0.00000000000E+00  0.00000000000E+00 -0.10565443200E+04  0.10565443200E+04  0.50400001928E-02 0. -1.
    10030    2    1    2    0    0  0.00000000000E+00  0.00000000000E+00  0.59924292873E+02  0.21730129329E+04  0.21721865219E+04 0.  0.
        3    1    3    3  502    0  0.22481508019E+03 -0.19139761990E+03 -0.10156262420E+04  0.10576727012E+04  0.10100000352E+00 0. -1.
       -3    1    3    3    0  502 -0.22481508019E+03  0.19139761990E+03  0.10755505349E+04  0.11153402317E+04  0.10100000352E+00 0.  1.
</event>
<event>
 5   0  0.5849604E-05  0.2190800E+04  0.7818609E-02  0.8522267E-01
       -1   -1    0    0    0  501  0.00000000000E+00  0.00000000000E+00  0.26467685326E+04  0.26467685326E+04  0.50400001928E-02 0. -1.
        1   -1    0    0  501    0  0.00000000000E+00  0.00000000000E+00 -0.45334562532E+03  0.45334562535E+03  0.50400001928E-02 0.  1.
    10030    2    1    2    0    0  0.00000000000E+00  0.00000000000E+00  0.21934229072E+04  0.31001141579E+04  0.21907997951E+04 0.  0.
        2    1    3    3  502    0  0.70279249968E+03 -0.77228050876E+03  0.15651081221E+04  0.18814616435E+04  0.25500000920E-02 0. -1.
       -2    1    3    3    0  502 -0.70279249968E+03  0.77228050876E+03  0.62831478511E+03  0.12186525145E+04  0.25500000920E-02 0.  1.
</event>
<event>
 5   0  0.5849604E-05  0.2163534E+04  0.7818609E-02  0.8533761E-01
        1   -1    0    0  501    0  0.00000000000E+00  0.00000000000E+00  0.15269517398E+04  0.15269517398E+04  0.50400001928E-02 0.  1.
       -1   -1    0    0    0  501  0.00000000000E+00  0.00000000000E+00 -0.76637628577E+03  0.76637628579E+03  0.50400001928E-02 0. -1.
    10030    2    1    2    0    0  0.00000000000E+00  0.00000000000E+00  0.76057545405E+03  0.22933280256E+04  0.21635337787E+04 0.  0.
        2    1    3    3  502    0 -0.11066393933E+03  0.60428001863E+03  0.13241083350E+04  0.14596793248E+04  0.25500000920E-02 0.  1.
       -2    1    3    3    0  502  0.11066393933E+03 -0.60428001863E+03 -0.56353288099E+03  0.83364870080E+03  0.25500000920E-02 0. -1.
</event>
<event>
 5   0  0.6263558E-05  0.2137601E+04  0.7818609E-02  0.8544858E-01
        1   -1    0    0  501    0  0.00000000000E+00  0.00000000000E+00  0.96971196796E+03  0.96971196797E+03  0.50400001928E-02 0. -1.
       -1   -1    0    0    0  501  0.00000000000E+00  0.00000000000E+00 -0.11780143706E+04  0.11780143706E+04  0.50400001928E-02 0.  1.
    10030    2    1    2    0    0  0.00000000000E+00  0.00000000000E+00 -0.20830240261E+03  0.21477263386E+04  0.21376011168E+04 0.  0.
        3    1    3    3  502    0 -0.70628371026E+02  0.68300854257E+03  0.71878005746E+03  0.99404920262E+03  0.10100000352E+00 0. -1.
       -3    1    3    3    0  502  0.70628371026E+02 -0.68300854257E+03 -0.92708246008E+03  0.11536771359E+04  0.10100000352E+00 0.  1.
</event>
<event>
 5   0  0.1241430E-04  0.2205668E+04  0.7818609E-02  0.8516073E-01
        2   -1    0    0  501    0  0.00000000000E+00  0.00000000000E+00  0.16445773154E+04  0.16445773154E+04  0.25500000920E-02 0. -1.
       -2   -1    0    0    0  501  0.00000000000E+00  0.00000000000E+00 -0.73954713153E+03  0.73954713153E+03  0.25500000920E-02 0.  1.
    10030    2    1    2    0    0  0.00000000000E+00  0.00000000000E+00  0.90503018388E+03  0.23841244469E+04  0.22056676415E+04 0.  0.
        1    1    3    3  502    0  0.10570973856E+04  0.24455998071E+03  0.66591707631E+03  0.12730710976E+04  0.50400001928E-02 0. -1.
       -1    1    3    3    0  502 -0.10570973856E+04 -0.24455998071E+03  0.23911310757E+03  0.11110533494E+04  0.50400001928E-02 0.  1.
</event>
<event>
 5   0  0.6263558E-05  0.2203708E+04  0.7818609E-02  0.8516886E-01
        1   -1    0    0  501    0  0.00000000000E+00  0.00000000000E+00  0.83196727516E+03  0.83196727517E+03  0.50400001928E-02 0. -1.
       -1   -1    0    0    0  501  0.00000000000E+00  0.00000000000E+00 -0.14592910525E+04  0.14592910525E+04  0.50400001928E-02 0.  1.
    10030    2    1    2    0    0  0.00000000000E+00  0.00000000000E+00 -0.62732377733E+03  0.22912583277E+04  0.22037081482E+04 0.  0.
        3    1    3    3  502    0  0.73342970168E+03 -0.70617490859E+02  0.53813946980E+03  0.91241441049E+03  0.10100000352E+00 0. -1.
       -3    1    3    3    0  502 -0.73342970168E+03  0.70617490859E+02 -0.11654632471E+04  0.13788439172E+04  0.10100000352E+00 0.  1.
</event>
<event>
 5   0  0.1252124E-04  0.2199797E+04  0.7818609E-02  0.8518513E-01
        2   -1    0    0  501    0  0.00000000000E+00  0.00000000000E+00  0.10860096224E+04  0.10860096224E+04  0.25500000920E-02 0.  1.
       -2   -1    0    0    0  501  0.00000000000E+00  0.00000000000E+00 -0.11139645344E+04  0.11139645344E+04  0.25500000920E-02 0. -1.
    10030    2    1    2    0    0  0.00000000000E+00  0.00000000000E+00 -0.27954912003E+02  0.21999741569E+04  0.21997965392E+04 0.  0.
        3    1    3    3  502    0 -0.19898703428E+03  0.81167809292E+03  0.70117400162E+03  0.10908997007E+04  0.10100000352E+00 0.  1.
       -3    1    3    3    0  502  0.19898703428E+03 -0.81167809292E+03 -0.72912891362E+03  0.11090744561E+04  0.10100000352E+00 0. -1.
</event>
<event>
 5   0  0.5861816E-05  0.2255544E+04  0.7818609E-02  0.8495659E-01
       -1   -1    0    0    0  501  0.00000000000E+00  0.00000000000E+00  0.54557940035E+03  0.54557940037E+03  0.50400001928E-02 0. -1.
        1   -1    0    0  501    0  0.00000000000E+00  0.00000000000E+00 -0.23312268409E+04  0.23312268409E+04  0.50400001928E-02 0.  1.
    10030    2    1    2    0    0  0.00000000000E+00  0.00000000000E+00 -0.17856474405E+04  0.28768062413E+04  0.22555436967E+04 0.  0.
        1    1    3    3  502    0  0.10410864990E+04 -0.10869667188E+03 -0.14281937231E+04  0.17707098508E+04  0.50400001928E-02 0.  1.
       -1    1    3    3    0  502 -0.10410864990E+04  0.10869667188E+03 -0.35745371740E+03  0.11060963905E+04  0.50400001928E-02 0. -1.
</event>
<event>
 5   0  0.1311472E-04  0.1973600E+04  0.7818609E-02  0.8619064E-01
        2   -1    0    0  501    0  0.00000000000E+00  0.00000000000E+00  0.76775955174E+03  0.76775955174E+03  0.25500000920E-02 0. -1.
       -2   -1    0    0    0  501  0.00000000000E+00  0.00000000000E+00 -0.12683322685E+04  0.12683322685E+04  0.25500000920E-02 0.  1.
    10030    2    1    2    0    0  0.00000000000E+00  0.00000000000E+00 -0.50057271671E+03  0.20360918202E+04  0.19735999735E+04 0.  0.
        4    1    3    3  502    0 -0.92690011107E+03 -0.29599890098E+03 -0.41984820603E+03  0.10597326523E+04  0.12699999809E+01 0.  1.
       -4    1    3    3    0  502  0.92690011107E+03  0.29599890098E+03 -0.80724510684E+02  0.97635916793E+03  0.12699999809E+01 0. -1.
</event>
<event>
 5   0  0.1311472E-04  0.2214565E+04  0.7818609E-02  0.8512390E-01
        2   -1    0    0  501    0  0.00000000000E+00  0.00000000000E+00  0.12414933891E+04  0.12414933891E+04  0.25500000920E-02 0. -1.
       -2   -1    0    0    0  501  0.00000000000E+00  0.00000000000E+00 -0.98758064742E+03  0.98758064742E+03  0.25500000920E-02 0.  1.
    10030    2    1    2    0    0  0.00000000000E+00  0.00000000000E+00  0.25391274164E+03  0.22290740365E+04  0.22145652801E+04 0.  0.
        4    1    3    3  502    0 -0.61240991175E+03  0.87118478509E+03  0.43236540210E+03  0.11493260128E+04  0.12699999809E+01 0. -1.
       -4    1    3    3    0  502  0.61240991175E+03 -0.87118478509E+03 -0.17845266047E+03  0.10797480237E+04  0.12699999809E+01 0.  1.
</event>
<event>
 5   0  0.5895063E-05  0.2192226E+04  0.7818609E-02  0.8521671E-01
       -1   -1    0    0    0  501  0.00000000000E+00  0.00000000000E+00  0.79323069977E+03  0.79323069978E+03  0.50400001928E-02 0.  1.
        1   -1    0    0  501    0  0.00000000000E+00  0.00000000000E+00 -0.15146453545E+04  0.15146453545E+04  0.50400001928E-02 0. -1.
    10030    2    1    2    0    0  0.00000000000E+00  0.00000000000E+00 -0.72141465474E+03  0.23078760543E+04  0.21922255308E+04 0.  0.
        5    1    3    3  502    0 -0.57467913222E+03 -0.18209416084E+03 -0.13244391104E+04  0.14551891408E+04  0.46999998093E+01 0. -1.
       -5    1    3    3    0  502  0.57467913222E+03  0.18209416084E+03  0.60302445561E+03  0.85268691352E+03  0.46999998093E+01 0.  1.
</event>
<event>
 5   0  0.6263558E-05  0.2156828E+04  0.7818609E-02  0.8536615E-01
        1   -1    0    0  501    0  0.00000000000E+00  0.00000000000E+00  0.14625063256E+04  0.14625063256E+04  0.50400001928E-02 0. -1.
       -1   -1    0    0    0  501  0.00000000000E+00  0.00000000000E+00 -0.79519422985E+03  0.79519422986E+03  0.50400001928E-02 0.  1.
    10030    2    1    2    0    0  0.00000000000E+00  0.00000000000E+00  0.66731209572E+03  0.22577005554E+04  0.21568278478E+04 0.  0.
        3    1    3    3  502    0  0.30904193662E+03  0.52945528088E+03 -0.59505094543E+03  0.85435089448E+03  0.10100000352E+00 0.  1.
       -3    1    3    3    0  502 -0.30904193662E+03 -0.52945528088E+03  0.12623630412E+04  0.14033496610E+04  0.10100000352E+00 0. -1.
</event>
<event>
 5   0  0.5849604E-05  0.2214333E+04  0.7818609E-02  0.8512486E-01
        1   -1    0    0  501    0  0.00000000000E+00  0.00000000000E+00  0.77191177486E+03  0.77191177488E+03  0.50400001928E-02 0. -1.
       -1   -1    0    0    0  501  0.00000000000E+00  0.00000000000E+00 -0.15880279595E+04  0.15880279595E+04  0.50400001928E-02 0.  1.
    10030    2    1    2    0    0  0.00000000000E+00  0.00000000000E+00 -0.81611618466E+03  0.23599397344E+04  0.22143328393E+04 0.  0.
        2    1    3    3  502    0 -0.70158268915E+03 -0.31859518169E+03 -0.12553823565E+04  0.14729921998E+04  0.25500000920E-02 0.  1.
       -2    1    3    3    0  502  0.70158268915E+03  0.31859518169E+03  0.43926617183E+03  0.88694753466E+03  0.25500000920E-02 0. -1.
</event>
<event>
 5   0  0.1311472E-04  0.2144162E+04  0.7818609E-02  0.8542036E-01
       -2   -1    0    0    0  501  0.00000000000E+00  0.00000000000E+00  0.98923029776E+03  0.98923029776E+03  0.25500000920E-02 0.  1.
        2   -1    0    0  501    0  0.00000000000E+00  0.00000000000E+00 -0.11618702256E+04  0.11618702256E+04  0.25500000920E-02 0. -1.
    10030    2    1    2    0    0  0.00000000000E+00  0.00000000000E+00 -0.17263992782E+03  0.21511005233E+04  0.21441615883E+04 0.  0.
        4    1    3    3  502    0 -0.18242099366E+03  0.10541359512E+04 -0.16268542766E+02  0.10699281756E+04  0.12699999809E+01 0. -1.
       -4    1    3    3    0  502  0.18242099366E+03 -0.10541359512E+04 -0.15637138505E+03  0.10811723477E+04  0.12699999809E+01 0.  1.
</event>
<event>
 5   0  0.6263558E-05  0.2163562E+04  0.7818609E-02  0.8533749E-01
        1   -1    0    0  501    0  0.00000000000E+00  0.00000000000E+00  0.15281706531E+04  0.15281706531E+04  0.50400001928E-02 0. -1.
       -1   -1    0    0    0  501  0.00000000000E+00  0.00000000000E+00 -0.76578513512E+03  0.76578513513E+03  0.50400001928E-02 0.  1.
    10030    2    1    2    0    0  0.00000000000E+00  0.00000000000E+00  0.76238551795E+03  0.22939557882E+04  0.21635622201E+04 0.  0.
        3    1    3    3  502    0  0.27415215536E+03  0.16141534932E+03 -0.71506284796E+03  0.78264245094E+03  0.10100000352E+00 0.  1.
       -3    1    3    3    0  502 -0.27415215536E+03 -0.16141534932E+03  0.14774483659E+04  0.15113133373E+04  0.10100000352E+00 0. -1.
</event>
<event>
 5   0  0.1226021E-04  0.2230742E+04  0.7818609E-02  0.8505740E-01
        2   -1    0    0  501    0  0.00000000000E+00  0.00000000000E+00  0.13646001648E+04  0.13646001648E+04  0.25500000920E-02 0. -1.
       -2   -1    0    0    0  501  0.00000000000E+00  0.00000000000E+00 -0.91166082249E+03  0.91166082249E+03  0.25500000920E-02 0.  1.
    10030    2    1    2    0    0  0.00000000000E+00  0.00000000000E+00  0.45293934232E+03  0.22762609873E+04  0.22307420367E+04 0.  0.
        2    1    3    3  502    0  0.92722817107E+03 -0.58688251697E+03  0.22722203508E+02  0.10975880231E+04  0.25500000920E-02 0. -1.
       -2    1    3    3    0  502 -0.92722817107E+03  0.58688251697E+03  0.43021713881E+03  0.11786729642E+04  0.25500000920E-02 0.  1.
</event>
<event>
 5   0  0.1311472E-04  0.2166280E+04  0.7818609E-02  0.8532596E-01
        2   -1    0    0  501    0  0.00000000000E+00  0.00000000000E+00  0.10397530596E+04  0.10397530597E+04  0.25500000920E-02 0. -1.
       -2   -1    0    0    0  501  0.00000000000E+00  0.00000000000E+00 -0.11283371049E+04  0.11283371049E+04  0.25500000920E-02 0.  1.
    10030    2    1    2    0    0  0.00000000000E+00  0.00000000000E+00 -0.88584045231E+02  0.21680901645E+04  0.21662797207E+04 0.  0.
        4    1    3    3  502    0  0.82292230361E+02  0.84350920653E+03 -0.71932627507E+03  0.11116256994E+04  0.12699999809E+01 0.  1.
       -4    1    3    3    0  502 -0.82292230361E+02 -0.84350920653E+03  0.63074222984E+03  0.10564644651E+04  0.12699999809E+01 0. -1.
</event>
<event>
 5   0  0.5895063E-05  0.2191912E+04  0.7818609E-02  0.8521802E-01
       -1   -1    0    0    0  501  0.00000000000E+00  0.00000000000E+00  0.75118737903E+03  0.75118737905E+03  0.50400001928E-02 0.  1.
        1   -1    0    0  501    0  0.00000000000E+00  0.00000000000E+00 -0.15989618554E+04  0.15989618554E+04  0.50400001928E-02 0. -1.
    10030    2    1    2    0    0  0.00000000000E+00  0.00000000000E+00 -0.84777447636E+03  0.23501492345E+04  0.21919123754E+04 0.  0.
        5    1    3    3  502    0  0.10108075207E+03 -0.93023846117E+03 -0.10356350231E+04  0.13957517344E+04  0.46999998093E+01 0. -1.
       -5    1    3    3    0  502 -0.10108075207E+03  0.93023846117E+03  0.18786054672E+03  0.95439750004E+03  0.46999998093E+01 0.  1.
</event>
<event>
 5   0  0.4586375E-05  0.2169306E+04  0.7818609E-02  0.8531313E-01
       -4   -1    0    0    0  501  0.00000000000E+00  0.00000000000E+00  0.11220205800E+04  0.11220212987E+04  0.12699999809E+01 0. -1.
        4   -1    0    0  501    0  0.00000000000E+00  0.00000000000E+00 -0.10485282009E+04  0.10485289700E+04  0.12699999809E+01 0.  1.
    10030    2    1    2    0    0  0.00000000000E+00  0.00000000000E+00  0.73492379098E+02  0.21705502687E+04  0.21693057274E+04 0.  0.
        3    1    3    3  502    0 -0.10483019483E+04  0.27468881954E+03 -0.88968879300E+01  0.10837297113E+04  0.10100000352E+00 0.  1.
       -3    1    3    3    0  502  0.10483019483E+04 -0.27468881954E+03  0.82389267028E+02  0.10868205574E+04  0.10100000352E+00 0. -1.
</event>
<event>
 5   0  0.1226021E-04  0.2217874E+04  0.7818609E-02  0.8511025E-01
        2   -1    0    0  501    0  0.00000000000E+00  0.00000000000E+00  0.16557770371E+04  0.16557770371E+04  0.25500000920E-02 0. -1.
       -2   -1    0    0    0  501  0.00000000000E+00  0.00000000000E+00 -0.74269745890E+03  0.74269745891E+03  0.25500000920E-02 0.  1.
    10030    2    1    2    0    0  0.00000000000E+00  0.00000000000E+00  0.91307957815E+03  0.23984744960E+04  0.22178741154E+04 0.  0.
        2    1    3    3  502    0 -0.89648208112E+03  0.52886361312E+03  0.42810591755E+02  0.10417339343E+04  0.25500000920E-02 0.  1.
       -2    1    3    3    0  502  0.89648208112E+03 -0.52886361312E+03  0.87026898640E+03  0.13567405617E+04  0.25500000920E-02 0. -1.
</event>
<event>
 5   0  0.1252124E-04  0.2198968E+04  0.7818609E-02  0.8518858E-01
       -2   -1    0    0    0  501  0.00000000000E+00  0.00000000000E+00  0.88180430876E+03  0.88180430877E+03  0.25500000920E-02 0.  1.
        2   -1    0    0  501    0  0.00000000000E+00  0.00000000000E+00 -0.13708993256E+04  0.13708993256E+04  0.25500000920E-02 0. -1.
    10030    2    1    2    0    0  0.00000000000E+00  0.00000000000E+00 -0.48909501686E+03  0.22527036344E+04  0.21989678781E+04 0.  0.
        3    1    3    3  502    0 -0.43477795364E+03  0.44638369522E+03 -0.11725394872E+04  0.13278324938E+04  0.10100000352E+00 0. -1.
       -3    1    3    3    0  502  0.43477795364E+03 -0.44638369522E+03  0.68344447038E+03  0.92487114056E+03  0.10100000352E+00 0.  1.
</event>
<event>
 5   0  0.1404159E-04  0.2201269E+04  0.7818609E-02  0.8517900E-01
        2   -1    0    0  501    0  0.00000000000E+00  0.00000000000E+00  0.12665806310E+04  0.12665806310E+04  0.25500000920E-02 0. -1.
       -2   -1    0    0    0  501  0.00000000000E+00  0.00000000000E+00 -0.95643037143E+03  0.95643037144E+03  0.25500000920E-02 0.  1.
    10030    2    1    2    0    0  0.00000000000E+00  0.00000000000E+00  0.31015025960E+03  0.22230110025E+04  0.22012688917E+04 0.  0.
        5    1    3    3  502    0 -0.47106256003E+03 -0.58969220850E+03  0.96407256149E+03  0.12243752815E+04  0.46999998093E+01 0. -1.
       -5    1    3    3    0  502  0.47106256003E+03  0.58969220850E+03 -0.65392230189E+03  0.99863572094E+03  0.46999998093E+01 0.  1.
</event>
<event>
 5   0  0.5849604E-05  0.2196186E+04  0.7818609E-02  0.8520017E-01
       -1   -1    0    0    0  501  0.00000000000E+00  0.00000000000E+00  0.90199502807E+03  0.90199502808E+03  0.50400001928E-02 0.  1.
        1   -1    0    0  501    0  0.00000000000E+00  0.00000000000E+00 -0.13368239464E+04  0.13368239464E+04  0.50400001928E-02 0. -1.
    10030    2    1    2    0    0  0.00000000000E+00  0.00000000000E+00 -0.43482891829E+03  0.22388189744E+04  0.21961862881E+04 0.  0.
        2    1    3    3  502    0 -0.53745790352E+03  0.86917248504E+03 -0.62706944534E+03  0.11989736845E+04  0.25500000920E-02 0.  1.
       -2    1    3    3    0  502  0.53745790352E+03 -0.86917248504E+03  0.19224052705E+03  0.10398452900E+04  0.25500000920E-02 0. -1.
</event>
<event>
 5   0  0.1226021E-04  0.2178802E+04  0.7818609E-02  0.8527303E-01
        2   -1    0    0  501    0  0.00000000000E+00  0.00000000000E+00  0.19279407739E+04  0.19279407739E+04  0.25500000920E-02 0. -1.
       -2   -1    0    0    0  501  0.00000000000E+00  0.00000000000E+00 -0.61557613286E+03  0.61557613286E+03  0.25500000920E-02 0.  1.
    10030    2    1    2    0    0  0.00000000000E+00  0.00000000000E+00  0.13123646411E+04  0.25435169068E+04  0.21788018047E+04 0.  0.
        2    1    3    3  502    0 -0.20362111650E+03  0.71807291181E+02 -0.59034827167E+03  0.62859281575E+03  0.25500000920E-02 0.  1.
       -2    1    3    3    0  502  0.20362111650E+03 -0.71807291181E+02  0.19027129127E+04  0.19149240911E+04  0.25500000920E-02 0. -1.
</event>
<event>
 5   0  0.5849604E-05  0.2175629E+04  0.7818609E-02  0.8528641E-01
        1   -1    0    0  501    0  0.00000000000E+00  0.00000000000E+00  0.12344561813E+04  0.12344561813E+04  0.50400001928E-02 0. -1.
       -1   -1    0    0    0  501  0.00000000000E+00  0.00000000000E+00 -0.95859248246E+03  0.95859248248E+03  0.50400001928E-02 0.  1.
    10030    2    1    2    0    0  0.00000000000E+00  0.00000000000E+00  0.27586369887E+03  0.21930486638E+04  0.21756290266E+04 0.  0.
        2    1    3    3  502    0  0.89804322911E+03 -0.43816951661E+03  0.57133517432E+03  0.11510421574E+04  0.25500000920E-02 0. -1.
       -2    1    3    3    0  502 -0.89804322911E+03  0.43816951661E+03 -0.29547147545E+03  0.10420065064E+04  0.25500000920E-02 0.  1.
</event>
<event>
 5   0  0.1252124E-04  0.2163741E+04  0.7818609E-02  0.8533673E-01
       -2   -1    0    0    0  501  0.00000000000E+00  0.00000000000E+00  0.61228744032E+03  0.61228744032E+03  0.25500000920E-02 0.  1.
        2   -1    0    0  501    0  0.00000000000E+00  0.00000000000E+00 -0.19115914415E+04  0.19115914415E+04  0.25500000920E-02 0. -1.
    10030    2    1    2    0    0  0.00000000000E+00  0.00000000000E+00 -0.12993040012E+04  0.25238788818E+04  0.21637406782E+04 0.  0.
        3    1    3    3  502    0  0.18006981578E+03 -0.10666481595E+04 -0.66916981553E+03  0.12719872983E+04  0.10100000352E+00 0. -1.
       -3    1    3    3    0  502 -0.18006981578E+03  0.10666481595E+04 -0.63013418567E+03  0.12518915835E+04  0.10100000352E+00 0.  1.
</event>
<event>
 5   0  0.5861816E-05  0.2197577E+04  0.7818609E-02  0.8519437E-01
       -1   -1    0    0    0  501  0.00000000000E+00  0.00000000000E+00  0.88470492847E+03  0.88470492849E+03  0.50400001928E-02 0.  1.
        1   -1    0    0  501    0  0.00000000000E+00  0.00000000000E+00 -0.13646770756E+04  0.13646770756E+04  0.50400001928E-02 0. -1.
    10030    2    1    2    0    0  0.00000000000E+00  0.00000000000E+00 -0.47997214712E+03  0.22493820041E+04  0.21975773339E+04 0.  0.
        1    1    3    3  502    0 -0.49073682756E+03  0.85199158249E+02  0.76251786138E+03  0.91077715136E+03  0.50400001928E-02 0.  1.
       -1    1    3    3    0  502  0.49073682756E+03 -0.85199158249E+02 -0.12424900085E+04  0.13386048527E+04  0.50400001928E-02 0. -1.
</event>
<event>
 5   0  0.5849604E-05  0.2175475E+04  0.7818609E-02  0.8528706E-01
       -1   -1    0    0    0  501  0.00000000000E+00  0.00000000000E+00  0.57272620055E+03  0.57272620057E+03  0.50400001928E-02 0.  1.
        1   -1    0    0  501    0  0.00000000000E+00  0.00000000000E+00 -0.20658620114E+04  0.20658620114E+04  0.50400001928E-02 0. -1.
    10030    2    1    2    0    0  0.00000000000E+00  0.00000000000E+00 -0.14931358109E+04  0.26385882120E+04  0.21754753970E+04 0.  0.
        2    1    3    3  502    0 -0.55599820489E+03 -0.70927110913E+03 -0.14853035518E+04  0.17373330570E+04  0.25500000920E-02 0. -1.
       -2    1    3    3    0  502  0.55599820489E+03  0.70927110913E+03 -0.78322590991E+01  0.90125515498E+03  0.25500000920E-02 0.  1.
</event>
<event>
 5   0  0.5861816E-05  0.2168758E+04  0.7818609E-02  0.8531545E-01
       -1   -1    0    0    0  501  0.00000000000E+00  0.00000000000E+00  0.73210368328E+03  0.73210368330E+03  0.50400001928E-02 0.  1.
        1   -1    0    0  501    0  0.00000000000E+00  0.00000000000E+00 -0.16061632619E+04  0.16061632619E+04  0.50400001928E-02 0. -1.
    10030    2    1    2    0    0  0.00000000000E+00  0.00000000000E+00 -0.87405957860E+03  0.23382669452E+04  0.21687582069E+04 0.  0.
        1    1    3    3  502    0  0.34939174440E+03 -0.35418162379E+03  0.60179161670E+03  0.78081519173E+03  0.50400001928E-02 0.  1.
       -1    1    3    3    0  502 -0.34939174440E+03  0.35418162379E+03 -0.14758511953E+04  0.15574517535E+04  0.50400001928E-02 0. -1.
</event>
<event>
 5   0  0.1404159E-04  0.2132648E+04  0.7818609E-02  0.8546996E-01
       -2   -1    0    0    0  501  0.00000000000E+00  0.00000000000E+00  0.13035084996E+04  0.13035084996E+04  0.25500000920E-02 0.  1.
        2   -1    0    0  501    0  0.00000000000E+00  0.00000000000E+00 -0.87229760464E+03  0.87229760464E+03  0.25500000920E-02 0. -1.
    10030    2    1    2    0    0  0.00000000000E+00  0.00000000000E+00  0.43121089498E+03  0.21758061043E+04  0.21326484397E+04 0.  0.
        5    1    3    3  502    0  0.39891900410E+03 -0.91685956592E+03 -0.16237456193E+03  0.10129932990E+04  0.46999998093E+01 0. -1.
       -5    1    3    3    0  502 -0.39891900410E+03  0.91685956592E+03  0.59358545691E+03  0.11628128053E+04  0.46999998093E+01 0.  1.
</event>
<event>
 5   0  0.5895063E-05  0.2074065E+04  0.7818609E-02  0.8572755E-01
        1   -1    0    0  501    0  0.00000000000E+00  0.00000000000E+00  0.96712446084E+03  0.96712446085E+03  0.50400001928E-02 0. -1.
       -1   -1    0    0    0  501  0.00000000000E+00  0.00000000000E+00 -0.11119936792E+04  0.11119936792E+04  0.50400001928E-02 0.  1.
    10030    2    1    2    0    0  0.00000000000E+00  0.00000000000E+00 -0.14486921839E+03  0.20791181401E+04  0.20740648857E+04 0.  0.
        5    1    3    3  502    0  0.25818497817E+03 -0.63674656882E+03 -0.85105640845E+03  0.10938120388E+04  0.46999998093E+01 0.  1.
       -5    1    3    3    0  502 -0.25818497817E+03  0.63674656882E+03  0.70618719006E+03  0.98530610130E+03  0.46999998093E+01 0. -1.
</event>
<event>
 5   0  0.6263558E-05  0.2423161E+04  0.7818609E-02  0.8430883E-01
        1   -1    0    0  501    0  0.00000000000E+00  0.00000000000E+00  0.17024496959E+04  0.17024496959E+04  0.50400001928E-02 0. -1.
       -1   -1    0    0    0  501  0.00000000000E+00  0.00000000000E+00 -0.86224407286E+03  0.86224407288E+03  0.50400001928E-02 0.  1.
    10030    2    1    2    0    0  0.00000000000E+00  0.00000000000E+00  0.84020562301E+03  0.25646937687E+04  0.24231608776E+04 0.  0.
        3    1    3    3  502    0  0.62684498598E+03 -0.82980192992E+03 -0.23783338495E+03  0.10668039223E+04  0.10100000352E+00 0.  1.
       -3    1    3    3    0  502 -0.62684498598E+03  0.82980192992E+03  0.10780390080E+04  0.14978898465E+04  0.10100000352E+00 0. -1.
</event>
<event>
 5   0  0.1241430E-04  0.2227973E+04  0.7818609E-02  0.8506875E-01
       -2   -1    0    0    0  501  0.00000000000E+00  0.00000000000E+00  0.64967969664E+03  0.64967969665E+03  0.25500000920E-02 0. -1.
        2   -1    0    0  501    0  0.00000000000E+00  0.00000000000E+00 -0.19101190693E+04  0.19101190693E+04  0.25500000920E-02 0.  1.
    10030    2    1    2    0    0  0.00000000000E+00  0.00000000000E+00 -0.12604393726E+04  0.25597987659E+04  0.22279726906E+04 0.  0.
        1    1    3    3  502    0 -0.99608589304E+03 -0.45487351414E+03 -0.86531282825E+03  0.13956587373E+04  0.50400001928E-02 0.  1.
       -1    1    3    3    0  502  0.99608589304E+03  0.45487351414E+03 -0.39512654438E+03  0.11641400286E+04  0.50400001928E-02 0. -1.
</event>
<event>
 5   0  0.5861816E-05  0.2179932E+04  0.7818609E-02  0.8526828E-01
        1   -1    0    0  501    0  0.00000000000E+00  0.00000000000E+00  0.14773839533E+04  0.14773839533E+04  0.50400001928E-02 0. -1.
       -1   -1    0    0    0  501  0.00000000000E+00  0.00000000000E+00 -0.80414147688E+03  0.80414147690E+03  0.50400001928E-02 0.  1.
    10030    2    1    2    0    0  0.00000000000E+00  0.00000000000E+00  0.67324247643E+03  0.22815254302E+04  0.21799318468E+04 0.  0.
        1    1    3    3  502    0  0.22831436281E+03 -0.88330831624E+03 -0.28754858768E+03  0.95657996012E+03  0.50400001928E-02 0.  1.
       -1    1    3    3    0  502 -0.22831436281E+03  0.88330831624E+03  0.96079106411E+03  0.13249454701E+04  0.50400001928E-02 0. -1.
</event>
<event>
 5   0  0.1252124E-04  0.2214555E+04  0.7818609E-02  0.8512394E-01
       -2   -1    0    0    0  501  0.00000000000E+00  0.00000000000E+00  0.74228299866E+03  0.74228299866E+03  0.25500000920E-02 0.  1.
        2   -1    0    0  501    0  0.00000000000E+00  0.00000000000E+00 -0.16517464703E+04  0.16517464703E+04  0.25500000920E-02 0. -1.
    10030    2    1    2    0    0  0.00000000000E+00  0.00000000000E+00 -0.90946347166E+03  0.23940294690E+04  0.22145548745E+04 0.  0.
        3    1    3    3  502    0 -0.41964585962E+03  0.38153651501E+03  0.57333440139E+03  0.80646457194E+03  0.10100000352E+00 0.  1.
       -3    1    3    3    0  502  0.41964585962E+03 -0.38153651501E+03 -0.14827978730E+04  0.15875648970E+04  0.10100000352E+00 0. -1.
</event>
<event>
 5   0  0.5861816E-05  0.2224554E+04  0.7818609E-02  0.8508277E-01
       -1   -1    0    0    0  501  0.00000000000E+00  0.00000000000E+00  0.83163046529E+03  0.83163046531E+03  0.50400001928E-02 0. -1.
        1   -1    0    0  501    0  0.00000000000E+00  0.00000000000E+00 -0.14876319572E+04  0.14876319572E+04  0.50400001928E-02 0.  1.
    10030    2    1    2    0    0  0.00000000000E+00  0.00000000000E+00 -0.65600149187E+03  0.23192624225E+04  0.22245539389E+04 0.  0.
        1    1    3    3  502    0  0.95625695354E+03  0.87540535124E+01  0.26421079337E+03  0.99212465850E+03  0.50400001928E-02 0. -1.
       -1    1    3    3    0  502 -0.95625695354E+03 -0.87540535124E+01 -0.92021228524E+03  0.13271377640E+04  0.50400001928E-02 0.  1.
</event>
<event>
 5   0  0.5981239E-05  0.2196969E+04  0.7818609E-02  0.8519691E-01
        1   -1    0    0  501    0  0.00000000000E+00  0.00000000000E+00  0.12251694240E+04  0.12251694241E+04  0.50400001928E-02 0.  1.
       -1   -1    0    0    0  501  0.00000000000E+00  0.00000000000E+00 -0.98489926644E+03  0.98489926645E+03  0.50400001928E-02 0. -1.
    10030    2    1    2    0    0  0.00000000000E+00  0.00000000000E+00  0.24027015760E+03  0.22100686905E+04  0.21969692461E+04 0.  0.
        4    1    3    3  502    0  0.25982917603E+03  0.78214981896E+03 -0.61041627750E+03  0.10256116150E+04  0.12699999809E+01 0. -1.
       -4    1    3    3    0  502 -0.25982917603E+03 -0.78214981896E+03  0.85068643511E+03  0.11844570755E+04  0.12699999809E+01 0.  1.
</event>
<event>
 5   0  0.1241430E-04  0.2224805E+04  0.7818609E-02  0.8508174E-01
        2   -1    0    0  501    0  0.00000000000E+00  0.00000000000E+00  0.21456550383E+04  0.21456550383E+04  0.25500000920E-02 0. -1.
       -2   -1    0    0    0  501  0.00000000000E+00  0.00000000000E+00 -0.57671845887E+03  0.57671845888E+03  0.25500000920E-02 0.  1.
    10030    2    1    2    0    0  0.00000000000E+00  0.00000000000E+00  0.15689365795E+04  0.27223734972E+04  0.22248045910E+04 0.  0.
        1    1    3    3  502    0  0.19701073277E+03 -0.90764105911E+03  0.35327646886E+02  0.92944798869E+03  0.50400001928E-02 0.  1.
       -1    1    3    3    0  502 -0.19701073277E+03  0.90764105911E+03  0.15336089326E+04  0.17929255085E+04  0.50400001928E-02 0. -1.
</event>
<event>
 5   0  0.5861816E-05  0.2199662E+04  0.7818609E-02  0.8518569E-01
       -1   -1    0    0    0  501  0.00000000000E+00  0.00000000000E+00  0.10705639817E+04  0.10705639817E+04  0.50400001928E-02 0.  1.
        1   -1    0    0  501    0  0.00000000000E+00  0.00000000000E+00 -0.11298984957E+04  0.11298984957E+04  0.50400001928E-02 0. -1.
    10030    2    1    2    0    0  0.00000000000E+00  0.00000000000E+00 -0.59334513959E+02  0.22004624774E+04  0.21996623672E+04 0.  0.
        1    1    3    3  502    0 -0.54008767524E+03  0.90628648119E+03  0.28121700095E+03  0.10918483798E+04  0.50400001928E-02 0.  1.
       -1    1    3    3    0  502  0.54008767524E+03 -0.90628648119E+03 -0.34055151490E+03  0.11086140975E+04  0.50400001928E-02 0. -1.
</event>
<event>
 5   0  0.5861816E-05  0.2186788E+04  0.7818609E-02  0.8523947E-01
       -1   -1    0    0    0  501  0.00000000000E+00  0.00000000000E+00  0.12901643579E+04  0.12901643579E+04  0.50400001928E-02 0. -1.
        1   -1    0    0  501    0  0.00000000000E+00  0.00000000000E+00 -0.92663442182E+03  0.92663442183E+03  0.50400001928E-02 0.  1.
    10030    2    1    2    0    0  0.00000000000E+00  0.00000000000E+00  0.36352993606E+03  0.22167987797E+04  0.21867882420E+04 0.  0.
        1    1    3    3  502    0  0.26167422536E+03 -0.59760337601E+02 -0.89271794014E+03  0.93219634136E+03  0.50400001928E-02 0.  1.
       -1    1    3    3    0  502 -0.26167422536E+03  0.59760337601E+02  0.12562478762E+04  0.12846024384E+04  0.50400001928E-02 0. -1.
</event>
<event>
 5   0  0.1252124E-04  0.2146630E+04  0.7818609E-02  0.8540976E-01
       -2   -1    0    0    0  501  0.00000000000E+00  0.00000000000E+00  0.18903587491E+04  0.18903587491E+04  0.25500000920E-02 0.  1.
        2   -1    0    0  501    0  0.00000000000E+00  0.00000000000E+00 -0.60941054378E+03  0.60941054378E+03  0.25500000920E-02 0. -1.
    10030    2    1    2    0    0  0.00000000000E+00  0.00000000000E+00  0.12809482053E+04  0.24997692929E+04  0.21466295006E+04 0.  0.
        3    1    3    3  502    0  0.85757468805E+03 -0.61398252220E+03  0.87219576102E+03  0.13686249811E+04  0.10100000352E+00 0.  1.
       -3    1    3    3    0  502 -0.85757468805E+03  0.61398252220E+03  0.40875244430E+03  0.11311443118E+04  0.10100000352E+00 0. -1.
</event>
<event>
 5   0  0.1404159E-04  0.2313135E+04  0.7818609E-02  0.8472760E-01
        2   -1    0    0  501    0  0.00000000000E+00  0.00000000000E+00  0.16819908263E+04  0.16819908263E+04  0.25500000920E-02 0.  1.
       -2   -1    0    0    0  501  0.00000000000E+00  0.00000000000E+00 -0.79527692961E+03  0.79527692961E+03  0.25500000920E-02 0. -1.
    10030    2    1    2    0    0  0.00000000000E+00  0.00000000000E+00  0.88671389671E+03  0.24772677559E+04  0.23131351020E+04 0.  0.
        5    1    3    3  502    0  0.11481661527E+04  0.17987664054E+02  0.29566839628E+03  0.11857701973E+04  0.46999998093E+01 0.  1.
       -5    1    3    3    0  502 -0.11481661527E+04 -0.17987664054E+02  0.59104550043E+03  0.12914975586E+04  0.46999998093E+01 0. -1.
</event>
<event>
 5   0  0.1226021E-04  0.2200066E+04  0.7818609E-02  0.8518400E-01
        2   -1    0    0  501    0  0.00000000000E+00  0.00000000000E+00  0.14228732877E+04  0.14228732877E+04  0.25500000920E-02 0.  1.
       -2   -1    0    0    0  501  0.00000000000E+00  0.00000000000E+00 -0.85044325817E+03  0.85044325818E+03  0.25500000920E-02 0. -1.
    10030    2    1    2    0    0  0.00000000000E+00  0.00000000000E+00  0.57243002954E+03  0.22733165459E+04  0.22000663579E+04 0.  0.
        2    1    3    3  502    0 -0.38479672124E+03  0.63088073560E+03 -0.55577356740E+03  0.92464224296E+03  0.25500000920E-02 0. -1.
       -2    1    3    3    0  502  0.38479672124E+03 -0.63088073560E+03  0.11282035969E+04  0.13486743029E+04  0.25500000920E-02 0.  1.
</event>
<event>
 5   0  0.1226021E-04  0.2240605E+04  0.7818609E-02  0.8501715E-01
       -2   -1    0    0    0  501  0.00000000000E+00  0.00000000000E+00  0.77897162976E+03  0.77897162976E+03  0.25500000920E-02 0.  1.
        2   -1    0    0  501    0  0.00000000000E+00  0.00000000000E+00 -0.16111988503E+04  0.16111988503E+04  0.25500000920E-02 0. -1.
    10030    2    1    2    0    0  0.00000000000E+00  0.00000000000E+00 -0.83222722056E+03  0.23901704801E+04  0.22406054488E+04 0.  0.
        2    1    3    3  502    0 -0.19342277603E+03 -0.79393351758E+03  0.40142180835E+03  0.91042971659E+03  0.25500000920E-02 0.  1.
       -2    1    3    3    0  502  0.19342277603E+03  0.79393351758E+03 -0.12336490289E+04  0.14797407635E+04  0.25500000920E-02 0. -1.
</event>
<event>
 5   0  0.1252124E-04  0.2116362E+04  0.7818609E-02  0.8554070E-01
       -2   -1    0    0    0  501  0.00000000000E+00  0.00000000000E+00  0.97308772179E+03  0.97308772180E+03  0.25500000920E-02 0.  1.
        2   -1    0    0  501    0  0.00000000000E+00  0.00000000000E+00 -0.11507158845E+04  0.11507158845E+04  0.25500000920E-02 0. -1.
    10030    2    1    2    0    0  0.00000000000E+00  0.00000000000E+00 -0.17762816274E+03  0.21238036063E+04  0.21163624439E+04 0.  0.
        3    1    3    3  502    0  0.26972955678E+03 -0.54547753201E+03 -0.95756440256E+03  0.11345613104E+04  0.10100000352E+00 0. -1.
       -3    1    3    3    0  502 -0.26972955678E+03  0.54547753201E+03  0.77993623983E+03  0.98924229596E+03  0.10100000352E+00 0.  1.
</event>
<event>
 5   0  0.5849604E-05  0.2208817E+04  0.7818609E-02  0.8514767E-01
        1   -1    0    0  501    0  0.00000000000E+00  0.00000000000E+00  0.13615470582E+04  0.13615470583E+04  0.50400001928E-02 0. -1.
       -1   -1    0    0    0  501  0.00000000000E+00  0.00000000000E+00 -0.89583230701E+03  0.89583230702E+03  0.50400001928E-02 0.  1.
    10030    2    1    2    0    0  0.00000000000E+00  0.00000000000E+00  0.46571475124E+03  0.22573793653E+04  0.22088167351E+04 0.  0.
        2    1    3    3  502    0 -0.41044863080E+03 -0.73421959615E+01  0.12806773832E+04  0.13448630214E+04  0.25500000920E-02 0. -1.
       -2    1    3    3    0  502  0.41044863080E+03  0.73421959615E+01 -0.81496263198E+03  0.91251634390E+03  0.25500000920E-02 0.  1.
</event>
<event>
 5   0  0.1241430E-04  0.2195115E+04  0.7818609E-02  0.8520464E-01
       -2   -1    0    0    0  501  0.00000000000E+00  0.00000000000E+00  0.78463334363E+03  0.78463334363E+03  0.25500000920E-02 0. -1.
        2   -1    0    0  501    0  0.00000000000E+00  0.00000000000E+00 -0.15352809637E+04  0.15352809637E+04  0.25500000920E-02 0.  1.
    10030    2    1    2    0    0  0.00000000000E+00  0.00000000000E+00 -0.75064762003E+03  0.23199143073E+04  0.21951151550E+04 0.  0.
        1    1    3    3  502    0 -0.68140398924E+02 -0.67046181492E+03  0.54022487055E+03  0.86371585028E+03  0.50400001928E-02 0. -1.
       -1    1    3    3    0  502  0.68140398924E+02  0.67046181492E+03 -0.12908724906E+04  0.14561984570E+04  0.50400001928E-02 0.  1.
</event>
<event>
 5   0  0.5861816E-05  0.2196889E+04  0.7818609E-02  0.8519724E-01
        1   -1    0    0  501    0  0.00000000000E+00  0.00000000000E+00  0.75011766011E+03  0.75011766013E+03  0.50400001928E-02 0. -1.
       -1   -1    0    0    0  501  0.00000000000E+00  0.00000000000E+00 -0.16085217436E+04  0.16085217437E+04  0.50400001928E-02 0.  1.
    10030    2    1    2    0    0  0.00000000000E+00  0.00000000000E+00 -0.85840408354E+03  0.23586394038E+04  0.21968892249E+04 0.  0.
        1    1    3    3  502    0  0.77542653173E+03 -0.67830633968E+03 -0.20102608865E+02  0.10304319053E+04  0.50400001928E-02 0. -1.
       -1    1    3    3    0  502 -0.77542653173E+03  0.67830633968E+03 -0.83830147467E+03  0.13282074985E+04  0.50400001928E-02 0.  1.
</event>
<event>
 5   0  0.6263558E-05  0.2300159E+04  0.7818609E-02  0.8477859E-01
        1   -1    0    0  501    0  0.00000000000E+00  0.00000000000E+00  0.17193000551E+04  0.17193000551E+04  0.50400001928E-02 0.  1.
       -1   -1    0    0    0  501  0.00000000000E+00  0.00000000000E+00 -0.76931439873E+03  0.76931439875E+03  0.50400001928E-02 0. -1.
    10030    2    1    2    0    0  0.00000000000E+00  0.00000000000E+00  0.94998565641E+03  0.24886144539E+04  0.23001585060E+04 0.  0.
        3    1    3    3  502    0  0.18467982423E+03 -0.11339285657E+04  0.53205535083E+03  0.12660898610E+04  0.10100000352E+00 0.  1.
       -3    1    3    3    0  502 -0.18467982423E+03  0.11339285657E+04  0.41793030558E+03  0.12225245929E+04  0.10100000352E+00 0. -1.
</event>
<event>
 5   0  0.5981239E-05  0.2194852E+04  0.7818609E-02  0.8520574E-01
       -1   -1    0    0    0  501  0.00000000000E+00  0.00000000000E+00  0.10622073661E+04  0.10622073661E+04  0.50400001928E-02 0. -1.
        1   -1    0    0  501    0  0.00000000000E+00  0.00000000000E+00 -0.11338127023E+04  0.11338127023E+04  0.50400001928E-02 0.  1.
    10030    2    1    2    0    0  0.00000000000E+00  0.00000000000E+00 -0.71605336204E+02  0.21960200684E+04  0.21948523451E+04 0.  0.
        4    1    3    3  502    0 -0.91567380647E+03 -0.82600435818E+02  0.56373332118E+03  0.10784610434E+04  0.12699999809E+01 0. -1.
       -4    1    3    3    0  502  0.91567380647E+03  0.82600435818E+02 -0.63533865738E+03  0.11175590250E+04  0.12699999809E+01 0.  1.
</event>
<event>
 5   0  0.1311472E-04  0.2178738E+04  0.7818609E-02  0.8527330E-01
        2   -1    0    0  501    0  0.00000000000E+00  0.00000000000E+00  0.23773166922E+04  0.23773166922E+04  0.25500000920E-02 0.  1.
       -2   -1    0    0    0  501  0.00000000000E+00  0.00000000000E+00 -0.49918684130E+03  0.49918684131E+03  0.25500000920E-02 0. -1.
    10030    2    1    2    0    0  0.00000000000E+00  0.00000000000E+00  0.18781298509E+04  0.28765035335E+04  0.21787383600E+04 0.  0.
        4    1    3    3  502    0  0.88625435350E+03  0.38248531507E+02  0.10425277958E+03  0.89318530228E+03  0.12699999809E+01 0. -1.
       -4    1    3    3    0  502 -0.88625435350E+03 -0.38248531507E+02  0.17738770713E+04  0.19833182312E+04  0.12699999809E+01 0.  1.
</event>
<event>
 5   0  0.6263558E-05  0.2188059E+04  0.7818609E-02  0.8523415E-01
        1   -1    0    0  501    0  0.00000000000E+00  0.00000000000E+00  0.11096831902E+04  0.11096831902E+04  0.50400001928E-02 0. -1.
       -1   -1    0    0    0  501  0.00000000000E+00  0.00000000000E+00 -0.10785970819E+04  0.10785970819E+04  0.50400001928E-02 0.  1.
    10030    2    1    2    0    0  0.00000000000E+00  0.00000000000E+00  0.31086108353E+02  0.21882802721E+04  0.21880594606E+04 0.  0.
        3    1    3    3  502    0 -0.38838637843E+03 -0.93309922725E+03 -0.40328661717E+03  0.10881903568E+04  0.10100000352E+00 0.  1.
       -3    1    3    3    0  502  0.38838637843E+03  0.93309922725E+03  0.43437272553E+03  0.11000899153E+04  0.10100000352E+00 0. -1.
</event>
<event>
 5   0  0.1404159E-04  0.2213575E+04  0.7818609E-02  0.8512799E-01
       -2   -1    0    0    0  501  0.00000000000E+00  0.00000000000E+00  0.12697282617E+04  0.12697282617E+04  0.25500000920E-02 0. -1.
        2   -1    0    0  501    0  0.00000000000E+00  0.00000000000E+00 -0.96475674625E+03  0.96475674626E+03  0.25500000920E-02 0.  1.
    10030    2    1    2    0    0  0.00000000000E+00  0.00000000000E+00  0.30497151542E+03  0.22344850079E+04  0.22135753038E+04 0.  0.
        5    1    3    3  502    0 -0.82192831800E+03  0.18351238331E+03 -0.57243001071E+03  0.10183030796E+04  0.46999998093E+01 0.  1.
       -5    1    3    3    0  502  0.82192831800E+03 -0.18351238331E+03  0.87740152613E+03  0.12161819283E+04  0.46999998093E+01 0. -1.
</event>
<event>
 5   0  0.6263558E-05  0.2208128E+04  0.7818609E-02  0.8515053E-01
        1   -1    0    0  501    0  0.00000000000E+00  0.00000000000E+00  0.13541247739E+04  0.13541247739E+04  0.50400001928E-02 0.  1.
       -1   -1    0    0    0  501  0.00000000000E+00  0.00000000000E+00 -0.90018083397E+03  0.90018083399E+03  0.50400001928E-02 0. -1.
    10030    2    1    2    0    0  0.00000000000E+00  0.00000000000E+00  0.45394393989E+03  0.22543056079E+04  0.22081278661E+04 0.  0.
        3    1    3    3  502    0  0.10604791980E+04  0.30645631511E+03  0.20591156280E+03  0.11229119219E+04  0.10100000352E+00 0.  1.
       -3    1    3    3    0  502 -0.10604791980E+04 -0.30645631511E+03  0.24803237709E+03  0.11313936860E+04  0.10100000352E+00 0. -1.
</event>
<event>
 5   0  0.1241430E-04  0.2208317E+04  0.7818609E-02  0.8514974E-01
       -2   -1    0    0    0  501  0.00000000000E+00  0.00000000000E+00  0.63118275506E+03  0.63118275507E+03  0.25500000920E-02 0. -1.
        2   -1    0    0  501    0  0.00000000000E+00  0.00000000000E+00 -0.19315572934E+04  0.19315572934E+04  0.25500000920E-02 0.  1.
    10030    2    1    2    0    0  0.00000000000E+00  0.00000000000E+00 -0.13003745384E+04  0.25627400485E+04  0.22083166929E+04 0.  0.
        1    1    3    3  502    0 -0.10592487482E+04  0.62874899605E+02 -0.29589504654E+03  0.11015965877E+04  0.50400001928E-02 0. -1.
       -1    1    3    3    0  502  0.10592487482E+04 -0.62874899605E+02 -0.10044794918E+04  0.14611434608E+04  0.50400001928E-02 0.  1.
</event>
<event>
 5   0  0.6263558E-05  0.2183491E+04  0.7818609E-02  0.8525331E-01
       -1   -1    0    0    0  501  0.00000000000E+00  0.00000000000E+00  0.58437231630E+03  0.58437231632E+03  0.50400001928E-02 0.  1.
        1   -1    0    0  501    0  0.00000000000E+00  0.00000000000E+00 -0.20396377662E+04  0.20396377662E+04  0.50400001928E-02 0. -1.
    10030    2    1    2    0    0  0.00000000000E+00  0.00000000000E+00 -0.14552654499E+04  0.26240100825E+04  0.21834906420E+04 0.  0.
        3    1    3    3  502    0  0.60528825523E+03  0.89377807390E+03 -0.53128456472E+03  0.12031111404E+04  0.10100000352E+00 0.  1.
       -3    1    3    3    0  502 -0.60528825523E+03 -0.89377807390E+03 -0.92398088520E+03  0.14208989421E+04  0.10100000352E+00 0. -1.
</event>
<event>
 5   0  0.1404159E-04  0.2163697E+04  0.7818609E-02  0.8533692E-01
       -2   -1    0    0    0  501  0.00000000000E+00  0.00000000000E+00  0.19814339225E+04  0.19814339225E+04  0.25500000920E-02 0.  1.
        2   -1    0    0  501    0  0.00000000000E+00  0.00000000000E+00 -0.59068155416E+03  0.59068155417E+03  0.25500000920E-02 0. -1.
    10030    2    1    2    0    0  0.00000000000E+00  0.00000000000E+00  0.13907523684E+04  0.25721154767E+04  0.21636972698E+04 0.  0.
        5    1    3    3  502    0  0.30674886043E+03  0.63134457244E+02 -0.53560329602E+03  0.62046257242E+03  0.46999998093E+01 0. -1.
       -5    1    3    3    0  502 -0.30674886043E+03 -0.63134457244E+02  0.19263556644E+04  0.19516529043E+04  0.46999998093E+01 0.  1.
</event>
<event>
 5   0  0.1252124E-04  0.2213545E+04  0.7818609E-02  0.8512812E-01
       -2   -1    0    0    0  501  0.00000000000E+00  0.00000000000E+00  0.10874071506E+04  0.10874071506E+04  0.25500000920E-02 0.  1.
        2   -1    0    0  501    0  0.00000000000E+00  0.00000000000E+00 -0.11264825631E+04  0.11264825631E+04  0.25500000920E-02 0. -1.
    10030    2    1    2    0    0  0.00000000000E+00  0.00000000000E+00 -0.39075412498E+02  0.22138897136E+04  0.22135448440E+04 0.  0.
        3    1    3    3  502    0 -0.63452300968E+03  0.90213732240E+03 -0.11160630173E+03  0.11085698783E+04  0.10100000352E+00 0.  1.
       -3    1    3    3    0  502  0.63452300968E+03 -0.90213732240E+03  0.72530889235E+02  0.11053198353E+04  0.10100000352E+00 0. -1.
</event>
<event>
 5   0  0.1252124E-04  0.2166787E+04  0.7818609E-02  0.8532381E-01
       -2   -1    0    0    0  501  0.00000000000E+00  0.00000000000E+00  0.12008717007E+04  0.12008717007E+04  0.25500000920E-02 0.  1.
        2   -1    0    0  501    0  0.00000000000E+00  0.00000000000E+00 -0.97740805569E+03  0.97740805569E+03  0.25500000920E-02 0. -1.
    10030    2    1    2    0    0  0.00000000000E+00  0.00000000000E+00  0.22346364498E+03  0.21782797564E+04  0.21667871830E+04 0.  0.
        3    1    3    3  502    0  0.10473471063E+04 -0.12553783337E+03 -0.13665345167E+03  0.10636587257E+04  0.10100000352E+00 0. -1.
       -3    1    3    3    0  502 -0.10473471063E+04  0.12553783337E+03  0.36011709664E+03  0.11146210307E+04  0.10100000352E+00 0.  1.
</event>
<event>
 5   0  0.5861816E-05  0.2202208E+04  0.7818609E-02  0.8517510E-01
       -1   -1    0    0    0  501  0.00000000000E+00  0.00000000000E+00  0.10773970830E+04  0.10773970830E+04  0.50400001928E-02 0. -1.
        1   -1    0    0  501    0  0.00000000000E+00  0.00000000000E+00 -0.11253321725E+04  0.11253321725E+04  0.50400001928E-02 0.  1.
    10030    2    1    2    0    0  0.00000000000E+00  0.00000000000E+00 -0.47935089572E+02  0.22027292555E+04  0.22022076197E+04 0.  0.
        1    1    3    3  502    0 -0.38313080959E+03  0.36638477275E+02  0.10079250194E+04  0.10789089118E+04  0.50400001928E-02 0. -1.
       -1    1    3    3    0  502  0.38313080959E+03 -0.36638477275E+02 -0.10558601089E+04  0.11238203437E+04  0.50400001928E-02 0.  1.
</event>
<event>
 5   0  0.5981239E-05  0.2107924E+04  0.7818609E-02  0.8557761E-01
        1   -1    0    0  501    0  0.00000000000E+00  0.00000000000E+00  0.11067814045E+04  0.11067814045E+04  0.50400001928E-02 0.  1.
       -1   -1    0    0    0  501  0.00000000000E+00  0.00000000000E+00 -0.10036632933E+04  0.10036632933E+04  0.50400001928E-02 0. -1.
    10030    2    1    2    0    0  0.00000000000E+00  0.00000000000E+00  0.10311811125E+03  0.21104446978E+04  0.21079239734E+04 0.  0.
        4    1    3    3  502    0 -0.10222631308E+04 -0.18471731535E+03  0.22979402133E+03  0.10639310599E+04  0.12699999809E+01 0. -1.
       -4    1    3    3    0  502  0.10222631308E+04  0.18471731535E+03 -0.12667591008E+03  0.10465136379E+04  0.12699999809E+01 0.  1.
</event>
<event>
 5   0  0.5861816E-05  0.2215245E+04  0.7818609E-02  0.8512110E-01
        1   -1    0    0  501    0  0.00000000000E+00  0.00000000000E+00  0.17656413185E+04  0.17656413185E+04  0.50400001928E-02 0. -1.
       -1   -1    0    0    0  501  0.00000000000E+00  0.00000000000E+00 -0.69483369090E+03  0.69483369091E+03  0.50400001928E-02 0.  1.
    10030    2    1    2    0    0  0.00000000000E+00  0.00000000000E+00  0.10708076276E+04  0.24604750094E+04  0.22152445230E+04 0.  0.
        1    1    3    3  502    0  0.74091892440E+03  0.23620548965E+03 -0.34062426902E+03  0.84898691306E+03  0.50400001928E-02 0.  1.
       -1    1    3    3    0  502 -0.74091892440E+03 -0.23620548965E+03  0.14114318966E+04  0.16114880963E+04  0.50400001928E-02 0. -1.
</event>
<event>
 5   0  0.5895063E-05  0.2054303E+04  0.7818609E-02  0.8581645E-01
       -1   -1    0    0    0  501  0.00000000000E+00  0.00000000000E+00  0.78236860203E+03  0.78236860205E+03  0.50400001928E-02 0. -1.
        1   -1    0    0  501    0  0.00000000000E+00  0.00000000000E+00 -0.13485203709E+04  0.13485203709E+04  0.50400001928E-02 0.  1.
    10030    2    1    2    0    0  0.00000000000E+00  0.00000000000E+00 -0.56615176886E+03  0.21308889729E+04  0.20543027989E+04 0.  0.
        5    1    3    3  502    0  0.83760559416E+03  0.28918940285E+03 -0.82186742665E+03  0.12085949690E+04  0.46999998093E+01 0.  1.
       -5    1    3    3    0  502 -0.83760559416E+03 -0.28918940285E+03  0.25571565779E+03  0.92229400395E+03  0.46999998093E+01 0. -1.
</event>
<event>
 5   0  0.6263558E-05  0.2220242E+04  0.7818609E-02  0.8510050E-01
        1   -1    0    0  501    0  0.00000000000E+00  0.00000000000E+00  0.10151015075E+04  0.10151015075E+04  0.50400001928E-02 0.  1.
       -1   -1    0    0    0  501  0.00000000000E+00  0.00000000000E+00 -0.12140350760E+04  0.12140350760E+04  0.50400001928E-02 0. -1.
    10030    2    1    2    0    0  0.00000000000E+00  0.00000000000E+00 -0.19893356850E+03  0.22291365835E+04  0.22202421812E+04 0.  0.
        3    1    3    3  502    0 -0.46162608725E+03  0.18728634469E+03  0.89657300550E+03  0.10256792792E+04  0.10100000352E+00 0.  1.
       -3    1    3    3    0  502  0.46162608725E+03 -0.18728634469E+03 -0.10955065740E+04  0.12034573043E+04  0.10100000352E+00 0. -1.
</event>
<event>
 5   0  0.5981239E-05  0.2180726E+04  0.7818609E-02  0.8526494E-01
        1   -1    0    0  501    0  0.00000000000E+00  0.00000000000E+00  0.11177320472E+04  0.11177320473E+04  0.50400001928E-02 0. -1.
       -1   -1    0    0    0  501  0.00000000000E+00  0.00000000000E+00 -0.10636636752E+04  0.10636636752E+04  0.50400001928E-02 0.  1.
    10030    2    1    2    0    0  0.00000000000E+00  0.00000000000E+00  0.54068372075E+02  0.21813957224E+04  0.21807255465E+04 0.  0.
        4    1    3    3  502    0 -0.99322928123E+03 -0.30981932049E+03  0.35331987887E+03  0.10987852229E+04  0.12699999809E+01 0. -1.
       -4    1    3    3    0  502  0.99322928123E+03  0.30981932049E+03 -0.29925150679E+03  0.10826104995E+04  0.12699999809E+01 0.  1.
</event>
<event>
 5   0  0.5849604E-05  0.2135003E+04  0.7818609E-02  0.8545979E-01
        1   -1    0    0  501    0  0.00000000000E+00  0.00000000000E+00  0.15741596828E+04  0.15741596828E+04  0.50400001928E-02 0.  1.
       -1   -1    0    0    0  501  0.00000000000E+00  0.00000000000E+00 -0.72391615043E+03  0.72391615045E+03  0.50400001928E-02 0. -1.
    10030    2    1    2    0    0  0.00000000000E+00  0.00000000000E+00  0.85024353232E+03  0.22980758332E+04  0.21350031548E+04 0.  0.
        2    1    3    3  502    0 -0.52703170583E+03 -0.84635627699E+01  0.14243169310E+04  0.15187207679E+04  0.25500000920E-02 0.  1.
       -2    1    3    3    0  502  0.52703170583E+03  0.84635627699E+01 -0.57407339866E+03  0.77935506536E+03  0.25500000920E-02 0. -1.
</event>
<event>
 5   0  0.1226021E-04  0.2167124E+04  0.7818609E-02  0.8532238E-01
       -2   -1    0    0    0  501  0.00000000000E+00  0.00000000000E+00  0.17769917575E+04  0.17769917575E+04  0.25500000920E-02 0. -1.
        2   -1    0    0  501    0  0.00000000000E+00  0.00000000000E+00 -0.66072713796E+03  0.66072713797E+03  0.25500000920E-02 0.  1.
    10030    2    1    2    0    0  0.00000000000E+00  0.00000000000E+00  0.11162646195E+04  0.24377188954E+04  0.21671240648E+04 0.  0.
        2    1    3    3  502    0 -0.38805524893E+03 -0.72400519514E+03  0.13530028646E+04  0.15828414799E+04  0.25500000920E-02 0. -1.
       -2    1    3    3    0  502  0.38805524893E+03  0.72400519514E+03 -0.23673824514E+03  0.85487741550E+03  0.25500000920E-02 0.  1.
</event>
<event>
 5   0  0.5895063E-05  0.2173972E+04  0.7818609E-02  0.8529340E-01
       -1   -1    0    0    0  501  0.00000000000E+00  0.00000000000E+00  0.61923918387E+03  0.61923918389E+03  0.50400001928E-02 0. -1.
        1   -1    0    0  501    0  0.00000000000E+00  0.00000000000E+00 -0.19080494457E+04  0.19080494457E+04  0.50400001928E-02 0.  1.
    10030    2    1    2    0    0  0.00000000000E+00  0.00000000000E+00 -0.12888102619E+04  0.25272886296E+04  0.21739723840E+04 0.  0.
        5    1    3    3  502    0  0.40836501865E+03 -0.52098211923E+03  0.35788254736E+03  0.75252000951E+03  0.46999998093E+01 0. -1.
       -5    1    3    3    0  502 -0.40836501865E+03  0.52098211923E+03 -0.16466928092E+04  0.17747686201E+04  0.46999998093E+01 0.  1.
</event>
<event>
 5   0  0.6263558E-05  0.2382184E+04  0.7818609E-02  0.8446204E-01
       -1   -1    0    0    0  501  0.00000000000E+00  0.00000000000E+00  0.10057128510E+04  0.10057128510E+04  0.50400001928E-02 0. -1.
        1   -1    0    0  501    0  0.00000000000E+00  0.00000000000E+00 -0.14106416741E+04  0.14106416741E+04  0.50400001928E-02 0.  1.
    10030    2    1    2    0    0  0.00000000000E+00  0.00000000000E+00 -0.40492882316E+03  0.24163545251E+04  0.23821842581E+04 0.  0.
        3    1    3    3  502    0  0.85288934785E+03  0.19494878733E+03 -0.10223124892E+04  0.13455660910E+04  0.10100000352E+00 0.  1.
       -3    1    3    3    0  502 -0.85288934785E+03 -0.19494878733E+03  0.61738366609E+03  0.10707884341E+04  0.10100000352E+00 0. -1.
</event>
<event>
 5   0  0.1226021E-04  0.2206518E+04  0.7818609E-02  0.8515720E-01
       -2   -1    0    0    0  501  0.00000000000E+00  0.00000000000E+00  0.94323733723E+03  0.94323733723E+03  0.25500000920E-02 0. -1.
        2   -1    0    0  501    0  0.00000000000E+00  0.00000000000E+00 -0.12904286347E+04  0.12904286347E+04  0.25500000920E-02 0.  1.
    10030    2    1    2    0    0  0.00000000000E+00  0.00000000000E+00 -0.34719129744E+03  0.22336659719E+04  0.22065180437E+04 0.  0.
        2    1    3    3  502    0 -0.42475780787E+03  0.86983225583E+03  0.36221146728E+03  0.10335494645E+04  0.25500000920E-02 0. -1.
       -2    1    3    3    0  502  0.42475780787E+03 -0.86983225583E+03 -0.70940276472E+03  0.12001165074E+04  0.25500000920E-02 0.  1.
</event>
<event>
 5   0  0.5849604E-05  0.2184372E+04  0.7818609E-02  0.8524961E-01
        1   -1    0    0  501    0  0.00000000000E+00  0.00000000000E+00  0.19066225924E+04  0.19066225925E+04  0.50400001928E-02 0.  1.
       -1   -1    0    0    0  501  0.00000000000E+00  0.00000000000E+00 -0.62564547146E+03  0.62564547148E+03  0.50400001928E-02 0. -1.
    10030    2    1    2    0    0  0.00000000000E+00  0.00000000000E+00  0.12809771210E+04  0.25322680639E+04  0.21843715717E+04 0.  0.
        2    1    3    3  502    0 -0.40716255078E+03  0.49419182833E+03  0.16662019245E+04  0.17850030138E+04  0.25500000920E-02 0.  1.
       -2    1    3    3    0  502  0.40716255078E+03 -0.49419182833E+03 -0.38522480352E+03  0.74726505017E+03  0.25500000920E-02 0. -1.
</event>
<event>
 5   0  0.5895063E-05  0.2179396E+04  0.7818609E-02  0.8527053E-01
        1   -1    0    0  501    0  0.00000000000E+00  0.00000000000E+00  0.15729637178E+04  0.15729637178E+04  0.50400001928E-02 0. -1.
       -1   -1    0    0    0  501  0.00000000000E+00  0.00000000000E+00 -0.75490713154E+03  0.75490713155E+03  0.50400001928E-02 0.  1.
    10030    2    1    2    0    0  0.00000000000E+00  0.00000000000E+00  0.81805658626E+03  0.23278708494E+04  0.21793958137E+04 0.  0.
        5    1    3    3  502    0  0.34531234674E+03 -0.99535125520E+03  0.70629526432E+03  0.12684005000E+04  0.46999998093E+01 0. -1.
       -5    1    3    3    0  502 -0.34531234674E+03  0.99535125520E+03  0.11176132194E+03  0.10594703493E+04  0.46999998093E+01 0.  1.
</event>
<event>
 5   0  0.1241430E-04  0.2202882E+04  0.7818609E-02  0.8517229E-01
        2   -1    0    0  501    0  0.00000000000E+00  0.00000000000E+00  0.13909705966E+04  0.13909705967E+04  0.25500000920E-02 0. -1.
       -2   -1    0    0    0  501  0.00000000000E+00  0.00000000000E+00 -0.87217694596E+03  0.87217694596E+03  0.25500000920E-02 0.  1.
    10030    2    1    2    0    0  0.00000000000E+00  0.00000000000E+00  0.51879365069E+03  0.22631475426E+04  0.22028821910E+04 0.  0.
        1    1    3    3  502    0 -0.33277354476E+03 -0.27878769066E+03  0.12993707229E+04  0.13699726582E+04  0.50400001928E-02 0. -1.
       -1    1    3    3    0  502  0.33277354476E+03  0.27878769066E+03 -0.78057707220E+03  0.89317488446E+03  0.50400001928E-02 0.  1.
</event>
<event>
 5   0  0.1226021E-04  0.2024475E+04  0.7818609E-02  0.8595263E-01
       -2   -1    0    0    0  501  0.00000000000E+00  0.00000000000E+00  0.13232492942E+04  0.13232492942E+04  0.25500000920E-02 0.  1.
        2   -1    0    0  501    0  0.00000000000E+00  0.00000000000E+00 -0.77432463193E+03  0.77432463194E+03  0.25500000920E-02 0. -1.
    10030    2    1    2    0    0  0.00000000000E+00  0.00000000000E+00  0.54892466229E+03  0.20975739262E+04  0.20244747691E+04 0.  0.
        2    1    3    3  502    0 -0.61835939807E+03  0.20053542938E+03 -0.52946760503E+03  0.83840249786E+03  0.25500000920E-02 0. -1.
       -2    1    3    3    0  502  0.61835939807E+03 -0.20053542938E+03  0.10783922673E+04  0.12591714283E+04  0.25500000920E-02 0.  1.
</event>
<event>
 5   0  0.1311472E-04  0.2191458E+04  0.7818609E-02  0.8521992E-01
       -2   -1    0    0    0  501  0.00000000000E+00  0.00000000000E+00  0.10213641146E+04  0.10213641146E+04  0.25500000920E-02 0.  1.
        2   -1    0    0  501    0  0.00000000000E+00  0.00000000000E+00 -0.11755080690E+04  0.11755080690E+04  0.25500000920E-02 0. -1.
    10030    2    1    2    0    0  0.00000000000E+00  0.00000000000E+00 -0.15414395440E+03  0.21968721836E+04  0.21914577414E+04 0.  0.
        4    1    3    3  502    0  0.57193739802E+03  0.75896298950E+03 -0.62383951346E+03  0.11368001399E+04  0.12699999809E+01 0. -1.
       -4    1    3    3    0  502 -0.57193739802E+03 -0.75896298950E+03  0.46969555907E+03  0.10600720437E+04  0.12699999809E+01 0.  1.
</event>
<event>
 5   0  0.1252124E-04  0.2173449E+04  0.7818609E-02  0.8529561E-01
        2   -1    0    0  501    0  0.00000000000E+00  0.00000000000E+00  0.11286692371E+04  0.11286692371E+04  0.25500000920E-02 0.  1.
       -2   -1    0    0    0  501  0.00000000000E+00  0.00000000000E+00 -0.10463382840E+04  0.10463382840E+04  0.25500000920E-02 0. -1.
    10030    2    1    2    0    0  0.00000000000E+00  0.00000000000E+00  0.82330953132E+02  0.21750075211E+04  0.21734487183E+04 0.  0.
        3    1    3    3  502    0  0.48539561901E+03  0.58796715162E+03  0.81609515178E+03  0.11168373137E+04  0.10100000352E+00 0.  1.
       -3    1    3    3    0  502 -0.48539561901E+03 -0.58796715162E+03 -0.73376419865E+03  0.10581702074E+04  0.10100000352E+00 0. -1.
</event>
<event>
 5   0  0.1311472E-04  0.2096179E+04  0.7818609E-02  0.8562928E-01
       -2   -1    0    0    0  501  0.00000000000E+00  0.00000000000E+00  0.99685127791E+03  0.99685127791E+03  0.25500000920E-02 0.  1.
        2   -1    0    0  501    0  0.00000000000E+00  0.00000000000E+00 -0.11019613569E+04  0.11019613569E+04  0.25500000920E-02 0. -1.
    10030    2    1    2    0    0  0.00000000000E+00  0.00000000000E+00 -0.10511007901E+03  0.20988126348E+04  0.20961789874E+04 0.  0.
        4    1    3    3  502    0 -0.43121116132E+03  0.20918457299E+03  0.88070440629E+03  0.10026679986E+04  0.12699999809E+01 0.  1.
       -4    1    3    3    0  502  0.43121116132E+03 -0.20918457299E+03 -0.98581448531E+03  0.10961446362E+04  0.12699999809E+01 0. -1.
</event>
<event>
 5   0  0.1241430E-04  0.2157181E+04  0.7818609E-02  0.8536465E-01
        2   -1    0    0  501    0  0.00000000000E+00  0.00000000000E+00  0.14462402815E+04  0.14462402815E+04  0.25500000920E-02 0. -1.
       -2   -1    0    0    0  501  0.00000000000E+00  0.00000000000E+00 -0.80440092262E+03  0.80440092262E+03  0.25500000920E-02 0.  1.
    10030    2    1    2    0    0  0.00000000000E+00  0.00000000000E+00  0.64183935886E+03  0.22506412041E+04  0.21571805828E+04 0.  0.
        1    1    3    3  502    0 -0.83962838543E+03 -0.58516810411E+03 -0.34362066673E+02  0.10240011169E+04  0.50400001928E-02 0.  1.
       -1    1    3    3    0  502  0.83962838543E+03  0.58516810411E+03  0.67620142553E+03  0.12266400872E+04  0.50400001928E-02 0. -1.
</event>
<event>
 5   0  0.5849604E-05  0.2216004E+04  0.7818609E-02  0.8511796E-01
        1   -1    0    0  501    0  0.00000000000E+00  0.00000000000E+00  0.23555568644E+04  0.23555568644E+04  0.50400001928E-02 0.  1.
       -1   -1    0    0    0  501  0.00000000000E+00  0.00000000000E+00 -0.52117987522E+03  0.52117987525E+03  0.50400001928E-02 0. -1.
    10030    2    1    2    0    0  0.00000000000E+00  0.00000000000E+00  0.18343769892E+04  0.28767367397E+04  0.22160043617E+04 0.  0.
        2    1    3    3  502    0  0.10862566454E+04  0.20281633417E+03  0.10224988523E+04  0.15055204642E+04  0.25500000920E-02 0.  1.
       -2    1    3    3    0  502 -0.10862566454E+04 -0.20281633417E+03  0.81187813690E+03  0.13712162755E+04  0.25500000920E-02 0. -1.
</event>
<event>
 5   0  0.1226021E-04  0.2196386E+04  0.7818609E-02  0.8519934E-01
       -2   -1    0    0    0  501  0.00000000000E+00  0.00000000000E+00  0.10591868200E+04  0.10591868200E+04  0.25500000920E-02 0.  1.
        2   -1    0    0  501    0  0.00000000000E+00  0.00000000000E+00 -0.11386354301E+04  0.11386354301E+04  0.25500000920E-02 0. -1.
    10030    2    1    2    0    0  0.00000000000E+00  0.00000000000E+00 -0.79448610178E+02  0.21978222501E+04  0.21963857952E+04 0.  0.
        2    1    3    3  502    0  0.34773306024E+03  0.40548153660E+03  0.92043128641E+03  0.10642026643E+04  0.25500000920E-02 0.  1.
       -2    1    3    3    0  502 -0.34773306024E+03 -0.40548153660E+03 -0.99987989658E+03  0.11336195858E+04  0.25500000920E-02 0. -1.
</event>
<event>
 5   0  0.1252124E-04  0.2180835E+04  0.7818609E-02  0.8526447E-01
       -2   -1    0    0    0  501  0.00000000000E+00  0.00000000000E+00  0.74733872125E+03  0.74733872125E+03  0.25500000920E-02 0. -1.
        2   -1    0    0  501    0  0.00000000000E+00  0.00000000000E+00 -0.15909931932E+04  0.15909931932E+04  0.25500000920E-02 0.  1.
    10030    2    1    2    0    0  0.00000000000E+00  0.00000000000E+00 -0.84365447193E+03  0.23383319144E+04  0.21808354532E+04 0.  0.
        3    1    3    3  502    0  0.10627783950E+04 -0.13196730092E+02 -0.68301474906E+03  0.12634006602E+04  0.10100000352E+00 0.  1.
       -3    1    3    3    0  502 -0.10627783950E+04  0.13196730092E+02 -0.16063972287E+03  0.10749312542E+04  0.10100000352E+00 0. -1.
</event>
<event>
 5   0  0.1404159E-04  0.2206256E+04  0.7818609E-02  0.8515829E-01
        2   -1    0    0  501    0  0.00000000000E+00  0.00000000000E+00  0.86370186711E+03  0.86370186711E+03  0.25500000920E-02 0.  1.
       -2   -1    0    0    0  501  0.00000000000E+00  0.00000000000E+00 -0.14089258729E+04  0.14089258729E+04  0.25500000920E-02 0. -1.
    10030    2    1    2    0    0  0.00000000000E+00  0.00000000000E+00 -0.54522400579E+03  0.22726277400E+04  0.22062564738E+04 0.  0.
        5    1    3    3  502    0 -0.75349561605E+03 -0.80521704073E+03 -0.24459656236E+03  0.11295927117E+04  0.46999998093E+01 0. -1.
       -5    1    3    3    0  502  0.75349561605E+03  0.80521704073E+03 -0.30062744343E+03  0.11430350283E+04  0.46999998093E+01 0.  1.
</event>
<event>
 5   0  0.1241430E-04  0.2207656E+04  0.7818609E-02  0.8515248E-01
        2   -1    0    0  501    0  0.00000000000E+00  0.00000000000E+00  0.76208313131E+03  0.76208313132E+03  0.25500000920E-02 0. -1.
       -2   -1    0    0    0  501  0.00000000000E+00  0.00000000000E+00 -0.15988239307E+04  0.15988239307E+04  0.25500000920E-02 0.  1.
    10030    2    1    2    0    0  0.00000000000E+00  0.00000000000E+00 -0.83674079942E+03  0.23609070621E+04  0.22076564475E+04 0.  0.
        1    1    3    3  502    0 -0.16843717056E+03  0.13483751245E+03 -0.15760538066E+04  0.15907538579E+04  0.50400001928E-02 0.  1.
       -1    1    3    3    0  502  0.16843717056E+03 -0.13483751245E+03  0.73931300719E+03  0.77015320412E+03  0.50400001928E-02 0. -1.
</event>
<event>
 5   0  0.5861816E-05  0.2167770E+04  0.7818609E-02  0.8531964E-01
       -1   -1    0    0    0  501  0.00000000000E+00  0.00000000000E+00  0.85733313415E+03  0.85733313417E+03  0.50400001928E-02 0.  1.
        1   -1    0    0  501    0  0.00000000000E+00  0.00000000000E+00 -0.13703040858E+04  0.13703040858E+04  0.50400001928E-02 0. -1.
    10030    2    1    2    0    0  0.00000000000E+00  0.00000000000E+00 -0.51297095163E+03  0.22276372200E+04  0.21677703722E+04 0.  0.
        1    1    3    3  502    0 -0.27653768661E+03  0.14319073550E+03  0.81037200581E+03  0.86814714575E+03  0.50400001928E-02 0.  1.
       -1    1    3    3    0  502  0.27653768661E+03 -0.14319073550E+03 -0.13233429574E+04  0.13594900742E+04  0.50400001928E-02 0. -1.
</event>
<event>
 5   0  0.1226021E-04  0.2219093E+04  0.7818609E-02  0.8510523E-01
       -2   -1    0    0    0  501  0.00000000000E+00  0.00000000000E+00  0.49407230602E+03  0.49407230602E+03  0.25500000920E-02 0. -1.
        2   -1    0    0  501    0  0.00000000000E+00  0.00000000000E+00 -0.24917277433E+04  0.24917277433E+04  0.25500000920E-02 0.  1.
    10030    2    1    2    0    0  0.00000000000E+00  0.00000000000E+00 -0.19976554373E+04  0.29858000493E+04  0.22190932131E+04 0.  0.
        2    1    3    3  502    0  0.11015659388E+04 -0.54160236383E+02 -0.11620326161E+04  0.16020925846E+04  0.25500000920E-02 0.  1.
       -2    1    3    3    0  502 -0.11015659388E+04  0.54160236383E+02 -0.83562282118E+03  0.13837074647E+04  0.25500000920E-02 0. -1.
</event>
<event>
 5   0  0.6263558E-05  0.2046637E+04  0.7818609E-02  0.8585121E-01
       -1   -1    0    0    0  501  0.00000000000E+00  0.00000000000E+00  0.45886243719E+03  0.45886243721E+03  0.50400001928E-02 0. -1.
        1   -1    0    0  501    0  0.00000000000E+00  0.00000000000E+00 -0.22821241916E+04  0.22821241916E+04  0.50400001928E-02 0.  1.
    10030    2    1    2    0    0  0.00000000000E+00  0.00000000000E+00 -0.18232617544E+04  0.27409866288E+04  0.20466373089E+04 0.  0.
        3    1    3    3  502    0  0.41632103684E+03 -0.21917633241E+03 -0.21286814360E+04  0.21800564526E+04  0.10100000352E+00 0.  1.
       -3    1    3    3    0  502 -0.41632103684E+03  0.21917633241E+03  0.30541968163E+03  0.56093017617E+03  0.10100000352E+00 0. -1.
</event>
<event>
 5   0  0.1404159E-04  0.2229251E+04  0.7818609E-02  0.8506351E-01
        2   -1    0    0  501    0  0.00000000000E+00  0.00000000000E+00  0.15030725800E+04  0.15030725800E+04  0.25500000920E-02 0. -1.
       -2   -1    0    0    0  501  0.00000000000E+00  0.00000000000E+00 -0.82656672416E+03  0.82656672416E+03  0.25500000920E-02 0.  1.
    10030    2    1    2    0    0  0.00000000000E+00  0.00000000000E+00  0.67650585588E+03  0.23296393042E+04  0.22292507967E+04 0.  0.
        5    1    3    3  502    0  0.17722215451E+03 -0.36981419131E+03 -0.74485520017E+03  0.85029500019E+03  0.46999998093E+01 0.  1.
       -5    1    3    3    0  502 -0.17722215451E+03  0.36981419131E+03  0.14213610560E+04  0.14793443040E+04  0.46999998093E+01 0. -1.
</event>
<event>
 5   0  0.5849604E-05  0.2212796E+04  0.7818609E-02  0.8513121E-01
       -1   -1    0    0    0  501  0.00000000000E+00  0.00000000000E+00  0.79940735826E+03  0.79940735828E+03  0.50400001928E-02 0.  1.
        1   -1    0    0  501    0  0.00000000000E+00  0.00000000000E+00 -0.15312795918E+04  0.15312795918E+04  0.50400001928E-02 0. -1.
    10030    2    1    2    0    0  0.00000000000E+00  0.00000000000E+00 -0.73187223356E+03  0.23306869501E+04  0.22127956736E+04 0.  0.
        2    1    3    3  502    0 -0.36242923533E+03 -0.14579954834E+03  0.72434746258E+03  0.82297734202E+03  0.25500000920E-02 0.  1.
       -2    1    3    3    0  502  0.36242923533E+03  0.14579954834E+03 -0.14562196961E+04  0.15077096081E+04  0.25500000920E-02 0. -1.
</event>
<event>
 5   0  0.1311472E-04  0.2191239E+04  0.7818609E-02  0.8522083E-01
       -2   -1    0    0    0  501  0.00000000000E+00  0.00000000000E+00  0.11779078309E+04  0.11779078309E+04  0.25500000920E-02 0.  1.
        2   -1    0    0  501    0  0.00000000000E+00  0.00000000000E+00 -0.10190801404E+04  0.10190801404E+04  0.25500000920E-02 0. -1.
    10030    2    1    2    0    0  0.00000000000E+00  0.00000000000E+00  0.15882769051E+03  0.21969879714E+04  0.21912393550E+04 0.  0.
        4    1    3    3  502    0  0.77472687472E+03 -0.37312033240E+03  0.76013562498E+03  0.11477056653E+04  0.12699999809E+01 0.  1.
       -4    1    3    3    0  502 -0.77472687472E+03  0.37312033240E+03 -0.60130793447E+03  0.10492823061E+04  0.12699999809E+01 0. -1.
</event>
<event>
 5   0  0.5861816E-05  0.2226690E+04  0.7818609E-02  0.8507400E-01
        1   -1    0    0  501    0  0.00000000000E+00  0.00000000000E+00  0.16966039610E+04  0.16966039610E+04  0.50400001928E-02 0. -1.
       -1   -1    0    0    0  501  0.00000000000E+00  0.00000000000E+00 -0.73059909176E+03  0.73059909178E+03  0.50400001928E-02 0.  1.
    10030    2    1    2    0    0  0.00000000000E+00  0.00000000000E+00  0.96600486923E+03  0.24272030528E+04  0.22266902012E+04 0.  0.
        1    1    3    3  502    0 -0.93558427282E+03  0.17601366284E+03 -0.14624860832E+03  0.96316530073E+03  0.50400001928E-02 0.  1.
       -1    1    3    3    0  502  0.93558427282E+03 -0.17601366284E+03  0.11122534776E+04  0.14640377520E+04  0.50400001928E-02 0. -1.
</event>
<event>
 5   0  0.1241430E-04  0.2203013E+04  0.7818609E-02  0.8517175E-01
        2   -1    0    0  501    0  0.00000000000E+00  0.00000000000E+00  0.18583229910E+04  0.18583229910E+04  0.25500000920E-02 0.  1.
       -2   -1    0    0    0  501  0.00000000000E+00  0.00000000000E+00 -0.65290956886E+03  0.65290956887E+03  0.25500000920E-02 0. -1.
    10030    2    1    2    0    0  0.00000000000E+00  0.00000000000E+00  0.12054134221E+04  0.25112325599E+04  0.22030132663E+04 0.  0.
        1    1    3    3  502    0 -0.81755063865E+03 -0.41344834725E+02 -0.23744374122E+03  0.85233677170E+03  0.50400001928E-02 0. -1.
       -1    1    3    3    0  502  0.81755063865E+03  0.41344834725E+02  0.14428571634E+04  0.16588957882E+04  0.50400001928E-02 0.  1.
</event>
<event>
 5   0  0.5981239E-05  0.2220359E+04  0.7818609E-02  0.8510002E-01
        1   -1    0    0  501    0  0.00000000000E+00  0.00000000000E+00  0.53788269188E+03  0.53788269191E+03  0.50400001928E-02 0.  1.
       -1   -1    0    0    0  501  0.00000000000E+00  0.00000000000E+00 -0.22913888634E+04  0.22913888634E+04  0.50400001928E-02 0. -1.
    10030    2    1    2    0    0  0.00000000000E+00  0.00000000000E+00 -0.17535061715E+04  0.28292715553E+04  0.22203588990E+04 0.  0.
        4    1    3    3  502    0 -0.89880177451E+03 -0.49788805361E+03 -0.34102671542E+03  0.10826070281E+04  0.12699999809E+01 0.  1.
       -4    1    3    3    0  502  0.89880177451E+03  0.49788805361E+03 -0.14124794561E+04  0.17466645272E+04  0.12699999809E+01 0. -1.
</event>
<event>
 5   0  0.1252124E-04  0.2062280E+04  0.7818609E-02  0.8578044E-01
        2   -1    0    0  501    0  0.00000000000E+00  0.00000000000E+00  0.11581517034E+04  0.11581517034E+04  0.25500000920E-02 0. -1.
       -2   -1    0    0    0  501  0.00000000000E+00  0.00000000000E+00 -0.91805765187E+03  0.91805765187E+03  0.25500000920E-02 0.  1.
    10030    2    1    2    0    0  0.00000000000E+00  0.00000000000E+00  0.24009405153E+03  0.20762093553E+04  0.20622803237E+04 0.  0.
        3    1    3    3  502    0 -0.32658652367E+03 -0.51589323687E+03 -0.71649569855E+03  0.94136639282E+03  0.10100000352E+00 0.  1.
       -3    1    3    3    0  502  0.32658652367E+03  0.51589323687E+03  0.95658975007E+03  0.11348429625E+04  0.10100000352E+00 0. -1.
</event>
<event>
 5   0  0.6263558E-05  0.2230130E+04  0.7818609E-02  0.8505991E-01
        1   -1    0    0  501    0  0.00000000000E+00  0.00000000000E+00  0.16243633387E+04  0.16243633387E+04  0.50400001928E-02 0.  1.
       -1   -1    0    0    0  501  0.00000000000E+00  0.00000000000E+00 -0.76545066830E+03  0.76545066832E+03  0.50400001928E-02 0. -1.
    10030    2    1    2    0    0  0.00000000000E+00  0.00000000000E+00  0.85891267043E+03  0.23898140071E+04  0.22301300439E+04 0.  0.
        3    1    3    3  502    0  0.66986547894E+03  0.30129000172E+03  0.13285015849E+04  0.15180289511E+04  0.10100000352E+00 0.  1.
       -3    1    3    3    0  502 -0.66986547894E+03 -0.30129000172E+03 -0.46958891449E+03  0.87178505597E+03  0.10100000352E+00 0. -1.
</event>
<event>
 5   0  0.1241430E-04  0.2176599E+04  0.7818609E-02  0.8528232E-01
        2   -1    0    0  501    0  0.00000000000E+00  0.00000000000E+00  0.10161580053E+04  0.10161580053E+04  0.25500000920E-02 0. -1.
       -2   -1    0    0    0  501  0.00000000000E+00  0.00000000000E+00 -0.11655625382E+04  0.11655625382E+04  0.25500000920E-02 0.  1.
    10030    2    1    2    0    0  0.00000000000E+00  0.00000000000E+00 -0.14940453293E+03  0.21817205435E+04  0.21765989101E+04 0.  0.
        1    1    3    3  502    0 -0.51148060574E+03  0.95814594185E+03 -0.14370936263E+03  0.10955858875E+04  0.50400001928E-02 0. -1.
       -1    1    3    3    0  502  0.51148060574E+03 -0.95814594185E+03 -0.56951703059E+01  0.10861346560E+04  0.50400001928E-02 0.  1.
</event>
<event>
 5   0  0.5981239E-05  0.1706400E+04  0.7818609E-02  0.8757723E-01
        1   -1    0    0  501    0  0.00000000000E+00  0.00000000000E+00  0.88620378188E+03  0.88620378190E+03  0.50400001928E-02 0.  1.
       -1   -1    0    0    0  501  0.00000000000E+00  0.00000000000E+00 -0.82142516197E+03  0.82142516199E+03  0.50400001928E-02 0. -1.
    10030    2    1    2    0    0  0.00000000000E+00  0.00000000000E+00  0.64778619909E+02  0.17076289439E+04  0.17063998185E+04 0.  0.
        4    1    3    3  502    0 -0.82676815699E+03 -0.17956175758E+03  0.14274322589E+03  0.85800072939E+03  0.12699999809E+01 0.  1.
       -4    1    3    3    0  502  0.82676815699E+03  0.17956175758E+03 -0.77964605985E+02  0.84962821450E+03  0.12699999809E+01 0. -1.
</event>
<event>
 5   0  0.1252124E-04  0.2200085E+04  0.7818609E-02  0.8518393E-01
        2   -1    0    0  501    0  0.00000000000E+00  0.00000000000E+00  0.18950835158E+04  0.18950835158E+04  0.25500000920E-02 0. -1.
       -2   -1    0    0    0  501  0.00000000000E+00  0.00000000000E+00 -0.63854341328E+03  0.63854341328E+03  0.25500000920E-02 0.  1.
    10030    2    1    2    0    0  0.00000000000E+00  0.00000000000E+00  0.12565401025E+04  0.25336269290E+04  0.22000846316E+04 0.  0.
        3    1    3    3  502    0  0.27584512948E+03  0.98385068440E+03  0.15901372027E+03  0.10340880417E+04  0.10100000352E+00 0.  1.
       -3    1    3    3    0  502 -0.27584512948E+03 -0.98385068440E+03  0.10975263822E+04  0.14995388873E+04  0.10100000352E+00 0. -1.
</event>
<event>
 5   0  0.5981239E-05  0.2124040E+04  0.7818609E-02  0.8550727E-01
        1   -1    0    0  501    0  0.00000000000E+00  0.00000000000E+00  0.11521980149E+04  0.11521980149E+04  0.50400001928E-02 0.  1.
       -1   -1    0    0    0  501  0.00000000000E+00  0.00000000000E+00 -0.97889962092E+03  0.97889962093E+03  0.50400001928E-02 0. -1.
    10030    2    1    2    0    0  0.00000000000E+00  0.00000000000E+00  0.17329839396E+03  0.21310976358E+04  0.21240397360E+04 0.  0.
        4    1    3    3  502    0  0.54427639844E+03  0.22890631848E+03 -0.79903527024E+03  0.99352598181E+03  0.12699999809E+01 0. -1.
       -4    1    3    3    0  502 -0.54427639844E+03 -0.22890631848E+03  0.97233366421E+03  0.11375716540E+04  0.12699999809E+01 0.  1.
</event>
<event>
 5   0  0.4586375E-05  0.2158706E+04  0.7818609E-02  0.8535815E-01
       -3   -1    0    0    0  501  0.00000000000E+00  0.00000000000E+00  0.24613245507E+04  0.24613245527E+04  0.10100000352E+00 0. -1.
        3   -1    0    0  501    0  0.00000000000E+00  0.00000000000E+00 -0.47332375173E+03  0.47332376250E+03  0.10100000352E+00 0.  1.
    10030    2    1    2    0    0  0.00000000000E+00  0.00000000000E+00  0.19880007989E+04  0.29346483152E+04  0.21587064547E+04 0.  0.
        2    1    3    3  502    0 -0.74461200275E+03 -0.60082737642E+03  0.31487118342E+03  0.10072658205E+04  0.25500000920E-02 0. -1.
       -2    1    3    3    0  502  0.74461200275E+03  0.60082737642E+03  0.16731296155E+04  0.19273824948E+04  0.25500000920E-02 0.  1.
</event>
<event>
 5   0  0.5981239E-05  0.1860878E+04  0.7818609E-02  0.8674579E-01
        1   -1    0    0  501    0  0.00000000000E+00  0.00000000000E+00  0.12920843327E+04  0.12920843327E+04  0.50400001928E-02 0. -1.
       -1   -1    0    0    0  501  0.00000000000E+00  0.00000000000E+00 -0.67001540228E+03  0.67001540229E+03  0.50400001928E-02 0.  1.
    10030    2    1    2    0    0  0.00000000000E+00  0.00000000000E+00  0.62206893040E+03  0.19620997350E+04  0.18608776467E+04 0.  0.
        4    1    3    3  502    0 -0.85476887712E+03  0.36633097915E+03  0.34242943987E+03  0.99100340755E+03  0.12699999809E+01 0.  1.
       -4    1    3    3    0  502  0.85476887712E+03 -0.36633097915E+03  0.27963949053E+03  0.97109632743E+03  0.12699999809E+01 0. -1.
</event>
<event>
 5   0  0.5895063E-05  0.1850069E+04  0.7818609E-02  0.8680117E-01
        1   -1    0    0  501    0  0.00000000000E+00  0.00000000000E+00  0.10249508056E+04  0.10249508056E+04  0.50400001928E-02 0.  1.
       -1   -1    0    0    0  501  0.00000000000E+00  0.00000000000E+00 -0.83485884986E+03  0.83485884988E+03  0.50400001928E-02 0. -1.
    10030    2    1    2    0    0  0.00000000000E+00  0.00000000000E+00  0.19009195571E+03  0.18598096555E+04  0.18500694589E+04 0.  0.
        5    1    3    3  502    0  0.32658969058E+03 -0.75123474054E+03 -0.33692870516E+03  0.88575250705E+03  0.46999998093E+01 0. -1.
       -5    1    3    3    0  502 -0.32658969058E+03  0.75123474054E+03  0.52702066087E+03  0.97405714841E+03  0.46999998093E+01 0.  1.
</event>
<event>
 5   0  0.1226021E-04  0.2149407E+04  0.7818609E-02  0.8539786E-01
       -2   -1    0    0    0  501  0.00000000000E+00  0.00000000000E+00  0.44801770007E+03  0.44801770007E+03  0.25500000920E-02 0.  1.
        2   -1    0    0  501    0  0.00000000000E+00  0.00000000000E+00 -0.25779958104E+04  0.25779958104E+04  0.25500000920E-02 0. -1.
    10030    2    1    2    0    0  0.00000000000E+00  0.00000000000E+00 -0.21299781104E+04  0.30260135105E+04  0.21494071311E+04 0.  0.
        2    1    3    3  502    0 -0.42793264470E+03 -0.81494228302E+03 -0.18459646004E+04  0.20627269763E+04  0.25500000920E-02 0. -1.
       -2    1    3    3    0  502  0.42793264470E+03  0.81494228302E+03 -0.28401350998E+03  0.96328653417E+03  0.25500000920E-02 0.  1.
</event>
<event>
 5   0  0.1311472E-04  0.2083959E+04  0.7818609E-02  0.8568343E-01
       -2   -1    0    0    0  501  0.00000000000E+00  0.00000000000E+00  0.57972743459E+03  0.57972743459E+03  0.25500000920E-02 0. -1.
        2   -1    0    0  501    0  0.00000000000E+00  0.00000000000E+00 -0.18728125548E+04  0.18728125548E+04  0.25500000920E-02 0.  1.
    10030    2    1    2    0    0  0.00000000000E+00  0.00000000000E+00 -0.12930851202E+04  0.24525399894E+04  0.20839585580E+04 0.  0.
        4    1    3    3  502    0 -0.79797387055E+02 -0.80298210923E+03 -0.14223564431E+04  0.16353126168E+04  0.12699999809E+01 0.  1.
       -4    1    3    3    0  502  0.79797387055E+02  0.80298210923E+03  0.12927132282E+03  0.81722737260E+03  0.12699999809E+01 0. -1.
</event>
<event>
 5   0  0.1252124E-04  0.2186310E+04  0.7818609E-02  0.8524148E-01
        2   -1    0    0  501    0  0.00000000000E+00  0.00000000000E+00  0.14437477783E+04  0.14437477783E+04  0.25500000920E-02 0. -1.
       -2   -1    0    0    0  501  0.00000000000E+00  0.00000000000E+00 -0.82769848856E+03  0.82769848856E+03  0.25500000920E-02 0.  1.
    10030    2    1    2    0    0  0.00000000000E+00  0.00000000000E+00  0.61604928978E+03  0.22714462669E+04  0.21863100000E+04 0.  0.
        3    1    3    3  502    0 -0.41703294741E+03 -0.91300824925E+03  0.75788389550E+03  0.12577315102E+04  0.10100000352E+00 0. -1.
       -3    1    3    3    0  502  0.41703294741E+03  0.91300824925E+03 -0.14183460572E+03  0.10137147567E+04  0.10100000352E+00 0.  1.
</event>
<event>
 5   0  0.1404159E-04  0.2207787E+04  0.7818609E-02  0.8515194E-01
       -2   -1    0    0    0  501  0.00000000000E+00  0.00000000000E+00  0.80580603844E+03  0.80580603844E+03  0.25500000920E-02 0. -1.
        2   -1    0    0  501    0  0.00000000000E+00  0.00000000000E+00 -0.15122510496E+04  0.15122510496E+04  0.25500000920E-02 0.  1.
    10030    2    1    2    0    0  0.00000000000E+00  0.00000000000E+00 -0.70644501114E+03  0.23180570880E+04  0.22077871522E+04 0.  0.
        5    1    3    3  502    0  0.54695270355E+02  0.19282307725E+03  0.78653071490E+03  0.81168033560E+03  0.46999998093E+01 0. -1.
       -5    1    3    3    0  502 -0.54695270355E+02 -0.19282307725E+03 -0.14929757260E+04  0.15063767524E+04  0.46999998093E+01 0.  1.
</event>
<event>
 5   0  0.5981239E-05  0.2272473E+04  0.7818609E-02  0.8488854E-01
        1   -1    0    0  501    0  0.00000000000E+00  0.00000000000E+00  0.17406295296E+04  0.17406295296E+04  0.50400001928E-02 0.  1.
       -1   -1    0    0    0  501  0.00000000000E+00  0.00000000000E+00 -0.74170510392E+03  0.74170510394E+03  0.50400001928E-02 0. -1.
    10030    2    1    2    0    0  0.00000000000E+00  0.00000000000E+00  0.99892442565E+03  0.24823346335E+04  0.22724733716E+04 0.  0.
        4    1    3    3  502    0 -0.74641862440E+03 -0.28610586142E+03 -0.38259536100E+03  0.88621563400E+03  0.12699999809E+01 0. -1.
       -4    1    3    3    0  502  0.74641862440E+03  0.28610586142E+03  0.13815197867E+04  0.15961189995E+04  0.12699999809E+01 0.  1.
</event>
<event>
 5   0  0.5861816E-05  0.2216859E+04  0.7818609E-02  0.8511444E-01
       -1   -1    0    0    0  501  0.00000000000E+00  0.00000000000E+00  0.13555828646E+04  0.13555828646E+04  0.50400001928E-02 0. -1.
        1   -1    0    0  501    0  0.00000000000E+00  0.00000000000E+00 -0.90633800666E+03  0.90633800667E+03  0.50400001928E-02 0.  1.
    10030    2    1    2    0    0  0.00000000000E+00  0.00000000000E+00  0.44924485792E+03  0.22619208713E+04  0.22168592841E+04 0.  0.
        1    1    3    3  502    0  0.13887493478E+03 -0.96096831630E+03  0.77015854848E+03  0.12393105108E+04  0.50400001928E-02 0. -1.
       -1    1    3    3    0  502 -0.13887493478E+03  0.96096831630E+03 -0.32091369056E+03  0.10226103604E+04  0.50400001928E-02 0.  1.
</event>
<event>
 5   0  0.1252124E-04  0.1799673E+04  0.7818609E-02  0.8706474E-01
        2   -1    0    0  501    0  0.00000000000E+00  0.00000000000E+00  0.86122458627E+03  0.86122458627E+03  0.25500000920E-02 0.  1.
       -2   -1    0    0    0  501  0.00000000000E+00  0.00000000000E+00 -0.94017904795E+03  0.94017904796E+03  0.25500000920E-02 0. -1.
    10030    2    1    2    0    0  0.00000000000E+00  0.00000000000E+00 -0.78954461684E+02  0.18014036342E+04  0.17996725387E+04 0.  0.
        3    1    3    3  502    0 -0.14740333945E+03 -0.31050532591E+03 -0.87188041616E+03  0.93718555910E+03  0.10100000352E+00 0. -1.
       -3    1    3    3    0  502  0.14740333945E+03  0.31050532591E+03  0.79292595448E+03  0.86421807513E+03  0.10100000352E+00 0.  1.
</event>
<event>
 5   0  0.1241430E-04  0.2175239E+04  0.7818609E-02  0.8528805E-01
       -2   -1    0    0    0  501  0.00000000000E+00  0.00000000000E+00  0.11260825254E+04  0.11260825254E+04  0.25500000920E-02 0. -1.
        2   -1    0    0  501    0  0.00000000000E+00  0.00000000000E+00 -0.10504705927E+04  0.10504705927E+04  0.25500000920E-02 0.  1.
    10030    2    1    2    0    0  0.00000000000E+00  0.00000000000E+00  0.75611932706E+02  0.21765531181E+04  0.21752393688E+04 0.  0.
        1    1    3    3  502    0 -0.78735113206E+03 -0.48206999892E+03 -0.53752241748E+03  0.10682900535E+04  0.50400001928E-02 0.  1.
       -1    1    3    3    0  502  0.78735113206E+03  0.48206999892E+03  0.61313435018E+03  0.11082630646E+04  0.50400001928E-02 0. -1.
</event>
<event>
 5   0  0.4586375E-05  0.2185534E+04  0.7818609E-02  0.8524474E-01
       -3   -1    0    0    0  501  0.00000000000E+00  0.00000000000E+00  0.62868339086E+03  0.62868339897E+03  0.10100000352E+00 0. -1.
        3   -1    0    0  501    0  0.00000000000E+00  0.00000000000E+00 -0.18994288948E+04  0.18994288975E+04  0.10100000352E+00 0.  1.
    10030    2    1    2    0    0  0.00000000000E+00  0.00000000000E+00 -0.12707455040E+04  0.25281122965E+04  0.21855337215E+04 0.  0.
        5    1    3    3  502    0 -0.62683403212E+03  0.67768447676E+03  0.41043306813E+02  0.92405832982E+03  0.46999998093E+01 0. -1.
       -5    1    3    3    0  502  0.62683403212E+03 -0.67768447676E+03 -0.13117888108E+04  0.16040539667E+04  0.46999998093E+01 0.  1.
</event>
<event>
 5   0  0.1252124E-04  0.2154801E+04  0.7818609E-02  0.8537480E-01
       -2   -1    0    0    0  501  0.00000000000E+00  0.00000000000E+00  0.13215783925E+04  0.13215783925E+04  0.25500000920E-02 0. -1.
        2   -1    0    0  501    0  0.00000000000E+00  0.00000000000E+00 -0.87833727019E+03  0.87833727019E+03  0.25500000920E-02 0.  1.
    10030    2    1    2    0    0  0.00000000000E+00  0.00000000000E+00  0.44324112235E+03  0.21999156627E+04  0.21548007403E+04 0.  0.
        3    1    3    3  502    0  0.47868959585E+02 -0.24743841360E+03  0.12910608167E+04  0.13154296820E+04  0.10100000352E+00 0. -1.
       -3    1    3    3    0  502 -0.47868959585E+02  0.24743841360E+03 -0.84781969431E+03  0.88448598071E+03  0.10100000352E+00 0.  1.
</event>
<event>
 5   0  0.6263558E-05  0.2159697E+04  0.7818609E-02  0.8535393E-01
       -1   -1    0    0    0  501  0.00000000000E+00  0.00000000000E+00  0.10632594353E+04  0.10632594353E+04  0.50400001928E-02 0. -1.
        1   -1    0    0  501    0  0.00000000000E+00  0.00000000000E+00 -0.10966962626E+04  0.10966962626E+04  0.50400001928E-02 0.  1.
    10030    2    1    2    0    0  0.00000000000E+00  0.00000000000E+00 -0.33436827300E+02  0.21599556979E+04  0.21596968758E+04 0.  0.
        3    1    3    3  502    0 -0.63487697534E+03  0.69392138811E+03  0.51388920167E+03  0.10717638679E+04  0.10100000352E+00 0. -1.
       -3    1    3    3    0  502  0.63487697534E+03 -0.69392138811E+03 -0.54732602897E+03  0.10881918300E+04  0.10100000352E+00 0.  1.
</event>
<event>
 5   0  0.1226021E-04  0.2140700E+04  0.7818609E-02  0.8543524E-01
       -2   -1    0    0    0  501  0.00000000000E+00  0.00000000000E+00  0.16340765172E+04  0.16340765172E+04  0.25500000920E-02 0. -1.
        2   -1    0    0  501    0  0.00000000000E+00  0.00000000000E+00 -0.70109850430E+03  0.70109850430E+03  0.25500000920E-02 0.  1.
    10030    2    1    2    0    0  0.00000000000E+00  0.00000000000E+00  0.93297801291E+03  0.23351750215E+04  0.21406995138E+04 0.  0.
        2    1    3    3  502    0  0.66334777415E+03 -0.23516682251E+03  0.13461707478E+04  0.15190488425E+04  0.25500000920E-02 0. -1.
       -2    1    3    3    0  502 -0.66334777415E+03  0.23516682251E+03 -0.41319273484E+03  0.81612617898E+03  0.25500000920E-02 0.  1.
</event>
<event>
 5   0  0.5861816E-05  0.2320762E+04  0.7818609E-02  0.8469780E-01
        1   -1    0    0  501    0  0.00000000000E+00  0.00000000000E+00  0.13241127249E+04  0.13241127249E+04  0.50400001928E-02 0. -1.
       -1   -1    0    0    0  501  0.00000000000E+00  0.00000000000E+00 -0.10168951946E+04  0.10168951946E+04  0.50400001928E-02 0.  1.
    10030    2    1    2    0    0  0.00000000000E+00  0.00000000000E+00  0.30721753035E+03  0.23410079195E+04  0.23207618293E+04 0.  0.
        1    1    3    3  502    0  0.48270637224E+03  0.10347408435E+04 -0.55052818528E+02  0.11431206708E+04  0.50400001928E-02 0.  1.
       -1    1    3    3    0  502 -0.48270637224E+03 -0.10347408435E+04  0.36227034888E+03  0.11978872488E+04  0.50400001928E-02 0. -1.
</event>
<event>
 5   0  0.1252124E-04  0.2206053E+04  0.7818609E-02  0.8515913E-01
        2   -1    0    0  501    0  0.00000000000E+00  0.00000000000E+00  0.67571786093E+03  0.67571786094E+03  0.25500000920E-02 0.  1.
       -2   -1    0    0    0  501  0.00000000000E+00  0.00000000000E+00 -0.18005551821E+04  0.18005551821E+04  0.25500000920E-02 0. -1.
    10030    2    1    2    0    0  0.00000000000E+00  0.00000000000E+00 -0.11248373212E+04  0.24762730431E+04  0.22060528517E+04 0.  0.
        3    1    3    3  502    0 -0.53153022372E+03 -0.41768221150E+03 -0.15407799108E+04  0.16825532836E+04  0.10100000352E+00 0. -1.
       -3    1    3    3    0  502  0.53153022372E+03  0.41768221150E+03  0.41594258957E+03  0.79371975946E+03  0.10100000352E+00 0.  1.
</event>
<event>
 5   0  0.1226021E-04  0.2231061E+04  0.7818609E-02  0.8505610E-01
       -2   -1    0    0    0  501  0.00000000000E+00  0.00000000000E+00  0.10154237825E+04  0.10154237825E+04  0.25500000920E-02 0. -1.
        2   -1    0    0  501    0  0.00000000000E+00  0.00000000000E+00 -0.12255067166E+04  0.12255067166E+04  0.25500000920E-02 0.  1.
    10030    2    1    2    0    0  0.00000000000E+00  0.00000000000E+00 -0.21008293413E+03  0.22409304991E+04  0.22310613310E+04 0.  0.
        2    1    3    3  502    0  0.17810406226E+03  0.65834111775E+03 -0.99171171005E+03  0.12035888834E+04  0.25500000920E-02 0.  1.
       -2    1    3    3    0  502 -0.17810406226E+03 -0.65834111775E+03  0.78162877593E+03  0.10373416157E+04  0.25500000920E-02 0. -1.
</event>
<event>
 5   0  0.5861816E-05  0.1825096E+04  0.7818609E-02  0.8693066E-01
       -1   -1    0    0    0  501  0.00000000000E+00  0.00000000000E+00  0.55106786528E+03  0.55106786530E+03  0.50400001928E-02 0.  1.
        1   -1    0    0  501    0  0.00000000000E+00  0.00000000000E+00 -0.15111455110E+04  0.15111455111E+04  0.50400001928E-02 0. -1.
    10030    2    1    2    0    0  0.00000000000E+00  0.00000000000E+00 -0.96007764577E+03  0.20622133764E+04  0.18250958670E+04 0.  0.
        1    1    3    3  502    0  0.48496952740E+03  0.53834835694E+03  0.14676605431E+03  0.73929335899E+03  0.50400001928E-02 0.  1.
       -1    1    3    3    0  502 -0.48496952740E+03 -0.53834835694E+03 -0.11068437001E+04  0.13229200174E+04  0.50400001928E-02 0. -1.
</event>
<event>
 5   0  0.1404159E-04  0.2154463E+04  0.7818609E-02  0.8537624E-01
        2   -1    0    0  501    0  0.00000000000E+00  0.00000000000E+00  0.14036052794E+04  0.14036052794E+04  0.25500000920E-02 0.  1.
       -2   -1    0    0    0  501  0.00000000000E+00  0.00000000000E+00 -0.82674789013E+03  0.82674789013E+03  0.25500000920E-02 0. -1.
    10030    2    1    2    0    0  0.00000000000E+00  0.00000000000E+00  0.57685738926E+03  0.22303531695E+04  0.21544629988E+04 0.  0.
        5    1    3    3  502    0  0.10439344467E+04  0.26523999872E+03  0.27192254656E+03  0.11109074432E+04  0.46999998093E+01 0. -1.
       -5    1    3    3    0  502 -0.10439344467E+04 -0.26523999872E+03  0.30493484270E+03  0.11194457264E+04  0.46999998093E+01 0.  1.
</event>
<event>
 5   0  0.1226021E-04  0.2195952E+04  0.7818609E-02  0.8520115E-01
       -2   -1    0    0    0  501  0.00000000000E+00  0.00000000000E+00  0.45020036721E+03  0.45020036722E+03  0.25500000920E-02 0. -1.
        2   -1    0    0  501    0  0.00000000000E+00  0.00000000000E+00 -0.26778110467E+04  0.26778110467E+04  0.25500000920E-02 0.  1.
    10030    2    1    2    0    0  0.00000000000E+00  0.00000000000E+00 -0.22276106795E+04  0.31280114139E+04  0.21959522004E+04 0.  0.
        2    1    3    3  502    0 -0.23443957426E+03  0.81732563154E+03 -0.21033260608E+04  0.22686920505E+04  0.25500000920E-02 0.  1.
       -2    1    3    3    0  502  0.23443957426E+03 -0.81732563154E+03 -0.12428461872E+03  0.85931936345E+03  0.25500000920E-02 0. -1.
</event>
<event>
 5   0  0.1404159E-04  0.2225417E+04  0.7818609E-02  0.8507923E-01
        2   -1    0    0  501    0  0.00000000000E+00  0.00000000000E+00  0.26403144060E+04  0.26403144060E+04  0.25500000920E-02 0. -1.
       -2   -1    0    0    0  501  0.00000000000E+00  0.00000000000E+00 -0.46892900587E+03  0.46892900587E+03  0.25500000920E-02 0.  1.
    10030    2    1    2    0    0  0.00000000000E+00  0.00000000000E+00  0.21713854001E+04  0.31092434119E+04  0.22254168235E+04 0.  0.
        5    1    3    3  502    0  0.95057153056E+03  0.45553625171E+03  0.15835931225E+04  0.19023377143E+04  0.46999998093E+01 0. -1.
       -5    1    3    3    0  502 -0.95057153056E+03 -0.45553625171E+03  0.58779227758E+03  0.12069056976E+04  0.46999998093E+01 0.  1.
</event>
<event>
 5   0  0.5861816E-05  0.2151887E+04  0.7818609E-02  0.8538725E-01
       -1   -1    0    0    0  501  0.00000000000E+00  0.00000000000E+00  0.83128885675E+03  0.83128885677E+03  0.50400001928E-02 0. -1.
        1   -1    0    0  501    0  0.00000000000E+00  0.00000000000E+00 -0.13926022821E+04  0.13926022821E+04  0.50400001928E-02 0.  1.
    10030    2    1    2    0    0  0.00000000000E+00  0.00000000000E+00 -0.56131342531E+03  0.22238911388E+04  0.21518873195E+04 0.  0.
        1    1    3    3  502    0  0.73334881315E+03 -0.50574120578E+02  0.53131503398E+03  0.90700269502E+03  0.50400001928E-02 0. -1.
       -1    1    3    3    0  502 -0.73334881315E+03  0.50574120578E+02 -0.10926284593E+04  0.13168884438E+04  0.50400001928E-02 0.  1.
</event>
<event>
 5   0  0.1311472E-04  0.1630611E+04  0.7818609E-02  0.8801960E-01
       -2   -1    0    0    0  501  0.00000000000E+00  0.00000000000E+00  0.71397430647E+03  0.71397430647E+03  0.25500000920E-02 0.  1.
        2   -1    0    0  501    0  0.00000000000E+00  0.00000000000E+00 -0.93101789009E+03  0.93101789009E+03  0.25500000920E-02 0. -1.
    10030    2    1    2    0    0  0.00000000000E+00  0.00000000000E+00 -0.21704358362E+03  0.16449921966E+04  0.16306107474E+04 0.  0.
        4    1    3    3  502    0 -0.63852948143E+03  0.49632214603E+03 -0.43362208431E+01  0.80874964421E+03  0.12699999809E+01 0.  1.
       -4    1    3    3    0  502  0.63852948143E+03 -0.49632214603E+03 -0.21270736278E+03  0.83624255236E+03  0.12699999809E+01 0. -1.
</event>
<event>
 5   0  0.1252124E-04  0.2259185E+04  0.7818609E-02  0.8494190E-01
       -2   -1    0    0    0  501  0.00000000000E+00  0.00000000000E+00  0.53527452785E+03  0.53527452786E+03  0.25500000920E-02 0. -1.
        2   -1    0    0  501    0  0.00000000000E+00  0.00000000000E+00 -0.23837844663E+04  0.23837844663E+04  0.25500000920E-02 0.  1.
    10030    2    1    2    0    0  0.00000000000E+00  0.00000000000E+00 -0.18485099385E+04  0.29190589942E+04  0.22591849014E+04 0.  0.
        3    1    3    3  502    0  0.10945835368E+04 -0.14278017881E+03 -0.61447830127E+03  0.12633617421E+04  0.10100000352E+00 0. -1.
       -3    1    3    3    0  502 -0.10945835368E+04  0.14278017881E+03 -0.12340316372E+04  0.16556972520E+04  0.10100000352E+00 0.  1.
</event>
<event>
 5   0  0.1404159E-04  0.1902310E+04  0.7818609E-02  0.8653707E-01
       -2   -1    0    0    0  501  0.00000000000E+00  0.00000000000E+00  0.82331728869E+03  0.82331728870E+03  0.25500000920E-02 0. -1.
        2   -1    0    0  501    0  0.00000000000E+00  0.00000000000E+00 -0.10988422053E+04  0.10988422053E+04  0.25500000920E-02 0.  1.
    10030    2    1    2    0    0  0.00000000000E+00  0.00000000000E+00 -0.27552491660E+03  0.19221594940E+04  0.19023099486E+04 0.  0.
        5    1    3    3  502    0 -0.62586057180E+03 -0.68896253129E+03 -0.33551578671E+03  0.98942597398E+03  0.46999998093E+01 0.  1.
       -5    1    3    3    0  502  0.62586057180E+03  0.68896253129E+03  0.59990870106E+02  0.93273352001E+03  0.46999998093E+01 0. -1.
</event>
<event>
 5   0  0.1252124E-04  0.2155865E+04  0.7818609E-02  0.8537026E-01
       -2   -1    0    0    0  501  0.00000000000E+00  0.00000000000E+00  0.12683264040E+04  0.12683264040E+04  0.25500000920E-02 0.  1.
        2   -1    0    0  501    0  0.00000000000E+00  0.00000000000E+00 -0.91611922653E+03  0.91611922653E+03  0.25500000920E-02 0. -1.
    10030    2    1    2    0    0  0.00000000000E+00  0.00000000000E+00  0.35220717750E+03  0.21844456306E+04  0.21558647492E+04 0.  0.
        3    1    3    3  502    0 -0.19128663440E+03 -0.84729700604E+03  0.82287245962E+03  0.11965040276E+04  0.10100000352E+00 0.  1.
       -3    1    3    3    0  502  0.19128663440E+03  0.84729700604E+03 -0.47066528213E+03  0.98794160300E+03  0.10100000352E+00 0. -1.
</event>
<event>
 5   0  0.6263558E-05  0.2157727E+04  0.7818609E-02  0.8536232E-01
       -1   -1    0    0    0  501  0.00000000000E+00  0.00000000000E+00  0.11737864904E+04  0.11737864904E+04  0.50400001928E-02 0.  1.
        1   -1    0    0  501    0  0.00000000000E+00  0.00000000000E+00 -0.99161650116E+03  0.99161650117E+03  0.50400001928E-02 0. -1.
    10030    2    1    2    0    0  0.00000000000E+00  0.00000000000E+00  0.18216998923E+03  0.21654029916E+04  0.21577266303E+04 0.  0.
        3    1    3    3  502    0  0.28748284696E+03  0.89442670943E+02 -0.94860246941E+03  0.99523516510E+03  0.10100000352E+00 0. -1.
       -3    1    3    3    0  502 -0.28748284696E+03 -0.89442670943E+02  0.11307724586E+04  0.11701678265E+04  0.10100000352E+00 0.  1.
</event>
<event>
 5   0  0.6263558E-05  0.2301617E+04  0.7818609E-02  0.8477284E-01
       -1   -1    0    0    0  501  0.00000000000E+00  0.00000000000E+00  0.15523085657E+04  0.15523085658E+04  0.50400001928E-02 0.  1.
        1   -1    0    0  501    0  0.00000000000E+00  0.00000000000E+00 -0.85315546716E+03  0.85315546718E+03  0.50400001928E-02 0. -1.
    10030    2    1    2    0    0  0.00000000000E+00  0.00000000000E+00  0.69915309858E+03  0.24054640329E+04  0.23016172919E+04 0.  0.
        3    1    3    3  502    0 -0.46556607658E+03  0.10272091121E+04  0.11022330380E+03  0.11331635004E+04  0.10100000352E+00 0.  1.
       -3    1    3    3    0  502  0.46556607658E+03 -0.10272091121E+04  0.58892979479E+03  0.12723005325E+04  0.10100000352E+00 0. -1.
</event>
<event>
 5   0  0.1311472E-04  0.2203973E+04  0.7818609E-02  0.8516776E-01
        2   -1    0    0  501    0  0.00000000000E+00  0.00000000000E+00  0.20243166347E+04  0.20243166347E+04  0.25500000920E-02 0.  1.
       -2   -1    0    0    0  501  0.00000000000E+00  0.00000000000E+00 -0.59989350262E+03  0.59989350263E+03  0.25500000920E-02 0. -1.
    10030    2    1    2    0    0  0.00000000000E+00  0.00000000000E+00  0.14244231321E+04  0.26242101374E+04  0.22039731364E+04 0.  0.
        4    1    3    3  502    0 -0.29290351128E+03  0.88130764918E+03  0.14185093464E+04  0.16954840070E+04  0.12699999809E+01 0.  1.
       -4    1    3    3    0  502  0.29290351128E+03 -0.88130764918E+03  0.59137857365E+01  0.92872613034E+03  0.12699999809E+01 0. -1.
</event>
<event>
 5   0  0.5895063E-05  0.2202896E+04  0.7818609E-02  0.8517224E-01
        1   -1    0    0  501    0  0.00000000000E+00  0.00000000000E+00  0.18688526157E+04  0.18688526157E+04  0.50400001928E-02 0. -1.
       -1   -1    0    0    0  501  0.00000000000E+00  0.00000000000E+00 -0.64916193674E+03  0.64916193676E+03  0.50400001928E-02 0.  1.
    10030    2    1    2    0    0  0.00000000000E+00  0.00000000000E+00  0.12196906789E+04  0.25180145524E+04  0.22028962604E+04 0.  0.
        5    1    3    3  502    0 -0.81438490978E+02 -0.10237470654E+04  0.15480970469E+03  0.10385944427E+04  0.46999998093E+01 0. -1.
       -5    1    3    3    0  502  0.81438490978E+02  0.10237470654E+04  0.10648809742E+04  0.14794201097E+04  0.46999998093E+01 0.  1.
</event>
<event>
 5   0  0.4586375E-05  0.2256994E+04  0.7818609E-02  0.8495073E-01
       -3   -1    0    0    0  501  0.00000000000E+00  0.00000000000E+00  0.96091475801E+03  0.96091476331E+03  0.10100000352E+00 0. -1.
        3   -1    0    0  501    0  0.00000000000E+00  0.00000000000E+00 -0.13253051772E+04  0.13253051810E+04  0.10100000352E+00 0.  1.
    10030    2    1    2    0    0  0.00000000000E+00  0.00000000000E+00 -0.36439041916E+03  0.22862199443E+04  0.22569938538E+04 0.  0.
        3    1    3    3  502    0  0.79005553479E+03  0.49063004373E+03  0.46530015387E+03  0.10399085687E+04  0.10100000352E+00 0. -1.
       -3    1    3    3    0  502 -0.79005553479E+03 -0.49063004373E+03 -0.82969057304E+03  0.12463113756E+04  0.10100000352E+00 0.  1.
</event>
<event>
 5   0  0.6263558E-05  0.1724215E+04  0.7818609E-02  0.8747673E-01
       -1   -1    0    0    0  501  0.00000000000E+00  0.00000000000E+00  0.54576761786E+03  0.54576761788E+03  0.50400001928E-02 0.  1.
        1   -1    0    0  501    0  0.00000000000E+00  0.00000000000E+00 -0.13618054152E+04  0.13618054152E+04  0.50400001928E-02 0. -1.
    10030    2    1    2    0    0  0.00000000000E+00  0.00000000000E+00 -0.81603779732E+03  0.19075730331E+04  0.17242149488E+04 0.  0.
        3    1    3    3  502    0  0.83404848701E+03 -0.20475682531E+03 -0.49130419418E+03  0.98941500778E+03  0.10100000352E+00 0. -1.
       -3    1    3    3    0  502 -0.83404848701E+03  0.20475682531E+03 -0.32473360314E+03  0.91815802529E+03  0.10100000352E+00 0.  1.
</event>
<event>
 5   0  0.4586375E-05  0.2187041E+04  0.7818609E-02  0.8523841E-01
       -3   -1    0    0    0  501  0.00000000000E+00  0.00000000000E+00  0.63946573353E+03  0.63946574150E+03  0.10100000352E+00 0. -1.
        3   -1    0    0  501    0  0.00000000000E+00  0.00000000000E+00 -0.18699781345E+04  0.18699781373E+04  0.10100000352E+00 0.  1.
    10030    2    1    2    0    0  0.00000000000E+00  0.00000000000E+00 -0.12305124010E+04  0.25094438788E+04  0.21870408802E+04 0.  0.
        4    1    3    3  502    0  0.58282795069E+03  0.54883452598E+03 -0.14699669706E+04  0.16738316118E+04  0.12699999809E+01 0.  1.
       -4    1    3    3    0  502 -0.58282795069E+03 -0.54883452598E+03  0.23945456956E+03  0.83561226702E+03  0.12699999809E+01 0. -1.
</event>
<event>
 5   0  0.6263558E-05  0.2162087E+04  0.7818609E-02  0.8534376E-01
        1   -1    0    0  501    0  0.00000000000E+00  0.00000000000E+00  0.11367206993E+04  0.11367206994E+04  0.50400001928E-02 0. -1.
       -1   -1    0    0    0  501  0.00000000000E+00  0.00000000000E+00 -0.10280937118E+04  0.10280937118E+04  0.50400001928E-02 0.  1.
    10030    2    1    2    0    0  0.00000000000E+00  0.00000000000E+00  0.10862698756E+03  0.21648144112E+04  0.21620873276E+04 0.  0.
        3    1    3    3  502    0 -0.71293807288E+03 -0.81145468239E+03  0.98140790769E+02  0.10846063905E+04  0.10100000352E+00 0.  1.
       -3    1    3    3    0  502  0.71293807288E+03  0.81145468239E+03  0.10486196789E+02  0.10802080206E+04  0.10100000352E+00 0. -1.
</event>
<event>
 5   0  0.1241430E-04  0.2222578E+04  0.7818609E-02  0.8509089E-01
        2   -1    0    0  501    0  0.00000000000E+00  0.00000000000E+00  0.11833853868E+04  0.11833853868E+04  0.25500000920E-02 0.  1.
       -2   -1    0    0    0  501  0.00000000000E+00  0.00000000000E+00 -0.10435850995E+04  0.10435850995E+04  0.25500000920E-02 0. -1.
    10030    2    1    2    0    0  0.00000000000E+00  0.00000000000E+00  0.13980028730E+03  0.22269704862E+04  0.22225781035E+04 0.  0.
        1    1    3    3  502    0  0.23955922797E+02  0.65693290818E+03 -0.82787764027E+03  0.10571263498E+04  0.50400001928E-02 0. -1.
       -1    1    3    3    0  502 -0.23955922797E+02 -0.65693290818E+03  0.96767792756E+03  0.11698441365E+04  0.50400001928E-02 0.  1.
</event>
<event>
 5   0  0.5849604E-05  0.2180421E+04  0.7818609E-02  0.8526622E-01
        1   -1    0    0  501    0  0.00000000000E+00  0.00000000000E+00  0.17348177302E+04  0.17348177302E+04  0.50400001928E-02 0. -1.
       -1   -1    0    0    0  501  0.00000000000E+00  0.00000000000E+00 -0.68512065316E+03  0.68512065318E+03  0.50400001928E-02 0.  1.
    10030    2    1    2    0    0  0.00000000000E+00  0.00000000000E+00  0.10496970771E+04  0.24199383834E+04  0.21804214790E+04 0.  0.
        2    1    3    3  502    0  0.38260286255E+03 -0.36093188934E+02  0.16571510622E+04  0.17011282466E+04  0.25500000920E-02 0. -1.
       -2    1    3    3    0  502 -0.38260286255E+03  0.36093188934E+02 -0.60745398509E+03  0.71881013677E+03  0.25500000920E-02 0.  1.
</event>
<event>
 5   0  0.6263558E-05  0.2215801E+04  0.7818609E-02  0.8511880E-01
       -1   -1    0    0    0  501  0.00000000000E+00  0.00000000000E+00  0.15531417725E+04  0.15531417725E+04  0.50400001928E-02 0. -1.
        1   -1    0    0  501    0  0.00000000000E+00  0.00000000000E+00 -0.79029749776E+03  0.79029749777E+03  0.50400001928E-02 0.  1.
    10030    2    1    2    0    0  0.00000000000E+00  0.00000000000E+00  0.76284427476E+03  0.23434392703E+04  0.22158014862E+04 0.  0.
        3    1    3    3  502    0  0.13470886875E+03 -0.10907794820E+04  0.23374460754E+03  0.11236471463E+04  0.10100000352E+00 0.  1.
       -3    1    3    3    0  502 -0.13470886875E+03  0.10907794820E+04  0.52909966722E+03  0.12197921240E+04  0.10100000352E+00 0. -1.
</event>
<event>
 5   0  0.5849604E-05  0.2375296E+04  0.7818609E-02  0.8448811E-01
       -1   -1    0    0    0  501  0.00000000000E+00  0.00000000000E+00  0.10498415506E+04  0.10498415506E+04  0.50400001928E-02 0.  1.
        1   -1    0    0  501    0  0.00000000000E+00  0.00000000000E+00 -0.13435436893E+04  0.13435436893E+04  0.50400001928E-02 0. -1.
    10030    2    1    2    0    0  0.00000000000E+00  0.00000000000E+00 -0.29370213862E+03  0.23933852399E+04  0.23752961837E+04 0.  0.
        2    1    3    3  502    0 -0.10769241933E+04  0.12487139343E+03  0.34176391513E+03  0.11367326672E+04  0.25500000920E-02 0.  1.
       -2    1    3    3    0  502  0.10769241933E+04 -0.12487139343E+03 -0.63546605375E+03  0.12566525727E+04  0.25500000920E-02 0. -1.
</event>
<event>
 5   0  0.6263558E-05  0.2184675E+04  0.7818609E-02  0.8524834E-01
       -1   -1    0    0    0  501  0.00000000000E+00  0.00000000000E+00  0.63496253358E+03  0.63496253360E+03  0.50400001928E-02 0. -1.
        1   -1    0    0  501    0  0.00000000000E+00  0.00000000000E+00 -0.18791678017E+04  0.18791678017E+04  0.50400001928E-02 0.  1.
    10030    2    1    2    0    0  0.00000000000E+00  0.00000000000E+00 -0.12442052682E+04  0.25141303353E+04  0.21846749401E+04 0.  0.
        3    1    3    3  502    0  0.50318529127E+03  0.35350189846E+03 -0.16610438719E+04  0.17712215514E+04  0.10100000352E+00 0.  1.
       -3    1    3    3    0  502 -0.50318529127E+03 -0.35350189846E+03  0.41683860371E+03  0.74290878398E+03  0.10100000352E+00 0. -1.
</event>
<event>
 5   0  0.1404159E-04  0.2174883E+04  0.7818609E-02  0.8528956E-01
        2   -1    0    0  501    0  0.00000000000E+00  0.00000000000E+00  0.18737241908E+04  0.18737241908E+04  0.25500000920E-02 0. -1.
       -2   -1    0    0    0  501  0.00000000000E+00  0.00000000000E+00 -0.63111176618E+03  0.63111176618E+03  0.25500000920E-02 0.  1.
    10030    2    1    2    0    0  0.00000000000E+00  0.00000000000E+00  0.12426124246E+04  0.25048359570E+04  0.21748833379E+04 0.  0.
        5    1    3    3  502    0  0.76646839656E+03  0.39332242664E+03 -0.14293936389E+03  0.87328694366E+03  0.46999998093E+01 0.  1.
       -5    1    3    3    0  502 -0.76646839656E+03 -0.39332242664E+03  0.13855517885E+04  0.16315490133E+04  0.46999998093E+01 0. -1.
</event>
<event>
 5   0  0.1241430E-04  0.2237963E+04  0.7818609E-02  0.8502791E-01
       -2   -1    0    0    0  501  0.00000000000E+00  0.00000000000E+00  0.10502031052E+04  0.10502031052E+04  0.25500000920E-02 0. -1.
        2   -1    0    0  501    0  0.00000000000E+00  0.00000000000E+00 -0.11922640087E+04  0.11922640087E+04  0.25500000920E-02 0.  1.
    10030    2    1    2    0    0  0.00000000000E+00  0.00000000000E+00 -0.14206090349E+03  0.22424671138E+04  0.22379627915E+04 0.  0.
        1    1    3    3  502    0  0.64701998394E+03  0.58276986072E+03  0.63313840765E+03  0.10766242675E+04  0.50400001928E-02 0. -1.
       -1    1    3    3    0  502 -0.64701998394E+03 -0.58276986072E+03 -0.77519931114E+03  0.11658428463E+04  0.50400001928E-02 0.  1.
</event>
<event>
 5   0  0.5861816E-05  0.2206722E+04  0.7818609E-02  0.8515635E-01
        1   -1    0    0  501    0  0.00000000000E+00  0.00000000000E+00  0.12538785494E+04  0.12538785495E+04  0.50400001928E-02 0.  1.
       -1   -1    0    0    0  501  0.00000000000E+00  0.00000000000E+00 -0.97091199767E+03  0.97091199768E+03  0.50400001928E-02 0. -1.
    10030    2    1    2    0    0  0.00000000000E+00  0.00000000000E+00  0.28296655178E+03  0.22247905471E+04  0.22067222093E+04 0.  0.
        1    1    3    3  502    0 -0.68162605175E+03  0.85015726754E+03  0.31617716644E+03  0.11346142316E+04  0.50400001928E-02 0.  1.
       -1    1    3    3    0  502  0.68162605175E+03 -0.85015726754E+03 -0.33210614665E+02  0.10901763155E+04  0.50400001928E-02 0. -1.
</event>
<event>
 5   0  0.1226021E-04  0.2196076E+04  0.7818609E-02  0.8520063E-01
        2   -1    0    0  501    0  0.00000000000E+00  0.00000000000E+00  0.16242264876E+04  0.16242264876E+04  0.25500000920E-02 0.  1.
       -2   -1    0    0    0  501  0.00000000000E+00  0.00000000000E+00 -0.74231459771E+03  0.74231459771E+03  0.25500000920E-02 0. -1.
    10030    2    1    2    0    0  0.00000000000E+00  0.00000000000E+00  0.88191188987E+03  0.23665410853E+04  0.21960756196E+04 0.  0.
        2    1    3    3  502    0  0.70781544629E+03  0.49483875762E+03  0.11716914025E+04  0.14555853959E+04  0.25500000920E-02 0.  1.
       -2    1    3    3    0  502 -0.70781544629E+03 -0.49483875762E+03 -0.28977951265E+03  0.91095568938E+03  0.25500000920E-02 0. -1.
</event>
<event>
 5   0  0.1404159E-04  0.2161939E+04  0.7818609E-02  0.8534439E-01
        2   -1    0    0  501    0  0.00000000000E+00  0.00000000000E+00  0.15591444566E+04  0.15591444566E+04  0.25500000920E-02 0. -1.
       -2   -1    0    0    0  501  0.00000000000E+00  0.00000000000E+00 -0.74944619374E+03  0.74944619374E+03  0.25500000920E-02 0.  1.
    10030    2    1    2    0    0  0.00000000000E+00  0.00000000000E+00  0.80969826287E+03  0.23085906504E+04  0.21619388322E+04 0.  0.
        5    1    3    3  502    0  0.96584878308E+03  0.14232378094E+03 -0.90691021081E+02  0.98049318290E+03  0.46999998093E+01 0.  1.
       -5    1    3    3    0  502 -0.96584878308E+03 -0.14232378094E+03  0.90038928395E+03  0.13280974675E+04  0.46999998093E+01 0. -1.
</event>
<event>
 5   0  0.5849604E-05  0.2202657E+04  0.7818609E-02  0.8517323E-01
        1   -1    0    0  501    0  0.00000000000E+00  0.00000000000E+00  0.13759115124E+04  0.13759115124E+04  0.50400001928E-02 0.  1.
       -1   -1    0    0    0  501  0.00000000000E+00  0.00000000000E+00 -0.88154215463E+03  0.88154215464E+03  0.50400001928E-02 0. -1.
    10030    2    1    2    0    0  0.00000000000E+00  0.00000000000E+00  0.49436935778E+03  0.22574536671E+04  0.22026565772E+04 0.  0.
        2    1    3    3  502    0  0.56292486186E+03  0.64142829896E+03  0.96064190938E+03  0.12849698599E+04  0.25500000920E-02 0.  1.
       -2    1    3    3    0  502 -0.56292486186E+03 -0.64142829896E+03 -0.46627255160E+03  0.97248380716E+03  0.25500000920E-02 0. -1.
</event>
<event>
 5   0  0.1226021E-04  0.2186475E+04  0.7818609E-02  0.8524079E-01
        2   -1    0    0  501    0  0.00000000000E+00  0.00000000000E+00  0.15001004383E+04  0.15001004383E+04  0.25500000920E-02 0.  1.
       -2   -1    0    0    0  501  0.00000000000E+00  0.00000000000E+00 -0.79672568166E+03  0.79672568167E+03  0.25500000920E-02 0. -1.
    10030    2    1    2    0    0  0.00000000000E+00  0.00000000000E+00  0.70337475659E+03  0.22968261199E+04  0.21864752861E+04 0.  0.
        2    1    3    3  502    0  0.24198300623E+03 -0.29790284525E+03 -0.72362973528E+03  0.81911041643E+03  0.25500000920E-02 0. -1.
       -2    1    3    3    0  502 -0.24198300623E+03  0.29790284525E+03  0.14270044919E+04  0.14777157035E+04  0.25500000920E-02 0.  1.
</event>
<event>
 5   0  0.1252124E-04  0.1955465E+04  0.7818609E-02  0.8627730E-01
       -2   -1    0    0    0  501  0.00000000000E+00  0.00000000000E+00  0.62155753215E+03  0.62155753215E+03  0.25500000920E-02 0. -1.
        2   -1    0    0  501    0  0.00000000000E+00  0.00000000000E+00 -0.15380082036E+04  0.15380082036E+04  0.25500000920E-02 0.  1.
    10030    2    1    2    0    0  0.00000000000E+00  0.00000000000E+00 -0.91645067148E+03  0.21595657358E+04  0.19554647360E+04 0.  0.
        3    1    3    3  502    0 -0.65495951312E+03 -0.38091505977E+03  0.22424991358E+03  0.79016218622E+03  0.10100000352E+00 0. -1.
       -3    1    3    3    0  502  0.65495951312E+03  0.38091505977E+03 -0.11407005851E+04  0.13694035496E+04  0.10100000352E+00 0.  1.
</event>
<event>
 5   0  0.5895063E-05  0.2245850E+04  0.7818609E-02  0.8499583E-01
        1   -1    0    0  501    0  0.00000000000E+00  0.00000000000E+00  0.74376774068E+03  0.74376774070E+03  0.50400001928E-02 0. -1.
       -1   -1    0    0    0  501  0.00000000000E+00  0.00000000000E+00 -0.16953682959E+04  0.16953682959E+04  0.50400001928E-02 0.  1.
    10030    2    1    2    0    0  0.00000000000E+00  0.00000000000E+00 -0.95160055519E+03  0.24391360366E+04  0.22458497252E+04 0.  0.
        5    1    3    3  502    0  0.71025737872E+03  0.52284358795E+02 -0.14187006583E+04  0.15874296350E+04  0.46999998093E+01 0.  1.
       -5    1    3    3    0  502 -0.71025737872E+03 -0.52284358795E+02  0.46710010311E+03  0.85170640159E+03  0.46999998093E+01 0. -1.
</event>
<event>
 5   0  0.5895063E-05  0.2199594E+04  0.7818609E-02  0.8518597E-01
       -1   -1    0    0    0  501  0.00000000000E+00  0.00000000000E+00  0.63862986223E+03  0.63862986225E+03  0.50400001928E-02 0. -1.
        1   -1    0    0  501    0  0.00000000000E+00  0.00000000000E+00 -0.18939824272E+04  0.18939824272E+04  0.50400001928E-02 0.  1.
    10030    2    1    2    0    0  0.00000000000E+00  0.00000000000E+00 -0.12553525650E+04  0.25326122895E+04  0.21995942686E+04 0.  0.
        5    1    3    3  502    0 -0.66096452885E+02  0.61464361958E+03 -0.16749920049E+04  0.17854343524E+04  0.46999998093E+01 0.  1.
       -5    1    3    3    0  502  0.66096452885E+02 -0.61464361958E+03  0.41963943990E+03  0.74717793710E+03  0.46999998093E+01 0. -1.
</event>
<event>
 5   0  0.1241430E-04  0.2178363E+04  0.7818609E-02  0.8527488E-01
       -2   -1    0    0    0  501  0.00000000000E+00  0.00000000000E+00  0.84865268677E+03  0.84865268677E+03  0.25500000920E-02 0. -1.
        2   -1    0    0  501    0  0.00000000000E+00  0.00000000000E+00 -0.13978826675E+04  0.13978826675E+04  0.25500000920E-02 0.  1.
    10030    2    1    2    0    0  0.00000000000E+00  0.00000000000E+00 -0.54922998073E+03  0.22465353543E+04  0.21783634973E+04 0.  0.
        1    1    3    3  502    0  0.99405354425E+03 -0.44394434151E+03 -0.24060016204E+03  0.11149517771E+04  0.50400001928E-02 0.  1.
       -1    1    3    3    0  502 -0.99405354425E+03  0.44394434151E+03 -0.30862981869E+03  0.11315835772E+04  0.50400001928E-02 0. -1.
</event>
<event>
 5   0  0.5981239E-05  0.2192516E+04  0.7818609E-02  0.8521550E-01
       -1   -1    0    0    0  501  0.00000000000E+00  0.00000000000E+00  0.74695132906E+03  0.74695132908E+03  0.50400001928E-02 0.  1.
        1   -1    0    0  501    0  0.00000000000E+00  0.00000000000E+00 -0.16089153027E+04  0.16089153027E+04  0.50400001928E-02 0. -1.
    10030    2    1    2    0    0  0.00000000000E+00  0.00000000000E+00 -0.86196397367E+03  0.23558666318E+04  0.21925158369E+04 0.  0.
        4    1    3    3  502    0 -0.25715061247E+03  0.54059117373E+02 -0.15745746282E+04  0.15963507442E+04  0.12699999809E+01 0. -1.
       -4    1    3    3    0  502  0.25715061247E+03 -0.54059117373E+02  0.71261065457E+03  0.75951588763E+03  0.12699999809E+01 0.  1.
</event>
<event>
 5   0  0.5849604E-05  0.2210743E+04  0.7818609E-02  0.8513970E-01
        1   -1    0    0  501    0  0.00000000000E+00  0.00000000000E+00  0.12072398727E+04  0.12072398727E+04  0.50400001928E-02 0.  1.
       -1   -1    0    0    0  501  0.00000000000E+00  0.00000000000E+00 -0.10120985188E+04  0.10120985188E+04  0.50400001928E-02 0. -1.
    10030    2    1    2    0    0  0.00000000000E+00  0.00000000000E+00  0.19514135389E+03  0.22193383916E+04  0.22107425785E+04 0.  0.
        2    1    3    3  502    0  0.10037633155E+04 -0.46186861925E+03  0.12903375682E+03  0.11124356725E+04  0.25500000920E-02 0. -1.
       -2    1    3    3    0  502 -0.10037633155E+04  0.46186861925E+03  0.66107597070E+02  0.11069027191E+04  0.25500000920E-02 0.  1.
</event>
<event>
 5   0  0.1311472E-04  0.2215117E+04  0.7818609E-02  0.8512162E-01
       -2   -1    0    0    0  501  0.00000000000E+00  0.00000000000E+00  0.10302361624E+04  0.10302361624E+04  0.25500000920E-02 0.  1.
        2   -1    0    0  501    0  0.00000000000E+00  0.00000000000E+00 -0.11906840679E+04  0.11906840679E+04  0.25500000920E-02 0. -1.
    10030    2    1    2    0    0  0.00000000000E+00  0.00000000000E+00 -0.16044790542E+03  0.22209202303E+04  0.22151169583E+04 0.  0.
        4    1    3    3  502    0  0.34583566049E+03  0.87963452882E+03 -0.65907952491E+03  0.11522788905E+04  0.12699999809E+01 0. -1.
       -4    1    3    3    0  502 -0.34583566049E+03 -0.87963452882E+03  0.49863161949E+03  0.10686413398E+04  0.12699999809E+01 0.  1.
</event>
<event>
 5   0  0.1226021E-04  0.2092917E+04  0.7818609E-02  0.8564370E-01
       -2   -1    0    0    0  501  0.00000000000E+00  0.00000000000E+00  0.43729993433E+03  0.43729993434E+03  0.25500000920E-02 0.  1.
        2   -1    0    0  501    0  0.00000000000E+00  0.00000000000E+00 -0.25041736819E+04  0.25041736819E+04  0.25500000920E-02 0. -1.
    10030    2    1    2    0    0  0.00000000000E+00  0.00000000000E+00 -0.20668737476E+04  0.29414736163E+04  0.20929166125E+04 0.  0.
        2    1    3    3  502    0 -0.10169322649E+04  0.17048428721E+03 -0.78257875087E+03  0.12944673132E+04  0.25500000920E-02 0.  1.
       -2    1    3    3    0  502  0.10169322649E+04 -0.17048428721E+03 -0.12842949967E+04  0.16470063031E+04  0.25500000920E-02 0. -1.
</event>
<event>
 5   0  0.1252124E-04  0.2271036E+04  0.7818609E-02  0.8489430E-01
        2   -1    0    0  501    0  0.00000000000E+00  0.00000000000E+00  0.13466620347E+04  0.13466620347E+04  0.25500000920E-02 0.  1.
       -2   -1    0    0    0  501  0.00000000000E+00  0.00000000000E+00 -0.95747921321E+03  0.95747921321E+03  0.25500000920E-02 0. -1.
    10030    2    1    2    0    0  0.00000000000E+00  0.00000000000E+00  0.38918282150E+03  0.23041412479E+04  0.22710358037E+04 0.  0.
        3    1    3    3  502    0  0.14767078352E+02  0.87747926770E+03  0.92565959003E+03  0.12755522799E+04  0.10100000352E+00 0. -1.
       -3    1    3    3    0  502 -0.14767078352E+02 -0.87747926770E+03 -0.53647676853E+03  0.10285889681E+04  0.10100000352E+00 0.  1.
</event>
<event>
 5   0  0.4586375E-05  0.2225155E+04  0.7818609E-02  0.8508031E-01
       -4   -1    0    0    0  501  0.00000000000E+00  0.00000000000E+00  0.10640506019E+04  0.10640513598E+04  0.12699999809E+01 0. -1.
        4   -1    0    0  501    0  0.00000000000E+00  0.00000000000E+00 -0.11633155606E+04  0.11633162539E+04  0.12699999809E+01 0.  1.
    10030    2    1    2    0    0  0.00000000000E+00  0.00000000000E+00 -0.99264958741E+02  0.22273676137E+04  0.22251545911E+04 0.  0.
        4    1    3    3  502    0 -0.19983512989E+03  0.25729252345E+03  0.10152361835E+04  0.10662268252E+04  0.12699999809E+01 0. -1.
       -4    1    3    3    0  502  0.19983512989E+03 -0.25729252345E+03 -0.11145011422E+04  0.11611407885E+04  0.12699999809E+01 0.  1.
</event>
<event>
 5   0  0.1311472E-04  0.2129498E+04  0.7818609E-02  0.8548359E-01
       -2   -1    0    0    0  501  0.00000000000E+00  0.00000000000E+00  0.65972981851E+03  0.65972981851E+03  0.25500000920E-02 0.  1.
        2   -1    0    0  501    0  0.00000000000E+00  0.00000000000E+00 -0.17184161125E+04  0.17184161126E+04  0.25500000920E-02 0. -1.
    10030    2    1    2    0    0  0.00000000000E+00  0.00000000000E+00 -0.10586862940E+04  0.23781459311E+04  0.21294979221E+04 0.  0.
        4    1    3    3  502    0  0.29757179300E+03 -0.83541680040E+03  0.12871266662E+03  0.89612430266E+03  0.12699999809E+01 0.  1.
       -4    1    3    3    0  502 -0.29757179300E+03  0.83541680040E+03 -0.11873989607E+04  0.14820216284E+04  0.12699999809E+01 0. -1.
</event>
<event>
 5   0  0.1252124E-04  0.2127335E+04  0.7818609E-02  0.8549297E-01
       -2   -1    0    0    0  501  0.00000000000E+00  0.00000000000E+00  0.15255072376E+04  0.15255072376E+04  0.25500000920E-02 0. -1.
        2   -1    0    0  501    0  0.00000000000E+00  0.00000000000E+00 -0.74164772763E+03  0.74164772763E+03  0.25500000920E-02 0.  1.
    10030    2    1    2    0    0  0.00000000000E+00  0.00000000000E+00  0.78385951001E+03  0.22671549653E+04  0.21273354002E+04 0.  0.
        3    1    3    3  502    0  0.57663070651E+03 -0.50271438941E+03  0.11795318607E+04  0.14058876732E+04  0.10100000352E+00 0. -1.
       -3    1    3    3    0  502 -0.57663070651E+03  0.50271438941E+03 -0.39567235073E+03  0.86126729205E+03  0.10100000352E+00 0.  1.
</event>
<event>
 5   0  0.6263558E-05  0.2196395E+04  0.7818609E-02  0.8519930E-01
       -1   -1    0    0    0  501  0.00000000000E+00  0.00000000000E+00  0.91486710410E+03  0.91486710411E+03  0.50400001928E-02 0. -1.
        1   -1    0    0  501    0  0.00000000000E+00  0.00000000000E+00 -0.13182650631E+04  0.13182650631E+04  0.50400001928E-02 0.  1.
    10030    2    1    2    0    0  0.00000000000E+00  0.00000000000E+00 -0.40339795903E+03  0.22331321672E+04  0.21963946283E+04 0.  0.
        3    1    3    3  502    0  0.10714789517E+04  0.23964253922E+03 -0.22536141284E+03  0.11208405182E+04  0.10100000352E+00 0. -1.
       -3    1    3    3    0  502 -0.10714789517E+04 -0.23964253922E+03 -0.17803654619E+03  0.11122916491E+04  0.10100000352E+00 0.  1.
</event>
<event>
 5   0  0.1241430E-04  0.2207770E+04  0.7818609E-02  0.8515201E-01
        2   -1    0    0  501    0  0.00000000000E+00  0.00000000000E+00  0.76379044456E+03  0.76379044456E+03  0.25500000920E-02 0.  1.
       -2   -1    0    0    0  501  0.00000000000E+00  0.00000000000E+00 -0.15954134926E+04  0.15954134926E+04  0.25500000920E-02 0. -1.
    10030    2    1    2    0    0  0.00000000000E+00  0.00000000000E+00 -0.83162304806E+03  0.23592039372E+04  0.22077695358E+04 0.  0.
        1    1    3    3  502    0 -0.67705851863E+02 -0.94071281044E+03 -0.10287742341E+04  0.13956722749E+04  0.50400001928E-02 0. -1.
       -1    1    3    3    0  502  0.67705851863E+02  0.94071281044E+03  0.19715118603E+03  0.96353166231E+03  0.50400001928E-02 0.  1.
</event>
<event>
 5   0  0.5849604E-05  0.2214733E+04  0.7818609E-02  0.8512321E-01
       -1   -1    0    0    0  501  0.00000000000E+00  0.00000000000E+00  0.67243167403E+03  0.67243167405E+03  0.50400001928E-02 0.  1.
        1   -1    0    0  501    0  0.00000000000E+00  0.00000000000E+00 -0.18236213098E+04  0.18236213098E+04  0.50400001928E-02 0. -1.
    10030    2    1    2    0    0  0.00000000000E+00  0.00000000000E+00 -0.11511896358E+04  0.24960529839E+04  0.22147331489E+04 0.  0.
        2    1    3    3  502    0  0.32450986966E+03 -0.10490830009E+04 -0.41470702143E+03  0.11738243957E+04  0.25500000920E-02 0.  1.
       -2    1    3    3    0  502 -0.32450986966E+03  0.10490830009E+04 -0.73648261436E+03  0.13222285882E+04  0.25500000920E-02 0. -1.
</event>
<event>
 5   0  0.5861816E-05  0.2199539E+04  0.7818609E-02  0.8518620E-01
        1   -1    0    0  501    0  0.00000000000E+00  0.00000000000E+00  0.84772326165E+03  0.84772326166E+03  0.50400001928E-02 0.  1.
       -1   -1    0    0    0  501  0.00000000000E+00  0.00000000000E+00 -0.14267545460E+04  0.14267545460E+04  0.50400001928E-02 0. -1.
    10030    2    1    2    0    0  0.00000000000E+00  0.00000000000E+00 -0.57903128435E+03  0.22744778077E+04  0.21995390584E+04 0.  0.
        1    1    3    3  502    0 -0.84580908333E+03  0.66615044750E+03 -0.52153388314E+03  0.11963055694E+04  0.50400001928E-02 0. -1.
       -1    1    3    3    0  502  0.84580908333E+03 -0.66615044750E+03 -0.57497401209E+02  0.10781722382E+04  0.50400001928E-02 0.  1.
</event>
<event>
 5   0  0.1311472E-04  0.2208830E+04  0.7818609E-02  0.8514762E-01
       -2   -1    0    0    0  501  0.00000000000E+00  0.00000000000E+00  0.79332668093E+03  0.79332668093E+03  0.25500000920E-02 0.  1.
        2   -1    0    0  501    0  0.00000000000E+00  0.00000000000E+00 -0.15374905697E+04  0.15374905697E+04  0.25500000920E-02 0. -1.
    10030    2    1    2    0    0  0.00000000000E+00  0.00000000000E+00 -0.74416388874E+03  0.23308172506E+04  0.22088298174E+04 0.  0.
        4    1    3    3  502    0  0.69025658464E+03 -0.18113536099E+03  0.51736033909E+03  0.88143491252E+03  0.12699999809E+01 0.  1.
       -4    1    3    3    0  502 -0.69025658464E+03  0.18113536099E+03 -0.12615242278E+04  0.14493823381E+04  0.12699999809E+01 0. -1.
</event>
<event>
 5   0  0.1311472E-04  0.2194364E+04  0.7818609E-02  0.8520778E-01
        2   -1    0    0  501    0  0.00000000000E+00  0.00000000000E+00  0.11862357389E+04  0.11862357389E+04  0.25500000920E-02 0. -1.
       -2   -1    0    0    0  501  0.00000000000E+00  0.00000000000E+00 -0.10148134293E+04  0.10148134293E+04  0.25500000920E-02 0.  1.
    10030    2    1    2    0    0  0.00000000000E+00  0.00000000000E+00  0.17142230961E+03  0.22010491682E+04  0.21943636510E+04 0.  0.
        4    1    3    3  502    0  0.10016227202E+04  0.43485159518E+03  0.19309975976E+03  0.11088882331E+04  0.12699999809E+01 0.  1.
       -4    1    3    3    0  502 -0.10016227202E+04 -0.43485159518E+03 -0.21677450150E+02  0.10921609351E+04  0.12699999809E+01 0. -1.
</event>
<event>
 5   0  0.1311472E-04  0.2204270E+04  0.7818609E-02  0.8516653E-01
       -2   -1    0    0    0  501  0.00000000000E+00  0.00000000000E+00  0.65598743637E+03  0.65598743638E+03  0.25500000920E-02 0.  1.
        2   -1    0    0  501    0  0.00000000000E+00  0.00000000000E+00 -0.18517151720E+04  0.18517151720E+04  0.25500000920E-02 0. -1.
    10030    2    1    2    0    0  0.00000000000E+00  0.00000000000E+00 -0.11957277356E+04  0.25077026084E+04  0.22042702997E+04 0.  0.
        4    1    3    3  502    0 -0.31345501795E+03  0.21811633794E+03 -0.17740442446E+04  0.18146799662E+04  0.12699999809E+01 0. -1.
       -4    1    3    3    0  502  0.31345501795E+03 -0.21811633794E+03  0.57831650894E+03  0.69302264217E+03  0.12699999809E+01 0.  1.
</event>
<event>
 5   0  0.4586375E-05  0.2224771E+04  0.7818609E-02  0.8508188E-01
       -3   -1    0    0    0  501  0.00000000000E+00  0.00000000000E+00  0.19214956671E+04  0.19214956698E+04  0.10100000352E+00 0.  1.
        3   -1    0    0  501    0  0.00000000000E+00  0.00000000000E+00 -0.64397837787E+03  0.64397838579E+03  0.10100000352E+00 0. -1.
    10030    2    1    2    0    0  0.00000000000E+00  0.00000000000E+00  0.12775172893E+04  0.25654740556E+04  0.22247711580E+04 0.  0.
        5    1    3    3  502    0  0.73703668230E+03 -0.82609008153E+03  0.76365869606E+03  0.13449329306E+04  0.46999998093E+01 0. -1.
       -5    1    3    3    0  502 -0.73703668230E+03  0.82609008153E+03  0.51385859319E+03  0.12205411249E+04  0.46999998093E+01 0.  1.
</event>
<event>
 5   0  0.5861816E-05  0.2165371E+04  0.7818609E-02  0.8532981E-01
        1   -1    0    0  501    0  0.00000000000E+00  0.00000000000E+00  0.95935330988E+03  0.95935330989E+03  0.50400001928E-02 0.  1.
       -1   -1    0    0    0  501  0.00000000000E+00  0.00000000000E+00 -0.12218725357E+04  0.12218725357E+04  0.50400001928E-02 0. -1.
    10030    2    1    2    0    0  0.00000000000E+00  0.00000000000E+00 -0.26251922584E+03  0.21812258456E+04  0.21653706024E+04 0.  0.
        1    1    3    3  502    0 -0.93370313617E+03  0.15297718953E+03 -0.66142495795E+03  0.11544204356E+04  0.50400001928E-02 0. -1.
       -1    1    3    3    0  502  0.93370313617E+03 -0.15297718953E+03  0.39890573211E+03  0.10268054101E+04  0.50400001928E-02 0.  1.
</event>
<event>
 5   0  0.1252124E-04  0.2097398E+04  0.7818609E-02  0.8562390E-01
       -2   -1    0    0    0  501  0.00000000000E+00  0.00000000000E+00  0.11331270610E+04  0.11331270610E+04  0.25500000920E-02 0. -1.
        2   -1    0    0  501    0  0.00000000000E+00  0.00000000000E+00 -0.97056153102E+03  0.97056153103E+03  0.25500000920E-02 0.  1.
    10030    2    1    2    0    0  0.00000000000E+00  0.00000000000E+00  0.16256552995E+03  0.21036885920E+04  0.20973979452E+04 0.  0.
        3    1    3    3  502    0 -0.71751336022E+03  0.27011820572E+03  0.79895677846E+03  0.11073035768E+04  0.10100000352E+00 0. -1.
       -3    1    3    3    0  502  0.71751336022E+03 -0.27011820572E+03 -0.63639124850E+03  0.99638501520E+03  0.10100000352E+00 0.  1.
</event>
<event>
 5   0  0.1241430E-04  0.2677772E+04  0.7818609E-02  0.8342254E-01
        2   -1    0    0  501    0  0.00000000000E+00  0.00000000000E+00  0.14115425669E+04  0.14115425669E+04  0.25500000920E-02 0.  1.
       -2   -1    0    0    0  501  0.00000000000E+00  0.00000000000E+00 -0.12699688387E+04  0.12699688387E+04  0.25500000920E-02 0. -1.
    10030    2    1    2    0    0  0.00000000000E+00  0.00000000000E+00  0.14157372824E+03  0.26815114056E+04  0.26777715171E+04 0.  0.
        1    1    3    3  502    0  0.19501763485E+03  0.19520387312E+03 -0.12411874517E+04  0.12714883878E+04  0.50400001928E-02 0. -1.
       -1    1    3    3    0  502 -0.19501763485E+03 -0.19520387312E+03  0.13827611799E+04  0.14100230178E+04  0.50400001928E-02 0.  1.
</event>
<event>
 5   0  0.4586375E-05  0.2139850E+04  0.7818609E-02  0.8543889E-01
       -4   -1    0    0    0  501  0.00000000000E+00  0.00000000000E+00  0.95283095085E+03  0.95283179722E+03  0.12699999809E+01 0. -1.
        4   -1    0    0  501    0  0.00000000000E+00  0.00000000000E+00 -0.12014073233E+04  0.12014079945E+04  0.12699999809E+01 0.  1.
    10030    2    1    2    0    0  0.00000000000E+00  0.00000000000E+00 -0.24857637244E+03  0.21542397918E+04  0.21398501974E+04 0.  0.
        3    1    3    3  502    0  0.59592125428E+03 -0.75852721346E+01 -0.10188353635E+04  0.11803411311E+04  0.10100000352E+00 0.  1.
       -3    1    3    3    0  502 -0.59592125428E+03  0.75852721346E+01  0.77025899108E+03  0.97389866064E+03  0.10100000352E+00 0. -1.
</event>
<event>
 5   0  0.5861816E-05  0.1607661E+04  0.7818609E-02  0.8815856E-01
       -1   -1    0    0    0  501  0.00000000000E+00  0.00000000000E+00  0.10413916688E+04  0.10413916688E+04  0.50400001928E-02 0. -1.
        1   -1    0    0  501    0  0.00000000000E+00  0.00000000000E+00 -0.62046125525E+03  0.62046125527E+03  0.50400001928E-02 0.  1.
    10030    2    1    2    0    0  0.00000000000E+00  0.00000000000E+00  0.42093041355E+03  0.16618529241E+04  0.16076606384E+04 0.  0.
        1    1    3    3  502    0 -0.56816907279E+03  0.10464517455E+03 -0.36728135045E+03  0.68458914558E+03  0.50400001928E-02 0.  1.
       -1    1    3    3    0  502  0.56816907279E+03 -0.10464517455E+03  0.78821176401E+03  0.97726377850E+03  0.50400001928E-02 0. -1.
</event>
<event>
 5   0  0.5849604E-05  0.2207357E+04  0.7818609E-02  0.8515372E-01
        1   -1    0    0  501    0  0.00000000000E+00  0.00000000000E+00  0.17288776300E+04  0.17288776300E+04  0.50400001928E-02 0.  1.
       -1   -1    0    0    0  501  0.00000000000E+00  0.00000000000E+00 -0.70456505366E+03  0.70456505368E+03  0.50400001928E-02 0. -1.
    10030    2    1    2    0    0  0.00000000000E+00  0.00000000000E+00  0.10243125764E+04  0.24334426837E+04  0.22073574792E+04 0.  0.
        2    1    3    3  502    0 -0.18376171166E+03 -0.61390667793E+03 -0.47846611820E+03  0.79973720819E+03  0.25500000920E-02 0. -1.
       -2    1    3    3    0  502  0.18376171166E+03  0.61390667793E+03  0.15027786946E+04  0.16337054755E+04  0.25500000920E-02 0.  1.
</event>
<event>
 5   0  0.1252124E-04  0.2204435E+04  0.7818609E-02  0.8516584E-01
        2   -1    0    0  501    0  0.00000000000E+00  0.00000000000E+00  0.15683121712E+04  0.15683121712E+04  0.25500000920E-02 0. -1.
       -2   -1    0    0    0  501  0.00000000000E+00  0.00000000000E+00 -0.77464399112E+03  0.77464399113E+03  0.25500000920E-02 0.  1.
    10030    2    1    2    0    0  0.00000000000E+00  0.00000000000E+00  0.79366818010E+03  0.23429561624E+04  0.22044351654E+04 0.  0.
        3    1    3    3  502    0 -0.11495882130E+02  0.61984520349E+03  0.13654419463E+04  0.14995905943E+04  0.10100000352E+00 0. -1.
       -3    1    3    3    0  502  0.11495882130E+02 -0.61984520349E+03 -0.57177376615E+03  0.84336556810E+03  0.10100000352E+00 0.  1.
</event>
<event>
 5   0  0.5849604E-05  0.2199655E+04  0.7818609E-02  0.8518572E-01
       -1   -1    0    0    0  501  0.00000000000E+00  0.00000000000E+00  0.53263745254E+03  0.53263745257E+03  0.50400001928E-02 0. -1.
        1   -1    0    0  501    0  0.00000000000E+00  0.00000000000E+00 -0.22710018125E+04  0.22710018125E+04  0.50400001928E-02 0.  1.
    10030    2    1    2    0    0  0.00000000000E+00  0.00000000000E+00 -0.17383643599E+04  0.28036392651E+04  0.21996550822E+04 0.  0.
        2    1    3    3  502    0 -0.79479328100E+03  0.57599814448E+03 -0.23681718892E+03  0.10097289750E+04  0.25500000920E-02 0. -1.
       -2    1    3    3    0  502  0.79479328100E+03 -0.57599814448E+03 -0.15015471710E+04  0.17939102901E+04  0.25500000920E-02 0.  1.
</event>
<event>
 5   0  0.1226021E-04  0.2222964E+04  0.7818609E-02  0.8508930E-01
       -2   -1    0    0    0  501  0.00000000000E+00  0.00000000000E+00  0.11705886566E+04  0.11705886566E+04  0.25500000920E-02 0. -1.
        2   -1    0    0  501    0  0.00000000000E+00  0.00000000000E+00 -0.10553601544E+04  0.10553601544E+04  0.25500000920E-02 0.  1.
    10030    2    1    2    0    0  0.00000000000E+00  0.00000000000E+00  0.11522850218E+03  0.22259488111E+04  0.22229643501E+04 0.  0.
        2    1    3    3  502    0  0.48090307878E+03  0.73829061204E+03 -0.62082901276E+03  0.10778541006E+04  0.25500000920E-02 0.  1.
       -2    1    3    3    0  502 -0.48090307878E+03 -0.73829061204E+03  0.73605751494E+03  0.11480947105E+04  0.25500000920E-02 0. -1.
</event>
<event>
 5   0  0.6263558E-05  0.2194619E+04  0.7818609E-02  0.8520671E-01
        1   -1    0    0  501    0  0.00000000000E+00  0.00000000000E+00  0.11765420100E+04  0.11765420100E+04  0.50400001928E-02 0. -1.
       -1   -1    0    0    0  501  0.00000000000E+00  0.00000000000E+00 -0.10234124938E+04  0.10234124938E+04  0.50400001928E-02 0.  1.
    10030    2    1    2    0    0  0.00000000000E+00  0.00000000000E+00  0.15312951620E+03  0.21999545038E+04  0.21946186844E+04 0.  0.
        3    1    3    3  502    0  0.43333614661E+03 -0.81445495714E+03  0.67212260144E+03  0.11414315112E+04  0.10100000352E+00 0. -1.
       -3    1    3    3    0  502 -0.43333614661E+03  0.81445495714E+03 -0.51899308524E+03  0.10585229926E+04  0.10100000352E+00 0.  1.
</event>
<event>
 5   0  0.5861816E-05  0.2206960E+04  0.7818609E-02  0.8515537E-01
       -1   -1    0    0    0  501  0.00000000000E+00  0.00000000000E+00  0.14136805854E+04  0.14136805854E+04  0.50400001928E-02 0. -1.
        1   -1    0    0  501    0  0.00000000000E+00  0.00000000000E+00 -0.86134622611E+03  0.86134622613E+03  0.50400001928E-02 0.  1.
    10030    2    1    2    0    0  0.00000000000E+00  0.00000000000E+00  0.55233435929E+03  0.22750268115E+04  0.22069602961E+04 0.  0.
        1    1    3    3  502    0  0.10042540477E+04 -0.31066836144E+03 -0.69783394372E+02  0.10535230160E+04  0.50400001928E-02 0.  1.
       -1    1    3    3    0  502 -0.10042540477E+04  0.31066836144E+03  0.62211775366E+03  0.12215037955E+04  0.50400001928E-02 0. -1.
</event>
<event>
 5   0  0.1311472E-04  0.2169600E+04  0.7818609E-02  0.8531189E-01
        2   -1    0    0  501    0  0.00000000000E+00  0.00000000000E+00  0.77671441804E+03  0.77671441804E+03  0.25500000920E-02 0. -1.
       -2   -1    0    0    0  501  0.00000000000E+00  0.00000000000E+00 -0.15150884534E+04  0.15150884534E+04  0.25500000920E-02 0.  1.
    10030    2    1    2    0    0  0.00000000000E+00  0.00000000000E+00 -0.73837403540E+03  0.22918028715E+04  0.21696000059E+04 0.  0.
        4    1    3    3  502    0  0.49219509866E+03 -0.95952837765E+03 -0.24492299648E+03  0.11058659999E+04  0.12699999809E+01 0.  1.
       -4    1    3    3    0  502 -0.49219509866E+03  0.95952837765E+03 -0.49345103892E+03  0.11859368716E+04  0.12699999809E+01 0. -1.
</event>
<event>
 5   0  0.1404159E-04  0.2094734E+04  0.7818609E-02  0.8563567E-01
       -2   -1    0    0    0  501  0.00000000000E+00  0.00000000000E+00  0.10273838633E+04  0.10273838633E+04  0.25500000920E-02 0. -1.
        2   -1    0    0  501    0  0.00000000000E+00  0.00000000000E+00 -0.10677389272E+04  0.10677389272E+04  0.25500000920E-02 0.  1.
    10030    2    1    2    0    0  0.00000000000E+00  0.00000000000E+00 -0.40355063844E+02  0.20951227905E+04  0.20947341063E+04 0.  0.
        5    1    3    3  502    0  0.74934118603E+03 -0.72676908262E+03 -0.10534109379E+03  0.10492017673E+04  0.46999998093E+01 0.  1.
       -5    1    3    3    0  502 -0.74934118603E+03  0.72676908262E+03  0.64986029948E+02  0.10459210231E+04  0.46999998093E+01 0. -1.
</event>
<event>
 5   0  0.5849604E-05  0.2293794E+04  0.7818609E-02  0.8480372E-01
       -1   -1    0    0    0  501  0.00000000000E+00  0.00000000000E+00  0.91373682304E+03  0.91373682305E+03  0.50400001928E-02 0. -1.
        1   -1    0    0  501    0  0.00000000000E+00  0.00000000000E+00 -0.14395535061E+04  0.14395535061E+04  0.50400001928E-02 0.  1.
    10030    2    1    2    0    0  0.00000000000E+00  0.00000000000E+00 -0.52581668305E+03  0.23532903291E+04  0.22937942778E+04 0.  0.
        2    1    3    3  502    0  0.54523361497E+03 -0.87847964678E+03 -0.77213624317E+03  0.12904265042E+04  0.25500000920E-02 0.  1.
       -2    1    3    3    0  502 -0.54523361497E+03  0.87847964678E+03  0.24631956013E+03  0.10628638250E+04  0.25500000920E-02 0. -1.
</event>
<event>
 5   0  0.5849604E-05  0.2231519E+04  0.7818609E-02  0.8505422E-01
        1   -1    0    0  501    0  0.00000000000E+00  0.00000000000E+00  0.17636974419E+04  0.17636974419E+04  0.50400001928E-02 0. -1.
       -1   -1    0    0    0  501  0.00000000000E+00  0.00000000000E+00 -0.70585782517E+03  0.70585782519E+03  0.50400001928E-02 0.  1.
    10030    2    1    2    0    0  0.00000000000E+00  0.00000000000E+00  0.10578396167E+04  0.24695552671E+04  0.22315193395E+04 0.  0.
        2    1    3    3  502    0  0.21137316721E+03 -0.43634751827E+02 -0.68253602446E+03  0.71584777158E+03  0.25500000920E-02 0.  1.
       -2    1    3    3    0  502 -0.21137316721E+03  0.43634751827E+02  0.17403756412E+04  0.17537074955E+04  0.25500000920E-02 0. -1.
</event>
<event>
 5   0  0.5861816E-05  0.2208621E+04  0.7818609E-02  0.8514848E-01
       -1   -1    0    0    0  501  0.00000000000E+00  0.00000000000E+00  0.10304401358E+04  0.10304401358E+04  0.50400001928E-02 0.  1.
        1   -1    0    0  501    0  0.00000000000E+00  0.00000000000E+00 -0.11834767068E+04  0.11834767068E+04  0.50400001928E-02 0. -1.
    10030    2    1    2    0    0  0.00000000000E+00  0.00000000000E+00 -0.15303657099E+03  0.22139168426E+04  0.22086211974E+04 0.  0.
        1    1    3    3  502    0 -0.38803080497E+03 -0.27907640078E+03 -0.10744203681E+04  0.11759382086E+04  0.50400001928E-02 0. -1.
       -1    1    3    3    0  502  0.38803080497E+03  0.27907640078E+03  0.92138379706E+03  0.10379786340E+04  0.50400001928E-02 0.  1.
</event>
<event>
 5   0  0.5895063E-05  0.2180181E+04  0.7818609E-02  0.8526723E-01
        1   -1    0    0  501    0  0.00000000000E+00  0.00000000000E+00  0.12842033088E+04  0.12842033088E+04  0.50400001928E-02 0. -1.
       -1   -1    0    0    0  501  0.00000000000E+00  0.00000000000E+00 -0.92531908325E+03  0.92531908327E+03  0.50400001928E-02 0.  1.
    10030    2    1    2    0    0  0.00000000000E+00  0.00000000000E+00  0.35888422556E+03  0.22095223921E+04  0.21801814864E+04 0.  0.
        5    1    3    3  502    0  0.65364771343E+03 -0.87182635256E+03  0.21050118941E+03  0.11098060024E+04  0.46999998093E+01 0.  1.
       -5    1    3    3    0  502 -0.65364771343E+03  0.87182635256E+03  0.14838303615E+03  0.10997163897E+04  0.46999998093E+01 0. -1.
</event>
<event>
 5   0  0.6263558E-05  0.2238173E+04  0.7818609E-02  0.8502705E-01
       -1   -1    0    0    0  501  0.00000000000E+00  0.00000000000E+00  0.44974589752E+03  0.44974589755E+03  0.50400001928E-02 0. -1.
        1   -1    0    0  501    0  0.00000000000E+00  0.00000000000E+00 -0.27845837534E+04  0.27845837534E+04  0.50400001928E-02 0.  1.
    10030    2    1    2    0    0  0.00000000000E+00  0.00000000000E+00 -0.23348378558E+04  0.32343296509E+04  0.22381734691E+04 0.  0.
        3    1    3    3  502    0  0.66652861293E+03 -0.51192484181E+03 -0.99599382662E+02  0.84631405680E+03  0.10100000352E+00 0. -1.
       -3    1    3    3    0  502 -0.66652861293E+03  0.51192484181E+03 -0.22352384732E+04  0.23880155941E+04  0.10100000352E+00 0.  1.
</event>
<event>
 5   0  0.1241430E-04  0.2275396E+04  0.7818609E-02  0.8487686E-01
        2   -1    0    0  501    0  0.00000000000E+00  0.00000000000E+00  0.77686632030E+03  0.77686632030E+03  0.25500000920E-02 0. -1.
       -2   -1    0    0    0  501  0.00000000000E+00  0.00000000000E+00 -0.16661249520E+04  0.16661249520E+04  0.25500000920E-02 0.  1.
    10030    2    1    2    0    0  0.00000000000E+00  0.00000000000E+00 -0.88925863174E+03  0.24429912723E+04  0.22753956673E+04 0.  0.
        1    1    3    3  502    0  0.79164965537E+03  0.78095276577E+03 -0.18659442400E+03  0.11275698995E+04  0.50400001928E-02 0.  1.
       -1    1    3    3    0  502 -0.79164965537E+03 -0.78095276577E+03 -0.70266420773E+03  0.13154213728E+04  0.50400001928E-02 0. -1.
</event>
<event>
 5   0  0.5895063E-05  0.2215162E+04  0.7818609E-02  0.8512144E-01
        1   -1    0    0  501    0  0.00000000000E+00  0.00000000000E+00  0.71750505200E+03  0.71750505202E+03  0.50400001928E-02 0.  1.
       -1   -1    0    0    0  501  0.00000000000E+00  0.00000000000E+00 -0.17097248131E+04  0.17097248131E+04  0.50400001928E-02 0. -1.
    10030    2    1    2    0    0  0.00000000000E+00  0.00000000000E+00 -0.99221976113E+03  0.24272298652E+04  0.22151624690E+04 0.  0.
        5    1    3    3  502    0  0.82728865415E+02 -0.10235666523E+04 -0.95078204754E+03  0.13994789562E+04  0.46999998093E+01 0.  1.
       -5    1    3    3    0  502 -0.82728865415E+02  0.10235666523E+04 -0.41437713589E+02  0.10277509090E+04  0.46999998093E+01 0. -1.
</event>
<event>
 5   0  0.5861816E-05  0.2216208E+04  0.7818609E-02  0.8511712E-01
       -1   -1    0    0    0  501  0.00000000000E+00  0.00000000000E+00  0.76352433175E+03  0.76352433177E+03  0.50400001928E-02 0.  1.
        1   -1    0    0  501    0  0.00000000000E+00  0.00000000000E+00 -0.16081926044E+04  0.16081926044E+04  0.50400001928E-02 0. -1.
    10030    2    1    2    0    0  0.00000000000E+00  0.00000000000E+00 -0.84466827262E+03  0.23717169361E+04  0.22162077372E+04 0.  0.
        1    1    3    3  502    0 -0.91224044199E+02  0.10971604667E+04 -0.28776801536E+03  0.11379338059E+04  0.50400001928E-02 0.  1.
       -1    1    3    3    0  502  0.91224044199E+02 -0.10971604667E+04 -0.55690025725E+03  0.12337831302E+04  0.50400001928E-02 0. -1.
</event>
<event>
 5   0  0.5861816E-05  0.2216485E+04  0.7818609E-02  0.8511598E-01
        1   -1    0    0  501    0  0.00000000000E+00  0.00000000000E+00  0.12008067656E+04  0.12008067656E+04  0.50400001928E-02 0.  1.
       -1   -1    0    0    0  501  0.00000000000E+00  0.00000000000E+00 -0.10228137039E+04  0.10228137040E+04  0.50400001928E-02 0. -1.
    10030    2    1    2    0    0  0.00000000000E+00  0.00000000000E+00  0.17799306167E+03  0.22236204696E+04  0.22164851596E+04 0.  0.
        1    1    3    3  502    0  0.99038329762E+03  0.47372009642E+03  0.24091654770E+03  0.11239709022E+04  0.50400001928E-02 0. -1.
       -1    1    3    3    0  502 -0.99038329762E+03 -0.47372009642E+03 -0.62923486037E+02  0.10996495674E+04  0.50400001928E-02 0.  1.
</event>
<event>
 5   0  0.5849604E-05  0.2216896E+04  0.7818609E-02  0.8511428E-01
        1   -1    0    0  501    0  0.00000000000E+00  0.00000000000E+00  0.15874217489E+04  0.15874217489E+04  0.50400001928E-02 0.  1.
       -1   -1    0    0    0  501  0.00000000000E+00  0.00000000000E+00 -0.77399527048E+03  0.77399527049E+03  0.50400001928E-02 0. -1.
    10030    2    1    2    0    0  0.00000000000E+00  0.00000000000E+00  0.81342647840E+03  0.23614170194E+04  0.22168959614E+04 0.  0.
        2    1    3    3  502    0 -0.27503095812E+03  0.27240296909E+03  0.15130826622E+04  0.15618145050E+04  0.25500000920E-02 0.  1.
       -2    1    3    3    0  502  0.27503095812E+03 -0.27240296909E+03 -0.69965618377E+03  0.79960251437E+03  0.25500000920E-02 0. -1.
</event>
<event>
 5   0  0.6263558E-05  0.2182443E+04  0.7818609E-02  0.8525771E-01
        1   -1    0    0  501    0  0.00000000000E+00  0.00000000000E+00  0.11519309677E+04  0.11519309677E+04  0.50400001928E-02 0.  1.
       -1   -1    0    0    0  501  0.00000000000E+00  0.00000000000E+00 -0.10337119438E+04  0.10337119438E+04  0.50400001928E-02 0. -1.
    10030    2    1    2    0    0  0.00000000000E+00  0.00000000000E+00  0.11821902389E+03  0.21856429116E+04  0.21824434012E+04 0.  0.
        3    1    3    3  502    0  0.10624628856E+04  0.80341033390E+02 -0.17678351820E+03  0.10800622609E+04  0.10100000352E+00 0. -1.
       -3    1    3    3    0  502 -0.10624628856E+04 -0.80341033390E+02  0.29500254209E+03  0.11055806506E+04  0.10100000352E+00 0.  1.
</event>
<event>
 5   0  0.1241430E-04  0.2173366E+04  0.7818609E-02  0.8529596E-01
        2   -1    0    0  501    0  0.00000000000E+00  0.00000000000E+00  0.13455155907E+04  0.13455155907E+04  0.25500000920E-02 0. -1.
       -2   -1    0    0    0  501  0.00000000000E+00  0.00000000000E+00 -0.87764121490E+03  0.87764121490E+03  0.25500000920E-02 0.  1.
    10030    2    1    2    0    0  0.00000000000E+00  0.00000000000E+00  0.46787437581E+03  0.22231568056E+04  0.21733659956E+04 0.  0.
        1    1    3    3  502    0 -0.31076020339E+03  0.30735120783E+03 -0.78376438332E+03  0.89739805970E+03  0.50400001928E-02 0.  1.
       -1    1    3    3    0  502  0.31076020339E+03 -0.30735120783E+03  0.12516387591E+04  0.13257587459E+04  0.50400001928E-02 0. -1.
</event>
<event>
 5   0  0.1252124E-04  0.2104797E+04  0.7818609E-02  0.8559133E-01
       -2   -1    0    0    0  501  0.00000000000E+00  0.00000000000E+00  0.83483415029E+03  0.83483415030E+03  0.25500000920E-02 0.  1.
        2   -1    0    0  501    0  0.00000000000E+00  0.00000000000E+00 -0.13266612837E+04  0.13266612837E+04  0.25500000920E-02 0. -1.
    10030    2    1    2    0    0  0.00000000000E+00  0.00000000000E+00 -0.49182713339E+03  0.21614954340E+04  0.21047965655E+04 0.  0.
        3    1    3    3  502    0  0.29173981913E+03  0.39151131258E+02  0.79169895203E+03  0.84464914254E+03  0.10100000352E+00 0.  1.
       -3    1    3    3    0  502 -0.29173981913E+03 -0.39151131258E+02 -0.12835260854E+04  0.13168462914E+04  0.10100000352E+00 0. -1.
</event>
<event>
 5   0  0.6263558E-05  0.2048253E+04  0.7818609E-02  0.8584387E-01
       -1   -1    0    0    0  501  0.00000000000E+00  0.00000000000E+00  0.10186707942E+04  0.10186707942E+04  0.50400001928E-02 0. -1.
        1   -1    0    0  501    0  0.00000000000E+00  0.00000000000E+00 -0.10296113352E+04  0.10296113352E+04  0.50400001928E-02 0.  1.
    10030    2    1    2    0    0  0.00000000000E+00  0.00000000000E+00 -0.10940541018E+02  0.20482821294E+04  0.20482529107E+04 0.  0.
        3    1    3    3  502    0  0.44110544027E+03 -0.50471201627E+03  0.76883190716E+03  0.10200052649E+04  0.10100000352E+00 0. -1.
       -3    1    3    3    0  502 -0.44110544027E+03  0.50471201627E+03 -0.77977244818E+03  0.10282768644E+04  0.10100000352E+00 0.  1.
</event>
<event>
 5   0  0.1404159E-04  0.2179455E+04  0.7818609E-02  0.8527028E-01
       -2   -1    0    0    0  501  0.00000000000E+00  0.00000000000E+00  0.11484627029E+04  0.11484627029E+04  0.25500000920E-02 0. -1.
        2   -1    0    0  501    0  0.00000000000E+00  0.00000000000E+00 -0.10339958301E+04  0.10339958301E+04  0.25500000920E-02 0.  1.
    10030    2    1    2    0    0  0.00000000000E+00  0.00000000000E+00  0.11446687273E+03  0.21824585330E+04  0.21794546527E+04 0.  0.
        5    1    3    3  502    0 -0.47574843204E+02  0.43551943441E+02 -0.10320725575E+04  0.10340967031E+04  0.46999998093E+01 0.  1.
       -5    1    3    3    0  502  0.47574843204E+02 -0.43551943441E+02  0.11465394302E+04  0.11483618299E+04  0.46999998093E+01 0. -1.
</event>
<event>
 5   0  0.5981239E-05  0.2212405E+04  0.7818609E-02  0.8513283E-01
        1   -1    0    0  501    0  0.00000000000E+00  0.00000000000E+00  0.22611781142E+04  0.22611781143E+04  0.50400001928E-02 0.  1.
       -1   -1    0    0    0  501  0.00000000000E+00  0.00000000000E+00 -0.54117075822E+03  0.54117075824E+03  0.50400001928E-02 0. -1.
    10030    2    1    2    0    0  0.00000000000E+00  0.00000000000E+00  0.17200073560E+04  0.28023488725E+04  0.22124045512E+04 0.  0.
        4    1    3    3  502    0 -0.22561744767E+02 -0.72513647646E+03 -0.19774632526E+03  0.75195555978E+03  0.12699999809E+01 0. -1.
       -4    1    3    3    0  502  0.22561744767E+02  0.72513647646E+03  0.19177536813E+04  0.20503933127E+04  0.12699999809E+01 0.  1.
</event>
<event>
 5   0  0.5849604E-05  0.1960561E+04  0.7818609E-02  0.8625285E-01
       -1   -1    0    0    0  501  0.00000000000E+00  0.00000000000E+00  0.60713474787E+03  0.60713474789E+03  0.50400001928E-02 0.  1.
        1   -1    0    0  501    0  0.00000000000E+00  0.00000000000E+00 -0.15827622291E+04  0.15827622291E+04  0.50400001928E-02 0. -1.
    10030    2    1    2    0    0  0.00000000000E+00  0.00000000000E+00 -0.97562748119E+03  0.21898969770E+04  0.19605610900E+04 0.  0.
        2    1    3    3  502    0  0.39520252390E+02 -0.38018747069E+03  0.52046581870E+03  0.64574687894E+03  0.25500000920E-02 0.  1.
       -2    1    3    3    0  502 -0.39520252390E+02  0.38018747069E+03 -0.14960932999E+04  0.15441500980E+04  0.25500000920E-02 0. -1.
</event>
<event>
 5   0  0.5861816E-05  0.2265393E+04  0.7818609E-02  0.8491692E-01
       -1   -1    0    0    0  501  0.00000000000E+00  0.00000000000E+00  0.55396382145E+03  0.55396382148E+03  0.50400001928E-02 0. -1.
        1   -1    0    0  501    0  0.00000000000E+00  0.00000000000E+00 -0.23160388218E+04  0.23160388218E+04  0.50400001928E-02 0.  1.
    10030    2    1    2    0    0  0.00000000000E+00  0.00000000000E+00 -0.17620750003E+04  0.28700026433E+04  0.22653933137E+04 0.  0.
        1    1    3    3  502    0 -0.32773573933E+03  0.42587648496E+03 -0.21442603659E+04  0.22105732316E+04  0.50400001928E-02 0.  1.
       -1    1    3    3    0  502  0.32773573933E+03 -0.42587648496E+03  0.38218536561E+03  0.65942941167E+03  0.50400001928E-02 0. -1.
</event>
<event>
 5   0  0.5895063E-05  0.2102440E+04  0.7818609E-02  0.8560169E-01
       -1   -1    0    0    0  501  0.00000000000E+00  0.00000000000E+00  0.43059027161E+03  0.43059027164E+03  0.50400001928E-02 0.  1.
        1   -1    0    0  501    0  0.00000000000E+00  0.00000000000E+00 -0.25663914410E+04  0.25663914410E+04  0.50400001928E-02 0. -1.
    10030    2    1    2    0    0  0.00000000000E+00  0.00000000000E+00 -0.21358011694E+04  0.29969817126E+04  0.21024397139E+04 0.  0.
        5    1    3    3  502    0 -0.49282966825E+03  0.56492594980E+03 -0.17468619629E+02  0.74989976219E+03  0.46999998093E+01 0.  1.
       -5    1    3    3    0  502  0.49282966825E+03 -0.56492594980E+03 -0.21183325498E+04  0.22470819504E+04  0.46999998093E+01 0. -1.
</event>
<event>
 5   0  0.1404159E-04  0.2136561E+04  0.7818609E-02  0.8545307E-01
        2   -1    0    0  501    0  0.00000000000E+00  0.00000000000E+00  0.15225339303E+04  0.15225339303E+04  0.25500000920E-02 0.  1.
       -2   -1    0    0    0  501  0.00000000000E+00  0.00000000000E+00 -0.74955506899E+03  0.74955506899E+03  0.25500000920E-02 0. -1.
    10030    2    1    2    0    0  0.00000000000E+00  0.00000000000E+00  0.77297886127E+03  0.22720889993E+04  0.21365608113E+04 0.  0.
        5    1    3    3  502    0  0.68437006435E+03 -0.11984762712E+03  0.12494277567E+04  0.14296215051E+04  0.46999998093E+01 0.  1.
       -5    1    3    3    0  502 -0.68437006435E+03  0.11984762712E+03 -0.47644889543E+03  0.84246749413E+03  0.46999998093E+01 0. -1.
</event>
<event>
 5   0  0.1311472E-04  0.2298815E+04  0.7818609E-02  0.8478388E-01
       -2   -1    0    0    0  501  0.00000000000E+00  0.00000000000E+00  0.74554103181E+03  0.74554103181E+03  0.25500000920E-02 0.  1.
        2   -1    0    0  501    0  0.00000000000E+00  0.00000000000E+00 -0.17720522836E+04  0.17720522836E+04  0.25500000920E-02 0. -1.
    10030    2    1    2    0    0  0.00000000000E+00  0.00000000000E+00 -0.10265112518E+04  0.25175933154E+04  0.22988150756E+04 0.  0.
        4    1    3    3  502    0 -0.24342015714E+03  0.61295744557E+03 -0.15442090621E+04  0.16791525968E+04  0.12699999809E+01 0. -1.
       -4    1    3    3    0  502  0.24342015714E+03 -0.61295744557E+03  0.51769781029E+03  0.83844071863E+03  0.12699999809E+01 0.  1.
</event>
<event>
 5   0  0.5895063E-05  0.2160251E+04  0.7818609E-02  0.8535157E-01
        1   -1    0    0  501    0  0.00000000000E+00  0.00000000000E+00  0.14706196369E+04  0.14706196369E+04  0.50400001928E-02 0.  1.
       -1   -1    0    0    0  501  0.00000000000E+00  0.00000000000E+00 -0.79331953312E+03  0.79331953313E+03  0.50400001928E-02 0. -1.
    10030    2    1    2    0    0  0.00000000000E+00  0.00000000000E+00  0.67730010382E+03  0.22639391701E+04  0.21602511741E+04 0.  0.
        5    1    3    3  502    0  0.86985275763E+03 -0.59558650448E+03  0.92243229241E+02  0.10582523365E+04  0.46999998093E+01 0. -1.
       -5    1    3    3    0  502 -0.86985275763E+03  0.59558650448E+03  0.58505687458E+03  0.12056868336E+04  0.46999998093E+01 0.  1.
</event>
<event>
 5   0  0.4586375E-05  0.2241819E+04  0.7818609E-02  0.8501221E-01
       -3   -1    0    0    0  501  0.00000000000E+00  0.00000000000E+00  0.15952657248E+04  0.15952657280E+04  0.10100000352E+00 0. -1.
        3   -1    0    0  501    0  0.00000000000E+00  0.00000000000E+00 -0.78760446880E+03  0.78760447528E+03  0.10100000352E+00 0.  1.
    10030    2    1    2    0    0  0.00000000000E+00  0.00000000000E+00  0.80766125599E+03  0.23828702033E+04  0.22418192838E+04 0.  0.
        2    1    3    3  502    0  0.37060337742E+03  0.65859780768E+03  0.12837704683E+04  0.14896860578E+04  0.25500000920E-02 0. -1.
       -2    1    3    3    0  502 -0.37060337742E+03 -0.65859780768E+03 -0.47610921230E+03  0.89318414544E+03  0.25500000920E-02 0.  1.
</event>
<event>
 5   0  0.1241430E-04  0.2182364E+04  0.7818609E-02  0.8525805E-01
        2   -1    0    0  501    0  0.00000000000E+00  0.00000000000E+00  0.16705556156E+04  0.16705556156E+04  0.25500000920E-02 0.  1.
       -2   -1    0    0    0  501  0.00000000000E+00  0.00000000000E+00 -0.71274370416E+03  0.71274370417E+03  0.25500000920E-02 0. -1.
    10030    2    1    2    0    0  0.00000000000E+00  0.00000000000E+00  0.95781191148E+03  0.23832993198E+04  0.21823638537E+04 0.  0.
        1    1    3    3  502    0 -0.44380248170E+03  0.31467377713E+03 -0.55406855770E+03  0.77651284306E+03  0.50400001928E-02 0. -1.
       -1    1    3    3    0  502  0.44380248170E+03 -0.31467377713E+03  0.15118804692E+04  0.16067864768E+04  0.50400001928E-02 0.  1.
</event>
<event>
 5   0  0.1311472E-04  0.2187742E+04  0.7818609E-02  0.8523547E-01
       -2   -1    0    0    0  501  0.00000000000E+00  0.00000000000E+00  0.85652972534E+03  0.85652972535E+03  0.25500000920E-02 0.  1.
        2   -1    0    0  501    0  0.00000000000E+00  0.00000000000E+00 -0.13969792933E+04  0.13969792933E+04  0.25500000920E-02 0. -1.
    10030    2    1    2    0    0  0.00000000000E+00  0.00000000000E+00 -0.54044956793E+03  0.22535090186E+04  0.21877424806E+04 0.  0.
        4    1    3    3  502    0  0.81693255997E+03 -0.19088614564E+03 -0.99327823188E+03  0.13001613696E+04  0.12699999809E+01 0. -1.
       -4    1    3    3    0  502 -0.81693255997E+03  0.19088614564E+03  0.45282866395E+03  0.95334764904E+03  0.12699999809E+01 0.  1.
</event>
<event>
 5   0  0.1311472E-04  0.2413742E+04  0.7818609E-02  0.8434376E-01
       -2   -1    0    0    0  501  0.00000000000E+00  0.00000000000E+00  0.11232781656E+04  0.11232781656E+04  0.25500000920E-02 0. -1.
        2   -1    0    0  501    0  0.00000000000E+00  0.00000000000E+00 -0.12966852079E+04  0.12966852079E+04  0.25500000920E-02 0.  1.
    10030    2    1    2    0    0  0.00000000000E+00  0.00000000000E+00 -0.17340704232E+03  0.24199633735E+04  0.24137424732E+04 0.  0.
        4    1    3    3  502    0  0.11047857042E+04 -0.47035194625E+03  0.35076250361E+02  0.12012553274E+04  0.12699999809E+01 0. -1.
       -4    1    3    3    0  502 -0.11047857042E+04  0.47035194625E+03 -0.20848329269E+03  0.12187080461E+04  0.12699999809E+01 0.  1.
</event>
<event>
 5   0  0.5981239E-05  0.2146999E+04  0.7818609E-02  0.8540818E-01
        1   -1    0    0  501    0  0.00000000000E+00  0.00000000000E+00  0.20296266920E+04  0.20296266920E+04  0.50400001928E-02 0.  1.
       -1   -1    0    0    0  501  0.00000000000E+00  0.00000000000E+00 -0.56778958002E+03  0.56778958004E+03  0.50400001928E-02 0. -1.
    10030    2    1    2    0    0  0.00000000000E+00  0.00000000000E+00  0.14618371120E+04  0.25974162721E+04  0.21469987304E+04 0.  0.
        4    1    3    3  502    0  0.78316720132E+03  0.27980536720E+03 -0.90275718053E+02  0.83653644685E+03  0.12699999809E+01 0. -1.
       -4    1    3    3    0  502 -0.78316720132E+03 -0.27980536720E+03  0.15521128301E+04  0.17608798252E+04  0.12699999809E+01 0.  1.
</event>
<event>
 5   0  0.6263558E-05  0.2219161E+04  0.7818609E-02  0.8510495E-01
        1   -1    0    0  501    0  0.00000000000E+00  0.00000000000E+00  0.14563092180E+04  0.14563092180E+04  0.50400001928E-02 0. -1.
       -1   -1    0    0    0  501  0.00000000000E+00  0.00000000000E+00 -0.84540376671E+03  0.84540376672E+03  0.50400001928E-02 0.  1.
    10030    2    1    2    0    0  0.00000000000E+00  0.00000000000E+00  0.61090545129E+03  0.23017129847E+04  0.22191613717E+04 0.  0.
        3    1    3    3  502    0  0.58345264867E+03  0.88188477039E+03 -0.43255441226E+02  0.10583046749E+04  0.10100000352E+00 0.  1.
       -3    1    3    3    0  502 -0.58345264867E+03 -0.88188477039E+03  0.65416089251E+03  0.12434083098E+04  0.10100000352E+00 0. -1.
</event>
<event>
 5   0  0.6263558E-05  0.2195740E+04  0.7818609E-02  0.8520203E-01
        1   -1    0    0  501    0  0.00000000000E+00  0.00000000000E+00  0.20661337230E+04  0.20661337230E+04  0.50400001928E-02 0. -1.
       -1   -1    0    0    0  501  0.00000000000E+00  0.00000000000E+00 -0.58336921891E+03  0.58336921893E+03  0.50400001928E-02 0.  1.
    10030    2    1    2    0    0  0.00000000000E+00  0.00000000000E+00  0.14827645041E+04  0.26495029420E+04  0.21957402544E+04 0.  0.
        3    1    3    3  502    0  0.10168272053E+04  0.13797547829E+03  0.12123553825E+04  0.15883262831E+04  0.10100000352E+00 0.  1.
       -3    1    3    3    0  502 -0.10168272053E+04 -0.13797547829E+03  0.27040912160E+03  0.10611766588E+04  0.10100000352E+00 0. -1.
</event>
<event>
 5   0  0.1311472E-04  0.2058747E+04  0.7818609E-02  0.8579637E-01
        2   -1    0    0  501    0  0.00000000000E+00  0.00000000000E+00  0.74987543699E+03  0.74987543699E+03  0.25500000920E-02 0. -1.
       -2   -1    0    0    0  501  0.00000000000E+00  0.00000000000E+00 -0.14130473586E+04  0.14130473586E+04  0.25500000920E-02 0.  1.
    10030    2    1    2    0    0  0.00000000000E+00  0.00000000000E+00 -0.66317192157E+03  0.21629227955E+04  0.20587467115E+04 0.  0.
        4    1    3    3  502    0 -0.46915443788E+03  0.52594918561E+03  0.45663104396E+03  0.83978685131E+03  0.12699999809E+01 0. -1.
       -4    1    3    3    0  502  0.46915443788E+03 -0.52594918561E+03 -0.11198029655E+04  0.13231359442E+04  0.12699999809E+01 0.  1.
</event>
<event>
 5   0  0.5981239E-05  0.1660446E+04  0.7818609E-02  0.8784251E-01
        1   -1    0    0  501    0  0.00000000000E+00  0.00000000000E+00  0.10410494201E+04  0.10410494201E+04  0.50400001928E-02 0. -1.
       -1   -1    0    0    0  501  0.00000000000E+00  0.00000000000E+00 -0.66209154022E+03  0.66209154024E+03  0.50400001928E-02 0.  1.
    10030    2    1    2    0    0  0.00000000000E+00  0.00000000000E+00  0.37895787985E+03  0.17031409603E+04  0.16604457402E+04 0.  0.
        4    1    3    3  502    0 -0.15176442228E+03 -0.54741678655E+03 -0.43154001031E+03  0.71339047615E+03  0.12699999809E+01 0.  1.
       -4    1    3    3    0  502  0.15176442228E+03  0.54741678655E+03  0.81049789016E+03  0.98975048417E+03  0.12699999809E+01 0. -1.
</event>
<event>
 5   0  0.1241430E-04  0.1948501E+04  0.7818609E-02  0.8631084E-01
       -2   -1    0    0    0  501  0.00000000000E+00  0.00000000000E+00  0.54528150448E+03  0.54528150449E+03  0.25500000920E-02 0. -1.
        2   -1    0    0  501    0  0.00000000000E+00  0.00000000000E+00 -0.17406868453E+04  0.17406868453E+04  0.25500000920E-02 0.  1.
    10030    2    1    2    0    0  0.00000000000E+00  0.00000000000E+00 -0.11954053408E+04  0.22859683498E+04  0.19485013132E+04 0.  0.
        1    1    3    3  502    0  0.37953594890E+03 -0.83796972043E+03 -0.22132236079E+03  0.94616297554E+03  0.50400001928E-02 0. -1.
       -1    1    3    3    0  502 -0.37953594890E+03  0.83796972043E+03 -0.97408298006E+03  0.13398053743E+04  0.50400001928E-02 0.  1.
</event>
<event>
 5   0  0.5895063E-05  0.2158948E+04  0.7818609E-02  0.8535712E-01
        1   -1    0    0  501    0  0.00000000000E+00  0.00000000000E+00  0.24419251746E+04  0.24419251746E+04  0.50400001928E-02 0.  1.
       -1   -1    0    0    0  501  0.00000000000E+00  0.00000000000E+00 -0.47719059866E+03  0.47719059868E+03  0.50400001928E-02 0. -1.
    10030    2    1    2    0    0  0.00000000000E+00  0.00000000000E+00  0.19647345759E+04  0.29191157733E+04  0.21589476473E+04 0.  0.
        5    1    3    3  502    0 -0.13372713477E+03 -0.73535092999E+03  0.20354603480E+04  0.21683507224E+04  0.46999998093E+01 0.  1.
       -5    1    3    3    0  502  0.13372713477E+03  0.73535092999E+03 -0.70725772109E+02  0.75076505089E+03  0.46999998093E+01 0. -1.
</event>
<event>
 5   0  0.1252124E-04  0.2092145E+04  0.7818609E-02  0.8564712E-01
        2   -1    0    0  501    0  0.00000000000E+00  0.00000000000E+00  0.17193195051E+04  0.17193195051E+04  0.25500000920E-02 0.  1.
       -2   -1    0    0    0  501  0.00000000000E+00  0.00000000000E+00 -0.63645366587E+03  0.63645366588E+03  0.25500000920E-02 0. -1.
    10030    2    1    2    0    0  0.00000000000E+00  0.00000000000E+00  0.10828658392E+04  0.23557731709E+04  0.20921445474E+04 0.  0.
        3    1    3    3  502    0  0.34702295717E+03  0.92507999252E+03  0.15452268604E+03  0.10000375973E+04  0.10100000352E+00 0. -1.
       -3    1    3    3    0  502 -0.34702295717E+03 -0.92507999252E+03  0.92834315315E+03  0.13557355736E+04  0.10100000352E+00 0.  1.
</event>
<event>
 5   0  0.1241430E-04  0.2091915E+04  0.7818609E-02  0.8564813E-01
        2   -1    0    0  501    0  0.00000000000E+00  0.00000000000E+00  0.19710592721E+04  0.19710592721E+04  0.25500000920E-02 0. -1.
       -2   -1    0    0    0  501  0.00000000000E+00  0.00000000000E+00 -0.55504511508E+03  0.55504511509E+03  0.25500000920E-02 0.  1.
    10030    2    1    2    0    0  0.00000000000E+00  0.00000000000E+00  0.14160141570E+04  0.25261043872E+04  0.20919147407E+04 0.  0.
        1    1    3    3  502    0 -0.74230951793E+03  0.39219922826E+03  0.14613354709E+04  0.16853323155E+04  0.50400001928E-02 0. -1.
       -1    1    3    3    0  502  0.74230951793E+03 -0.39219922826E+03 -0.45321313884E+02  0.84077207172E+03  0.50400001928E-02 0.  1.
</event>
<event>
 5   0  0.5895063E-05  0.2275179E+04  0.7818609E-02  0.8487772E-01
        1   -1    0    0  501    0  0.00000000000E+00  0.00000000000E+00  0.26399056278E+04  0.26399056279E+04  0.50400001928E-02 0. -1.
       -1   -1    0    0    0  501  0.00000000000E+00  0.00000000000E+00 -0.49021083537E+03  0.49021083540E+03  0.50400001928E-02 0.  1.
    10030    2    1    2    0    0  0.00000000000E+00  0.00000000000E+00  0.21496947925E+04  0.31301164632E+04  0.22751794155E+04 0.  0.
        5    1    3    3  502    0  0.48767521562E+02  0.68102577619E+03 -0.17695975213E+03  0.70534475462E+03  0.46999998093E+01 0.  1.
       -5    1    3    3    0  502 -0.48767521562E+02 -0.68102577619E+03  0.23266545446E+04  0.24247717086E+04  0.46999998093E+01 0. -1.
</event>
<event>
 5   0  0.5849604E-05  0.2171561E+04  0.7818609E-02  0.8530359E-01
        1   -1    0    0  501    0  0.00000000000E+00  0.00000000000E+00  0.14961654055E+04  0.14961654055E+04  0.50400001928E-02 0.  1.
       -1   -1    0    0    0  501  0.00000000000E+00  0.00000000000E+00 -0.78796045431E+03  0.78796045433E+03  0.50400001928E-02 0. -1.
    10030    2    1    2    0    0  0.00000000000E+00  0.00000000000E+00  0.70820495117E+03  0.22841258598E+04  0.21715608881E+04 0.  0.
        2    1    3    3  502    0  0.95685296868E+03  0.51309062321E+03  0.36405783202E+03  0.11451496393E+04  0.25500000920E-02 0. -1.
       -2    1    3    3    0  502 -0.95685296868E+03 -0.51309062321E+03  0.34414711916E+03  0.11389762205E+04  0.25500000920E-02 0.  1.
</event>
<event>
 5   0  0.1226021E-04  0.2233308E+04  0.7818609E-02  0.8504691E-01
        2   -1    0    0  501    0  0.00000000000E+00  0.00000000000E+00  0.11577922128E+04  0.11577922128E+04  0.25500000920E-02 0. -1.
       -2   -1    0    0    0  501  0.00000000000E+00  0.00000000000E+00 -0.10769774300E+04  0.10769774300E+04  0.25500000920E-02 0.  1.
    10030    2    1    2    0    0  0.00000000000E+00  0.00000000000E+00  0.80814782795E+02  0.22347696428E+04  0.22333079338E+04 0.  0.
        2    1    3    3  502    0  0.32738170177E+03  0.10660816367E+04  0.97077018623E+02  0.11194341349E+04  0.25500000920E-02 0.  1.
       -2    1    3    3    0  502 -0.32738170177E+03 -0.10660816367E+04 -0.16262235827E+02  0.11153355079E+04  0.25500000920E-02 0. -1.
</event>
<event>
 5   0  0.1226021E-04  0.2176200E+04  0.7818609E-02  0.8528400E-01
        2   -1    0    0  501    0  0.00000000000E+00  0.00000000000E+00  0.15138617383E+04  0.15138617384E+04  0.25500000920E-02 0.  1.
       -2   -1    0    0    0  501  0.00000000000E+00  0.00000000000E+00 -0.78208010559E+03  0.78208010559E+03  0.25500000920E-02 0. -1.
    10030    2    1    2    0    0  0.00000000000E+00  0.00000000000E+00  0.73178163276E+03  0.22959418439E+04  0.21761995756E+04 0.  0.
        2    1    3    3  502    0  0.95309141837E+01 -0.49935818553E+03 -0.65400200828E+03  0.82290221936E+03  0.25500000920E-02 0. -1.
       -2    1    3    3    0  502 -0.95309141837E+01  0.49935818553E+03  0.13857836410E+04  0.14730396246E+04  0.25500000920E-02 0.  1.
</event>
<event>
 5   0  0.6263558E-05  0.2102568E+04  0.7818609E-02  0.8560113E-01
       -1   -1    0    0    0  501  0.00000000000E+00  0.00000000000E+00  0.45079432393E+03  0.45079432396E+03  0.50400001928E-02 0. -1.
        1   -1    0    0  501    0  0.00000000000E+00  0.00000000000E+00 -0.24516673808E+04  0.24516673808E+04  0.50400001928E-02 0.  1.
    10030    2    1    2    0    0  0.00000000000E+00  0.00000000000E+00 -0.20008730568E+04  0.29024617047E+04  0.21025677059E+04 0.  0.
        3    1    3    3  502    0 -0.71137665263E+03  0.66511677912E+03 -0.45388004947E+03  0.10744506416E+04  0.10100000352E+00 0.  1.
       -3    1    3    3    0  502  0.71137665263E+03 -0.66511677912E+03 -0.15469930074E+04  0.18280110631E+04  0.10100000352E+00 0. -1.
</event>
<event>
 5   0  0.5849604E-05  0.2169894E+04  0.7818609E-02  0.8531064E-01
       -1   -1    0    0    0  501  0.00000000000E+00  0.00000000000E+00  0.94017781763E+03  0.94017781764E+03  0.50400001928E-02 0.  1.
        1   -1    0    0  501    0  0.00000000000E+00  0.00000000000E+00 -0.12520076993E+04  0.12520076993E+04  0.50400001928E-02 0. -1.
    10030    2    1    2    0    0  0.00000000000E+00  0.00000000000E+00 -0.31182988163E+03  0.21921855169E+04  0.21698938835E+04 0.  0.
        2    1    3    3  502    0  0.73623327516E+03 -0.34182111371E+03 -0.88319145461E+03  0.11995450199E+04  0.25500000920E-02 0. -1.
       -2    1    3    3    0  502 -0.73623327516E+03  0.34182111371E+03  0.57136157298E+03  0.99264049702E+03  0.25500000920E-02 0.  1.
</event>
<event>
 5   0  0.1241430E-04  0.1987941E+04  0.7818609E-02  0.8612279E-01
        2   -1    0    0  501    0  0.00000000000E+00  0.00000000000E+00  0.10859227768E+04  0.10859227768E+04  0.25500000920E-02 0.  1.
       -2   -1    0    0    0  501  0.00000000000E+00  0.00000000000E+00 -0.90980480140E+03  0.90980480140E+03  0.25500000920E-02 0. -1.
    10030    2    1    2    0    0  0.00000000000E+00  0.00000000000E+00  0.17611797543E+03  0.19957275782E+04  0.19879414039E+04 0.  0.
        1    1    3    3  502    0  0.22560808646E+03  0.78316448398E+03 -0.48314415443E+03  0.94745653812E+03  0.50400001928E-02 0. -1.
       -1    1    3    3    0  502 -0.22560808646E+03 -0.78316448398E+03  0.65926212986E+03  0.10482710401E+04  0.50400001928E-02 0.  1.
</event>
<event>
 5   0  0.5981239E-05  0.2046017E+04  0.7818609E-02  0.8585403E-01
       -1   -1    0    0    0  501  0.00000000000E+00  0.00000000000E+00  0.85751330588E+03  0.85751330590E+03  0.50400001928E-02 0. -1.
        1   -1    0    0  501    0  0.00000000000E+00  0.00000000000E+00 -0.12204435302E+04  0.12204435302E+04  0.50400001928E-02 0.  1.
    10030    2    1    2    0    0  0.00000000000E+00  0.00000000000E+00 -0.36293022429E+03  0.20779568361E+04  0.20460171712E+04 0.  0.
        4    1    3    3  502    0  0.42579210524E+03 -0.42457142196E+03 -0.10220233797E+04  0.11857880126E+04  0.12699999809E+01 0.  1.
       -4    1    3    3    0  502 -0.42579210524E+03  0.42457142196E+03  0.65909315540E+03  0.89216882350E+03  0.12699999809E+01 0. -1.
</event>
<event>
 5   0  0.1241430E-04  0.2192834E+04  0.7818609E-02  0.8521417E-01
       -2   -1    0    0    0  501  0.00000000000E+00  0.00000000000E+00  0.62696927027E+03  0.62696927027E+03  0.25500000920E-02 0.  1.
        2   -1    0    0  501    0  0.00000000000E+00  0.00000000000E+00 -0.19173669198E+04  0.19173669198E+04  0.25500000920E-02 0. -1.
    10030    2    1    2    0    0  0.00000000000E+00  0.00000000000E+00 -0.12903976496E+04  0.25443361901E+04  0.21928339094E+04 0.  0.
        1    1    3    3  502    0 -0.45439155415E+03  0.91112952345E+03 -0.11172288806E+04  0.15115651044E+04  0.50400001928E-02 0.  1.
       -1    1    3    3    0  502  0.45439155415E+03 -0.91112952345E+03 -0.17316876893E+03  0.10327710857E+04  0.50400001928E-02 0. -1.
</event>
<event>
 5   0  0.5861816E-05  0.1963256E+04  0.7818609E-02  0.8623995E-01
       -1   -1    0    0    0  501  0.00000000000E+00  0.00000000000E+00  0.56569153957E+03  0.56569153959E+03  0.50400001928E-02 0.  1.
        1   -1    0    0  501    0  0.00000000000E+00  0.00000000000E+00 -0.17033911409E+04  0.17033911409E+04  0.50400001928E-02 0. -1.
    10030    2    1    2    0    0  0.00000000000E+00  0.00000000000E+00 -0.11376996013E+04  0.22690826805E+04  0.19632564346E+04 0.  0.
        1    1    3    3  502    0 -0.51409176137E+02 -0.52178867669E+03  0.39029556500E+03  0.65363365473E+03  0.50400001928E-02 0.  1.
       -1    1    3    3    0  502  0.51409176137E+02  0.52178867669E+03 -0.15279951663E+04  0.16154490258E+04  0.50400001928E-02 0. -1.
</event>
<event>
 5   0  0.1311472E-04  0.2295889E+04  0.7818609E-02  0.8479544E-01
       -2   -1    0    0    0  501  0.00000000000E+00  0.00000000000E+00  0.62626577353E+03  0.62626577354E+03  0.25500000920E-02 0.  1.
        2   -1    0    0  501    0  0.00000000000E+00  0.00000000000E+00 -0.21041804270E+04  0.21041804270E+04  0.25500000920E-02 0. -1.
    10030    2    1    2    0    0  0.00000000000E+00  0.00000000000E+00 -0.14779146535E+04  0.27304462006E+04  0.22958886583E+04 0.  0.
        4    1    3    3  502    0  0.11436539634E+04  0.51164518649E+02 -0.63795719940E+03  0.13105545380E+04  0.12699999809E+01 0. -1.
       -4    1    3    3    0  502 -0.11436539634E+04 -0.51164518649E+02 -0.83995745410E+03  0.14198916626E+04  0.12699999809E+01 0.  1.
</event>
<event>
 5   0  0.4586375E-05  0.2208652E+04  0.7818609E-02  0.8514835E-01
        3   -1    0    0  501    0  0.00000000000E+00  0.00000000000E+00  0.14816317895E+04  0.14816317930E+04  0.10100000352E+00 0. -1.
       -3   -1    0    0    0  501  0.00000000000E+00  0.00000000000E+00 -0.82310346554E+03  0.82310347173E+03  0.10100000352E+00 0.  1.
    10030    2    1    2    0    0  0.00000000000E+00  0.00000000000E+00  0.65852832398E+03  0.23047352647E+04  0.22086523237E+04 0.  0.
        2    1    3    3  502    0 -0.97101447728E+03 -0.13383332438E+03  0.86007372119E+03  0.13040349994E+04  0.25500000920E-02 0. -1.
       -2    1    3    3    0  502  0.97101447728E+03  0.13383332438E+03 -0.20154539721E+03  0.10007002653E+04  0.25500000920E-02 0.  1.
</event>
<event>
 5   0  0.1252124E-04  0.2146469E+04  0.7818609E-02  0.8541045E-01
        2   -1    0    0  501    0  0.00000000000E+00  0.00000000000E+00  0.17891318802E+04  0.17891318802E+04  0.25500000920E-02 0.  1.
       -2   -1    0    0    0  501  0.00000000000E+00  0.00000000000E+00 -0.64379403118E+03  0.64379403119E+03  0.25500000920E-02 0. -1.
    10030    2    1    2    0    0  0.00000000000E+00  0.00000000000E+00  0.11453378490E+04  0.24329259114E+04  0.21464691244E+04 0.  0.
        3    1    3    3  502    0  0.25657685370E+03  0.46451361142E+03 -0.48468583377E+03  0.71869669869E+03  0.10100000352E+00 0. -1.
       -3    1    3    3    0  502 -0.25657685370E+03 -0.46451361142E+03  0.16300236828E+04  0.17142292127E+04  0.10100000352E+00 0.  1.
</event>
<event>
 5   0  0.1226021E-04  0.2177109E+04  0.7818609E-02  0.8528017E-01
        2   -1    0    0  501    0  0.00000000000E+00  0.00000000000E+00  0.15149420197E+04  0.15149420197E+04  0.25500000920E-02 0.  1.
       -2   -1    0    0    0  501  0.00000000000E+00  0.00000000000E+00 -0.78217560043E+03  0.78217560043E+03  0.25500000920E-02 0. -1.
    10030    2    1    2    0    0  0.00000000000E+00  0.00000000000E+00  0.73276641930E+03  0.22971176202E+04  0.21771088020E+04 0.  0.
        2    1    3    3  502    0  0.97289505509E+03  0.42387283554E+03  0.62214493235E+03  0.12301452296E+04  0.25500000920E-02 0.  1.
       -2    1    3    3    0  502 -0.97289505509E+03 -0.42387283554E+03  0.11062148696E+03  0.10669723906E+04  0.25500000920E-02 0. -1.
</event>
<event>
 5   0  0.1241430E-04  0.2237803E+04  0.7818609E-02  0.8502856E-01
       -2   -1    0    0    0  501  0.00000000000E+00  0.00000000000E+00  0.13216168781E+04  0.13216168781E+04  0.25500000920E-02 0. -1.
        2   -1    0    0  501    0  0.00000000000E+00  0.00000000000E+00 -0.94727980013E+03  0.94727980013E+03  0.25500000920E-02 0.  1.
    10030    2    1    2    0    0  0.00000000000E+00  0.00000000000E+00  0.37433707800E+03  0.22688966783E+04  0.22378033624E+04 0.  0.
        1    1    3    3  502    0  0.80427246658E+03  0.52365613389E+03  0.77037478392E+03  0.12306694336E+04  0.50400001928E-02 0. -1.
       -1    1    3    3    0  502 -0.80427246658E+03 -0.52365613389E+03 -0.39603770592E+03  0.10382272447E+04  0.50400001928E-02 0.  1.
</event>
<event>
 5   0  0.5849604E-05  0.2229337E+04  0.7818609E-02  0.8506316E-01
       -1   -1    0    0    0  501  0.00000000000E+00  0.00000000000E+00  0.19370798568E+04  0.19370798568E+04  0.50400001928E-02 0. -1.
        1   -1    0    0  501    0  0.00000000000E+00  0.00000000000E+00 -0.64142213113E+03  0.64142213115E+03  0.50400001928E-02 0.  1.
    10030    2    1    2    0    0  0.00000000000E+00  0.00000000000E+00  0.12956577256E+04  0.25785019879E+04  0.22293370225E+04 0.  0.
        2    1    3    3  502    0 -0.46030156496E+03 -0.74647268554E+03  0.14436213868E+04  0.16891245394E+04  0.25500000920E-02 0. -1.
       -2    1    3    3    0  502  0.46030156496E+03  0.74647268554E+03 -0.14796366119E+03  0.88937744856E+03  0.25500000920E-02 0.  1.
</event>
<event>
 5   0  0.1226021E-04  0.2255016E+04  0.7818609E-02  0.8495872E-01
       -2   -1    0    0    0  501  0.00000000000E+00  0.00000000000E+00  0.36813518268E+03  0.36813518269E+03  0.25500000920E-02 0. -1.
        2   -1    0    0  501    0  0.00000000000E+00  0.00000000000E+00 -0.34532802890E+04  0.34532802890E+04  0.25500000920E-02 0.  1.
    10030    2    1    2    0    0  0.00000000000E+00  0.00000000000E+00 -0.30851451064E+04  0.38214154717E+04  0.22550157162E+04 0.  0.
        2    1    3    3  502    0  0.64714586792E+02 -0.88812293616E+03 -0.27145941337E+04  0.28569164563E+04  0.25500000920E-02 0.  1.
       -2    1    3    3    0  502 -0.64714586792E+02  0.88812293616E+03 -0.37055097267E+03  0.96449901546E+03  0.25500000920E-02 0. -1.
</event>
<event>
 5   0  0.6263558E-05  0.2222403E+04  0.7818609E-02  0.8509161E-01
       -1   -1    0    0    0  501  0.00000000000E+00  0.00000000000E+00  0.92280304253E+03  0.92280304254E+03  0.50400001928E-02 0.  1.
        1   -1    0    0  501    0  0.00000000000E+00  0.00000000000E+00 -0.13380635114E+04  0.13380635114E+04  0.50400001928E-02 0. -1.
    10030    2    1    2    0    0  0.00000000000E+00  0.00000000000E+00 -0.41526046886E+03  0.22608665539E+04  0.22224032752E+04 0.  0.
        3    1    3    3  502    0 -0.58566714735E+03 -0.46139907495E+03 -0.10458282620E+04  0.12843877443E+04  0.10100000352E+00 0. -1.
       -3    1    3    3    0  502  0.58566714735E+03  0.46139907495E+03  0.63056779311E+03  0.97647880968E+03  0.10100000352E+00 0.  1.
</event>
<event>
 5   0  0.5981239E-05  0.2148034E+04  0.7818609E-02  0.8540374E-01
        1   -1    0    0  501    0  0.00000000000E+00  0.00000000000E+00  0.18588232664E+04  0.18588232665E+04  0.50400001928E-02 0.  1.
       -1   -1    0    0    0  501  0.00000000000E+00  0.00000000000E+00 -0.62056074774E+03  0.62056074776E+03  0.50400001928E-02 0. -1.
    10030    2    1    2    0    0  0.00000000000E+00  0.00000000000E+00  0.12382625187E+04  0.24793840142E+04  0.21480342234E+04 0.  0.
        4    1    3    3  502    0  0.86611618740E+03  0.58683745900E+03  0.89944159751E+03  0.13796855633E+04  0.12699999809E+01 0. -1.
       -4    1    3    3    0  502 -0.86611618740E+03 -0.58683745900E+03  0.33882092120E+03  0.10996984509E+04  0.12699999809E+01 0.  1.
</event>
<event>
 5   0  0.5849604E-05  0.2264170E+04  0.7818609E-02  0.8492184E-01
       -1   -1    0    0    0  501  0.00000000000E+00  0.00000000000E+00  0.10927793459E+04  0.10927793459E+04  0.50400001928E-02 0.  1.
        1   -1    0    0  501    0  0.00000000000E+00  0.00000000000E+00 -0.11728048329E+04  0.11728048329E+04  0.50400001928E-02 0. -1.
    10030    2    1    2    0    0  0.00000000000E+00  0.00000000000E+00 -0.80025487001E+02  0.22655841787E+04  0.22641703983E+04 0.  0.
        2    1    3    3  502    0  0.10259635093E+04 -0.17344947153E+03 -0.48630812199E+03  0.11485562377E+04  0.25500000920E-02 0. -1.
       -2    1    3    3    0  502 -0.10259635093E+04  0.17344947153E+03  0.40628263498E+03  0.11170279411E+04  0.25500000920E-02 0.  1.
</event>
<event>
 5   0  0.5895063E-05  0.2211960E+04  0.7818609E-02  0.8513466E-01
       -1   -1    0    0    0  501  0.00000000000E+00  0.00000000000E+00  0.11351414278E+04  0.11351414278E+04  0.50400001928E-02 0.  1.
        1   -1    0    0  501    0  0.00000000000E+00  0.00000000000E+00 -0.10775681225E+04  0.10775681226E+04  0.50400001928E-02 0. -1.
    10030    2    1    2    0    0  0.00000000000E+00  0.00000000000E+00  0.57573305280E+02  0.22127095504E+04  0.22119604131E+04 0.  0.
        5    1    3    3  502    0  0.89007081198E+03 -0.65328682612E+03 -0.35736352929E+02  0.11046759273E+04  0.46999998093E+01 0.  1.
       -5    1    3    3    0  502 -0.89007081198E+03  0.65328682612E+03  0.93309658209E+02  0.11080336231E+04  0.46999998093E+01 0. -1.
</event>
<event>
 5   0  0.1241430E-04  0.2187428E+04  0.7818609E-02  0.8523679E-01
        2   -1    0    0  501    0  0.00000000000E+00  0.00000000000E+00  0.26240530050E+04  0.26240530050E+04  0.25500000920E-02 0.  1.
       -2   -1    0    0    0  501  0.00000000000E+00  0.00000000000E+00 -0.45586367328E+03  0.45586367328E+03  0.25500000920E-02 0. -1.
    10030    2    1    2    0    0  0.00000000000E+00  0.00000000000E+00  0.21681893317E+04  0.30799166783E+04  0.21874281170E+04 0.  0.
        1    1    3    3  502    0 -0.49920586400E+02 -0.88843383122E+03  0.18870363462E+03  0.90962398778E+03  0.50400001928E-02 0. -1.
       -1    1    3    3    0  502  0.49920586400E+02  0.88843383122E+03  0.19794856971E+04  0.21702926905E+04  0.50400001928E-02 0.  1.
</event>
<event>
 5   0  0.1311472E-04  0.2199760E+04  0.7818609E-02  0.8518528E-01
       -2   -1    0    0    0  501  0.00000000000E+00  0.00000000000E+00  0.10854120568E+04  0.10854120568E+04  0.25500000920E-02 0. -1.
        2   -1    0    0  501    0  0.00000000000E+00  0.00000000000E+00 -0.11145412761E+04  0.11145412761E+04  0.25500000920E-02 0.  1.
    10030    2    1    2    0    0  0.00000000000E+00  0.00000000000E+00 -0.29129219341E+02  0.21999533330E+04  0.21997604769E+04 0.  0.
        4    1    3    3  502    0  0.81847553109E+02  0.63241389747E+03  0.88166604609E+03  0.10881098241E+04  0.12699999809E+01 0. -1.
       -4    1    3    3    0  502 -0.81847553109E+02 -0.63241389747E+03 -0.91079526543E+03  0.11118435088E+04  0.12699999809E+01 0.  1.
</event>
<event>
 5   0  0.1252124E-04  0.2211493E+04  0.7818609E-02  0.8513659E-01
        2   -1    0    0  501    0  0.00000000000E+00  0.00000000000E+00  0.18741281849E+04  0.18741281849E+04  0.25500000920E-02 0. -1.
       -2   -1    0    0    0  501  0.00000000000E+00  0.00000000000E+00 -0.65239712659E+03  0.65239712659E+03  0.25500000920E-02 0.  1.
    10030    2    1    2    0    0  0.00000000000E+00  0.00000000000E+00  0.12217310583E+04  0.25265253115E+04  0.22114934707E+04 0.  0.
        3    1    3    3  502    0 -0.10567959776E+03  0.10669074353E+04  0.91999579274E+03  0.14127462340E+04  0.10100000352E+00 0. -1.
       -3    1    3    3    0  502  0.10567959776E+03 -0.10669074353E+04  0.30173526557E+03  0.11137790775E+04  0.10100000352E+00 0.  1.
</event>
<event>
 5   0  0.5849604E-05  0.2276382E+04  0.7818609E-02  0.8487292E-01
        1   -1    0    0  501    0  0.00000000000E+00  0.00000000000E+00  0.11788300093E+04  0.11788300093E+04  0.50400001928E-02 0.  1.
       -1   -1    0    0    0  501  0.00000000000E+00  0.00000000000E+00 -0.10989526816E+04  0.10989526816E+04  0.50400001928E-02 0. -1.
    10030    2    1    2    0    0  0.00000000000E+00  0.00000000000E+00  0.79877327701E+02  0.22777826909E+04  0.22763816902E+04 0.  0.
        2    1    3    3  502    0 -0.77699835946E+03 -0.51489291649E+03 -0.61363806747E+03  0.11159717039E+04  0.25500000920E-02 0. -1.
       -2    1    3    3    0  502  0.77699835946E+03  0.51489291649E+03  0.69351539517E+03  0.11618109870E+04  0.25500000920E-02 0.  1.
</event>
<event>
 5   0  0.4586375E-05  0.1398389E+04  0.7818609E-02  0.8954986E-01
       -4   -1    0    0    0  501  0.00000000000E+00  0.00000000000E+00  0.65539053564E+03  0.65539176613E+03  0.12699999809E+01 0. -1.
        4   -1    0    0  501    0  0.00000000000E+00  0.00000000000E+00 -0.74592324119E+03  0.74592432233E+03  0.12699999809E+01 0.  1.
    10030    2    1    2    0    0  0.00000000000E+00  0.00000000000E+00 -0.90532705548E+02  0.14013160885E+04  0.13983885758E+04 0.  0.
        1    1    3    3  502    0 -0.20361274091E+03 -0.61782143049E+03 -0.30214492995E+03  0.71725380930E+03  0.50400001928E-02 0.  1.
       -1    1    3    3    0  502  0.20361274091E+03  0.61782143049E+03  0.21161222440E+03  0.68406227916E+03  0.50400001928E-02 0. -1.
</event>
<event>
 5   0  0.4586375E-05  0.2234864E+04  0.7818609E-02  0.8504055E-01
        3   -1    0    0  501    0  0.00000000000E+00  0.00000000000E+00  0.15028008448E+04  0.15028008482E+04  0.10100000352E+00 0.  1.
       -3   -1    0    0    0  501  0.00000000000E+00  0.00000000000E+00 -0.83088504587E+03  0.83088505201E+03  0.10100000352E+00 0. -1.
    10030    2    1    2    0    0  0.00000000000E+00  0.00000000000E+00  0.67191579890E+03  0.23336859002E+04  0.22348644343E+04 0.  0.
        1    1    3    3  502    0 -0.30951787297E+03 -0.29939990901E+03  0.14126744428E+04  0.14768516176E+04  0.50400001928E-02 0.  1.
       -1    1    3    3    0  502  0.30951787297E+03  0.29939990901E+03 -0.74075864388E+03  0.85683428253E+03  0.50400001928E-02 0. -1.
</event>
<event>
 5   0  0.4586375E-05  0.2220418E+04  0.7818609E-02  0.8509977E-01
       -3   -1    0    0    0  501  0.00000000000E+00  0.00000000000E+00  0.10817791569E+04  0.10817791616E+04  0.10100000352E+00 0. -1.
        3   -1    0    0  501    0  0.00000000000E+00  0.00000000000E+00 -0.11393860679E+04  0.11393860723E+04  0.10100000352E+00 0.  1.
    10030    2    1    2    0    0  0.00000000000E+00  0.00000000000E+00 -0.57606910996E+02  0.22211652339E+04  0.22204180778E+04 0.  0.
        2    1    3    3  502    0  0.99073122674E+03  0.88696317841E+02 -0.52207049579E+03  0.11233757177E+04  0.25500000920E-02 0.  1.
       -2    1    3    3    0  502 -0.99073122674E+03 -0.88696317841E+02  0.46446358480E+03  0.10977895163E+04  0.25500000920E-02 0. -1.
</event>
<event>
 5   0  0.5981239E-05  0.2245082E+04  0.7818609E-02  0.8499895E-01
        1   -1    0    0  501    0  0.00000000000E+00  0.00000000000E+00  0.18346877611E+04  0.18346877611E+04  0.50400001928E-02 0. -1.
       -1   -1    0    0    0  501  0.00000000000E+00  0.00000000000E+00 -0.68681898383E+03  0.68681898385E+03  0.50400001928E-02 0.  1.
    10030    2    1    2    0    0  0.00000000000E+00  0.00000000000E+00  0.11478687773E+04  0.25215067450E+04  0.22450820776E+04 0.  0.
        4    1    3    3  502    0 -0.68179683813E+03 -0.72289532468E+03  0.11604078114E+04  0.15277344274E+04  0.12699999809E+01 0. -1.
       -4    1    3    3    0  502  0.68179683813E+03  0.72289532468E+03 -0.12539034139E+02  0.99377231759E+03  0.12699999809E+01 0.  1.
</event>
<event>
 5   0  0.5861816E-05  0.2204158E+04  0.7818609E-02  0.8516699E-01
       -1   -1    0    0    0  501  0.00000000000E+00  0.00000000000E+00  0.91809025216E+03  0.91809025218E+03  0.50400001928E-02 0. -1.
        1   -1    0    0  501    0  0.00000000000E+00  0.00000000000E+00 -0.13229397920E+04  0.13229397920E+04  0.50400001928E-02 0.  1.
    10030    2    1    2    0    0  0.00000000000E+00  0.00000000000E+00 -0.40484953986E+03  0.22410300442E+04  0.22041580046E+04 0.  0.
        1    1    3    3  502    0 -0.66554810528E+03 -0.41898505527E+03 -0.98739926102E+03  0.12623232778E+04  0.50400001928E-02 0.  1.
       -1    1    3    3    0  502  0.66554810528E+03  0.41898505527E+03  0.58254972116E+03  0.97870676641E+03  0.50400001928E-02 0. -1.
</event>
<event>
 5   0  0.1311472E-04  0.2218101E+04  0.7818609E-02  0.8510932E-01
       -2   -1    0    0    0  501  0.00000000000E+00  0.00000000000E+00  0.72433100237E+03  0.72433100238E+03  0.25500000920E-02 0. -1.
        2   -1    0    0  501    0  0.00000000000E+00  0.00000000000E+00 -0.16981092658E+04  0.16981092658E+04  0.25500000920E-02 0.  1.
    10030    2    1    2    0    0  0.00000000000E+00  0.00000000000E+00 -0.97377826341E+03  0.24224402682E+04  0.22181011579E+04 0.  0.
        4    1    3    3  502    0 -0.89294801117E+03  0.41102722835E+03  0.73926666421E+02  0.98578207430E+03  0.12699999809E+01 0. -1.
       -4    1    3    3    0  502  0.89294801117E+03 -0.41102722835E+03 -0.10477049298E+04  0.14366581939E+04  0.12699999809E+01 0.  1.
</event>
<event>
 5   0  0.1404159E-04  0.2170842E+04  0.7818609E-02  0.8530663E-01
       -2   -1    0    0    0  501  0.00000000000E+00  0.00000000000E+00  0.81373015340E+03  0.81373015340E+03  0.25500000920E-02 0.  1.
        2   -1    0    0  501    0  0.00000000000E+00  0.00000000000E+00 -0.14478248803E+04  0.14478248803E+04  0.25500000920E-02 0. -1.
    10030    2    1    2    0    0  0.00000000000E+00  0.00000000000E+00 -0.63409472686E+03  0.22615550337E+04  0.21708420135E+04 0.  0.
        5    1    3    3  502    0  0.87610587050E+02 -0.52094688438E+03 -0.13048545228E+04  0.14077388561E+04  0.46999998093E+01 0. -1.
       -5    1    3    3    0  502 -0.87610587050E+02  0.52094688438E+03  0.67075979591E+03  0.85381617759E+03  0.46999998093E+01 0.  1.
</event>
<event>
 5   0  0.5895063E-05  0.2171962E+04  0.7818609E-02  0.8530190E-01
        1   -1    0    0  501    0  0.00000000000E+00  0.00000000000E+00  0.26459477721E+04  0.26459477721E+04  0.50400001928E-02 0. -1.
       -1   -1    0    0    0  501  0.00000000000E+00  0.00000000000E+00 -0.44572100554E+03  0.44572100557E+03  0.50400001928E-02 0.  1.
    10030    2    1    2    0    0  0.00000000000E+00  0.00000000000E+00  0.22002267666E+04  0.30916687777E+04  0.21719617876E+04 0.  0.
        5    1    3    3  502    0 -0.69445544872E+03  0.78049077909E+03  0.67809561743E+03  0.12454998928E+04  0.46999998093E+01 0.  1.
       -5    1    3    3    0  502  0.69445544872E+03 -0.78049077909E+03  0.15221311492E+04  0.18461688849E+04  0.46999998093E+01 0. -1.
</event>
<event>
 5   0  0.1241430E-04  0.1765436E+04  0.7818609E-02  0.8724899E-01
        2   -1    0    0  501    0  0.00000000000E+00  0.00000000000E+00  0.21636997346E+04  0.21636997346E+04  0.25500000920E-02 0. -1.
       -2   -1    0    0    0  501  0.00000000000E+00  0.00000000000E+00 -0.36011978216E+03  0.36011978217E+03  0.25500000920E-02 0.  1.
    10030    2    1    2    0    0  0.00000000000E+00  0.00000000000E+00  0.18035799524E+04  0.25238195167E+04  0.17654360108E+04 0.  0.
        1    1    3    3  502    0 -0.58435304082E+02  0.46172647155E+03  0.19740507289E+04  0.20281721573E+04  0.50400001928E-02 0. -1.
       -1    1    3    3    0  502  0.58435304082E+02 -0.46172647155E+03 -0.17047077647E+03  0.49564735947E+03  0.50400001928E-02 0.  1.
</event>
<event>
 5   0  0.1226021E-04  0.2179567E+04  0.7818609E-02  0.8526981E-01
       -2   -1    0    0    0  501  0.00000000000E+00  0.00000000000E+00  0.12423838278E+04  0.12423838278E+04  0.25500000920E-02 0.  1.
        2   -1    0    0  501    0  0.00000000000E+00  0.00000000000E+00 -0.95592698849E+03  0.95592698850E+03  0.25500000920E-02 0. -1.
    10030    2    1    2    0    0  0.00000000000E+00  0.00000000000E+00  0.28645683927E+03  0.21983108163E+04  0.21795671415E+04 0.  0.
        2    1    3    3  502    0 -0.30551797398E+03  0.45572859444E+03 -0.80646259246E+03  0.97540335106E+03  0.25500000920E-02 0. -1.
       -2    1    3    3    0  502  0.30551797398E+03 -0.45572859444E+03  0.10929194317E+04  0.12229074652E+04  0.25500000920E-02 0.  1.
</event>
<event>
 5   0  0.1226021E-04  0.2194219E+04  0.7818609E-02  0.8520838E-01
        2   -1    0    0  501    0  0.00000000000E+00  0.00000000000E+00  0.11996641638E+04  0.11996641638E+04  0.25500000920E-02 0. -1.
       -2   -1    0    0    0  501  0.00000000000E+00  0.00000000000E+00 -0.10033222493E+04  0.10033222493E+04  0.25500000920E-02 0.  1.
    10030    2    1    2    0    0  0.00000000000E+00  0.00000000000E+00  0.19634191456E+03  0.22029864131E+04  0.21942194487E+04 0.  0.
        2    1    3    3  502    0 -0.95197601651E+03 -0.46130441836E+02  0.64372347195E+03  0.11501157603E+04  0.25500000920E-02 0. -1.
       -2    1    3    3    0  502  0.95197601651E+03  0.46130441836E+02 -0.44738155739E+03  0.10528706528E+04  0.25500000920E-02 0.  1.
</event>
<event>
 5   0  0.5981239E-05  0.2200926E+04  0.7818609E-02  0.8518043E-01
       -1   -1    0    0    0  501  0.00000000000E+00  0.00000000000E+00  0.51198092678E+03  0.51198092680E+03  0.50400001928E-02 0. -1.
        1   -1    0    0  501    0  0.00000000000E+00  0.00000000000E+00 -0.23653600649E+04  0.23653600649E+04  0.50400001928E-02 0.  1.
    10030    2    1    2    0    0  0.00000000000E+00  0.00000000000E+00 -0.18533791381E+04  0.28773409917E+04  0.22009263852E+04 0.  0.
        4    1    3    3  502    0 -0.70196411725E+03  0.78432181370E+02  0.17652525530E+03  0.72805769527E+03  0.12699999809E+01 0. -1.
       -4    1    3    3    0  502  0.70196411725E+03 -0.78432181370E+02 -0.20299043934E+04  0.21492832964E+04  0.12699999809E+01 0.  1.
</event>
<event>
 5   0  0.5861816E-05  0.2259307E+04  0.7818609E-02  0.8494141E-01
       -1   -1    0    0    0  501  0.00000000000E+00  0.00000000000E+00  0.95909739445E+03  0.95909739446E+03  0.50400001928E-02 0.  1.
        1   -1    0    0  501    0  0.00000000000E+00  0.00000000000E+00 -0.13305394402E+04  0.13305394402E+04  0.50400001928E-02 0. -1.
    10030    2    1    2    0    0  0.00000000000E+00  0.00000000000E+00 -0.37144204578E+03  0.22896368347E+04  0.22593068940E+04 0.  0.
        1    1    3    3  502    0 -0.97357051694E+03 -0.10141911625E+03 -0.75719853606E+03  0.12375277822E+04  0.50400001928E-02 0. -1.
       -1    1    3    3    0  502  0.97357051694E+03  0.10141911625E+03  0.38575649029E+03  0.10521090525E+04  0.50400001928E-02 0.  1.
</event>
<event>
 5   0  0.1404159E-04  0.2224608E+04  0.7818609E-02  0.8508255E-01
       -2   -1    0    0    0  501  0.00000000000E+00  0.00000000000E+00  0.82320534381E+03  0.82320534381E+03  0.25500000920E-02 0. -1.
        2   -1    0    0  501    0  0.00000000000E+00  0.00000000000E+00 -0.15029302459E+04  0.15029302459E+04  0.25500000920E-02 0.  1.
    10030    2    1    2    0    0  0.00000000000E+00  0.00000000000E+00 -0.67972490213E+03  0.23261355898E+04  0.22246080193E+04 0.  0.
        5    1    3    3  502    0 -0.71980179156E+03 -0.36602925048E+03  0.45996966069E+03  0.92934719567E+03  0.46999998093E+01 0. -1.
       -5    1    3    3    0  502  0.71980179156E+03  0.36602925048E+03 -0.11396945628E+04  0.13967883941E+04  0.46999998093E+01 0.  1.
</event>
<event>
 5   0  0.5895063E-05  0.2145039E+04  0.7818609E-02  0.8541659E-01
        1   -1    0    0  501    0  0.00000000000E+00  0.00000000000E+00  0.91570936751E+03  0.91570936752E+03  0.50400001928E-02 0. -1.
       -1   -1    0    0    0  501  0.00000000000E+00  0.00000000000E+00 -0.12561825851E+04  0.12561825851E+04  0.50400001928E-02 0.  1.
    10030    2    1    2    0    0  0.00000000000E+00  0.00000000000E+00 -0.34047321755E+03  0.21718919526E+04  0.21450390770E+04 0.  0.
        5    1    3    3  502    0 -0.10486033216E+04  0.15328794342E+03 -0.32172218117E+01  0.10597634454E+04  0.46999998093E+01 0. -1.
       -5    1    3    3    0  502  0.10486033216E+04 -0.15328794342E+03 -0.33725599574E+03  0.11121285072E+04  0.46999998093E+01 0.  1.
</event>
<event>
 5   0  0.1226021E-04  0.2203879E+04  0.7818609E-02  0.8516815E-01
        2   -1    0    0  501    0  0.00000000000E+00  0.00000000000E+00  0.15096871614E+04  0.15096871614E+04  0.25500000920E-02 0.  1.
       -2   -1    0    0    0  501  0.00000000000E+00  0.00000000000E+00 -0.80431918177E+03  0.80431918177E+03  0.25500000920E-02 0. -1.
    10030    2    1    2    0    0  0.00000000000E+00  0.00000000000E+00  0.70536797959E+03  0.23140063431E+04  0.22038787102E+04 0.  0.
        2    1    3    3  502    0  0.87282424468E+03  0.25304522132E+03  0.10070572990E+04  0.13564727972E+04  0.25500000920E-02 0.  1.
       -2    1    3    3    0  502 -0.87282424468E+03 -0.25304522132E+03 -0.30168931938E+03  0.95753354593E+03  0.25500000920E-02 0. -1.
</event>
<event>
 5   0  0.1311472E-04  0.2234604E+04  0.7818609E-02  0.8504162E-01
        2   -1    0    0  501    0  0.00000000000E+00  0.00000000000E+00  0.14504180983E+04  0.14504180983E+04  0.25500000920E-02 0. -1.
       -2   -1    0    0    0  501  0.00000000000E+00  0.00000000000E+00 -0.86069222728E+03  0.86069222729E+03  0.25500000920E-02 0.  1.
    10030    2    1    2    0    0  0.00000000000E+00  0.00000000000E+00  0.58972587105E+03  0.23111103256E+04  0.22346038428E+04 0.  0.
        4    1    3    3  502    0  0.22074094243E+03 -0.30203714869E+03  0.13837181921E+04  0.14333982876E+04  0.12699999809E+01 0. -1.
       -4    1    3    3    0  502 -0.22074094243E+03  0.30203714869E+03 -0.79399232106E+03  0.87771203801E+03  0.12699999809E+01 0.  1.
</event>
<event>
 5   0  0.5981239E-05  0.2219168E+04  0.7818609E-02  0.8510492E-01
       -1   -1    0    0    0  501  0.00000000000E+00  0.00000000000E+00  0.61555058309E+03  0.61555058311E+03  0.50400001928E-02 0. -1.
        1   -1    0    0  501    0  0.00000000000E+00  0.00000000000E+00 -0.20001228550E+04  0.20001228550E+04  0.50400001928E-02 0.  1.
    10030    2    1    2    0    0  0.00000000000E+00  0.00000000000E+00 -0.13845722719E+04  0.26156734381E+04  0.22191681231E+04 0.  0.
        4    1    3    3  502    0 -0.98850301397E+03  0.56803224394E+02 -0.10199528216E+03  0.99537403292E+03  0.12699999809E+01 0. -1.
       -4    1    3    3    0  502  0.98850301397E+03 -0.56803224394E+02 -0.12825769898E+04  0.16202994052E+04  0.12699999809E+01 0.  1.
</event>
<event>
 5   0  0.1404159E-04  0.2189422E+04  0.7818609E-02  0.8522844E-01
        2   -1    0    0  501    0  0.00000000000E+00  0.00000000000E+00  0.99690976959E+03  0.99690976960E+03  0.25500000920E-02 0. -1.
       -2   -1    0    0    0  501  0.00000000000E+00  0.00000000000E+00 -0.12021064225E+04  0.12021064225E+04  0.25500000920E-02 0.  1.
    10030    2    1    2    0    0  0.00000000000E+00  0.00000000000E+00 -0.20519665292E+03  0.21990161921E+04  0.21894215096E+04 0.  0.
        5    1    3    3  502    0 -0.18403245358E+03 -0.42258914850E+03 -0.10998847073E+04  0.11925678143E+04  0.46999998093E+01 0.  1.
       -5    1    3    3    0  502  0.18403245358E+03  0.42258914850E+03  0.89468805441E+03  0.10064483778E+04  0.46999998093E+01 0. -1.
</event>
<event>
 5   0  0.1252124E-04  0.2189719E+04  0.7818609E-02  0.8522719E-01
       -2   -1    0    0    0  501  0.00000000000E+00  0.00000000000E+00  0.99718824439E+03  0.99718824439E+03  0.25500000920E-02 0. -1.
        2   -1    0    0  501    0  0.00000000000E+00  0.00000000000E+00 -0.12020978216E+04  0.12020978216E+04  0.25500000920E-02 0.  1.
    10030    2    1    2    0    0  0.00000000000E+00  0.00000000000E+00 -0.20490957721E+03  0.21992860660E+04  0.21897194490E+04 0.  0.
        3    1    3    3  502    0  0.77664735151E+03  0.32993953231E+03  0.59821514304E+03  0.10343609482E+04  0.10100000352E+00 0. -1.
       -3    1    3    3    0  502 -0.77664735151E+03 -0.32993953231E+03 -0.80312472025E+03  0.11649251178E+04  0.10100000352E+00 0.  1.
</event>
<event>
 5   0  0.1311472E-04  0.2065163E+04  0.7818609E-02  0.8576746E-01
        2   -1    0    0  501    0  0.00000000000E+00  0.00000000000E+00  0.19190327258E+04  0.19190327258E+04  0.25500000920E-02 0. -1.
       -2   -1    0    0    0  501  0.00000000000E+00  0.00000000000E+00 -0.55560523932E+03  0.55560523932E+03  0.25500000920E-02 0.  1.
    10030    2    1    2    0    0  0.00000000000E+00  0.00000000000E+00  0.13634274864E+04  0.24746379651E+04  0.20651630801E+04 0.  0.
        4    1    3    3  502    0  0.46500010863E+03 -0.92095603989E+03  0.73308470884E+03  0.12656223496E+04  0.12699999809E+01 0.  1.
       -4    1    3    3    0  502 -0.46500010863E+03  0.92095603989E+03  0.63034277761E+03  0.12090156155E+04  0.12699999809E+01 0. -1.
</event>
<event>
 5   0  0.5849604E-05  0.2264910E+04  0.7818609E-02  0.8491886E-01
       -1   -1    0    0    0  501  0.00000000000E+00  0.00000000000E+00  0.10908613398E+04  0.10908613399E+04  0.50400001928E-02 0. -1.
        1   -1    0    0  501    0  0.00000000000E+00  0.00000000000E+00 -0.11756349518E+04  0.11756349518E+04  0.50400001928E-02 0.  1.
    10030    2    1    2    0    0  0.00000000000E+00  0.00000000000E+00 -0.84773611995E+02  0.22664962917E+04  0.22649103459E+04 0.  0.
        2    1    3    3  502    0 -0.97128177328E+03 -0.32887720102E+01  0.54030575100E+03  0.11114537344E+04  0.25500000920E-02 0. -1.
       -2    1    3    3    0  502  0.97128177328E+03  0.32887720102E+01 -0.62507936300E+03  0.11550425573E+04  0.25500000920E-02 0.  1.
</event>
<event>
 5   0  0.1252124E-04  0.2020504E+04  0.7818609E-02  0.8597094E-01
       -2   -1    0    0    0  501  0.00000000000E+00  0.00000000000E+00  0.64968557710E+03  0.64968557710E+03  0.25500000920E-02 0.  1.
        2   -1    0    0  501    0  0.00000000000E+00  0.00000000000E+00 -0.15709278871E+04  0.15709278871E+04  0.25500000920E-02 0. -1.
    10030    2    1    2    0    0  0.00000000000E+00  0.00000000000E+00 -0.92124230999E+03  0.22206134642E+04  0.20205040865E+04 0.  0.
        3    1    3    3  502    0 -0.76787396578E+03 -0.63183396840E+03 -0.65649879411E+03  0.11915684067E+04  0.10100000352E+00 0. -1.
       -3    1    3    3    0  502  0.76787396578E+03  0.63183396840E+03 -0.26474351588E+03  0.10290450575E+04  0.10100000352E+00 0.  1.
</event>
<event>
 5   0  0.6263558E-05  0.1615352E+04  0.7818609E-02  0.8811172E-01
        1   -1    0    0  501    0  0.00000000000E+00  0.00000000000E+00  0.16591003031E+04  0.16591003031E+04  0.50400001928E-02 0.  1.
       -1   -1    0    0    0  501  0.00000000000E+00  0.00000000000E+00 -0.39318918196E+03  0.39318918200E+03  0.50400001928E-02 0. -1.
    10030    2    1    2    0    0  0.00000000000E+00  0.00000000000E+00  0.12659111211E+04  0.20522894851E+04  0.16153517153E+04 0.  0.
        3    1    3    3  502    0 -0.79186065273E+03 -0.15856885818E+03  0.64866576817E+03  0.10358352500E+04  0.10100000352E+00 0.  1.
       -3    1    3    3    0  502  0.79186065273E+03  0.15856885818E+03  0.61724535297E+03  0.10164542351E+04  0.10100000352E+00 0. -1.
</event>
<event>
 5   0  0.1311472E-04  0.2656143E+04  0.7818609E-02  0.8349377E-01
        2   -1    0    0  501    0  0.00000000000E+00  0.00000000000E+00  0.17378278752E+04  0.17378278752E+04  0.25500000920E-02 0.  1.
       -2   -1    0    0    0  501  0.00000000000E+00  0.00000000000E+00 -0.10149303245E+04  0.10149303245E+04  0.25500000920E-02 0. -1.
    10030    2    1    2    0    0  0.00000000000E+00  0.00000000000E+00  0.72289755070E+03  0.27527581996E+04  0.26561432260E+04 0.  0.
        4    1    3    3  502    0 -0.31825767149E+03  0.87873916052E+03 -0.61643059377E+03  0.11195797191E+04  0.12699999809E+01 0. -1.
       -4    1    3    3    0  502  0.31825767149E+03 -0.87873916052E+03  0.13393281445E+04  0.16331784805E+04  0.12699999809E+01 0.  1.
</event>
<event>
 5   0  0.5861816E-05  0.2196856E+04  0.7818609E-02  0.8519738E-01
       -1   -1    0    0    0  501  0.00000000000E+00  0.00000000000E+00  0.66952267719E+03  0.66952267721E+03  0.50400001928E-02 0.  1.
        1   -1    0    0  501    0  0.00000000000E+00  0.00000000000E+00 -0.18020953859E+04  0.18020953859E+04  0.50400001928E-02 0. -1.
    10030    2    1    2    0    0  0.00000000000E+00  0.00000000000E+00 -0.11325727087E+04  0.24716180631E+04  0.21968556870E+04 0.  0.
        1    1    3    3  502    0  0.58654137971E+03  0.24528590321E+03 -0.15740557253E+04  0.16976004803E+04  0.50400001928E-02 0. -1.
       -1    1    3    3    0  502 -0.58654137971E+03 -0.24528590321E+03  0.44148301663E+03  0.77401758276E+03  0.50400001928E-02 0.  1.
</event>
<event>
 5   0  0.1404159E-04  0.2112247E+04  0.7818609E-02  0.8555867E-01
        2   -1    0    0  501    0  0.00000000000E+00  0.00000000000E+00  0.97817784479E+03  0.97817784479E+03  0.25500000920E-02 0. -1.
       -2   -1    0    0    0  501  0.00000000000E+00  0.00000000000E+00 -0.11402806771E+04  0.11402806771E+04  0.25500000920E-02 0.  1.
    10030    2    1    2    0    0  0.00000000000E+00  0.00000000000E+00 -0.16210283235E+03  0.21184585219E+04  0.21122474242E+04 0.  0.
        5    1    3    3  502    0 -0.15950639829E+03  0.11427635212E+03  0.95972534697E+03  0.97958981587E+03  0.46999998093E+01 0. -1.
       -5    1    3    3    0  502  0.15950639829E+03 -0.11427635212E+03 -0.11218281793E+04  0.11388687061E+04  0.46999998093E+01 0.  1.
</event>
<event>
 5   0  0.5895063E-05  0.2249004E+04  0.7818609E-02  0.8498304E-01
        1   -1    0    0  501    0  0.00000000000E+00  0.00000000000E+00  0.30444947266E+04  0.30444947266E+04  0.50400001928E-02 0.  1.
       -1   -1    0    0    0  501  0.00000000000E+00  0.00000000000E+00 -0.41534145195E+03  0.41534145198E+03  0.50400001928E-02 0. -1.
    10030    2    1    2    0    0  0.00000000000E+00  0.00000000000E+00  0.26291532746E+04  0.34598361786E+04  0.22490040998E+04 0.  0.
        5    1    3    3  502    0  0.77271529019E+03  0.34654688474E+03  0.17648388305E+03  0.86507358877E+03  0.46999998093E+01 0. -1.
       -5    1    3    3    0  502 -0.77271529019E+03 -0.34654688474E+03  0.24526693916E+04  0.25947625898E+04  0.46999998093E+01 0.  1.
</event>
<event>
 5   0  0.5895063E-05  0.1463610E+04  0.7818609E-02  0.8909019E-01
        1   -1    0    0  501    0  0.00000000000E+00  0.00000000000E+00  0.11033946058E+04  0.11033946059E+04  0.50400001928E-02 0. -1.
       -1   -1    0    0    0  501  0.00000000000E+00  0.00000000000E+00 -0.48535526015E+03  0.48535526018E+03  0.50400001928E-02 0.  1.
    10030    2    1    2    0    0  0.00000000000E+00  0.00000000000E+00  0.61803934569E+03  0.15887498660E+04  0.14636097513E+04 0.  0.
        5    1    3    3  502    0 -0.31102809485E+03  0.65436978426E+03  0.19737656308E+03  0.75094466373E+03  0.46999998093E+01 0.  1.
       -5    1    3    3    0  502  0.31102809485E+03 -0.65436978426E+03  0.42066278261E+03  0.83780520230E+03  0.46999998093E+01 0. -1.
</event>
<event>
 5   0  0.1404159E-04  0.2198435E+04  0.7818609E-02  0.8519080E-01
       -2   -1    0    0    0  501  0.00000000000E+00  0.00000000000E+00  0.44364390651E+03  0.44364390652E+03  0.25500000920E-02 0. -1.
        2   -1    0    0  501    0  0.00000000000E+00  0.00000000000E+00 -0.27235328009E+04  0.27235328009E+04  0.25500000920E-02 0.  1.
    10030    2    1    2    0    0  0.00000000000E+00  0.00000000000E+00 -0.22798888944E+04  0.31671767074E+04  0.21984346534E+04 0.  0.
        5    1    3    3  502    0 -0.24274458748E+03  0.58499240564E+03 -0.24342195656E+04  0.25152709661E+04  0.46999998093E+01 0.  1.
       -5    1    3    3    0  502  0.24274458748E+03 -0.58499240564E+03  0.15433067126E+03  0.65190574126E+03  0.46999998093E+01 0. -1.
</event>
<event>
 5   0  0.5981239E-05  0.2191546E+04  0.7818609E-02  0.8521955E-01
        1   -1    0    0  501    0  0.00000000000E+00  0.00000000000E+00  0.11928744385E+04  0.11928744385E+04  0.50400001928E-02 0.  1.
       -1   -1    0    0    0  501  0.00000000000E+00  0.00000000000E+00 -0.10065754542E+04  0.10065754542E+04  0.50400001928E-02 0. -1.
    10030    2    1    2    0    0  0.00000000000E+00  0.00000000000E+00  0.18629898426E+03  0.21994498927E+04  0.21915456917E+04 0.  0.
        4    1    3    3  502    0  0.10162443702E+03 -0.10724261946E+04 -0.10830076394E+03  0.10826615987E+04  0.12699999809E+01 0. -1.
       -4    1    3    3    0  502 -0.10162443702E+03  0.10724261946E+04  0.29459974820E+03  0.11167882940E+04  0.12699999809E+01 0.  1.
</event>
<event>
 5   0  0.5981239E-05  0.2200360E+04  0.7818609E-02  0.8518278E-01
       -1   -1    0    0    0  501  0.00000000000E+00  0.00000000000E+00  0.71106144351E+03  0.71106144352E+03  0.50400001928E-02 0. -1.
        1   -1    0    0  501    0  0.00000000000E+00  0.00000000000E+00 -0.17022380577E+04  0.17022380577E+04  0.50400001928E-02 0.  1.
    10030    2    1    2    0    0  0.00000000000E+00  0.00000000000E+00 -0.99117661421E+03  0.24132995012E+04  0.22003598347E+04 0.  0.
        4    1    3    3  502    0 -0.69715253078E+03  0.85109258769E+03 -0.49969113131E+03  0.12083348392E+04  0.12699999809E+01 0. -1.
       -4    1    3    3    0  502  0.69715253078E+03 -0.85109258769E+03 -0.49148548290E+03  0.12049646621E+04  0.12699999809E+01 0.  1.
</event>
<event>
 5   0  0.5895063E-05  0.2110949E+04  0.7818609E-02  0.8556435E-01
        1   -1    0    0  501    0  0.00000000000E+00  0.00000000000E+00  0.17814367250E+04  0.17814367250E+04  0.50400001928E-02 0.  1.
       -1   -1    0    0    0  501  0.00000000000E+00  0.00000000000E+00 -0.62535288978E+03  0.62535288981E+03  0.50400001928E-02 0. -1.
    10030    2    1    2    0    0  0.00000000000E+00  0.00000000000E+00  0.11560838353E+04  0.24067896149E+04  0.21109491742E+04 0.  0.
        5    1    3    3  502    0 -0.11154792149E+02 -0.36891835561E+03 -0.54936521595E+03  0.66185301464E+03  0.46999998093E+01 0. -1.
       -5    1    3    3    0  502  0.11154792149E+02  0.36891835561E+03  0.17054490512E+04  0.17449366002E+04  0.46999998093E+01 0.  1.
</event>
<event>
 5   0  0.5981239E-05  0.2187372E+04  0.7818609E-02  0.8523702E-01
        1   -1    0    0  501    0  0.00000000000E+00  0.00000000000E+00  0.14719883176E+04  0.14719883176E+04  0.50400001928E-02 0.  1.
       -1   -1    0    0    0  501  0.00000000000E+00  0.00000000000E+00 -0.81260790643E+03  0.81260790644E+03  0.50400001928E-02 0. -1.
    10030    2    1    2    0    0  0.00000000000E+00  0.00000000000E+00  0.65938041115E+03  0.22845962240E+04  0.21873722546E+04 0.  0.
        4    1    3    3  502    0  0.40236307082E+03  0.96344046996E+03  0.66979256110E+03  0.12404584909E+04  0.12699999809E+01 0. -1.
       -4    1    3    3    0  502 -0.40236307082E+03 -0.96344046996E+03 -0.10412149947E+02  0.10441377331E+04  0.12699999809E+01 0.  1.
</event>
<event>
 5   0  0.5981239E-05  0.1901696E+04  0.7818609E-02  0.8654013E-01
        1   -1    0    0  501    0  0.00000000000E+00  0.00000000000E+00  0.10361747879E+04  0.10361747879E+04  0.50400001928E-02 0.  1.
       -1   -1    0    0    0  501  0.00000000000E+00  0.00000000000E+00 -0.87254724883E+03  0.87254724884E+03  0.50400001928E-02 0. -1.
    10030    2    1    2    0    0  0.00000000000E+00  0.00000000000E+00  0.16362753902E+03  0.19087220367E+04  0.19016955177E+04 0.  0.
        4    1    3    3  502    0  0.11941362932E+03  0.62282272429E+03  0.79291021978E+03  0.10153206342E+04  0.12699999809E+01 0.  1.
       -4    1    3    3    0  502 -0.11941362932E+03 -0.62282272429E+03 -0.62928268075E+03  0.89340140248E+03  0.12699999809E+01 0. -1.
</event>
<event>
 5   0  0.5981239E-05  0.2180483E+04  0.7818609E-02  0.8526596E-01
       -1   -1    0    0    0  501  0.00000000000E+00  0.00000000000E+00  0.14304621920E+04  0.14304621920E+04  0.50400001928E-02 0.  1.
        1   -1    0    0  501    0  0.00000000000E+00  0.00000000000E+00 -0.83093870935E+03  0.83093870937E+03  0.50400001928E-02 0. -1.
    10030    2    1    2    0    0  0.00000000000E+00  0.00000000000E+00  0.59952348262E+03  0.22614009013E+04  0.21804828893E+04 0.  0.
        4    1    3    3  502    0 -0.93811641722E+02  0.63054034719E+01  0.14262487949E+04  0.14293451718E+04  0.12699999809E+01 0.  1.
       -4    1    3    3    0  502  0.93811641722E+02 -0.63054034719E+01 -0.82672531228E+03  0.83205572957E+03  0.12699999809E+01 0. -1.
</event>
<event>
 5   0  0.5861816E-05  0.2177514E+04  0.7818609E-02  0.8527846E-01
        1   -1    0    0  501    0  0.00000000000E+00  0.00000000000E+00  0.99110736889E+03  0.99110736891E+03  0.50400001928E-02 0. -1.
       -1   -1    0    0    0  501  0.00000000000E+00  0.00000000000E+00 -0.11960278840E+04  0.11960278840E+04  0.50400001928E-02 0.  1.
    10030    2    1    2    0    0  0.00000000000E+00  0.00000000000E+00 -0.20492051506E+03  0.21871352529E+04  0.21775142243E+04 0.  0.
        1    1    3    3  502    0 -0.60331348147E+03  0.73931886887E+03 -0.62900209355E+03  0.11429012120E+04  0.50400001928E-02 0.  1.
       -1    1    3    3    0  502  0.60331348147E+03 -0.73931886887E+03  0.42408157848E+03  0.10442340408E+04  0.50400001928E-02 0. -1.
</event>
<event>
 5   0  0.1226021E-04  0.2193080E+04  0.7818609E-02  0.8521314E-01
       -2   -1    0    0    0  501  0.00000000000E+00  0.00000000000E+00  0.76412455786E+03  0.76412455786E+03  0.25500000920E-02 0.  1.
        2   -1    0    0  501    0  0.00000000000E+00  0.00000000000E+00 -0.15735657158E+04  0.15735657158E+04  0.25500000920E-02 0. -1.
    10030    2    1    2    0    0  0.00000000000E+00  0.00000000000E+00 -0.80944115795E+03  0.23376902737E+04  0.21930802145E+04 0.  0.
        2    1    3    3  502    0  0.53684520539E+03 -0.87240035375E+02  0.61021178848E+03  0.81741790115E+03  0.25500000920E-02 0.  1.
       -2    1    3    3    0  502 -0.53684520539E+03  0.87240035375E+02 -0.14196529464E+04  0.15202723725E+04  0.25500000920E-02 0. -1.
</event>
<event>
 5   0  0.5861816E-05  0.2181583E+04  0.7818609E-02  0.8526133E-01
        1   -1    0    0  501    0  0.00000000000E+00  0.00000000000E+00  0.17201564958E+04  0.17201564958E+04  0.50400001928E-02 0. -1.
       -1   -1    0    0    0  501  0.00000000000E+00  0.00000000000E+00 -0.69169615798E+03  0.69169615799E+03  0.50400001928E-02 0.  1.
    10030    2    1    2    0    0  0.00000000000E+00  0.00000000000E+00  0.10284603378E+04  0.24118526538E+04  0.21815825809E+04 0.  0.
        1    1    3    3  502    0 -0.38247072440E+03  0.98884925226E+03  0.79764618668E+03  0.13267803653E+04  0.50400001928E-02 0. -1.
       -1    1    3    3    0  502  0.38247072440E+03 -0.98884925226E+03  0.23081415111E+03  0.10850722884E+04  0.50400001928E-02 0.  1.
</event>
<event>
 5   0  0.5981239E-05  0.2200348E+04  0.7818609E-02  0.8518283E-01
       -1   -1    0    0    0  501  0.00000000000E+00  0.00000000000E+00  0.88570599494E+03  0.88570599495E+03  0.50400001928E-02 0.  1.
        1   -1    0    0  501    0  0.00000000000E+00  0.00000000000E+00 -0.13665741962E+04  0.13665741962E+04  0.50400001928E-02 0. -1.
    10030    2    1    2    0    0  0.00000000000E+00  0.00000000000E+00 -0.48086820124E+03  0.22522801911E+04  0.22003481162E+04 0.  0.
        4    1    3    3  502    0 -0.28277813793E+03 -0.73102792735E+03 -0.10306758951E+04  0.12948589573E+04  0.12699999809E+01 0. -1.
       -4    1    3    3    0  502  0.28277813793E+03  0.73102792735E+03  0.54980769382E+03  0.95742123380E+03  0.12699999809E+01 0.  1.
</event>
<event>
 5   0  0.1404159E-04  0.2238908E+04  0.7818609E-02  0.8502406E-01
        2   -1    0    0  501    0  0.00000000000E+00  0.00000000000E+00  0.93417814362E+03  0.93417814362E+03  0.25500000920E-02 0. -1.
       -2   -1    0    0    0  501  0.00000000000E+00  0.00000000000E+00 -0.13414754524E+04  0.13414754524E+04  0.25500000920E-02 0.  1.
    10030    2    1    2    0    0  0.00000000000E+00  0.00000000000E+00 -0.40729730880E+03  0.22756535960E+04  0.22389078122E+04 0.  0.
        5    1    3    3  502    0  0.24081487457E+03 -0.77853751120E+03  0.57643873349E+03  0.99820647344E+03  0.46999998093E+01 0. -1.
       -5    1    3    3    0  502 -0.24081487457E+03  0.77853751120E+03 -0.98373604228E+03  0.12774471226E+04  0.46999998093E+01 0.  1.
</event>
<event>
 5   0  0.1404159E-04  0.2226455E+04  0.7818609E-02  0.8507497E-01
        2   -1    0    0  501    0  0.00000000000E+00  0.00000000000E+00  0.10073550836E+04  0.10073550836E+04  0.25500000920E-02 0. -1.
       -2   -1    0    0    0  501  0.00000000000E+00  0.00000000000E+00 -0.12302270779E+04  0.12302270779E+04  0.25500000920E-02 0.  1.
    10030    2    1    2    0    0  0.00000000000E+00  0.00000000000E+00 -0.22287199433E+03  0.22375821615E+04  0.22264550307E+04 0.  0.
        5    1    3    3  502    0  0.47671451502E+03  0.97837130100E+03  0.12379847629E+03  0.10953608009E+04  0.46999998093E+01 0. -1.
       -5    1    3    3    0  502 -0.47671451502E+03 -0.97837130100E+03 -0.34667047062E+03  0.11422213606E+04  0.46999998093E+01 0.  1.
</event>
<event>
 5   0  0.6263558E-05  0.2163501E+04  0.7818609E-02  0.8533775E-01
       -1   -1    0    0    0  501  0.00000000000E+00  0.00000000000E+00  0.14718172795E+04  0.14718172795E+04  0.50400001928E-02 0.  1.
        1   -1    0    0  501    0  0.00000000000E+00  0.00000000000E+00 -0.79506074255E+03  0.79506074257E+03  0.50400001928E-02 0. -1.
    10030    2    1    2    0    0  0.00000000000E+00  0.00000000000E+00  0.67675653697E+03  0.22668780221E+04  0.21635009953E+04 0.  0.
        3    1    3    3  502    0 -0.52886781007E+03 -0.13287389726E+02 -0.65026770879E+03  0.83828743194E+03  0.10100000352E+00 0. -1.
       -3    1    3    3    0  502  0.52886781007E+03  0.13287389726E+02  0.13270242458E+04  0.14285905902E+04  0.10100000352E+00 0.  1.
</event>
<event>
 5   0  0.5981239E-05  0.2208908E+04  0.7818609E-02  0.8514730E-01
        1   -1    0    0  501    0  0.00000000000E+00  0.00000000000E+00  0.16473891229E+04  0.16473891229E+04  0.50400001928E-02 0.  1.
       -1   -1    0    0    0  501  0.00000000000E+00  0.00000000000E+00 -0.74045559282E+03  0.74045559284E+03  0.50400001928E-02 0. -1.
    10030    2    1    2    0    0  0.00000000000E+00  0.00000000000E+00  0.90693353004E+03  0.23878447157E+04  0.22089078655E+04 0.  0.
        4    1    3    3  502    0 -0.58864761794E+02  0.50632494388E+03 -0.60569214768E+03  0.79164044846E+03  0.12699999809E+01 0. -1.
       -4    1    3    3    0  502  0.58864761794E+02 -0.50632494388E+03  0.15126256777E+04  0.15962042672E+04  0.12699999809E+01 0.  1.
</event>
<event>
 5   0  0.5981239E-05  0.2195640E+04  0.7818609E-02  0.8520245E-01
       -1   -1    0    0    0  501  0.00000000000E+00  0.00000000000E+00  0.74736584227E+03  0.74736584229E+03  0.50400001928E-02 0.  1.
        1   -1    0    0  501    0  0.00000000000E+00  0.00000000000E+00 -0.16126092178E+04  0.16126092178E+04  0.50400001928E-02 0. -1.
    10030    2    1    2    0    0  0.00000000000E+00  0.00000000000E+00 -0.86524337554E+03  0.23599750601E+04  0.21956402678E+04 0.  0.
        4    1    3    3  502    0 -0.95074281861E+03  0.12853988085E+03 -0.10062038686E+04  0.13902813551E+04  0.12699999809E+01 0.  1.
       -4    1    3    3    0  502  0.95074281861E+03 -0.12853988085E+03  0.14096049308E+03  0.96969370505E+03  0.12699999809E+01 0. -1.
</event>
<event>
 5   0  0.1311472E-04  0.2191504E+04  0.7818609E-02  0.8521973E-01
       -2   -1    0    0    0  501  0.00000000000E+00  0.00000000000E+00  0.60618695639E+03  0.60618695640E+03  0.25500000920E-02 0. -1.
        2   -1    0    0  501    0  0.00000000000E+00  0.00000000000E+00 -0.19806960279E+04  0.19806960279E+04  0.25500000920E-02 0.  1.
    10030    2    1    2    0    0  0.00000000000E+00  0.00000000000E+00 -0.13745090715E+04  0.25868829843E+04  0.21915036817E+04 0.  0.
        4    1    3    3  502    0  0.47517352641E+03 -0.44757252725E+03  0.35161725626E+03  0.74144949602E+03  0.12699999809E+01 0. -1.
       -4    1    3    3    0  502 -0.47517352641E+03  0.44757252725E+03 -0.17261263278E+04  0.18454334883E+04  0.12699999809E+01 0.  1.
</event>
<event>
 5   0  0.4586375E-05  0.2213798E+04  0.7818609E-02  0.8512707E-01
        3   -1    0    0  501    0  0.00000000000E+00  0.00000000000E+00  0.11811396572E+04  0.11811396616E+04  0.10100000352E+00 0. -1.
       -3   -1    0    0    0  501  0.00000000000E+00  0.00000000000E+00 -0.10373246018E+04  0.10373246067E+04  0.10100000352E+00 0.  1.
    10030    2    1    2    0    0  0.00000000000E+00  0.00000000000E+00  0.14381505545E+03  0.22184642683E+04  0.22137978542E+04 0.  0.
        4    1    3    3  502    0 -0.95328123203E+03  0.12447813230E+03 -0.47786871757E+03  0.10735921185E+04  0.12699999809E+01 0.  1.
       -4    1    3    3    0  502  0.95328123203E+03 -0.12447813230E+03  0.62168377303E+03  0.11448721498E+04  0.12699999809E+01 0. -1.
</event>
<event>
 5   0  0.6263558E-05  0.2127325E+04  0.7818609E-02  0.8549301E-01
        1   -1    0    0  501    0  0.00000000000E+00  0.00000000000E+00  0.83251216462E+03  0.83251216463E+03  0.50400001928E-02 0.  1.
       -1   -1    0    0    0  501  0.00000000000E+00  0.00000000000E+00 -0.13589932405E+04  0.13589932405E+04  0.50400001928E-02 0. -1.
    10030    2    1    2    0    0  0.00000000000E+00  0.00000000000E+00 -0.52648107588E+03  0.21915054051E+04  0.21273254611E+04 0.  0.
        3    1    3    3  502    0 -0.68898251862E+03  0.39644784580E+03 -0.99132364986E+03  0.12706653353E+04  0.10100000352E+00 0. -1.
       -3    1    3    3    0  502  0.68898251862E+03 -0.39644784580E+03  0.46484257398E+03  0.92084006982E+03  0.10100000352E+00 0.  1.
</event>
<event>
 5   0  0.1226021E-04  0.2182569E+04  0.7818609E-02  0.8525718E-01
        2   -1    0    0  501    0  0.00000000000E+00  0.00000000000E+00  0.13646163644E+04  0.13646163644E+04  0.25500000920E-02 0.  1.
       -2   -1    0    0    0  501  0.00000000000E+00  0.00000000000E+00 -0.87270124013E+03  0.87270124014E+03  0.25500000920E-02 0. -1.
    10030    2    1    2    0    0  0.00000000000E+00  0.00000000000E+00  0.49191512429E+03  0.22373176046E+04  0.21825694890E+04 0.  0.
        2    1    3    3  502    0  0.47308271139E+02  0.10022627477E+03 -0.86691717009E+03  0.87397297354E+03  0.25500000920E-02 0. -1.
       -2    1    3    3    0  502 -0.47308271139E+02 -0.10022627477E+03  0.13588322944E+04  0.13633446310E+04  0.25500000920E-02 0.  1.
</event>
<event>
 5   0  0.1404159E-04  0.2236325E+04  0.7818609E-02  0.8503459E-01
       -2   -1    0    0    0  501  0.00000000000E+00  0.00000000000E+00  0.53871008410E+03  0.53871008411E+03  0.25500000920E-02 0.  1.
        2   -1    0    0  501    0  0.00000000000E+00  0.00000000000E+00 -0.23208913429E+04  0.23208913429E+04  0.25500000920E-02 0. -1.
    10030    2    1    2    0    0  0.00000000000E+00  0.00000000000E+00 -0.17821812588E+04  0.28596014270E+04  0.22363251736E+04 0.  0.
        5    1    3    3  502    0 -0.17914887002E+03  0.10900582078E+04 -0.66981815474E+03  0.12918976989E+04  0.46999998093E+01 0.  1.
       -5    1    3    3    0  502  0.17914887002E+03 -0.10900582078E+04 -0.11123631040E+04  0.15677037281E+04  0.46999998093E+01 0. -1.
</event>
<event>
 5   0  0.1252124E-04  0.2211570E+04  0.7818609E-02  0.8513628E-01
        2   -1    0    0  501    0  0.00000000000E+00  0.00000000000E+00  0.19585228448E+04  0.19585228448E+04  0.25500000920E-02 0. -1.
       -2   -1    0    0    0  501  0.00000000000E+00  0.00000000000E+00 -0.62432782052E+03  0.62432782053E+03  0.25500000920E-02 0.  1.
    10030    2    1    2    0    0  0.00000000000E+00  0.00000000000E+00  0.13341950243E+04  0.25828506653E+04  0.22115698489E+04 0.  0.
        3    1    3    3  502    0 -0.17213092714E+03 -0.17756280483E+03 -0.59161758099E+03  0.64122459254E+03  0.10100000352E+00 0.  1.
       -3    1    3    3    0  502  0.17213092714E+03  0.17756280483E+03  0.19258126053E+04  0.19416260728E+04  0.10100000352E+00 0. -1.
</event>
<event>
 5   0  0.5849604E-05  0.2227406E+04  0.7818609E-02  0.8507107E-01
       -1   -1    0    0    0  501  0.00000000000E+00  0.00000000000E+00  0.53360283832E+03  0.53360283834E+03  0.50400001928E-02 0.  1.
        1   -1    0    0  501    0  0.00000000000E+00  0.00000000000E+00 -0.23244528023E+04  0.23244528023E+04  0.50400001928E-02 0. -1.
    10030    2    1    2    0    0  0.00000000000E+00  0.00000000000E+00 -0.17908499640E+04  0.28580556406E+04  0.22274062161E+04 0.  0.
        2    1    3    3  502    0 -0.70431059974E+03  0.14909586307E+03  0.19489852164E+03  0.74583405060E+03  0.25500000920E-02 0.  1.
       -2    1    3    3    0  502  0.70431059974E+03 -0.14909586307E+03 -0.19857484856E+04  0.21122215900E+04  0.25500000920E-02 0. -1.
</event>
<event>
 5   0  0.1252124E-04  0.2249827E+04  0.7818609E-02  0.8497970E-01
        2   -1    0    0  501    0  0.00000000000E+00  0.00000000000E+00  0.87362724587E+03  0.87362724587E+03  0.25500000920E-02 0. -1.
       -2   -1    0    0    0  501  0.00000000000E+00  0.00000000000E+00 -0.14484788572E+04  0.14484788572E+04  0.25500000920E-02 0.  1.
    10030    2    1    2    0    0  0.00000000000E+00  0.00000000000E+00 -0.57485161136E+03  0.23221061031E+04  0.22498271887E+04 0.  0.
        3    1    3    3  502    0 -0.44042066910E+03 -0.31034292139E+03 -0.13066460768E+04  0.14133672823E+04  0.10100000352E+00 0.  1.
       -3    1    3    3    0  502  0.44042066910E+03  0.31034292139E+03  0.73179446539E+03  0.90873882079E+03  0.10100000352E+00 0. -1.
</event>
<event>
 5   0  0.5895063E-05  0.2248277E+04  0.7818609E-02  0.8498599E-01
       -1   -1    0    0    0  501  0.00000000000E+00  0.00000000000E+00  0.13688234808E+04  0.13688234809E+04  0.50400001928E-02 0. -1.
        1   -1    0    0  501    0  0.00000000000E+00  0.00000000000E+00 -0.92319243257E+03  0.92319243258E+03  0.50400001928E-02 0.  1.
    10030    2    1    2    0    0  0.00000000000E+00  0.00000000000E+00  0.44563104828E+03  0.22920159134E+04  0.22482770995E+04 0.  0.
        5    1    3    3  502    0 -0.85950677151E+03 -0.32075829875E+03  0.88509031668E+03  0.12747724248E+04  0.46999998093E+01 0. -1.
       -5    1    3    3    0  502  0.85950677151E+03  0.32075829875E+03 -0.43945926840E+03  0.10172434886E+04  0.46999998093E+01 0.  1.
</event>
<event>
 5   0  0.6263558E-05  0.2169065E+04  0.7818609E-02  0.8531416E-01
        1   -1    0    0  501    0  0.00000000000E+00  0.00000000000E+00  0.11359722325E+04  0.11359722325E+04  0.50400001928E-02 0.  1.
       -1   -1    0    0    0  501  0.00000000000E+00  0.00000000000E+00 -0.10354217388E+04  0.10354217389E+04  0.50400001928E-02 0. -1.
    10030    2    1    2    0    0  0.00000000000E+00  0.00000000000E+00  0.10055049364E+03  0.21713939713E+04  0.21690646318E+04 0.  0.
        3    1    3    3  502    0  0.23107377453E+03 -0.95840959011E+03  0.50271889803E+03  0.11066482424E+04  0.10100000352E+00 0.  1.
       -3    1    3    3    0  502 -0.23107377453E+03  0.95840959011E+03 -0.40216840439E+03  0.10647457290E+04  0.10100000352E+00 0. -1.
</event>
<event>
 5   0  0.5981239E-05  0.2164719E+04  0.7818609E-02  0.8533258E-01
       -1   -1    0    0    0  501  0.00000000000E+00  0.00000000000E+00  0.55242481669E+03  0.55242481671E+03  0.50400001928E-02 0.  1.
        1   -1    0    0  501    0  0.00000000000E+00  0.00000000000E+00 -0.21206552217E+04  0.21206552217E+04  0.50400001928E-02 0. -1.
    10030    2    1    2    0    0  0.00000000000E+00  0.00000000000E+00 -0.15682304050E+04  0.26730800385E+04  0.21647194480E+04 0.  0.
        4    1    3    3  502    0 -0.20992302988E+03 -0.50520574031E+03 -0.19373520089E+04  0.20131157289E+04  0.12699999809E+01 0. -1.
       -4    1    3    3    0  502  0.20992302988E+03  0.50520574031E+03  0.36912160390E+03  0.65996430955E+03  0.12699999809E+01 0.  1.
</event>
<event>
 5   0  0.1311472E-04  0.2137144E+04  0.7818609E-02  0.8545055E-01
        2   -1    0    0  501    0  0.00000000000E+00  0.00000000000E+00  0.19464325692E+04  0.19464325692E+04  0.25500000920E-02 0. -1.
       -2   -1    0    0    0  501  0.00000000000E+00  0.00000000000E+00 -0.58663549200E+03  0.58663549200E+03  0.25500000920E-02 0.  1.
    10030    2    1    2    0    0  0.00000000000E+00  0.00000000000E+00  0.13597970772E+04  0.25330680612E+04  0.21371442889E+04 0.  0.
        4    1    3    3  502    0 -0.95655743230E+02 -0.25064892572E+03 -0.54606767361E+03  0.60841303589E+03  0.12699999809E+01 0.  1.
       -4    1    3    3    0  502  0.95655743230E+02  0.25064892572E+03  0.19058647508E+04  0.19246550253E+04  0.12699999809E+01 0. -1.
</event>
<event>
 5   0  0.5981239E-05  0.2157851E+04  0.7818609E-02  0.8536179E-01
        1   -1    0    0  501    0  0.00000000000E+00  0.00000000000E+00  0.87688650358E+03  0.87688650359E+03  0.50400001928E-02 0. -1.
       -1   -1    0    0    0  501  0.00000000000E+00  0.00000000000E+00 -0.13275153590E+04  0.13275153590E+04  0.50400001928E-02 0.  1.
    10030    2    1    2    0    0  0.00000000000E+00  0.00000000000E+00 -0.45062885546E+03  0.22044018626E+04  0.21578510622E+04 0.  0.
        4    1    3    3  502    0  0.32315228381E+03  0.74919640157E+03  0.49585808862E+03  0.95477720103E+03  0.12699999809E+01 0. -1.
       -4    1    3    3    0  502 -0.32315228381E+03 -0.74919640157E+03 -0.94648694409E+03  0.12496246616E+04  0.12699999809E+01 0.  1.
</event>
<event>
 5   0  0.1404159E-04  0.2202930E+04  0.7818609E-02  0.8517210E-01
        2   -1    0    0  501    0  0.00000000000E+00  0.00000000000E+00  0.15907238593E+04  0.15907238594E+04  0.25500000920E-02 0.  1.
       -2   -1    0    0    0  501  0.00000000000E+00  0.00000000000E+00 -0.76268727849E+03  0.76268727849E+03  0.25500000920E-02 0. -1.
    10030    2    1    2    0    0  0.00000000000E+00  0.00000000000E+00  0.82803658086E+03  0.23534111378E+04  0.22029297321E+04 0.  0.
        5    1    3    3  502    0  0.36720613074E+03 -0.50492616577E+03  0.13834243994E+04  0.15177865246E+04  0.46999998093E+01 0.  1.
       -5    1    3    3    0  502 -0.36720613074E+03  0.50492616577E+03 -0.55538781853E+03  0.83562461327E+03  0.46999998093E+01 0. -1.
</event>
<event>
 5   0  0.6263558E-05  0.2257721E+04  0.7818609E-02  0.8494780E-01
       -1   -1    0    0    0  501  0.00000000000E+00  0.00000000000E+00  0.11017880272E+04  0.11017880272E+04  0.50400001928E-02 0. -1.
        1   -1    0    0  501    0  0.00000000000E+00  0.00000000000E+00 -0.11565982146E+04  0.11565982146E+04  0.50400001928E-02 0.  1.
    10030    2    1    2    0    0  0.00000000000E+00  0.00000000000E+00 -0.54810187351E+02  0.22583862418E+04  0.22577210325E+04 0.  0.
        3    1    3    3  502    0 -0.58847063579E+02 -0.95868994607E+03 -0.62068747933E+03  0.11435918620E+04  0.10100000352E+00 0.  1.
       -3    1    3    3    0  502  0.58847063579E+02  0.95868994607E+03  0.56587729198E+03  0.11147943799E+04  0.10100000352E+00 0. -1.
</event>
<event>
 5   0  0.1226021E-04  0.2213507E+04  0.7818609E-02  0.8512827E-01
        2   -1    0    0  501    0  0.00000000000E+00  0.00000000000E+00  0.10300641825E+04  0.10300641825E+04  0.25500000920E-02 0.  1.
       -2   -1    0    0    0  501  0.00000000000E+00  0.00000000000E+00 -0.11891525815E+04  0.11891525815E+04  0.25500000920E-02 0. -1.
    10030    2    1    2    0    0  0.00000000000E+00  0.00000000000E+00 -0.15908839900E+03  0.22192167640E+04  0.22135071554E+04 0.  0.
        2    1    3    3  502    0  0.11294431514E+03  0.33536670151E+03  0.97181523149E+03  0.10342398595E+04  0.25500000920E-02 0.  1.
       -2    1    3    3    0  502 -0.11294431514E+03 -0.33536670151E+03 -0.11309036305E+04  0.11849769045E+04  0.25500000920E-02 0. -1.
</event>
<event>
 5   0  0.1311472E-04  0.2190629E+04  0.7818609E-02  0.8522339E-01
        2   -1    0    0  501    0  0.00000000000E+00  0.00000000000E+00  0.23155723820E+04  0.23155723820E+04  0.25500000920E-02 0. -1.
       -2   -1    0    0    0  501  0.00000000000E+00  0.00000000000E+00 -0.51810687317E+03  0.51810687318E+03  0.25500000920E-02 0.  1.
    10030    2    1    2    0    0  0.00000000000E+00  0.00000000000E+00  0.17974655088E+04  0.28336792552E+04  0.21906291028E+04 0.  0.
        4    1    3    3  502    0  0.83092376890E+02  0.68111634744E+03  0.20030971492E+04  0.21173624215E+04  0.12699999809E+01 0. -1.
       -4    1    3    3    0  502 -0.83092376890E+02 -0.68111634744E+03 -0.20563164036E+03  0.71631683372E+03  0.12699999809E+01 0.  1.
</event>
<event>
 5   0  0.1226021E-04  0.2204838E+04  0.7818609E-02  0.8516417E-01
       -2   -1    0    0    0  501  0.00000000000E+00  0.00000000000E+00  0.12407131553E+04  0.12407131553E+04  0.25500000920E-02 0.  1.
        2   -1    0    0  501    0  0.00000000000E+00  0.00000000000E+00 -0.97953988835E+03  0.97953988836E+03  0.25500000920E-02 0. -1.
    10030    2    1    2    0    0  0.00000000000E+00  0.00000000000E+00  0.26117326692E+03  0.22202530436E+04  0.22048383393E+04 0.  0.
        2    1    3    3  502    0  0.36328925496E+03  0.86374147848E+03 -0.45424874404E+03  0.10413310453E+04  0.25500000920E-02 0. -1.
       -2    1    3    3    0  502 -0.36328925496E+03 -0.86374147848E+03  0.71542201096E+03  0.11789219983E+04  0.25500000920E-02 0.  1.
</event>
<event>
 5   0  0.5981239E-05  0.2241841E+04  0.7818609E-02  0.8501212E-01
        1   -1    0    0  501    0  0.00000000000E+00  0.00000000000E+00  0.59811616678E+03  0.59811616680E+03  0.50400001928E-02 0. -1.
       -1   -1    0    0    0  501  0.00000000000E+00  0.00000000000E+00 -0.21007005073E+04  0.21007005073E+04  0.50400001928E-02 0.  1.
    10030    2    1    2    0    0  0.00000000000E+00  0.00000000000E+00 -0.15025843405E+04  0.26988166741E+04  0.22418411496E+04 0.  0.
        4    1    3    3  502    0 -0.81016360761E+03 -0.45551165784E+03  0.30122831725E+01  0.92944425776E+03  0.12699999809E+01 0. -1.
       -4    1    3    3    0  502  0.81016360761E+03  0.45551165784E+03 -0.15055966237E+04  0.17693724163E+04  0.12699999809E+01 0.  1.
</event>
<event>
 5   0  0.1404159E-04  0.2166424E+04  0.7818609E-02  0.8532535E-01
       -2   -1    0    0    0  501  0.00000000000E+00  0.00000000000E+00  0.10060507795E+04  0.10060507795E+04  0.25500000920E-02 0.  1.
        2   -1    0    0  501    0  0.00000000000E+00  0.00000000000E+00 -0.11662909185E+04  0.11662909185E+04  0.25500000920E-02 0. -1.
    10030    2    1    2    0    0  0.00000000000E+00  0.00000000000E+00 -0.16024013899E+03  0.21723416981E+04  0.21664236776E+04 0.  0.
        5    1    3    3  502    0 -0.87909214780E+03  0.46717760648E+03  0.34797459297E+03  0.10545929678E+04  0.46999998093E+01 0.  1.
       -5    1    3    3    0  502  0.87909214780E+03 -0.46717760648E+03 -0.50821473196E+03  0.11177487303E+04  0.46999998093E+01 0. -1.
</event>
<event>
 5   0  0.5849604E-05  0.2165999E+04  0.7818609E-02  0.8532715E-01
       -1   -1    0    0    0  501  0.00000000000E+00  0.00000000000E+00  0.19989287880E+04  0.19989287880E+04  0.50400001928E-02 0. -1.
        1   -1    0    0  501    0  0.00000000000E+00  0.00000000000E+00 -0.58675821907E+03  0.58675821909E+03  0.50400001928E-02 0.  1.
    10030    2    1    2    0    0  0.00000000000E+00  0.00000000000E+00  0.14121705689E+04  0.25856870071E+04  0.21659989804E+04 0.  0.
        2    1    3    3  502    0  0.32183095227E+03 -0.67488922074E+03 -0.22920049984E+03  0.78203803696E+03  0.25500000920E-02 0.  1.
       -2    1    3    3    0  502 -0.32183095227E+03  0.67488922074E+03  0.16413710688E+04  0.18036489702E+04  0.25500000920E-02 0. -1.
</event>
<event>
 5   0  0.5861816E-05  0.2215363E+04  0.7818609E-02  0.8512061E-01
        1   -1    0    0  501    0  0.00000000000E+00  0.00000000000E+00  0.71882543253E+03  0.71882543255E+03  0.50400001928E-02 0.  1.
       -1   -1    0    0    0  501  0.00000000000E+00  0.00000000000E+00 -0.17068934689E+04  0.17068934689E+04  0.50400001928E-02 0. -1.
    10030    2    1    2    0    0  0.00000000000E+00  0.00000000000E+00 -0.98806803638E+03  0.24257189015E+04  0.22153631180E+04 0.  0.
        1    1    3    3  502    0 -0.39843770041E+03 -0.32651040832E+03 -0.15677565164E+04  0.16502188166E+04  0.50400001928E-02 0. -1.
       -1    1    3    3    0  502  0.39843770041E+03  0.32651040832E+03  0.57968847999E+03  0.77550008492E+03  0.50400001928E-02 0.  1.
</event>
<event>
 5   0  0.5895063E-05  0.2129072E+04  0.7818609E-02  0.8548544E-01
        1   -1    0    0  501    0  0.00000000000E+00  0.00000000000E+00  0.13886313161E+04  0.13886313161E+04  0.50400001928E-02 0. -1.
       -1   -1    0    0    0  501  0.00000000000E+00  0.00000000000E+00 -0.81608201489E+03  0.81608201491E+03  0.50400001928E-02 0.  1.
    10030    2    1    2    0    0  0.00000000000E+00  0.00000000000E+00  0.57254930124E+03  0.22047133310E+04  0.21290721382E+04 0.  0.
        5    1    3    3  502    0 -0.13659139916E+02 -0.30173107328E+03  0.13433181204E+04  0.13768637824E+04  0.46999998093E+01 0. -1.
       -5    1    3    3    0  502  0.13659139916E+02  0.30173107328E+03 -0.77076881914E+03  0.82784954867E+03  0.46999998093E+01 0.  1.
</event>
<event>
 5   0  0.5981239E-05  0.2392340E+04  0.7818609E-02  0.8442377E-01
       -1   -1    0    0    0  501  0.00000000000E+00  0.00000000000E+00  0.15681024129E+04  0.15681024129E+04  0.50400001928E-02 0. -1.
        1   -1    0    0  501    0  0.00000000000E+00  0.00000000000E+00 -0.91245452105E+03  0.91245452107E+03  0.50400001928E-02 0.  1.
    10030    2    1    2    0    0  0.00000000000E+00  0.00000000000E+00  0.65564789189E+03  0.24805569340E+04  0.23923395547E+04 0.  0.
        4    1    3    3  502    0  0.15526570668E+03 -0.11502767787E+04  0.28067693652E+02  0.11610484553E+04  0.12699999809E+01 0.  1.
       -4    1    3    3    0  502 -0.15526570668E+03  0.11502767787E+04  0.62758019823E+03  0.13195084787E+04  0.12699999809E+01 0. -1.
</event>
<event>
 5   0  0.1241430E-04  0.2207731E+04  0.7818609E-02  0.8515217E-01
       -2   -1    0    0    0  501  0.00000000000E+00  0.00000000000E+00  0.20545635576E+04  0.20545635576E+04  0.25500000920E-02 0. -1.
        2   -1    0    0  501    0  0.00000000000E+00  0.00000000000E+00 -0.59307939087E+03  0.59307939087E+03  0.25500000920E-02 0.  1.
    10030    2    1    2    0    0  0.00000000000E+00  0.00000000000E+00  0.14614841667E+04  0.26476429484E+04  0.22077312366E+04 0.  0.
        1    1    3    3  502    0  0.19174092440E+03 -0.64277969869E+03  0.17821234881E+04  0.19041781560E+04  0.50400001928E-02 0. -1.
       -1    1    3    3    0  502 -0.19174092440E+03  0.64277969869E+03 -0.32063932136E+03  0.74346479242E+03  0.50400001928E-02 0.  1.
</event>
<event>
 5   0  0.5861816E-05  0.2225319E+04  0.7818609E-02  0.8507963E-01
       -1   -1    0    0    0  501  0.00000000000E+00  0.00000000000E+00  0.65513362443E+03  0.65513362445E+03  0.50400001928E-02 0. -1.
        1   -1    0    0  501    0  0.00000000000E+00  0.00000000000E+00 -0.18897073821E+04  0.18897073821E+04  0.50400001928E-02 0.  1.
    10030    2    1    2    0    0  0.00000000000E+00  0.00000000000E+00 -0.12345737577E+04  0.25448410066E+04  0.22253187155E+04 0.  0.
        1    1    3    3  502    0  0.71297020117E+03  0.20355814607E+03 -0.15660134087E+04  0.17326743557E+04  0.50400001928E-02 0.  1.
       -1    1    3    3    0  502 -0.71297020117E+03 -0.20355814607E+03  0.33143965098E+03  0.81216665092E+03  0.50400001928E-02 0. -1.
</event>
<event>
 5   0  0.1252124E-04  0.2198436E+04  0.7818609E-02  0.8519079E-01
       -2   -1    0    0    0  501  0.00000000000E+00  0.00000000000E+00  0.78296276792E+03  0.78296276793E+03  0.25500000920E-02 0.  1.
        2   -1    0    0  501    0  0.00000000000E+00  0.00000000000E+00 -0.15432155839E+04  0.15432155839E+04  0.25500000920E-02 0. -1.
    10030    2    1    2    0    0  0.00000000000E+00  0.00000000000E+00 -0.76025281599E+03  0.23261783518E+04  0.21984361215E+04 0.  0.
        3    1    3    3  502    0  0.10845411706E+04 -0.17143369724E+03 -0.43471146419E+03  0.11809289270E+04  0.10100000352E+00 0.  1.
       -3    1    3    3    0  502 -0.10845411706E+04  0.17143369724E+03 -0.32554135180E+03  0.11452494249E+04  0.10100000352E+00 0. -1.
</event>
<event>
 5   0  0.1241430E-04  0.2224679E+04  0.7818609E-02  0.8508226E-01
        2   -1    0    0  501    0  0.00000000000E+00  0.00000000000E+00  0.13918857930E+04  0.13918857930E+04  0.25500000920E-02 0. -1.
       -2   -1    0    0    0  501  0.00000000000E+00  0.00000000000E+00 -0.88893757950E+03  0.88893757950E+03  0.25500000920E-02 0.  1.
    10030    2    1    2    0    0  0.00000000000E+00  0.00000000000E+00  0.50294821345E+03  0.22808233725E+04  0.22246793816E+04 0.  0.
        1    1    3    3  502    0 -0.67766032572E+03  0.63276996707E+03  0.88153889069E+03  0.12793483357E+04  0.50400001928E-02 0. -1.
       -1    1    3    3    0  502  0.67766032572E+03 -0.63276996707E+03 -0.37859067724E+03  0.10014750367E+04  0.50400001928E-02 0.  1.
</event>
<event>
 5   0  0.1241430E-04  0.2189108E+04  0.7818609E-02  0.8522975E-01
       -2   -1    0    0    0  501  0.00000000000E+00  0.00000000000E+00  0.10149322179E+04  0.10149322179E+04  0.25500000920E-02 0.  1.
        2   -1    0    0  501    0  0.00000000000E+00  0.00000000000E+00 -0.11804221968E+04  0.11804221968E+04  0.25500000920E-02 0. -1.
    10030    2    1    2    0    0  0.00000000000E+00  0.00000000000E+00 -0.16548997887E+03  0.21953544147E+04  0.21891080543E+04 0.  0.
        1    1    3    3  502    0  0.90314785859E+03  0.50597359357E+03 -0.43923529788E+03  0.11245501228E+04  0.50400001928E-02 0.  1.
       -1    1    3    3    0  502 -0.90314785859E+03 -0.50597359357E+03  0.27374531901E+03  0.10708042919E+04  0.50400001928E-02 0. -1.
</event>
<event>
 5   0  0.1404159E-04  0.1723411E+04  0.7818609E-02  0.8748124E-01
       -2   -1    0    0    0  501  0.00000000000E+00  0.00000000000E+00  0.41654778606E+03  0.41654778607E+03  0.25500000920E-02 0.  1.
        2   -1    0    0  501    0  0.00000000000E+00  0.00000000000E+00 -0.17825956504E+04  0.17825956504E+04  0.25500000920E-02 0. -1.
    10030    2    1    2    0    0  0.00000000000E+00  0.00000000000E+00 -0.13660478643E+04  0.21991434365E+04  0.17234108873E+04 0.  0.
        5    1    3    3  502    0 -0.58285963234E+03  0.61416250514E+03 -0.88716361049E+03  0.12263777132E+04  0.46999998093E+01 0. -1.
       -5    1    3    3    0  502  0.58285963234E+03 -0.61416250514E+03 -0.47888425385E+03  0.97276572324E+03  0.46999998093E+01 0.  1.
</event>
<event>
 5   0  0.5895063E-05  0.2379856E+04  0.7818609E-02  0.8447084E-01
       -1   -1    0    0    0  501  0.00000000000E+00  0.00000000000E+00  0.13974782113E+04  0.13974782113E+04  0.50400001928E-02 0. -1.
        1   -1    0    0  501    0  0.00000000000E+00  0.00000000000E+00 -0.10132027965E+04  0.10132027965E+04  0.50400001928E-02 0.  1.
    10030    2    1    2    0    0  0.00000000000E+00  0.00000000000E+00  0.38427541477E+03  0.24106810078E+04  0.23798561568E+04 0.  0.
        5    1    3    3  502    0 -0.53327845796E+03 -0.95870668317E+02 -0.88098467950E+03  0.10342790698E+04  0.46999998093E+01 0.  1.
       -5    1    3    3    0  502  0.53327845796E+03  0.95870668317E+02  0.12652600943E+04  0.13764019380E+04  0.46999998093E+01 0. -1.
</event>
<event>
 5   0  0.1252124E-04  0.2197900E+04  0.7818609E-02  0.8519303E-01
        2   -1    0    0  501    0  0.00000000000E+00  0.00000000000E+00  0.14915753071E+04  0.14915753071E+04  0.25500000920E-02 0.  1.
       -2   -1    0    0    0  501  0.00000000000E+00  0.00000000000E+00 -0.80967494451E+03  0.80967494452E+03  0.25500000920E-02 0. -1.
    10030    2    1    2    0    0  0.00000000000E+00  0.00000000000E+00  0.68190036259E+03  0.23012502516E+04  0.21979000469E+04 0.  0.
        3    1    3    3  502    0 -0.53501012825E+03  0.40696435643E+03 -0.56931829264E+03  0.88089678923E+03  0.10100000352E+00 0. -1.
       -3    1    3    3    0  502  0.53501012825E+03 -0.40696435643E+03  0.12512186552E+04  0.14203534624E+04  0.10100000352E+00 0.  1.
</event>
<event>
 5   0  0.5849604E-05  0.2274079E+04  0.7818609E-02  0.8488212E-01
        1   -1    0    0  501    0  0.00000000000E+00  0.00000000000E+00  0.13309320206E+04  0.13309320206E+04  0.50400001928E-02 0.  1.
       -1   -1    0    0    0  501  0.00000000000E+00  0.00000000000E+00 -0.97139345420E+03  0.97139345422E+03  0.50400001928E-02 0. -1.
    10030    2    1    2    0    0  0.00000000000E+00  0.00000000000E+00  0.35953856636E+03  0.23023254748E+04  0.22740788489E+04 0.  0.
        2    1    3    3  502    0 -0.31902953212E+03  0.10085830203E+04  0.60188831598E+03  0.12170822060E+04  0.25500000920E-02 0.  1.
       -2    1    3    3    0  502  0.31902953212E+03 -0.10085830203E+04 -0.24234974962E+03  0.10852432688E+04  0.25500000920E-02 0. -1.
</event>
<event>
 5   0  0.5861816E-05  0.2224718E+04  0.7818609E-02  0.8508210E-01
        1   -1    0    0  501    0  0.00000000000E+00  0.00000000000E+00  0.99523046668E+03  0.99523046669E+03  0.50400001928E-02 0.  1.
       -1   -1    0    0    0  501  0.00000000000E+00  0.00000000000E+00 -0.12432725699E+04  0.12432725700E+04  0.50400001928E-02 0. -1.
    10030    2    1    2    0    0  0.00000000000E+00  0.00000000000E+00 -0.24804210327E+03  0.22385030366E+04  0.22247181754E+04 0.  0.
        1    1    3    3  502    0 -0.44538751920E+03 -0.79057540105E+03 -0.77140744908E+03  0.11909865488E+04  0.50400001928E-02 0. -1.
       -1    1    3    3    0  502  0.44538751920E+03  0.79057540105E+03  0.52336534581E+03  0.10475164878E+04  0.50400001928E-02 0.  1.
</event>
<event>
 5   0  0.6263558E-05  0.2283237E+04  0.7818609E-02  0.8484560E-01
       -1   -1    0    0    0  501  0.00000000000E+00  0.00000000000E+00  0.13559351330E+04  0.13559351331E+04  0.50400001928E-02 0. -1.
        1   -1    0    0  501    0  0.00000000000E+00  0.00000000000E+00 -0.96117620098E+03  0.96117620099E+03  0.50400001928E-02 0.  1.
    10030    2    1    2    0    0  0.00000000000E+00  0.00000000000E+00  0.39475893207E+03  0.23171113340E+04  0.22832368077E+04 0.  0.
        3    1    3    3  502    0 -0.97811130781E+02  0.22374453008E+03 -0.93436261725E+03  0.96574434648E+03  0.10100000352E+00 0.  1.
       -3    1    3    3    0  502  0.97811130781E+02 -0.22374453008E+03  0.13291215493E+04  0.13513669876E+04  0.10100000352E+00 0. -1.
</event>
<event>
 5   0  0.6263558E-05  0.2203177E+04  0.7818609E-02  0.8517107E-01
        1   -1    0    0  501    0  0.00000000000E+00  0.00000000000E+00  0.10477002650E+04  0.10477002650E+04  0.50400001928E-02 0.  1.
       -1   -1    0    0    0  501  0.00000000000E+00  0.00000000000E+00 -0.11582488050E+04  0.11582488050E+04  0.50400001928E-02 0. -1.
    10030    2    1    2    0    0  0.00000000000E+00  0.00000000000E+00 -0.11054853999E+03  0.22059490701E+04  0.22031773238E+04 0.  0.
        3    1    3    3  502    0 -0.17413898001E+03  0.99015067204E+03  0.39559750999E+03  0.10803796267E+04  0.10100000352E+00 0.  1.
       -3    1    3    3    0  502  0.17413898001E+03 -0.99015067204E+03 -0.50614604998E+03  0.11255694434E+04  0.10100000352E+00 0. -1.
</event>
<event>
 5   0  0.1226021E-04  0.1426250E+04  0.7818609E-02  0.8935034E-01
        2   -1    0    0  501    0  0.00000000000E+00  0.00000000000E+00  0.10295011138E+04  0.10295011138E+04  0.25500000920E-02 0. -1.
       -2   -1    0    0    0  501  0.00000000000E+00  0.00000000000E+00 -0.49397429943E+03  0.49397429944E+03  0.25500000920E-02 0.  1.
    10030    2    1    2    0    0  0.00000000000E+00  0.00000000000E+00  0.53552681437E+03  0.15234754132E+04  0.14262497558E+04 0.  0.
        2    1    3    3  502    0 -0.22049505749E+03  0.66455086042E+03  0.12325957868E+03  0.71094222002E+03  0.25500000920E-02 0. -1.
       -2    1    3    3    0  502  0.22049505749E+03 -0.66455086042E+03  0.41226723569E+03  0.81253319322E+03  0.25500000920E-02 0.  1.
</event>
<event>
 5   0  0.5895063E-05  0.2200046E+04  0.7818609E-02  0.8518409E-01
        1   -1    0    0  501    0  0.00000000000E+00  0.00000000000E+00  0.42642100244E+03  0.42642100247E+03  0.50400001928E-02 0. -1.
       -1   -1    0    0    0  501  0.00000000000E+00  0.00000000000E+00 -0.28376890602E+04  0.28376890602E+04  0.50400001928E-02 0.  1.
    10030    2    1    2    0    0  0.00000000000E+00  0.00000000000E+00 -0.24112680578E+04  0.32641100627E+04  0.22000456484E+04 0.  0.
        5    1    3    3  502    0  0.41083408986E+03  0.10193894735E+04 -0.11378295783E+04  0.15819664305E+04  0.46999998093E+01 0. -1.
       -5    1    3    3    0  502 -0.41083408986E+03 -0.10193894735E+04 -0.12734384795E+04  0.16821436322E+04  0.46999998093E+01 0.  1.
</event>
<event>
 5   0  0.1404159E-04  0.2272943E+04  0.7818609E-02  0.8488666E-01
       -2   -1    0    0    0  501  0.00000000000E+00  0.00000000000E+00  0.11450614217E+04  0.11450614217E+04  0.25500000920E-02 0. -1.
        2   -1    0    0  501    0  0.00000000000E+00  0.00000000000E+00 -0.11279460006E+04  0.11279460006E+04  0.25500000920E-02 0.  1.
    10030    2    1    2    0    0  0.00000000000E+00  0.00000000000E+00  0.17115421097E+02  0.22730074222E+04  0.22729429830E+04 0.  0.
        5    1    3    3  502    0  0.30671844129E+03  0.84173615117E+03  0.70782671099E+03  0.11417691068E+04  0.46999998093E+01 0. -1.
       -5    1    3    3    0  502 -0.30671844129E+03 -0.84173615117E+03 -0.69071128989E+03  0.11312383155E+04  0.46999998093E+01 0.  1.
</event>
<event>
 5   0  0.5849604E-05  0.2177907E+04  0.7818609E-02  0.8527680E-01
       -1   -1    0    0    0  501  0.00000000000E+00  0.00000000000E+00  0.10325037279E+04  0.10325037279E+04  0.50400001928E-02 0.  1.
        1   -1    0    0  501    0  0.00000000000E+00  0.00000000000E+00 -0.11484897844E+04  0.11484897845E+04  0.50400001928E-02 0. -1.
    10030    2    1    2    0    0  0.00000000000E+00  0.00000000000E+00 -0.11598605659E+03  0.21809935123E+04  0.21779072376E+04 0.  0.
        2    1    3    3  502    0  0.37124860538E+01  0.78067854206E+03 -0.81824419471E+03  0.11309271996E+04  0.25500000920E-02 0. -1.
       -2    1    3    3    0  502 -0.37124860538E+01 -0.78067854206E+03  0.70225813813E+03  0.10500663127E+04  0.25500000920E-02 0.  1.
</event>
<event>
 5   0  0.1404159E-04  0.2151343E+04  0.7818609E-02  0.8538957E-01
       -2   -1    0    0    0  501  0.00000000000E+00  0.00000000000E+00  0.77544047929E+03  0.77544047929E+03  0.25500000920E-02 0. -1.
        2   -1    0    0  501    0  0.00000000000E+00  0.00000000000E+00 -0.14921450739E+04  0.14921450740E+04  0.25500000920E-02 0.  1.
    10030    2    1    2    0    0  0.00000000000E+00  0.00000000000E+00 -0.71670459466E+03  0.22675855532E+04  0.21513434792E+04 0.  0.
        5    1    3    3  502    0  0.77420870294E+03  0.11878474116E+03  0.41873382112E+03  0.88818299544E+03  0.46999998093E+01 0. -1.
       -5    1    3    3    0  502 -0.77420870294E+03 -0.11878474116E+03 -0.11354384158E+04  0.13794025578E+04  0.46999998093E+01 0.  1.
</event>
<event>
 5   0  0.5861816E-05  0.2151513E+04  0.7818609E-02  0.8538885E-01
       -1   -1    0    0    0  501  0.00000000000E+00  0.00000000000E+00  0.70997732056E+03  0.70997732058E+03  0.50400001928E-02 0.  1.
        1   -1    0    0  501    0  0.00000000000E+00  0.00000000000E+00 -0.16299843155E+04  0.16299843155E+04  0.50400001928E-02 0. -1.
    10030    2    1    2    0    0  0.00000000000E+00  0.00000000000E+00 -0.92000699489E+03  0.23399616360E+04  0.21515128602E+04 0.  0.
        1    1    3    3  502    0  0.60227056565E+03  0.36315089192E+03 -0.13453326384E+04  0.15180672951E+04  0.50400001928E-02 0. -1.
       -1    1    3    3    0  502 -0.60227056565E+03 -0.36315089192E+03  0.42532564352E+03  0.82189434091E+03  0.50400001928E-02 0.  1.
</event>
<event>
 5   0  0.5849604E-05  0.2110401E+04  0.7818609E-02  0.8556675E-01
       -1   -1    0    0    0  501  0.00000000000E+00  0.00000000000E+00  0.71699169457E+03  0.71699169459E+03  0.50400001928E-02 0.  1.
        1   -1    0    0  501    0  0.00000000000E+00  0.00000000000E+00 -0.15529446524E+04  0.15529446524E+04  0.50400001928E-02 0. -1.
    10030    2    1    2    0    0  0.00000000000E+00  0.00000000000E+00 -0.83595295786E+03  0.22699363470E+04  0.21104013059E+04 0.  0.
        2    1    3    3  502    0 -0.25693513677E+03  0.10158840590E+04 -0.28444526025E+03  0.10857924258E+04  0.25500000920E-02 0.  1.
       -2    1    3    3    0  502  0.25693513677E+03 -0.10158840590E+04 -0.55150769761E+03  0.11841439213E+04  0.25500000920E-02 0. -1.
</event>
<event>
 5   0  0.1241430E-04  0.2212519E+04  0.7818609E-02  0.8513236E-01
       -2   -1    0    0    0  501  0.00000000000E+00  0.00000000000E+00  0.10135974946E+04  0.10135974946E+04  0.25500000920E-02 0. -1.
        2   -1    0    0  501    0  0.00000000000E+00  0.00000000000E+00 -0.12073923684E+04  0.12073923684E+04  0.25500000920E-02 0.  1.
    10030    2    1    2    0    0  0.00000000000E+00  0.00000000000E+00 -0.19379487375E+03  0.22209898630E+04  0.22125188176E+04 0.  0.
        1    1    3    3  502    0  0.66203014660E+03  0.38379580112E+03  0.70505221621E+03  0.10405199467E+04  0.50400001928E-02 0. -1.
       -1    1    3    3    0  502 -0.66203014660E+03 -0.38379580112E+03 -0.89884708996E+03  0.11804699162E+04  0.50400001928E-02 0.  1.
</event>
<event>
 5   0  0.1241430E-04  0.1775262E+04  0.7818609E-02  0.8719566E-01
        2   -1    0    0  501    0  0.00000000000E+00  0.00000000000E+00  0.90948643023E+03  0.90948643024E+03  0.25500000920E-02 0. -1.
       -2   -1    0    0    0  501  0.00000000000E+00  0.00000000000E+00 -0.86630094946E+03  0.86630094946E+03  0.25500000920E-02 0.  1.
    10030    2    1    2    0    0  0.00000000000E+00  0.00000000000E+00  0.43185480773E+02  0.17757873797E+04  0.17752621869E+04 0.  0.
        1    1    3    3  502    0  0.20618015541E+02  0.73990505404E+03  0.51164007794E+03  0.89981118072E+03  0.50400001928E-02 0. -1.
       -1    1    3    3    0  502 -0.20618015541E+02 -0.73990505404E+03 -0.46845459717E+03  0.87597619899E+03  0.50400001928E-02 0.  1.
</event>
<event>
 5   0  0.4586375E-05  0.2191130E+04  0.7818609E-02  0.8522129E-01
       -3   -1    0    0    0  501  0.00000000000E+00  0.00000000000E+00  0.10323737864E+04  0.10323737914E+04  0.10100000352E+00 0. -1.
        3   -1    0    0  501    0  0.00000000000E+00  0.00000000000E+00 -0.11626245213E+04  0.11626245257E+04  0.10100000352E+00 0.  1.
    10030    2    1    2    0    0  0.00000000000E+00  0.00000000000E+00 -0.13025073490E+03  0.21949983171E+04  0.21911303836E+04 0.  0.
        1    1    3    3  502    0 -0.84046036601E+03  0.11325174765E+03 -0.75993715195E+03  0.11387291426E+04  0.50400001928E-02 0.  1.
       -1    1    3    3    0  502  0.84046036601E+03 -0.11325174765E+03  0.62968641705E+03  0.10562691745E+04  0.50400001928E-02 0. -1.
</event>
<event>
 5   0  0.5981239E-05  0.2237177E+04  0.7818609E-02  0.8503112E-01
       -1   -1    0    0    0  501  0.00000000000E+00  0.00000000000E+00  0.16208944969E+04  0.16208944969E+04  0.50400001928E-02 0. -1.
        1   -1    0    0  501    0  0.00000000000E+00  0.00000000000E+00 -0.77194399841E+03  0.77194399843E+03  0.50400001928E-02 0.  1.
    10030    2    1    2    0    0  0.00000000000E+00  0.00000000000E+00  0.84895049852E+03  0.23928384954E+04  0.22371765947E+04 0.  0.
        4    1    3    3  502    0  0.61157594283E+02 -0.83705278082E+02 -0.76679415657E+03  0.77377110076E+03  0.12699999809E+01 0.  1.
       -4    1    3    3    0  502 -0.61157594283E+02  0.83705278082E+02  0.16157446551E+04  0.16190673946E+04  0.12699999809E+01 0. -1.
</event>
<event>
 5   0  0.1404159E-04  0.2197567E+04  0.7818609E-02  0.8519441E-01
        2   -1    0    0  501    0  0.00000000000E+00  0.00000000000E+00  0.20319259250E+04  0.20319259250E+04  0.25500000920E-02 0. -1.
       -2   -1    0    0    0  501  0.00000000000E+00  0.00000000000E+00 -0.59417792906E+03  0.59417792906E+03  0.25500000920E-02 0.  1.
    10030    2    1    2    0    0  0.00000000000E+00  0.00000000000E+00  0.14377479959E+04  0.26261038541E+04  0.21975673260E+04 0.  0.
        5    1    3    3  502    0 -0.24896860199E+03 -0.70402760466E+03  0.16820681705E+04  0.18403846481E+04  0.46999998093E+01 0. -1.
       -5    1    3    3    0  502  0.24896860199E+03  0.70402760466E+03 -0.24432017454E+03  0.78571920594E+03  0.46999998093E+01 0.  1.
</event>
<event>
 5   0  0.5895063E-05  0.2197370E+04  0.7818609E-02  0.8519523E-01
        1   -1    0    0  501    0  0.00000000000E+00  0.00000000000E+00  0.88403915589E+03  0.88403915591E+03  0.50400001928E-02 0. -1.
       -1   -1    0    0    0  501  0.00000000000E+00  0.00000000000E+00 -0.13654473783E+04  0.13654473783E+04  0.50400001928E-02 0.  1.
    10030    2    1    2    0    0  0.00000000000E+00  0.00000000000E+00 -0.48140822241E+03  0.22494865342E+04  0.21973701989E+04 0.  0.
        5    1    3    3  502    0 -0.25203399236E+03  0.99279471377E+03 -0.64752641875E+03  0.12118065151E+04  0.46999998093E+01 0.  1.
       -5    1    3    3    0  502  0.25203399236E+03 -0.99279471377E+03  0.16611819634E+03  0.10376800191E+04  0.46999998093E+01 0. -1.
</event>
<event>
 5   0  0.5849604E-05  0.1491724E+04  0.7818609E-02  0.8889975E-01
       -1   -1    0    0    0  501  0.00000000000E+00  0.00000000000E+00  0.10596302774E+04  0.10596302774E+04  0.50400001928E-02 0. -1.
        1   -1    0    0  501    0  0.00000000000E+00  0.00000000000E+00 -0.52500393604E+03  0.52500393606E+03  0.50400001928E-02 0.  1.
    10030    2    1    2    0    0  0.00000000000E+00  0.00000000000E+00  0.53462634135E+03  0.15846342135E+04  0.14917239241E+04 0.  0.
        2    1    3    3  502    0  0.59488382097E+03  0.14283121913E+03  0.72052701643E+03  0.94522309484E+03  0.25500000920E-02 0.  1.
       -2    1    3    3    0  502 -0.59488382097E+03 -0.14283121913E+03 -0.18590067508E+03  0.63941111862E+03  0.25500000920E-02 0. -1.
</event>
<event>
 5   0  0.1404159E-04  0.2231078E+04  0.7818609E-02  0.8505603E-01
       -2   -1    0    0    0  501  0.00000000000E+00  0.00000000000E+00  0.11938987286E+04  0.11938987286E+04  0.25500000920E-02 0.  1.
        2   -1    0    0  501    0  0.00000000000E+00  0.00000000000E+00 -0.10423226958E+04  0.10423226958E+04  0.25500000920E-02 0. -1.
    10030    2    1    2    0    0  0.00000000000E+00  0.00000000000E+00  0.15157603282E+03  0.22362214243E+04  0.22310784309E+04 0.  0.
        5    1    3    3  502    0  0.36357798860E+03  0.10544723229E+04  0.58288741714E+02  0.11169245726E+04  0.46999998093E+01 0.  1.
       -5    1    3    3    0  502 -0.36357798860E+03 -0.10544723229E+04  0.93287291102E+02  0.11192968517E+04  0.46999998093E+01 0. -1.
</event>
<event>
 5   0  0.1241430E-04  0.2157780E+04  0.7818609E-02  0.8536210E-01
        2   -1    0    0  501    0  0.00000000000E+00  0.00000000000E+00  0.11153038661E+04  0.11153038661E+04  0.25500000920E-02 0. -1.
       -2   -1    0    0    0  501  0.00000000000E+00  0.00000000000E+00 -0.10436647167E+04  0.10436647167E+04  0.25500000920E-02 0.  1.
    10030    2    1    2    0    0  0.00000000000E+00  0.00000000000E+00  0.71639149335E+02  0.21589685828E+04  0.21577796861E+04 0.  0.
        1    1    3    3  502    0 -0.98523469351E+03 -0.34450378399E+03  0.30916057129E+03  0.10885543245E+04  0.50400001928E-02 0. -1.
       -1    1    3    3    0  502  0.98523469351E+03  0.34450378399E+03 -0.23752142196E+03  0.10704142583E+04  0.50400001928E-02 0.  1.
</event>
<event>
 5   0  0.5849604E-05  0.2392216E+04  0.7818609E-02  0.8442424E-01
       -1   -1    0    0    0  501  0.00000000000E+00  0.00000000000E+00  0.13728670979E+04  0.13728670979E+04  0.50400001928E-02 0. -1.
        1   -1    0    0  501    0  0.00000000000E+00  0.00000000000E+00 -0.10421066538E+04  0.10421066538E+04  0.50400001928E-02 0.  1.
    10030    2    1    2    0    0  0.00000000000E+00  0.00000000000E+00  0.33076044405E+03  0.24149737517E+04  0.23922156571E+04 0.  0.
        2    1    3    3  502    0 -0.50768486601E+02  0.11785964848E+04  0.36476058559E+03  0.12347944760E+04  0.25500000920E-02 0.  1.
       -2    1    3    3    0  502  0.50768486601E+02 -0.11785964848E+04 -0.34000141546E+02  0.11801792757E+04  0.25500000920E-02 0. -1.
</event>
<event>
 5   0  0.5895063E-05  0.2179194E+04  0.7818609E-02  0.8527138E-01
       -1   -1    0    0    0  501  0.00000000000E+00  0.00000000000E+00  0.56359934760E+03  0.56359934762E+03  0.50400001928E-02 0.  1.
        1   -1    0    0  501    0  0.00000000000E+00  0.00000000000E+00 -0.21064988316E+04  0.21064988316E+04  0.50400001928E-02 0. -1.
    10030    2    1    2    0    0  0.00000000000E+00  0.00000000000E+00 -0.15428994840E+04  0.26700981792E+04  0.21791937658E+04 0.  0.
        5    1    3    3  502    0  0.24642970150E+03 -0.35184185341E+03  0.45545922390E+03  0.62608743976E+03  0.46999998093E+01 0.  1.
       -5    1    3    3    0  502 -0.24642970150E+03  0.35184185341E+03 -0.19983587079E+04  0.20440107394E+04  0.46999998093E+01 0. -1.
</event>
<event>
 5   0  0.6263558E-05  0.2222175E+04  0.7818609E-02  0.8509255E-01
       -1   -1    0    0    0  501  0.00000000000E+00  0.00000000000E+00  0.15344675123E+04  0.15344675123E+04  0.50400001928E-02 0.  1.
        1   -1    0    0  501    0  0.00000000000E+00  0.00000000000E+00 -0.80452392221E+03  0.80452392223E+03  0.50400001928E-02 0. -1.
    10030    2    1    2    0    0  0.00000000000E+00  0.00000000000E+00  0.72994359005E+03  0.23389914345E+04  0.22221753500E+04 0.  0.
        3    1    3    3  502    0 -0.10664925770E+04 -0.22892127103E+03  0.58752080397E+03  0.12389479693E+04  0.10100000352E+00 0.  1.
       -3    1    3    3    0  502  0.10664925770E+04  0.22892127103E+03  0.14242278609E+03  0.11000434652E+04  0.10100000352E+00 0. -1.
</event>
<event>
 5   0  0.6263558E-05  0.2190744E+04  0.7818609E-02  0.8522291E-01
       -1   -1    0    0    0  501  0.00000000000E+00  0.00000000000E+00  0.93743498237E+03  0.93743498238E+03  0.50400001928E-02 0. -1.
        1   -1    0    0  501    0  0.00000000000E+00  0.00000000000E+00 -0.12799176191E+04  0.12799176191E+04  0.50400001928E-02 0.  1.
    10030    2    1    2    0    0  0.00000000000E+00  0.00000000000E+00 -0.34248263672E+03  0.22173526015E+04  0.21907437556E+04 0.  0.
        3    1    3    3  502    0  0.12278918370E+03 -0.19596590353E+03  0.91244511481E+03  0.94129480861E+03  0.10100000352E+00 0. -1.
       -3    1    3    3    0  502 -0.12278918370E+03  0.19596590353E+03 -0.12549277515E+04  0.12760577929E+04  0.10100000352E+00 0.  1.
</event>
<event>
 5   0  0.5895063E-05  0.2234577E+04  0.7818609E-02  0.8504173E-01
       -1   -1    0    0    0  501  0.00000000000E+00  0.00000000000E+00  0.10344329621E+04  0.10344329621E+04  0.50400001928E-02 0.  1.
        1   -1    0    0  501    0  0.00000000000E+00  0.00000000000E+00 -0.12067808872E+04  0.12067808872E+04  0.50400001928E-02 0. -1.
    10030    2    1    2    0    0  0.00000000000E+00  0.00000000000E+00 -0.17234792509E+03  0.22412138493E+04  0.22345773003E+04 0.  0.
        5    1    3    3  502    0  0.70935148536E+03  0.10517945365E+03 -0.94549715148E+03  0.11866883334E+04  0.46999998093E+01 0. -1.
       -5    1    3    3    0  502 -0.70935148536E+03 -0.10517945365E+03  0.77314922639E+03  0.10545255158E+04  0.46999998093E+01 0.  1.
</event>
<event>
 5   0  0.5981239E-05  0.2178554E+04  0.7818609E-02  0.8527408E-01
       -1   -1    0    0    0  501  0.00000000000E+00  0.00000000000E+00  0.75437549940E+03  0.75437549941E+03  0.50400001928E-02 0. -1.
        1   -1    0    0  501    0  0.00000000000E+00  0.00000000000E+00 -0.15728564443E+04  0.15728564443E+04  0.50400001928E-02 0.  1.
    10030    2    1    2    0    0  0.00000000000E+00  0.00000000000E+00 -0.81848094487E+03  0.23272319437E+04  0.21785539843E+04 0.  0.
        4    1    3    3  502    0  0.40974100389E+03 -0.63162342522E+03 -0.12501659390E+04  0.14593670990E+04  0.12699999809E+01 0.  1.
       -4    1    3    3    0  502 -0.40974100389E+03  0.63162342522E+03  0.43168499418E+03  0.86786484470E+03  0.12699999809E+01 0. -1.
</event>
<event>
 5   0  0.5895063E-05  0.2258464E+04  0.7818609E-02  0.8494481E-01
        1   -1    0    0  501    0  0.00000000000E+00  0.00000000000E+00  0.98257413902E+03  0.98257413903E+03  0.50400001928E-02 0. -1.
       -1   -1    0    0    0  501  0.00000000000E+00  0.00000000000E+00 -0.12977794285E+04  0.12977794285E+04  0.50400001928E-02 0.  1.
    10030    2    1    2    0    0  0.00000000000E+00  0.00000000000E+00 -0.31520528951E+03  0.22803535676E+04  0.22584636412E+04 0.  0.
        5    1    3    3  502    0 -0.98339354046E+03  0.15520715577E+03  0.38046990637E+03  0.10658008990E+04  0.46999998093E+01 0. -1.
       -5    1    3    3    0  502  0.98339354046E+03 -0.15520715577E+03 -0.69567519588E+03  0.12145526686E+04  0.46999998093E+01 0.  1.
</event>
<event>
 5   0  0.1311472E-04  0.2143371E+04  0.7818609E-02  0.8542375E-01
       -2   -1    0    0    0  501  0.00000000000E+00  0.00000000000E+00  0.60452555100E+03  0.60452555100E+03  0.25500000920E-02 0. -1.
        2   -1    0    0  501    0  0.00000000000E+00  0.00000000000E+00 -0.18998530969E+04  0.18998530969E+04  0.25500000920E-02 0.  1.
    10030    2    1    2    0    0  0.00000000000E+00  0.00000000000E+00 -0.12953275459E+04  0.25043786479E+04  0.21433709340E+04 0.  0.
        4    1    3    3  502    0  0.59475401125E+03 -0.80162264489E+03 -0.11034666505E+04  0.14879420218E+04  0.12699999809E+01 0.  1.
       -4    1    3    3    0  502 -0.59475401125E+03  0.80162264489E+03 -0.19186089539E+03  0.10164366260E+04  0.12699999809E+01 0. -1.
</event>
<event>
 5   0  0.5895063E-05  0.2139118E+04  0.7818609E-02  0.8544205E-01
        1   -1    0    0  501    0  0.00000000000E+00  0.00000000000E+00  0.16573102932E+04  0.16573102932E+04  0.50400001928E-02 0.  1.
       -1   -1    0    0    0  501  0.00000000000E+00  0.00000000000E+00 -0.69024860083E+03  0.69024860085E+03  0.50400001928E-02 0. -1.
    10030    2    1    2    0    0  0.00000000000E+00  0.00000000000E+00  0.96706169241E+03  0.23475588941E+04  0.21391176789E+04 0.  0.
        5    1    3    3  502    0 -0.10016484651E+04 -0.31033977071E+03  0.25248437857E+03  0.10786013501E+04  0.46999998093E+01 0.  1.
       -5    1    3    3    0  502  0.10016484651E+04  0.31033977071E+03  0.71457731384E+03  0.12689575440E+04  0.46999998093E+01 0. -1.
</event>
<event>
 5   0  0.1252124E-04  0.1969406E+04  0.7818609E-02  0.8621060E-01
       -2   -1    0    0    0  501  0.00000000000E+00  0.00000000000E+00  0.62923297381E+03  0.62923297381E+03  0.25500000920E-02 0.  1.
        2   -1    0    0  501    0  0.00000000000E+00  0.00000000000E+00 -0.15409866064E+04  0.15409866064E+04  0.25500000920E-02 0. -1.
    10030    2    1    2    0    0  0.00000000000E+00  0.00000000000E+00 -0.91175363264E+03  0.21702195803E+04  0.19694055803E+04 0.  0.
        3    1    3    3  502    0  0.24598803782E+03 -0.11930639276E+03  0.58657181147E+03  0.64715580065E+03  0.10100000352E+00 0.  1.
       -3    1    3    3    0  502 -0.24598803782E+03  0.11930639276E+03 -0.14983254441E+04  0.15230637796E+04  0.10100000352E+00 0. -1.
</event>
<event>
 5   0  0.1252124E-04  0.2211210E+04  0.7818609E-02  0.8513777E-01
       -2   -1    0    0    0  501  0.00000000000E+00  0.00000000000E+00  0.87636432147E+03  0.87636432147E+03  0.25500000920E-02 0.  1.
        2   -1    0    0  501    0  0.00000000000E+00  0.00000000000E+00 -0.13948112800E+04  0.13948112800E+04  0.25500000920E-02 0. -1.
    10030    2    1    2    0    0  0.00000000000E+00  0.00000000000E+00 -0.51844695856E+03  0.22711756015E+04  0.22112103844E+04 0.  0.
        3    1    3    3  502    0 -0.37261537011E+03 -0.21417520397E+03 -0.13054988690E+04  0.13744237117E+04  0.10100000352E+00 0. -1.
       -3    1    3    3    0  502  0.37261537011E+03  0.21417520397E+03  0.78705191043E+03  0.89675188985E+03  0.10100000352E+00 0.  1.
</event>
<event>
 5   0  0.4586375E-05  0.2160724E+04  0.7818609E-02  0.8534956E-01
       -4   -1    0    0    0  501  0.00000000000E+00  0.00000000000E+00  0.11534157513E+04  0.11534164504E+04  0.12699999809E+01 0. -1.
        4   -1    0    0  501    0  0.00000000000E+00  0.00000000000E+00 -0.10119336902E+04  0.10119344872E+04  0.12699999809E+01 0.  1.
    10030    2    1    2    0    0  0.00000000000E+00  0.00000000000E+00  0.14148206104E+03  0.21653509376E+04  0.21607238392E+04 0.  0.
        2    1    3    3  502    0 -0.52003329459E+03  0.86616769849E+03 -0.31283280868E+03  0.10576131030E+04  0.25500000920E-02 0.  1.
       -2    1    3    3    0  502  0.52003329459E+03 -0.86616769849E+03  0.45431486972E+03  0.11077378346E+04  0.25500000920E-02 0. -1.
</event>
<event>
 5   0  0.1404159E-04  0.1556757E+04  0.7818609E-02  0.8847564E-01
        2   -1    0    0  501    0  0.00000000000E+00  0.00000000000E+00  0.84408466458E+03  0.84408466459E+03  0.25500000920E-02 0. -1.
       -2   -1    0    0    0  501  0.00000000000E+00  0.00000000000E+00 -0.71778673580E+03  0.71778673580E+03  0.25500000920E-02 0.  1.
    10030    2    1    2    0    0  0.00000000000E+00  0.00000000000E+00  0.12629792878E+03  0.15618714004E+04  0.15567565977E+04 0.  0.
        5    1    3    3  502    0  0.55672528386E+03 -0.27792345170E+03 -0.40600499505E+03  0.74299840693E+03  0.46999998093E+01 0.  1.
       -5    1    3    3    0  502 -0.55672528386E+03  0.27792345170E+03  0.53230292383E+03  0.81887299346E+03  0.46999998093E+01 0. -1.
</event>
<event>
 5   0  0.5895063E-05  0.2209632E+04  0.7818609E-02  0.8514430E-01
       -1   -1    0    0    0  501  0.00000000000E+00  0.00000000000E+00  0.48820145227E+03  0.48820145230E+03  0.50400001928E-02 0. -1.
        1   -1    0    0  501    0  0.00000000000E+00  0.00000000000E+00 -0.25002342305E+04  0.25002342305E+04  0.50400001928E-02 0.  1.
    10030    2    1    2    0    0  0.00000000000E+00  0.00000000000E+00 -0.20120327783E+04  0.29884356828E+04  0.22096316276E+04 0.  0.
        5    1    3    3  502    0 -0.46858213344E+03  0.58724320962E+03  0.89535400353E+02  0.75661250382E+03  0.46999998093E+01 0. -1.
       -5    1    3    3    0  502  0.46858213344E+03 -0.58724320962E+03 -0.21015681786E+04  0.22318231790E+04  0.46999998093E+01 0.  1.
</event>
<event>
 5   0  0.5849604E-05  0.1846334E+04  0.7818609E-02  0.8682041E-01
        1   -1    0    0  501    0  0.00000000000E+00  0.00000000000E+00  0.61069634907E+03  0.61069634910E+03  0.50400001928E-02 0.  1.
       -1   -1    0    0    0  501  0.00000000000E+00  0.00000000000E+00 -0.13955166071E+04  0.13955166071E+04  0.50400001928E-02 0. -1.
    10030    2    1    2    0    0  0.00000000000E+00  0.00000000000E+00 -0.78482025800E+03  0.20062129562E+04  0.18463335528E+04 0.  0.
        2    1    3    3  502    0  0.15843196799E+03 -0.33223297866E+02 -0.13799745049E+04  0.13894366161E+04  0.25500000920E-02 0. -1.
       -2    1    3    3    0  502 -0.15843196799E+03  0.33223297866E+02  0.59515424693E+03  0.61677634005E+03  0.25500000920E-02 0.  1.
</event>
<event>
 5   0  0.1404159E-04  0.2197802E+04  0.7818609E-02  0.8519344E-01
       -2   -1    0    0    0  501  0.00000000000E+00  0.00000000000E+00  0.18388272595E+04  0.18388272595E+04  0.25500000920E-02 0. -1.
        2   -1    0    0  501    0  0.00000000000E+00  0.00000000000E+00 -0.65671387790E+03  0.65671387791E+03  0.25500000920E-02 0.  1.
    10030    2    1    2    0    0  0.00000000000E+00  0.00000000000E+00  0.11821133816E+04  0.24955411374E+04  0.21978019751E+04 0.  0.
        5    1    3    3  502    0  0.51850594594E+03  0.30754054893E+03 -0.45217620998E+03  0.75360136683E+03  0.46999998093E+01 0.  1.
       -5    1    3    3    0  502 -0.51850594594E+03 -0.30754054893E+03  0.16342895916E+04  0.17419397706E+04  0.46999998093E+01 0. -1.
</event>
<event>
 5   0  0.1241430E-04  0.2221735E+04  0.7818609E-02  0.8509436E-01
        2   -1    0    0  501    0  0.00000000000E+00  0.00000000000E+00  0.12275383663E+04  0.12275383663E+04  0.25500000920E-02 0. -1.
       -2   -1    0    0    0  501  0.00000000000E+00  0.00000000000E+00 -0.10052856822E+04  0.10052856822E+04  0.25500000920E-02 0.  1.
    10030    2    1    2    0    0  0.00000000000E+00  0.00000000000E+00  0.22225268403E+03  0.22328240485E+04  0.22217351273E+04 0.  0.
        1    1    3    3  502    0  0.57479736376E+03 -0.26039784471E+03 -0.80767283735E+03  0.10249558328E+04  0.50400001928E-02 0.  1.
       -1    1    3    3    0  502 -0.57479736376E+03  0.26039784471E+03  0.10299255214E+04  0.12078682157E+04  0.50400001928E-02 0. -1.
</event>
<event>
 5   0  0.5849604E-05  0.2188333E+04  0.7818609E-02  0.8523300E-01
        1   -1    0    0  501    0  0.00000000000E+00  0.00000000000E+00  0.10478503671E+04  0.10478503671E+04  0.50400001928E-02 0. -1.
       -1   -1    0    0    0  501  0.00000000000E+00  0.00000000000E+00 -0.11425299056E+04  0.11425299056E+04  0.50400001928E-02 0.  1.
    10030    2    1    2    0    0  0.00000000000E+00  0.00000000000E+00 -0.94679538489E+02  0.21903802728E+04  0.21883330469E+04 0.  0.
        2    1    3    3  502    0 -0.63787008601E+03  0.18339302907E+03 -0.91803235954E+03  0.11328259632E+04  0.25500000920E-02 0.  1.
       -2    1    3    3    0  502  0.63787008601E+03 -0.18339302907E+03  0.82335282105E+03  0.10575543096E+04  0.25500000920E-02 0. -1.
</event>
<event>
 5   0  0.1241430E-04  0.2122831E+04  0.7818609E-02  0.8551252E-01
        2   -1    0    0  501    0  0.00000000000E+00  0.00000000000E+00  0.97376331338E+03  0.97376331339E+03  0.25500000920E-02 0. -1.
       -2   -1    0    0    0  501  0.00000000000E+00  0.00000000000E+00 -0.11569575446E+04  0.11569575446E+04  0.25500000920E-02 0.  1.
    10030    2    1    2    0    0  0.00000000000E+00  0.00000000000E+00 -0.18319423121E+03  0.21307208580E+04  0.21228309514E+04 0.  0.
        1    1    3    3  502    0 -0.64275049865E+03  0.69204580588E+03 -0.57769785627E+03  0.11071541962E+04  0.50400001928E-02 0.  1.
       -1    1    3    3    0  502  0.64275049865E+03 -0.69204580588E+03  0.39450362506E+03  0.10235666618E+04  0.50400001928E-02 0. -1.
</event>
<event>
 5   0  0.5981239E-05  0.2168911E+04  0.7818609E-02  0.8531481E-01
       -1   -1    0    0    0  501  0.00000000000E+00  0.00000000000E+00  0.69419656862E+03  0.69419656864E+03  0.50400001928E-02 0. -1.
        1   -1    0    0  501    0  0.00000000000E+00  0.00000000000E+00 -0.16941078304E+04  0.16941078304E+04  0.50400001928E-02 0.  1.
    10030    2    1    2    0    0  0.00000000000E+00  0.00000000000E+00 -0.99991126181E+03  0.23883043991E+04  0.21689111026E+04 0.  0.
        4    1    3    3  502    0  0.38818405803E+03  0.36859107452E+03  0.53857646542E+03  0.75935002807E+03  0.12699999809E+01 0. -1.
       -4    1    3    3    0  502 -0.38818405803E+03 -0.36859107452E+03 -0.15384877272E+04  0.16289543710E+04  0.12699999809E+01 0.  1.
</event>
<event>
 5   0  0.1252124E-04  0.2173689E+04  0.7818609E-02  0.8529460E-01
       -2   -1    0    0    0  501  0.00000000000E+00  0.00000000000E+00  0.68842792504E+03  0.68842792505E+03  0.25500000920E-02 0. -1.
        2   -1    0    0  501    0  0.00000000000E+00  0.00000000000E+00 -0.17158378638E+04  0.17158378638E+04  0.25500000920E-02 0.  1.
    10030    2    1    2    0    0  0.00000000000E+00  0.00000000000E+00 -0.10274099388E+04  0.24042657889E+04  0.21736887545E+04 0.  0.
        3    1    3    3  502    0  0.10078380036E+04 -0.37089464708E+03 -0.69855680520E+03  0.12811252480E+04  0.10100000352E+00 0.  1.
       -3    1    3    3    0  502 -0.10078380036E+04  0.37089464708E+03 -0.32885313357E+03  0.11231405408E+04  0.10100000352E+00 0. -1.
</event>
<event>
 5   0  0.5981239E-05  0.2238917E+04  0.7818609E-02  0.8502402E-01
        1   -1    0    0  501    0  0.00000000000E+00  0.00000000000E+00  0.16226815553E+04  0.16226815553E+04  0.50400001928E-02 0. -1.
       -1   -1    0    0    0  501  0.00000000000E+00  0.00000000000E+00 -0.77229418363E+03  0.77229418364E+03  0.50400001928E-02 0.  1.
    10030    2    1    2    0    0  0.00000000000E+00  0.00000000000E+00  0.85038737170E+03  0.23949757390E+04  0.22389171732E+04 0.  0.
        4    1    3    3  502    0 -0.47666930513E+03 -0.82665854279E+03  0.10513197798E+04  0.14198073338E+04  0.12699999809E+01 0. -1.
       -4    1    3    3    0  502  0.47666930513E+03  0.82665854279E+03 -0.20093240815E+03  0.97516840513E+03  0.12699999809E+01 0.  1.
</event>
<event>
 5   0  0.1252124E-04  0.1405831E+04  0.7818609E-02  0.8949609E-01
        2   -1    0    0  501    0  0.00000000000E+00  0.00000000000E+00  0.83470160469E+03  0.83470160469E+03  0.25500000920E-02 0. -1.
       -2   -1    0    0    0  501  0.00000000000E+00  0.00000000000E+00 -0.59193606554E+03  0.59193606554E+03  0.25500000920E-02 0.  1.
    10030    2    1    2    0    0  0.00000000000E+00  0.00000000000E+00  0.24276553915E+03  0.14266376702E+04  0.14058306922E+04 0.  0.
        3    1    3    3  502    0  0.64069141799E+02  0.56829231139E+03  0.53612338226E+03  0.78389367731E+03  0.10100000352E+00 0. -1.
       -3    1    3    3    0  502 -0.64069141799E+02 -0.56829231139E+03 -0.29335784311E+03  0.64274399292E+03  0.10100000352E+00 0.  1.
</event>
<event>
 5   0  0.1311472E-04  0.2219478E+04  0.7818609E-02  0.8510364E-01
       -2   -1    0    0    0  501  0.00000000000E+00  0.00000000000E+00  0.10837133560E+04  0.10837133560E+04  0.25500000920E-02 0. -1.
        2   -1    0    0  501    0  0.00000000000E+00  0.00000000000E+00 -0.11363900818E+04  0.11363900818E+04  0.25500000920E-02 0.  1.
    10030    2    1    2    0    0  0.00000000000E+00  0.00000000000E+00 -0.52676725805E+02  0.22201034379E+04  0.22194784156E+04 0.  0.
        4    1    3    3  502    0 -0.79160115582E+03 -0.68823839615E+03  0.33599977939E+03  0.11014544677E+04  0.12699999809E+01 0. -1.
       -4    1    3    3    0  502  0.79160115582E+03  0.68823839615E+03 -0.38867650519E+03  0.11186489702E+04  0.12699999809E+01 0.  1.
</event>
<event>
 5   0  0.1226021E-04  0.2140510E+04  0.7818609E-02  0.8543605E-01
       -2   -1    0    0    0  501  0.00000000000E+00  0.00000000000E+00  0.97162181816E+03  0.97162181816E+03  0.25500000920E-02 0. -1.
        2   -1    0    0  501    0  0.00000000000E+00  0.00000000000E+00 -0.11789012979E+04  0.11789012979E+04  0.25500000920E-02 0.  1.
    10030    2    1    2    0    0  0.00000000000E+00  0.00000000000E+00 -0.20727947977E+03  0.21505231161E+04  0.21405104275E+04 0.  0.
        2    1    3    3  502    0  0.42259680094E+03  0.84978221367E+03  0.39337459340E+03  0.10273565290E+04  0.25500000920E-02 0. -1.
       -2    1    3    3    0  502 -0.42259680094E+03 -0.84978221367E+03 -0.60065407317E+03  0.11231665871E+04  0.25500000920E-02 0.  1.
</event>
<event>
 5   0  0.1226021E-04  0.2187041E+04  0.7818609E-02  0.8523841E-01
        2   -1    0    0  501    0  0.00000000000E+00  0.00000000000E+00  0.64209610244E+03  0.64209610245E+03  0.25500000920E-02 0.  1.
       -2   -1    0    0    0  501  0.00000000000E+00  0.00000000000E+00 -0.18623183539E+04  0.18623183539E+04  0.25500000920E-02 0. -1.
    10030    2    1    2    0    0  0.00000000000E+00  0.00000000000E+00 -0.12202222514E+04  0.25044144563E+04  0.21870412493E+04 0.  0.
        2    1    3    3  502    0  0.15377556486E+02 -0.10559350664E+04 -0.93511418791E+03  0.14105580024E+04  0.25500000920E-02 0. -1.
       -2    1    3    3    0  502 -0.15377556486E+02  0.10559350664E+04 -0.28510806351E+03  0.10938564539E+04  0.25500000920E-02 0.  1.
</event>
<event>
 5   0  0.5981239E-05  0.1651989E+04  0.7818609E-02  0.8789231E-01
       -1   -1    0    0    0  501  0.00000000000E+00  0.00000000000E+00  0.10257522355E+04  0.10257522355E+04  0.50400001928E-02 0.  1.
        1   -1    0    0  501    0  0.00000000000E+00  0.00000000000E+00 -0.66513797710E+03  0.66513797711E+03  0.50400001928E-02 0. -1.
    10030    2    1    2    0    0  0.00000000000E+00  0.00000000000E+00  0.36061425842E+03  0.16908902126E+04  0.16519888219E+04 0.  0.
        4    1    3    3  502    0 -0.29887076677E+03  0.25984068975E+03 -0.56162359510E+03  0.68721437322E+03  0.12699999809E+01 0. -1.
       -4    1    3    3    0  502  0.29887076677E+03 -0.25984068975E+03  0.92223785352E+03  0.10036758394E+04  0.12699999809E+01 0.  1.
</event>
<event>
 5   0  0.1226021E-04  0.1682107E+04  0.7818609E-02  0.8771636E-01
        2   -1    0    0  501    0  0.00000000000E+00  0.00000000000E+00  0.14327444009E+04  0.14327444009E+04  0.25500000920E-02 0. -1.
       -2   -1    0    0    0  501  0.00000000000E+00  0.00000000000E+00 -0.49371744554E+03  0.49371744554E+03  0.25500000920E-02 0.  1.
    10030    2    1    2    0    0  0.00000000000E+00  0.00000000000E+00  0.93902695532E+03  0.19264618464E+04  0.16821068999E+04 0.  0.
        2    1    3    3  502    0 -0.35648652660E+03 -0.27047114039E+03  0.12850962116E+04  0.13607753505E+04  0.25500000920E-02 0. -1.
       -2    1    3    3    0  502  0.35648652660E+03  0.27047114039E+03 -0.34606925632E+03  0.56568649587E+03  0.25500000920E-02 0.  1.
</event>
<event>
 5   0  0.1404159E-04  0.2085221E+04  0.7818609E-02  0.8567782E-01
        2   -1    0    0  501    0  0.00000000000E+00  0.00000000000E+00  0.97055042943E+03  0.97055042944E+03  0.25500000920E-02 0. -1.
       -2   -1    0    0    0  501  0.00000000000E+00  0.00000000000E+00 -0.11200204335E+04  0.11200204335E+04  0.25500000920E-02 0.  1.
    10030    2    1    2    0    0  0.00000000000E+00  0.00000000000E+00 -0.14947000409E+03  0.20905708630E+04  0.20852206720E+04 0.  0.
        5    1    3    3  502    0  0.93234697405E+03  0.38974783228E+03  0.18251636037E+03  0.10268926743E+04  0.46999998093E+01 0.  1.
       -5    1    3    3    0  502 -0.93234697405E+03 -0.38974783228E+03 -0.33198636446E+03  0.10636781886E+04  0.46999998093E+01 0. -1.
</event>
<event>
 5   0  0.1404159E-04  0.2224016E+04  0.7818609E-02  0.8508498E-01
        2   -1    0    0  501    0  0.00000000000E+00  0.00000000000E+00  0.87988188040E+03  0.87988188040E+03  0.25500000920E-02 0. -1.
       -2   -1    0    0    0  501  0.00000000000E+00  0.00000000000E+00 -0.14053722131E+04  0.14053722131E+04  0.25500000920E-02 0.  1.
    10030    2    1    2    0    0  0.00000000000E+00  0.00000000000E+00 -0.52549033272E+03  0.22852540935E+04  0.22240157783E+04 0.  0.
        5    1    3    3  502    0  0.83560432159E+03  0.71885669539E+03 -0.11190412885E+03  0.11079414041E+04  0.46999998093E+01 0.  1.
       -5    1    3    3    0  502 -0.83560432159E+03 -0.71885669539E+03 -0.41358620387E+03  0.11773126895E+04  0.46999998093E+01 0. -1.
</event>
<event>
 5   0  0.1252124E-04  0.2187793E+04  0.7818609E-02  0.8523526E-01
       -2   -1    0    0    0  501  0.00000000000E+00  0.00000000000E+00  0.12786059193E+04  0.12786059193E+04  0.25500000920E-02 0. -1.
        2   -1    0    0  501    0  0.00000000000E+00  0.00000000000E+00 -0.93587046760E+03  0.93587046760E+03  0.25500000920E-02 0.  1.
    10030    2    1    2    0    0  0.00000000000E+00  0.00000000000E+00  0.34273545170E+03  0.22144763869E+04  0.21877929697E+04 0.  0.
        3    1    3    3  502    0  0.83504943163E+03 -0.56462890249E+03  0.60139778417E+03  0.11737941284E+04  0.10100000352E+00 0.  1.
       -3    1    3    3    0  502 -0.83504943163E+03  0.56462890249E+03 -0.25866233247E+03  0.10406822585E+04  0.10100000352E+00 0. -1.
</event>
<event>
 5   0  0.5895063E-05  0.2252919E+04  0.7818609E-02  0.8496719E-01
       -1   -1    0    0    0  501  0.00000000000E+00  0.00000000000E+00  0.96690486335E+03  0.96690486336E+03  0.50400001928E-02 0.  1.
        1   -1    0    0  501    0  0.00000000000E+00  0.00000000000E+00 -0.13123434111E+04  0.13123434111E+04  0.50400001928E-02 0. -1.
    10030    2    1    2    0    0  0.00000000000E+00  0.00000000000E+00 -0.34543854771E+03  0.22792482744E+04  0.22529191966E+04 0.  0.
        5    1    3    3  502    0  0.79768472207E+03 -0.58213150196E+03 -0.72100409763E+03  0.12227211457E+04  0.46999998093E+01 0. -1.
       -5    1    3    3    0  502 -0.79768472207E+03  0.58213150196E+03  0.37556554992E+03  0.10565271287E+04  0.46999998093E+01 0.  1.
</event>
<event>
 5   0  0.5861816E-05  0.2087418E+04  0.7818609E-02  0.8566806E-01
       -1   -1    0    0    0  501  0.00000000000E+00  0.00000000000E+00  0.11367566698E+04  0.11367566698E+04  0.50400001928E-02 0. -1.
        1   -1    0    0  501    0  0.00000000000E+00  0.00000000000E+00 -0.95827772459E+03  0.95827772460E+03  0.50400001928E-02 0.  1.
    10030    2    1    2    0    0  0.00000000000E+00  0.00000000000E+00  0.17847894520E+03  0.20950343944E+04  0.20874181133E+04 0.  0.
        1    1    3    3  502    0 -0.95047251911E+03  0.13178664007E+03  0.50130156549E+03  0.10826213501E+04  0.50400001928E-02 0. -1.
       -1    1    3    3    0  502  0.95047251911E+03 -0.13178664007E+03 -0.32282262029E+03  0.10124130443E+04  0.50400001928E-02 0.  1.
</event>
<event>
 5   0  0.1252124E-04  0.2210850E+04  0.7818609E-02  0.8513926E-01
       -2   -1    0    0    0  501  0.00000000000E+00  0.00000000000E+00  0.91956854433E+03  0.91956854433E+03  0.25500000920E-02 0. -1.
        2   -1    0    0  501    0  0.00000000000E+00  0.00000000000E+00 -0.13288450595E+04  0.13288450595E+04  0.25500000920E-02 0.  1.
    10030    2    1    2    0    0  0.00000000000E+00  0.00000000000E+00 -0.40927651517E+03  0.22484136038E+04  0.22108497163E+04 0.  0.
        3    1    3    3  502    0  0.18217770079E+02 -0.10362714704E+04 -0.59558310723E+03  0.11953701081E+04  0.10100000352E+00 0. -1.
       -3    1    3    3    0  502 -0.18217770079E+02  0.10362714704E+04  0.18630659206E+03  0.10530434957E+04  0.10100000352E+00 0.  1.
</event>
<event>
 5   0  0.5849604E-05  0.2289769E+04  0.7818609E-02  0.8481966E-01
        1   -1    0    0  501    0  0.00000000000E+00  0.00000000000E+00  0.14027522429E+04  0.14027522429E+04  0.50400001928E-02 0. -1.
       -1   -1    0    0    0  501  0.00000000000E+00  0.00000000000E+00 -0.93442054504E+03  0.93442054506E+03  0.50400001928E-02 0.  1.
    10030    2    1    2    0    0  0.00000000000E+00  0.00000000000E+00  0.46833169787E+03  0.23371727880E+04  0.22897689974E+04 0.  0.
        2    1    3    3  502    0  0.76839158531E+03 -0.14304460540E+03 -0.61973768245E+03  0.99747791081E+03  0.25500000920E-02 0.  1.
       -2    1    3    3    0  502 -0.76839158531E+03  0.14304460540E+03  0.10880693803E+04  0.13396948772E+04  0.25500000920E-02 0. -1.
</event>
<event>
 5   0  0.1311472E-04  0.2134177E+04  0.7818609E-02  0.8546336E-01
        2   -1    0    0  501    0  0.00000000000E+00  0.00000000000E+00  0.15595147165E+04  0.15595147165E+04  0.25500000920E-02 0.  1.
       -2   -1    0    0    0  501  0.00000000000E+00  0.00000000000E+00 -0.73014914749E+03  0.73014914749E+03  0.25500000920E-02 0. -1.
    10030    2    1    2    0    0  0.00000000000E+00  0.00000000000E+00  0.82936556904E+03  0.22896638640E+04  0.21341774441E+04 0.  0.
        4    1    3    3  502    0  0.26889773332E+03  0.18762913059E+03 -0.67476270868E+03  0.75021130861E+03  0.12699999809E+01 0. -1.
       -4    1    3    3    0  502 -0.26889773332E+03 -0.18762913059E+03  0.15041282777E+04  0.15394525554E+04  0.12699999809E+01 0.  1.
</event>
<event>
 5   0  0.5981239E-05  0.2187783E+04  0.7818609E-02  0.8523530E-01
       -1   -1    0    0    0  501  0.00000000000E+00  0.00000000000E+00  0.24154230687E+04  0.24154230687E+04  0.50400001928E-02 0.  1.
        1   -1    0    0  501    0  0.00000000000E+00  0.00000000000E+00 -0.49539908361E+03  0.49539908364E+03  0.50400001928E-02 0. -1.
    10030    2    1    2    0    0  0.00000000000E+00  0.00000000000E+00  0.19200239851E+04  0.29108221523E+04  0.21877827815E+04 0.  0.
        4    1    3    3  502    0 -0.92771474664E+03  0.13940818615E+03  0.17085320677E+04  0.19491466678E+04  0.12699999809E+01 0.  1.
       -4    1    3    3    0  502  0.92771474664E+03 -0.13940818615E+03  0.21149191741E+03  0.96167548452E+03  0.12699999809E+01 0. -1.
</event>
<event>
 5   0  0.1311472E-04  0.2187306E+04  0.7818609E-02  0.8523730E-01
        2   -1    0    0  501    0  0.00000000000E+00  0.00000000000E+00  0.13744356967E+04  0.13744356967E+04  0.25500000920E-02 0. -1.
       -2   -1    0    0    0  501  0.00000000000E+00  0.00000000000E+00 -0.87023127784E+03  0.87023127785E+03  0.25500000920E-02 0.  1.
    10030    2    1    2    0    0  0.00000000000E+00  0.00000000000E+00  0.50420441887E+03  0.22446669746E+04  0.21873060441E+04 0.  0.
        4    1    3    3  502    0 -0.57440148766E+03 -0.48970984667E+03  0.10642617988E+04  0.13047634238E+04  0.12699999809E+01 0. -1.
       -4    1    3    3    0  502  0.57440148766E+03  0.48970984667E+03 -0.56005737991E+03  0.93990355072E+03  0.12699999809E+01 0.  1.
</event>
<event>
 5   0  0.1241430E-04  0.2065081E+04  0.7818609E-02  0.8576783E-01
       -2   -1    0    0    0  501  0.00000000000E+00  0.00000000000E+00  0.82718462593E+03  0.82718462594E+03  0.25500000920E-02 0.  1.
        2   -1    0    0  501    0  0.00000000000E+00  0.00000000000E+00 -0.12888782831E+04  0.12888782831E+04  0.25500000920E-02 0. -1.
    10030    2    1    2    0    0  0.00000000000E+00  0.00000000000E+00 -0.46169365718E+03  0.21160629091E+04  0.20650814032E+04 0.  0.
        1    1    3    3  502    0 -0.61649808643E+03 -0.49014413134E+02  0.61640794520E+03  0.87317298298E+03  0.50400001928E-02 0.  1.
       -1    1    3    3    0  502  0.61649808643E+03  0.49014413134E+02 -0.10781016024E+04  0.12428899261E+04  0.50400001928E-02 0. -1.
</event>
<event>
 5   0  0.1226021E-04  0.2147773E+04  0.7818609E-02  0.8540486E-01
       -2   -1    0    0    0  501  0.00000000000E+00  0.00000000000E+00  0.78287983546E+03  0.78287983547E+03  0.25500000920E-02 0.  1.
        2   -1    0    0  501    0  0.00000000000E+00  0.00000000000E+00 -0.14730639052E+04  0.14730639052E+04  0.25500000920E-02 0. -1.
    10030    2    1    2    0    0  0.00000000000E+00  0.00000000000E+00 -0.69018406976E+03  0.22559437407E+04  0.21477728257E+04 0.  0.
        2    1    3    3  502    0 -0.68698394441E+03  0.17211893870E+03 -0.11930034979E+04  0.13873821445E+04  0.25500000920E-02 0. -1.
       -2    1    3    3    0  502  0.68698394441E+03 -0.17211893870E+03  0.50281942817E+03  0.86856159614E+03  0.25500000920E-02 0.  1.
</event>
<event>
 5   0  0.6263558E-05  0.2131295E+04  0.7818609E-02  0.8547582E-01
        1   -1    0    0  501    0  0.00000000000E+00  0.00000000000E+00  0.16099192591E+04  0.16099192591E+04  0.50400001928E-02 0. -1.
       -1   -1    0    0    0  501  0.00000000000E+00  0.00000000000E+00 -0.70537956716E+03  0.70537956718E+03  0.50400001928E-02 0.  1.
    10030    2    1    2    0    0  0.00000000000E+00  0.00000000000E+00  0.90453969197E+03  0.23152988263E+04  0.21312945833E+04 0.  0.
        3    1    3    3  502    0 -0.71220698983E+03  0.29711012185E+03 -0.34608691603E+03  0.84574782561E+03  0.10100000352E+00 0.  1.
       -3    1    3    3    0  502  0.71220698983E+03 -0.29711012185E+03  0.12506266080E+04  0.14695510007E+04  0.10100000352E+00 0. -1.
</event>
<event>
 5   0  0.5861816E-05  0.1989168E+04  0.7818609E-02  0.8611702E-01
       -1   -1    0    0    0  501  0.00000000000E+00  0.00000000000E+00  0.86874032915E+03  0.86874032917E+03  0.50400001928E-02 0.  1.
        1   -1    0    0  501    0  0.00000000000E+00  0.00000000000E+00 -0.11386566045E+04  0.11386566045E+04  0.50400001928E-02 0. -1.
    10030    2    1    2    0    0  0.00000000000E+00  0.00000000000E+00 -0.26991627535E+03  0.20073969337E+04  0.19891675781E+04 0.  0.
        1    1    3    3  502    0  0.23614584556E+03 -0.38240754687E+03  0.76041377678E+03  0.88330600826E+03  0.50400001928E-02 0.  1.
       -1    1    3    3    0  502 -0.23614584556E+03  0.38240754687E+03 -0.10303300521E+04  0.11240909254E+04  0.50400001928E-02 0. -1.
</event>
<event>
 5   0  0.5849604E-05  0.2180774E+04  0.7818609E-02  0.8526473E-01
       -1   -1    0    0    0  501  0.00000000000E+00  0.00000000000E+00  0.10384792259E+04  0.10384792259E+04  0.50400001928E-02 0.  1.
        1   -1    0    0  501    0  0.00000000000E+00  0.00000000000E+00 -0.11448898567E+04  0.11448898567E+04  0.50400001928E-02 0. -1.
    10030    2    1    2    0    0  0.00000000000E+00  0.00000000000E+00 -0.10641063083E+03  0.21833690827E+04  0.21807744791E+04 0.  0.
        2    1    3    3  502    0 -0.71930958300E+03  0.69181475914E+03  0.38655570014E+03  0.10702519547E+04  0.25500000920E-02 0.  1.
       -2    1    3    3    0  502  0.71930958300E+03 -0.69181475914E+03 -0.49296633097E+03  0.11131171280E+04  0.25500000920E-02 0. -1.
</event>
<event>
 5   0  0.1226021E-04  0.2366009E+04  0.7818609E-02  0.8452340E-01
        2   -1    0    0  501    0  0.00000000000E+00  0.00000000000E+00  0.21139474547E+04  0.21139474547E+04  0.25500000920E-02 0. -1.
       -2   -1    0    0    0  501  0.00000000000E+00  0.00000000000E+00 -0.66203158421E+03  0.66203158422E+03  0.25500000920E-02 0.  1.
    10030    2    1    2    0    0  0.00000000000E+00  0.00000000000E+00  0.14519158705E+04  0.27759790389E+04  0.23660092835E+04 0.  0.
        2    1    3    3  502    0  0.10321419011E+03 -0.98470513013E+03  0.14856047695E+04  0.17853063865E+04  0.25500000920E-02 0. -1.
       -2    1    3    3    0  502 -0.10321419011E+03  0.98470513013E+03 -0.33688899051E+02  0.99067265243E+03  0.25500000920E-02 0.  1.
</event>
<event>
 5   0  0.1404159E-04  0.2180329E+04  0.7818609E-02  0.8526661E-01
       -2   -1    0    0    0  501  0.00000000000E+00  0.00000000000E+00  0.99263949716E+03  0.99263949716E+03  0.25500000920E-02 0. -1.
        2   -1    0    0  501    0  0.00000000000E+00  0.00000000000E+00 -0.11972708551E+04  0.11972708551E+04  0.25500000920E-02 0.  1.
    10030    2    1    2    0    0  0.00000000000E+00  0.00000000000E+00 -0.20463135792E+03  0.21899103522E+04  0.21803287271E+04 0.  0.
        5    1    3    3  502    0 -0.68108731112E+03 -0.72550551941E+03 -0.54946653377E+03  0.11367382046E+04  0.46999998093E+01 0.  1.
       -5    1    3    3    0  502  0.68108731112E+03  0.72550551941E+03  0.34483517585E+03  0.10531721476E+04  0.46999998093E+01 0. -1.
</event>
<event>
 5   0  0.5861816E-05  0.2172256E+04  0.7818609E-02  0.8530065E-01
        1   -1    0    0  501    0  0.00000000000E+00  0.00000000000E+00  0.73026369874E+03  0.73026369876E+03  0.50400001928E-02 0.  1.
       -1   -1    0    0    0  501  0.00000000000E+00  0.00000000000E+00 -0.16154088031E+04  0.16154088031E+04  0.50400001928E-02 0. -1.
    10030    2    1    2    0    0  0.00000000000E+00  0.00000000000E+00 -0.88514510440E+03  0.23456725019E+04  0.21722563454E+04 0.  0.
        1    1    3    3  502    0 -0.58895838388E+03 -0.41886379800E+03  0.43292808924E+03  0.84246399905E+03  0.50400001928E-02 0.  1.
       -1    1    3    3    0  502  0.58895838388E+03  0.41886379800E+03 -0.13180731936E+04  0.15032085028E+04  0.50400001928E-02 0. -1.
</event>
<event>
 5   0  0.1241430E-04  0.2186195E+04  0.7818609E-02  0.8524196E-01
        2   -1    0    0  501    0  0.00000000000E+00  0.00000000000E+00  0.14236038017E+04  0.14236038017E+04  0.25500000920E-02 0. -1.
       -2   -1    0    0    0  501  0.00000000000E+00  0.00000000000E+00 -0.83932242956E+03  0.83932242957E+03  0.25500000920E-02 0.  1.
    10030    2    1    2    0    0  0.00000000000E+00  0.00000000000E+00  0.58428137210E+03  0.22629262312E+04  0.21861954181E+04 0.  0.
        1    1    3    3  502    0  0.96989301457E+03  0.32457618928E+03 -0.10717163221E+03  0.10283617657E+04  0.50400001928E-02 0.  1.
       -1    1    3    3    0  502 -0.96989301457E+03 -0.32457618928E+03  0.69145300431E+03  0.12345644655E+04  0.50400001928E-02 0. -1.
</event>
<event>
 5   0  0.5861816E-05  0.2236841E+04  0.7818609E-02  0.8503249E-01
       -1   -1    0    0    0  501  0.00000000000E+00  0.00000000000E+00  0.12867349619E+04  0.12867349619E+04  0.50400001928E-02 0.  1.
        1   -1    0    0  501    0  0.00000000000E+00  0.00000000000E+00 -0.97212258918E+03  0.97212258919E+03  0.50400001928E-02 0. -1.
    10030    2    1    2    0    0  0.00000000000E+00  0.00000000000E+00  0.31461237268E+03  0.22588575511E+04  0.22368407388E+04 0.  0.
        1    1    3    3  502    0 -0.10759232517E+04  0.13287585192E+03 -0.12034970063E+03  0.10907570242E+04  0.50400001928E-02 0. -1.
       -1    1    3    3    0  502  0.10759232517E+04 -0.13287585192E+03  0.43496207331E+03  0.11681005268E+04  0.50400001928E-02 0.  1.
</event>
<event>
 5   0  0.1404159E-04  0.2203010E+04  0.7818609E-02  0.8517176E-01
        2   -1    0    0  501    0  0.00000000000E+00  0.00000000000E+00  0.22589267332E+04  0.22589267332E+04  0.25500000920E-02 0. -1.
       -2   -1    0    0    0  501  0.00000000000E+00  0.00000000000E+00 -0.53711945648E+03  0.53711945649E+03  0.25500000920E-02 0.  1.
    10030    2    1    2    0    0  0.00000000000E+00  0.00000000000E+00  0.17218072767E+04  0.27960461897E+04  0.22030102126E+04 0.  0.
        5    1    3    3  502    0  0.84174802132E+03 -0.39384825143E+03  0.16113772499E+04  0.18601652905E+04  0.46999998093E+01 0. -1.
       -5    1    3    3    0  502 -0.84174802132E+03  0.39384825143E+03  0.11043002677E+03  0.93588089913E+03  0.46999998093E+01 0.  1.
</event>
<event>
 5   0  0.1311472E-04  0.2282272E+04  0.7818609E-02  0.8484944E-01
        2   -1    0    0  501    0  0.00000000000E+00  0.00000000000E+00  0.12263417822E+04  0.12263417822E+04  0.25500000920E-02 0. -1.
       -2   -1    0    0    0  501  0.00000000000E+00  0.00000000000E+00 -0.10618505579E+04  0.10618505579E+04  0.25500000920E-02 0.  1.
    10030    2    1    2    0    0  0.00000000000E+00  0.00000000000E+00  0.16449122432E+03  0.22881923401E+04  0.22822722937E+04 0.  0.
        4    1    3    3  502    0  0.94915233574E+02  0.83381934156E+03 -0.69301723013E+03  0.10883648699E+04  0.12699999809E+01 0.  1.
       -4    1    3    3    0  502 -0.94915233574E+02 -0.83381934156E+03  0.85750845445E+03  0.11998274702E+04  0.12699999809E+01 0. -1.
</event>
<event>
 5   0  0.1404159E-04  0.2289392E+04  0.7818609E-02  0.8482116E-01
       -2   -1    0    0    0  501  0.00000000000E+00  0.00000000000E+00  0.12386179947E+04  0.12386179947E+04  0.25500000920E-02 0.  1.
        2   -1    0    0  501    0  0.00000000000E+00  0.00000000000E+00 -0.10578956615E+04  0.10578956615E+04  0.25500000920E-02 0. -1.
    10030    2    1    2    0    0  0.00000000000E+00  0.00000000000E+00  0.18072233318E+03  0.22965136562E+04  0.22893917120E+04 0.  0.
        5    1    3    3  502    0 -0.35041871709E+03  0.13561803068E+03 -0.99426144473E+03  0.10629033061E+04  0.46999998093E+01 0. -1.
       -5    1    3    3    0  502  0.35041871709E+03 -0.13561803068E+03  0.11749837779E+04  0.12336103501E+04  0.46999998093E+01 0.  1.
</event>
<event>
 5   0  0.1404159E-04  0.2208871E+04  0.7818609E-02  0.8514745E-01
        2   -1    0    0  501    0  0.00000000000E+00  0.00000000000E+00  0.92811150586E+03  0.92811150586E+03  0.25500000920E-02 0.  1.
       -2   -1    0    0    0  501  0.00000000000E+00  0.00000000000E+00 -0.13142578024E+04  0.13142578024E+04  0.25500000920E-02 0. -1.
    10030    2    1    2    0    0  0.00000000000E+00  0.00000000000E+00 -0.38614629656E+03  0.22423693083E+04  0.22088710131E+04 0.  0.
        5    1    3    3  502    0 -0.52616949928E+02  0.45395169817E+03 -0.12137637293E+04  0.12969522613E+04  0.46999998093E+01 0. -1.
       -5    1    3    3    0  502  0.52616949928E+02 -0.45395169817E+03  0.82761743272E+03  0.94541704693E+03  0.46999998093E+01 0.  1.
</event>
<event>
 5   0  0.4586375E-05  0.2182991E+04  0.7818609E-02  0.8525541E-01
        4   -1    0    0  501    0  0.00000000000E+00  0.00000000000E+00  0.96195521425E+03  0.96195605259E+03  0.12699999809E+01 0. -1.
       -4   -1    0    0    0  501  0.00000000000E+00  0.00000000000E+00 -0.12384779214E+04  0.12384785725E+04  0.12699999809E+01 0.  1.
    10030    2    1    2    0    0  0.00000000000E+00  0.00000000000E+00 -0.27652270712E+03  0.22004346251E+04  0.21829905478E+04 0.  0.
        2    1    3    3  502    0  0.98291139837E+03  0.42286225321E+03 -0.35547025198E+03  0.11275133712E+04  0.25500000920E-02 0.  1.
       -2    1    3    3    0  502 -0.98291139837E+03 -0.42286225321E+03  0.78947544862E+02  0.10729212539E+04  0.25500000920E-02 0. -1.
</event>
<event>
 5   0  0.1241430E-04  0.1796323E+04  0.7818609E-02  0.8708257E-01
        2   -1    0    0  501    0  0.00000000000E+00  0.00000000000E+00  0.16375780543E+04  0.16375780543E+04  0.25500000920E-02 0. -1.
       -2   -1    0    0    0  501  0.00000000000E+00  0.00000000000E+00 -0.49261427796E+03  0.49261427797E+03  0.25500000920E-02 0.  1.
    10030    2    1    2    0    0  0.00000000000E+00  0.00000000000E+00  0.11449637763E+04  0.21301923322E+04  0.17963232792E+04 0.  0.
        1    1    3    3  502    0 -0.24043157457E+03  0.31996756919E+03  0.15259829575E+04  0.15775964547E+04  0.50400001928E-02 0. -1.
       -1    1    3    3    0  502  0.24043157457E+03 -0.31996756919E+03 -0.38101918119E+03  0.55259587751E+03  0.50400001928E-02 0.  1.
</event>
<event>
 5   0  0.5849604E-05  0.2191996E+04  0.7818609E-02  0.8521767E-01
        1   -1    0    0  501    0  0.00000000000E+00  0.00000000000E+00  0.19240194017E+04  0.19240194017E+04  0.50400001928E-02 0.  1.
       -1   -1    0    0    0  501  0.00000000000E+00  0.00000000000E+00 -0.62432399722E+03  0.62432399724E+03  0.50400001928E-02 0. -1.
    10030    2    1    2    0    0  0.00000000000E+00  0.00000000000E+00  0.12996954045E+04  0.25483433989E+04  0.21919958792E+04 0.  0.
        2    1    3    3  502    0 -0.96846273175E+03  0.50417378572E+03  0.53894451321E+03  0.12176093205E+04  0.25500000920E-02 0. -1.
       -2    1    3    3    0  502  0.96846273175E+03 -0.50417378572E+03  0.76075089124E+03  0.13307340784E+04  0.25500000920E-02 0.  1.
</event>
<event>
 5   0  0.1311472E-04  0.2141262E+04  0.7818609E-02  0.8543282E-01
        2   -1    0    0  501    0  0.00000000000E+00  0.00000000000E+00  0.10357522649E+04  0.10357522649E+04  0.25500000920E-02 0.  1.
       -2   -1    0    0    0  501  0.00000000000E+00  0.00000000000E+00 -0.11066845121E+04  0.11066845121E+04  0.25500000920E-02 0. -1.
    10030    2    1    2    0    0  0.00000000000E+00  0.00000000000E+00 -0.70932247202E+02  0.21424367769E+04  0.21412622351E+04 0.  0.
        4    1    3    3  502    0  0.98708658978E+03  0.40256841526E+03 -0.13475821371E+03  0.10745057719E+04  0.12699999809E+01 0. -1.
       -4    1    3    3    0  502 -0.98708658978E+03 -0.40256841526E+03  0.63825966509E+02  0.10679310051E+04  0.12699999809E+01 0.  1.
</event>
<event>
 5   0  0.6263558E-05  0.2194193E+04  0.7818609E-02  0.8520849E-01
       -1   -1    0    0    0  501  0.00000000000E+00  0.00000000000E+00  0.48255656333E+03  0.48255656335E+03  0.50400001928E-02 0.  1.
        1   -1    0    0  501    0  0.00000000000E+00  0.00000000000E+00 -0.24942579454E+04  0.24942579454E+04  0.50400001928E-02 0. -1.
    10030    2    1    2    0    0  0.00000000000E+00  0.00000000000E+00 -0.20117013821E+04  0.29768145088E+04  0.21941928286E+04 0.  0.
        3    1    3    3  502    0 -0.19369796443E+03 -0.30951558305E+03  0.39770644647E+03  0.53989742113E+03  0.10100000352E+00 0.  1.
       -3    1    3    3    0  502  0.19369796443E+03  0.30951558305E+03 -0.24094078286E+04  0.24369170877E+04  0.10100000352E+00 0. -1.
</event>
<event>
 5   0  0.1252124E-04  0.2209965E+04  0.7818609E-02  0.8514292E-01
       -2   -1    0    0    0  501  0.00000000000E+00  0.00000000000E+00  0.11167930206E+04  0.11167930206E+04  0.25500000920E-02 0. -1.
        2   -1    0    0  501    0  0.00000000000E+00  0.00000000000E+00 -0.10932966299E+04  0.10932966300E+04  0.25500000920E-02 0.  1.
    10030    2    1    2    0    0  0.00000000000E+00  0.00000000000E+00  0.23496390693E+02  0.22100896506E+04  0.22099647471E+04 0.  0.
        3    1    3    3  502    0  0.37893578038E+03  0.86614676307E+03 -0.56028369151E+03  0.10989633142E+04  0.10100000352E+00 0.  1.
       -3    1    3    3    0  502 -0.37893578038E+03 -0.86614676307E+03  0.58378008220E+03  0.11111263364E+04  0.10100000352E+00 0. -1.
</event>
<event>
 5   0  0.5981239E-05  0.2306608E+04  0.7818609E-02  0.8475320E-01
       -1   -1    0    0    0  501  0.00000000000E+00  0.00000000000E+00  0.14858715355E+04  0.14858715355E+04  0.50400001928E-02 0. -1.
        1   -1    0    0  501    0  0.00000000000E+00  0.00000000000E+00 -0.89517142653E+03  0.89517142655E+03  0.50400001928E-02 0.  1.
    10030    2    1    2    0    0  0.00000000000E+00  0.00000000000E+00  0.59070010900E+03  0.23810429621E+04  0.23066076755E+04 0.  0.
        4    1    3    3  502    0 -0.74166908204E+03 -0.16488153702E+03 -0.60031883562E+03  0.96831981587E+03  0.12699999809E+01 0.  1.
       -4    1    3    3    0  502  0.74166908204E+03  0.16488153702E+03  0.11910189446E+04  0.14127231462E+04  0.12699999809E+01 0. -1.
</event>
<event>
 5   0  0.1241430E-04  0.2548995E+04  0.7818609E-02  0.8385736E-01
       -2   -1    0    0    0  501  0.00000000000E+00  0.00000000000E+00  0.94058274470E+03  0.94058274471E+03  0.25500000920E-02 0. -1.
        2   -1    0    0  501    0  0.00000000000E+00  0.00000000000E+00 -0.17269543150E+04  0.17269543150E+04  0.25500000920E-02 0.  1.
    10030    2    1    2    0    0  0.00000000000E+00  0.00000000000E+00 -0.78637157028E+03  0.26675370597E+04  0.25489946485E+04 0.  0.
        1    1    3    3  502    0 -0.78601431197E+03  0.75371431927E+03 -0.10861270941E+04  0.15380428597E+04  0.50400001928E-02 0. -1.
       -1    1    3    3    0  502  0.78601431197E+03 -0.75371431927E+03  0.29975552385E+03  0.11294942000E+04  0.50400001928E-02 0.  1.
</event>
<event>
 5   0  0.5895063E-05  0.2182202E+04  0.7818609E-02  0.8525873E-01
       -1   -1    0    0    0  501  0.00000000000E+00  0.00000000000E+00  0.27503855619E+04  0.27503855619E+04  0.50400001928E-02 0. -1.
        1   -1    0    0  501    0  0.00000000000E+00  0.00000000000E+00 -0.43284891056E+03  0.43284891058E+03  0.50400001928E-02 0.  1.
    10030    2    1    2    0    0  0.00000000000E+00  0.00000000000E+00  0.23175366513E+04  0.31832344725E+04  0.21822020018E+04 0.  0.
        5    1    3    3  502    0  0.96904848349E+03  0.40313506326E+03  0.72381731698E+03  0.12749535054E+04  0.46999998093E+01 0.  1.
       -5    1    3    3    0  502 -0.96904848349E+03 -0.40313506326E+03  0.15937193343E+04  0.19082809671E+04  0.46999998093E+01 0. -1.
</event>
<event>
 5   0  0.5981239E-05  0.2221958E+04  0.7818609E-02  0.8509344E-01
       -1   -1    0    0    0  501  0.00000000000E+00  0.00000000000E+00  0.61542989009E+03  0.61542989012E+03  0.50400001928E-02 0. -1.
        1   -1    0    0  501    0  0.00000000000E+00  0.00000000000E+00 -0.20055477514E+04  0.20055477514E+04  0.50400001928E-02 0.  1.
    10030    2    1    2    0    0  0.00000000000E+00  0.00000000000E+00 -0.13901178613E+04  0.26209776415E+04  0.22219577244E+04 0.  0.
        4    1    3    3  502    0  0.32385845225E+03 -0.31918610380E+03 -0.18907533579E+04  0.19446629372E+04  0.12699999809E+01 0.  1.
       -4    1    3    3    0  502 -0.32385845225E+03  0.31918610380E+03  0.50063549659E+03  0.67631470434E+03  0.12699999809E+01 0. -1.
</event>
<event>
 5   0  0.1252124E-04  0.2161969E+04  0.7818609E-02  0.8534426E-01
        2   -1    0    0  501    0  0.00000000000E+00  0.00000000000E+00  0.23720270769E+04  0.23720270769E+04  0.25500000920E-02 0.  1.
       -2   -1    0    0    0  501  0.00000000000E+00  0.00000000000E+00 -0.49262804923E+03  0.49262804924E+03  0.25500000920E-02 0. -1.
    10030    2    1    2    0    0  0.00000000000E+00  0.00000000000E+00  0.18793990276E+04  0.28646551261E+04  0.21619686137E+04 0.  0.
        3    1    3    3  502    0 -0.98081577775E+03 -0.30351154389E+03  0.49152045145E+03  0.11382931132E+04  0.10100000352E+00 0. -1.
       -3    1    3    3    0  502  0.98081577775E+03  0.30351154389E+03  0.13878785762E+04  0.17263620129E+04  0.10100000352E+00 0.  1.
</event>
<event>
 5   0  0.5895063E-05  0.2196963E+04  0.7818609E-02  0.8519693E-01
       -1   -1    0    0    0  501  0.00000000000E+00  0.00000000000E+00  0.82946623319E+03  0.82946623321E+03  0.50400001928E-02 0. -1.
        1   -1    0    0  501    0  0.00000000000E+00  0.00000000000E+00 -0.14547445274E+04  0.14547445274E+04  0.50400001928E-02 0.  1.
    10030    2    1    2    0    0  0.00000000000E+00  0.00000000000E+00 -0.62527829418E+03  0.22842107606E+04  0.21969628703E+04 0.  0.
        5    1    3    3  502    0  0.10066207799E+04 -0.43368001009E+03 -0.38815715542E+03  0.11627776283E+04  0.46999998093E+01 0.  1.
       -5    1    3    3    0  502 -0.10066207799E+04  0.43368001009E+03 -0.23712113875E+03  0.11214331322E+04  0.46999998093E+01 0. -1.
</event>
<event>
 5   0  0.6263558E-05  0.2148827E+04  0.7818609E-02  0.8540035E-01
       -1   -1    0    0    0  501  0.00000000000E+00  0.00000000000E+00  0.13830391493E+04  0.13830391493E+04  0.50400001928E-02 0.  1.
        1   -1    0    0  501    0  0.00000000000E+00  0.00000000000E+00 -0.83465746084E+03  0.83465746085E+03  0.50400001928E-02 0. -1.
    10030    2    1    2    0    0  0.00000000000E+00  0.00000000000E+00  0.54838168845E+03  0.22176966101E+04  0.21488266050E+04 0.  0.
        3    1    3    3  502    0  0.41607289317E+02 -0.99411594386E+03 -0.14422401017E+03  0.10053846287E+04  0.10100000352E+00 0. -1.
       -3    1    3    3    0  502 -0.41607289317E+02  0.99411594386E+03  0.69260569861E+03  0.12123119814E+04  0.10100000352E+00 0.  1.
</event>
<event>
 5   0  0.5849604E-05  0.2151197E+04  0.7818609E-02  0.8539020E-01
       -1   -1    0    0    0  501  0.00000000000E+00  0.00000000000E+00  0.11156402569E+04  0.11156402569E+04  0.50400001928E-02 0.  1.
        1   -1    0    0  501    0  0.00000000000E+00  0.00000000000E+00 -0.10369941113E+04  0.10369941113E+04  0.50400001928E-02 0. -1.
    10030    2    1    2    0    0  0.00000000000E+00  0.00000000000E+00  0.78646145621E+02  0.21526343682E+04  0.21511972265E+04 0.  0.
        2    1    3    3  502    0  0.86277756476E+03 -0.16546520271E+03 -0.58169488055E+03  0.10536283945E+04  0.25500000920E-02 0. -1.
       -2    1    3    3    0  502 -0.86277756476E+03  0.16546520271E+03  0.66034102617E+03  0.10990059738E+04  0.25500000920E-02 0.  1.
</event>
<event>
 5   0  0.1226021E-04  0.2176052E+04  0.7818609E-02  0.8528462E-01
       -2   -1    0    0    0  501  0.00000000000E+00  0.00000000000E+00  0.61579332353E+03  0.61579332353E+03  0.25500000920E-02 0. -1.
        2   -1    0    0  501    0  0.00000000000E+00  0.00000000000E+00 -0.19223997427E+04  0.19223997427E+04  0.25500000920E-02 0.  1.
    10030    2    1    2    0    0  0.00000000000E+00  0.00000000000E+00 -0.13066064191E+04  0.25381930662E+04  0.21760523217E+04 0.  0.
        2    1    3    3  502    0  0.94735556333E+03 -0.50560390924E+03 -0.85762024842E+03  0.13742744875E+04  0.25500000920E-02 0.  1.
       -2    1    3    3    0  502 -0.94735556333E+03  0.50560390924E+03 -0.44898617072E+03  0.11639185787E+04  0.25500000920E-02 0. -1.
</event>
<event>
 5   0  0.5849604E-05  0.2151006E+04  0.7818609E-02  0.8539102E-01
       -1   -1    0    0    0  501  0.00000000000E+00  0.00000000000E+00  0.98002931328E+03  0.98002931329E+03  0.50400001928E-02 0. -1.
        1   -1    0    0  501    0  0.00000000000E+00  0.00000000000E+00 -0.11802775074E+04  0.11802775074E+04  0.50400001928E-02 0.  1.
    10030    2    1    2    0    0  0.00000000000E+00  0.00000000000E+00 -0.20024819407E+03  0.21603068207E+04  0.21510058624E+04 0.  0.
        2    1    3    3  502    0 -0.10667163334E+03 -0.70958921537E+03 -0.90471918073E+03  0.11547348128E+04  0.25500000920E-02 0.  1.
       -2    1    3    3    0  502  0.10667163334E+03  0.70958921537E+03  0.70447098666E+03  0.10055720079E+04  0.25500000920E-02 0. -1.
</event>
<event>
 5   0  0.5849604E-05  0.2177539E+04  0.7818609E-02  0.8527835E-01
       -1   -1    0    0    0  501  0.00000000000E+00  0.00000000000E+00  0.61873785528E+03  0.61873785530E+03  0.50400001928E-02 0.  1.
        1   -1    0    0  501    0  0.00000000000E+00  0.00000000000E+00 -0.19158664032E+04  0.19158664032E+04  0.50400001928E-02 0. -1.
    10030    2    1    2    0    0  0.00000000000E+00  0.00000000000E+00 -0.12971285480E+04  0.25346042585E+04  0.21775390416E+04 0.  0.
        2    1    3    3  502    0  0.13026977454E+03 -0.21528323010E+03 -0.18815566052E+04  0.18983077574E+04  0.25500000920E-02 0. -1.
       -2    1    3    3    0  502 -0.13026977454E+03  0.21528323010E+03  0.58442805721E+03  0.63629650115E+03  0.25500000920E-02 0.  1.
</event>
<event>
 5   0  0.6263558E-05  0.2092787E+04  0.7818609E-02  0.8564427E-01
       -1   -1    0    0    0  501  0.00000000000E+00  0.00000000000E+00  0.78273435119E+03  0.78273435121E+03  0.50400001928E-02 0.  1.
        1   -1    0    0  501    0  0.00000000000E+00  0.00000000000E+00 -0.13988652239E+04  0.13988652239E+04  0.50400001928E-02 0. -1.
    10030    2    1    2    0    0  0.00000000000E+00  0.00000000000E+00 -0.61613087274E+03  0.21815995751E+04  0.20927874842E+04 0.  0.
        3    1    3    3  502    0 -0.19497448912E+03 -0.78980910446E+03 -0.99411774328E+03  0.12845557873E+04  0.10100000352E+00 0. -1.
       -3    1    3    3    0  502  0.19497448912E+03  0.78980910446E+03  0.37798687054E+03  0.89704378789E+03  0.10100000352E+00 0.  1.
</event>
<event>
 5   0  0.1241430E-04  0.2213070E+04  0.7818609E-02  0.8513008E-01
       -2   -1    0    0    0  501  0.00000000000E+00  0.00000000000E+00  0.82327707067E+03  0.82327707068E+03  0.25500000920E-02 0.  1.
        2   -1    0    0  501    0  0.00000000000E+00  0.00000000000E+00 -0.14872505611E+04  0.14872505611E+04  0.25500000920E-02 0. -1.
    10030    2    1    2    0    0  0.00000000000E+00  0.00000000000E+00 -0.66397349039E+03  0.23105276317E+04  0.22130696196E+04 0.  0.
        1    1    3    3  502    0 -0.10546425059E+04 -0.50087609782E+02 -0.67768724890E+03  0.12546073454E+04  0.50400001928E-02 0. -1.
       -1    1    3    3    0  502  0.10546425059E+04  0.50087609782E+02  0.13713758511E+02  0.10559202863E+04  0.50400001928E-02 0.  1.
</event>
<event>
 5   0  0.1311472E-04  0.2156747E+04  0.7818609E-02  0.8536650E-01
        2   -1    0    0  501    0  0.00000000000E+00  0.00000000000E+00  0.11542745460E+04  0.11542745460E+04  0.25500000920E-02 0. -1.
       -2   -1    0    0    0  501  0.00000000000E+00  0.00000000000E+00 -0.10074636558E+04  0.10074636558E+04  0.25500000920E-02 0.  1.
    10030    2    1    2    0    0  0.00000000000E+00  0.00000000000E+00  0.14681089020E+03  0.21617382018E+04  0.21567472303E+04 0.  0.
        4    1    3    3  502    0  0.33573993055E+03 -0.18877863157E+03 -0.93616391171E+03  0.10123058605E+04  0.12699999809E+01 0.  1.
       -4    1    3    3    0  502 -0.33573993055E+03  0.18877863157E+03  0.10829748019E+04  0.11494323413E+04  0.12699999809E+01 0. -1.
</event>
<event>
 5   0  0.5861816E-05  0.2010833E+04  0.7818609E-02  0.8601573E-01
        1   -1    0    0  501    0  0.00000000000E+00  0.00000000000E+00  0.12094279787E+04  0.12094279787E+04  0.50400001928E-02 0. -1.
       -1   -1    0    0    0  501  0.00000000000E+00  0.00000000000E+00 -0.83581844990E+03  0.83581844992E+03  0.50400001928E-02 0.  1.
    10030    2    1    2    0    0  0.00000000000E+00  0.00000000000E+00  0.37360952877E+03  0.20452464286E+04  0.20108328806E+04 0.  0.
        1    1    3    3  502    0 -0.49471077577E+03  0.25490083020E+03  0.10384815991E+04  0.11782008388E+04  0.50400001928E-02 0. -1.
       -1    1    3    3    0  502  0.49471077577E+03 -0.25490083020E+03 -0.66487207030E+03  0.86704558980E+03  0.50400001928E-02 0.  1.
</event>
<event>
 5   0  0.1241430E-04  0.2156721E+04  0.7818609E-02  0.8536661E-01
       -2   -1    0    0    0  501  0.00000000000E+00  0.00000000000E+00  0.59212568588E+03  0.59212568588E+03  0.25500000920E-02 0.  1.
        2   -1    0    0  501    0  0.00000000000E+00  0.00000000000E+00 -0.19638762586E+04  0.19638762586E+04  0.25500000920E-02 0. -1.
    10030    2    1    2    0    0  0.00000000000E+00  0.00000000000E+00 -0.13717505727E+04  0.25560019445E+04  0.21567211935E+04 0.  0.
        1    1    3    3  502    0 -0.30143499897E+03 -0.10290009409E+04 -0.54994313148E+03  0.12050491454E+04  0.50400001928E-02 0.  1.
       -1    1    3    3    0  502  0.30143499897E+03  0.10290009409E+04 -0.82180744124E+03  0.13509527991E+04  0.50400001928E-02 0. -1.
</event>
<event>
 5   0  0.1311472E-04  0.2240568E+04  0.7818609E-02  0.8501730E-01
       -2   -1    0    0    0  501  0.00000000000E+00  0.00000000000E+00  0.38482527463E+03  0.38482527464E+03  0.25500000920E-02 0.  1.
        2   -1    0    0  501    0  0.00000000000E+00  0.00000000000E+00 -0.32613145395E+04  0.32613145395E+04  0.25500000920E-02 0. -1.
    10030    2    1    2    0    0  0.00000000000E+00  0.00000000000E+00 -0.28764892649E+04  0.36461398142E+04  0.22405680202E+04 0.  0.
        4    1    3    3  502    0  0.15537747247E+03 -0.39467352890E+03 -0.31255928823E+04  0.31542418791E+04  0.12699999809E+01 0. -1.
       -4    1    3    3    0  502 -0.15537747247E+03  0.39467352890E+03  0.24910361741E+03  0.49189793502E+03  0.12699999809E+01 0.  1.
</event>
<event>
 5   0  0.1404159E-04  0.2194338E+04  0.7818609E-02  0.8520789E-01
        2   -1    0    0  501    0  0.00000000000E+00  0.00000000000E+00  0.16248013361E+04  0.16248013361E+04  0.25500000920E-02 0. -1.
       -2   -1    0    0    0  501  0.00000000000E+00  0.00000000000E+00 -0.74087805622E+03  0.74087805623E+03  0.25500000920E-02 0.  1.
    10030    2    1    2    0    0  0.00000000000E+00  0.00000000000E+00  0.88392327992E+03  0.23656793924E+04  0.21943378552E+04 0.  0.
        5    1    3    3  502    0  0.99972224744E+03 -0.45039610342E+03  0.48310353839E+03  0.11982121435E+04  0.46999998093E+01 0. -1.
       -5    1    3    3    0  502 -0.99972224744E+03  0.45039610342E+03  0.40081974153E+03  0.11674672489E+04  0.46999998093E+01 0.  1.
</event>
<event>
 5   0  0.1241430E-04  0.2311869E+04  0.7818609E-02  0.8473256E-01
       -2   -1    0    0    0  501  0.00000000000E+00  0.00000000000E+00  0.14072763488E+04  0.14072763488E+04  0.25500000920E-02 0.  1.
        2   -1    0    0  501    0  0.00000000000E+00  0.00000000000E+00 -0.94948244820E+03  0.94948244820E+03  0.25500000920E-02 0. -1.
    10030    2    1    2    0    0  0.00000000000E+00  0.00000000000E+00  0.45779390062E+03  0.23567587970E+04  0.23118686753E+04 0.  0.
        1    1    3    3  502    0  0.11440274369E+04 -0.15841715708E+03  0.27767391711E+03  0.11878541899E+04  0.50400001928E-02 0.  1.
       -1    1    3    3    0  502 -0.11440274369E+04  0.15841715708E+03  0.18011998352E+03  0.11689046071E+04  0.50400001928E-02 0. -1.
</event>
<event>
 5   0  0.1404159E-04  0.2211005E+04  0.7818609E-02  0.8513861E-01
       -2   -1    0    0    0  501  0.00000000000E+00  0.00000000000E+00  0.68363887213E+03  0.68363887214E+03  0.25500000920E-02 0.  1.
        2   -1    0    0  501    0  0.00000000000E+00  0.00000000000E+00 -0.17876921935E+04  0.17876921935E+04  0.25500000920E-02 0. -1.
    10030    2    1    2    0    0  0.00000000000E+00  0.00000000000E+00 -0.11040533213E+04  0.24713310656E+04  0.22110050881E+04 0.  0.
        5    1    3    3  502    0  0.30387669333E+03 -0.10556338631E+04 -0.69077919272E+03  0.12976524499E+04  0.46999998093E+01 0.  1.
       -5    1    3    3    0  502 -0.30387669333E+03  0.10556338631E+04 -0.41327412861E+03  0.11736786157E+04  0.46999998093E+01 0. -1.
</event>
<event>
 5   0  0.1241430E-04  0.2198023E+04  0.7818609E-02  0.8519252E-01
        2   -1    0    0  501    0  0.00000000000E+00  0.00000000000E+00  0.70782357457E+03  0.70782357458E+03  0.25500000920E-02 0. -1.
       -2   -1    0    0    0  501  0.00000000000E+00  0.00000000000E+00 -0.17063938681E+04  0.17063938681E+04  0.25500000920E-02 0.  1.
    10030    2    1    2    0    0  0.00000000000E+00  0.00000000000E+00 -0.99857029356E+03  0.24142174427E+04  0.21980225726E+04 0.  0.
        1    1    3    3  502    0 -0.71913545185E+03  0.64949591326E+03  0.70195693740E+02  0.97155966101E+03  0.50400001928E-02 0. -1.
       -1    1    3    3    0  502  0.71913545185E+03 -0.64949591326E+03 -0.10687659873E+04  0.14426577817E+04  0.50400001928E-02 0.  1.
</event>
<event>
 5   0  0.5981239E-05  0.1822802E+04  0.7818609E-02  0.8694267E-01
       -1   -1    0    0    0  501  0.00000000000E+00  0.00000000000E+00  0.56641873439E+03  0.56641873441E+03  0.50400001928E-02 0. -1.
        1   -1    0    0  501    0  0.00000000000E+00  0.00000000000E+00 -0.14664977882E+04  0.14664977882E+04  0.50400001928E-02 0.  1.
    10030    2    1    2    0    0  0.00000000000E+00  0.00000000000E+00 -0.90007905383E+03  0.20329165226E+04  0.18228020422E+04 0.  0.
        4    1    3    3  502    0  0.62519997028E+01  0.73426385558E+03  0.15206967497E+03  0.74987285326E+03  0.12699999809E+01 0. -1.
       -4    1    3    3    0  502 -0.62519997028E+01 -0.73426385558E+03 -0.10521487288E+04  0.12830436694E+04  0.12699999809E+01 0.  1.
</event>
<event>
 5   0  0.6263558E-05  0.2260764E+04  0.7818609E-02  0.8493554E-01
       -1   -1    0    0    0  501  0.00000000000E+00  0.00000000000E+00  0.16589683627E+04  0.16589683627E+04  0.50400001928E-02 0. -1.
        1   -1    0    0  501    0  0.00000000000E+00  0.00000000000E+00 -0.77021546026E+03  0.77021546027E+03  0.50400001928E-02 0.  1.
    10030    2    1    2    0    0  0.00000000000E+00  0.00000000000E+00  0.88875290240E+03  0.24291838229E+04  0.22607636595E+04 0.  0.
        3    1    3    3  502    0  0.80105551039E+03 -0.15114831188E+03  0.12858025277E+04  0.15224401116E+04  0.10100000352E+00 0. -1.
       -3    1    3    3    0  502 -0.80105551039E+03  0.15114831188E+03 -0.39704962530E+03  0.90674371135E+03  0.10100000352E+00 0.  1.
</event>
<event>
 5   0  0.1241430E-04  0.2133352E+04  0.7818609E-02  0.8546692E-01
       -2   -1    0    0    0  501  0.00000000000E+00  0.00000000000E+00  0.97142585288E+03  0.97142585289E+03  0.25500000920E-02 0.  1.
        2   -1    0    0  501    0  0.00000000000E+00  0.00000000000E+00 -0.11712656054E+04  0.11712656054E+04  0.25500000920E-02 0. -1.
    10030    2    1    2    0    0  0.00000000000E+00  0.00000000000E+00 -0.19983975255E+03  0.21426914583E+04  0.21333520007E+04 0.  0.
        1    1    3    3  502    0 -0.58081610268E+03 -0.73868993829E+03 -0.60689446822E+03  0.11186291010E+04  0.50400001928E-02 0. -1.
       -1    1    3    3    0  502  0.58081610268E+03  0.73868993829E+03  0.40705471567E+03  0.10240623573E+04  0.50400001928E-02 0.  1.
</event>
<event>
 5   0  0.5849604E-05  0.2161164E+04  0.7818609E-02  0.8534769E-01
       -1   -1    0    0    0  501  0.00000000000E+00  0.00000000000E+00  0.50482655155E+03  0.50482655158E+03  0.50400001928E-02 0.  1.
        1   -1    0    0  501    0  0.00000000000E+00  0.00000000000E+00 -0.23129871857E+04  0.23129871857E+04  0.50400001928E-02 0. -1.
    10030    2    1    2    0    0  0.00000000000E+00  0.00000000000E+00 -0.18081606341E+04  0.28178137372E+04  0.21611638945E+04 0.  0.
        2    1    3    3  502    0 -0.56961935893E+03  0.13720611344E+03 -0.20878971541E+04  0.21685493441E+04  0.25500000920E-02 0. -1.
       -2    1    3    3    0  502  0.56961935893E+03 -0.13720611344E+03  0.27973651997E+03  0.64926439318E+03  0.25500000920E-02 0.  1.
</event>
<event>
 5   0  0.1226021E-04  0.2212320E+04  0.7818609E-02  0.8513318E-01
        2   -1    0    0  501    0  0.00000000000E+00  0.00000000000E+00  0.24791786503E+04  0.24791786503E+04  0.25500000920E-02 0.  1.
       -2   -1    0    0    0  501  0.00000000000E+00  0.00000000000E+00 -0.49354661993E+03  0.49354661993E+03  0.25500000920E-02 0. -1.
    10030    2    1    2    0    0  0.00000000000E+00  0.00000000000E+00  0.19856320304E+04  0.29727252702E+04  0.22123202689E+04 0.  0.
        2    1    3    3  502    0 -0.38961062048E+03  0.33916934842E+03 -0.32152426822E+03  0.60844896052E+03  0.25500000920E-02 0. -1.
       -2    1    3    3    0  502  0.38961062048E+03 -0.33916934842E+03  0.23071562986E+04  0.23642763097E+04  0.25500000920E-02 0.  1.
</event>
<event>
 5   0  0.5981239E-05  0.2237568E+04  0.7818609E-02  0.8502952E-01
        1   -1    0    0  501    0  0.00000000000E+00  0.00000000000E+00  0.10200418104E+04  0.10200418104E+04  0.50400001928E-02 0. -1.
       -1   -1    0    0    0  501  0.00000000000E+00  0.00000000000E+00 -0.12270849877E+04  0.12270849877E+04  0.50400001928E-02 0.  1.
    10030    2    1    2    0    0  0.00000000000E+00  0.00000000000E+00 -0.20704317736E+03  0.22471267981E+04  0.22375683161E+04 0.  0.
        4    1    3    3  502    0 -0.55831550482E+02 -0.51491494663E+03  0.89239093596E+03  0.10318031594E+04  0.12699999809E+01 0. -1.
       -4    1    3    3    0  502  0.55831550482E+02  0.51491494663E+03 -0.10994341133E+04  0.12153236387E+04  0.12699999809E+01 0.  1.
</event>
<event>
 5   0  0.1404159E-04  0.1704525E+04  0.7818609E-02  0.8758788E-01
        2   -1    0    0  501    0  0.00000000000E+00  0.00000000000E+00  0.66652279017E+03  0.66652279017E+03  0.25500000920E-02 0. -1.
       -2   -1    0    0    0  501  0.00000000000E+00  0.00000000000E+00 -0.10897623605E+04  0.10897623605E+04  0.25500000920E-02 0.  1.
    10030    2    1    2    0    0  0.00000000000E+00  0.00000000000E+00 -0.42323957035E+03  0.17562851507E+04  0.17045250942E+04 0.  0.
        5    1    3    3  502    0 -0.86361097824E+02 -0.14289139698E+02 -0.10851048098E+04  0.10886399575E+04  0.46999998093E+01 0.  1.
       -5    1    3    3    0  502  0.86361097824E+02  0.14289139698E+02  0.66186523950E+03  0.66764519319E+03  0.46999998093E+01 0. -1.
</event>
<event>
 5   0  0.5981239E-05  0.2105215E+04  0.7818609E-02  0.8558950E-01
        1   -1    0    0  501    0  0.00000000000E+00  0.00000000000E+00  0.15233008967E+04  0.15233008967E+04  0.50400001928E-02 0.  1.
       -1   -1    0    0    0  501  0.00000000000E+00  0.00000000000E+00 -0.72735604256E+03  0.72735604258E+03  0.50400001928E-02 0. -1.
    10030    2    1    2    0    0  0.00000000000E+00  0.00000000000E+00  0.79594485411E+03  0.22506569393E+04  0.21052145847E+04 0.  0.
        4    1    3    3  502    0 -0.19370583788E+03  0.80632615142E+03  0.10910644717E+04  0.13704404797E+04  0.12699999809E+01 0.  1.
       -4    1    3    3    0  502  0.19370583788E+03 -0.80632615142E+03 -0.29511961759E+03  0.88021645956E+03  0.12699999809E+01 0. -1.
</event>
<event>
 5   0  0.1241430E-04  0.1738637E+04  0.7818609E-02  0.8739630E-01
        2   -1    0    0  501    0  0.00000000000E+00  0.00000000000E+00  0.74251103926E+03  0.74251103926E+03  0.25500000920E-02 0. -1.
       -2   -1    0    0    0  501  0.00000000000E+00  0.00000000000E+00 -0.10177824107E+04  0.10177824107E+04  0.25500000920E-02 0.  1.
    10030    2    1    2    0    0  0.00000000000E+00  0.00000000000E+00 -0.27527137140E+03  0.17602934499E+04  0.17386370242E+04 0.  0.
        1    1    3    3  502    0  0.16338765467E+03 -0.76959128134E+03  0.23676556522E+03  0.82159856312E+03  0.50400001928E-02 0. -1.
       -1    1    3    3    0  502 -0.16338765467E+03  0.76959128134E+03 -0.51203693661E+03  0.93869488680E+03  0.50400001928E-02 0.  1.
</event>
<event>
 5   0  0.5849604E-05  0.2191832E+04  0.7818609E-02  0.8521835E-01
        1   -1    0    0  501    0  0.00000000000E+00  0.00000000000E+00  0.10128417485E+04  0.10128417485E+04  0.50400001928E-02 0. -1.
       -1   -1    0    0    0  501  0.00000000000E+00  0.00000000000E+00 -0.11858043138E+04  0.11858043138E+04  0.50400001928E-02 0.  1.
    10030    2    1    2    0    0  0.00000000000E+00  0.00000000000E+00 -0.17296256528E+03  0.21986460622E+04  0.21918322148E+04 0.  0.
        2    1    3    3  502    0 -0.33412812386E+03 -0.30206978388E+03 -0.10886588896E+04  0.11781621007E+04  0.25500000920E-02 0.  1.
       -2    1    3    3    0  502  0.33412812386E+03  0.30206978388E+03  0.91569632432E+03  0.10204839616E+04  0.25500000920E-02 0. -1.
</event>
<event>
 5   0  0.5849604E-05  0.2168289E+04  0.7818609E-02  0.8531744E-01
       -1   -1    0    0    0  501  0.00000000000E+00  0.00000000000E+00  0.84512046769E+03  0.84512046771E+03  0.50400001928E-02 0.  1.
        1   -1    0    0  501    0  0.00000000000E+00  0.00000000000E+00 -0.13907719275E+04  0.13907719275E+04  0.50400001928E-02 0. -1.
    10030    2    1    2    0    0  0.00000000000E+00  0.00000000000E+00 -0.54565145982E+03  0.22358923952E+04  0.21682894842E+04 0.  0.
        2    1    3    3  502    0 -0.60840678244E+03 -0.36848696874E+03  0.57086968650E+03  0.91204915329E+03  0.25500000920E-02 0.  1.
       -2    1    3    3    0  502  0.60840678244E+03  0.36848696874E+03 -0.11165211463E+04  0.13238432419E+04  0.25500000920E-02 0. -1.
</event>
<event>
 5   0  0.6263558E-05  0.2152683E+04  0.7818609E-02  0.8538385E-01
        1   -1    0    0  501    0  0.00000000000E+00  0.00000000000E+00  0.18293264825E+04  0.18293264825E+04  0.50400001928E-02 0. -1.
       -1   -1    0    0    0  501  0.00000000000E+00  0.00000000000E+00 -0.63329936087E+03  0.63329936089E+03  0.50400001928E-02 0.  1.
    10030    2    1    2    0    0  0.00000000000E+00  0.00000000000E+00  0.11960271216E+04  0.24626258434E+04  0.21526832486E+04 0.  0.
        3    1    3    3  502    0 -0.98970134896E+03  0.42240380870E+03  0.57052126897E+03  0.12179606998E+04  0.10100000352E+00 0.  1.
       -3    1    3    3    0  502  0.98970134896E+03 -0.42240380870E+03  0.62550585265E+03  0.12446651436E+04  0.10100000352E+00 0. -1.
</event>
<event>
 5   0  0.5895063E-05  0.2269921E+04  0.7818609E-02  0.8489876E-01
        1   -1    0    0  501    0  0.00000000000E+00  0.00000000000E+00  0.11260898499E+04  0.11260898500E+04  0.50400001928E-02 0.  1.
       -1   -1    0    0    0  501  0.00000000000E+00  0.00000000000E+00 -0.11439007364E+04  0.11439007364E+04  0.50400001928E-02 0. -1.
    10030    2    1    2    0    0  0.00000000000E+00  0.00000000000E+00 -0.17810886432E+02  0.22699905863E+04  0.22699207110E+04 0.  0.
        5    1    3    3  502    0 -0.14942672017E+03 -0.11075887528E+04  0.18866513050E+03  0.11334451074E+04  0.46999998093E+01 0.  1.
       -5    1    3    3    0  502  0.14942672017E+03  0.11075887528E+04 -0.20647601693E+03  0.11365454789E+04  0.46999998093E+01 0. -1.
</event>
<event>
 5   0  0.5981239E-05  0.2243644E+04  0.7818609E-02  0.8500479E-01
       -1   -1    0    0    0  501  0.00000000000E+00  0.00000000000E+00  0.78516740723E+03  0.78516740725E+03  0.50400001928E-02 0.  1.
        1   -1    0    0  501    0  0.00000000000E+00  0.00000000000E+00 -0.16028226926E+04  0.16028226926E+04  0.50400001928E-02 0. -1.
    10030    2    1    2    0    0  0.00000000000E+00  0.00000000000E+00 -0.81765528534E+03  0.23879900998E+04  0.22436435883E+04 0.  0.
        4    1    3    3  502    0 -0.31885382396E+03 -0.37127187019E+03 -0.14832122323E+04  0.15618676966E+04  0.12699999809E+01 0. -1.
       -4    1    3    3    0  502  0.31885382396E+03  0.37127187019E+03  0.66555694695E+03  0.82612240327E+03  0.12699999809E+01 0.  1.
</event>
<event>
 5   0  0.1311472E-04  0.2178732E+04  0.7818609E-02  0.8527333E-01
       -2   -1    0    0    0  501  0.00000000000E+00  0.00000000000E+00  0.95393232327E+03  0.95393232328E+03  0.25500000920E-02 0. -1.
        2   -1    0    0  501    0  0.00000000000E+00  0.00000000000E+00 -0.12440272627E+04  0.12440272627E+04  0.25500000920E-02 0.  1.
    10030    2    1    2    0    0  0.00000000000E+00  0.00000000000E+00 -0.29009493938E+03  0.21979595859E+04  0.21787315731E+04 0.  0.
        4    1    3    3  502    0 -0.94406953529E+03 -0.54302646967E+03 -0.16915754578E+03  0.11021619311E+04  0.12699999809E+01 0. -1.
       -4    1    3    3    0  502  0.94406953529E+03  0.54302646967E+03 -0.12093739360E+03  0.10957976548E+04  0.12699999809E+01 0.  1.
</event>
<event>
 5   0  0.1241430E-04  0.2206711E+04  0.7818609E-02  0.8515640E-01
        2   -1    0    0  501    0  0.00000000000E+00  0.00000000000E+00  0.10631397094E+04  0.10631397094E+04  0.25500000920E-02 0. -1.
       -2   -1    0    0    0  501  0.00000000000E+00  0.00000000000E+00 -0.11450925922E+04  0.11450925922E+04  0.25500000920E-02 0.  1.
    10030    2    1    2    0    0  0.00000000000E+00  0.00000000000E+00 -0.81952882779E+02  0.22082323016E+04  0.22067110420E+04 0.  0.
        1    1    3    3  502    0 -0.86145666649E+03  0.94406525959E+02  0.64240958605E+03  0.10787540297E+04  0.50400001928E-02 0. -1.
       -1    1    3    3    0  502  0.86145666649E+03 -0.94406525959E+02 -0.72436246882E+03  0.11294782719E+04  0.50400001928E-02 0.  1.
</event>
<event>
 5   0  0.1252124E-04  0.1744552E+04  0.7818609E-02  0.8736355E-01
        2   -1    0    0  501    0  0.00000000000E+00  0.00000000000E+00  0.15213639420E+04  0.15213639420E+04  0.25500000920E-02 0.  1.
       -2   -1    0    0    0  501  0.00000000000E+00  0.00000000000E+00 -0.50012067333E+03  0.50012067334E+03  0.25500000920E-02 0. -1.
    10030    2    1    2    0    0  0.00000000000E+00  0.00000000000E+00  0.10212432686E+04  0.20214846153E+04  0.17445521592E+04 0.  0.
        3    1    3    3  502    0 -0.69377795478E+03 -0.48958665225E+03  0.74191350171E+03  0.11275897281E+04  0.10100000352E+00 0.  1.
       -3    1    3    3    0  502  0.69377795478E+03  0.48958665225E+03  0.27932976694E+03  0.89389488727E+03  0.10100000352E+00 0. -1.
</event>
<event>
 5   0  0.1226021E-04  0.2214879E+04  0.7818609E-02  0.8512260E-01
       -2   -1    0    0    0  501  0.00000000000E+00  0.00000000000E+00  0.80198641104E+03  0.80198641104E+03  0.25500000920E-02 0. -1.
        2   -1    0    0  501    0  0.00000000000E+00  0.00000000000E+00 -0.15292312912E+04  0.15292312912E+04  0.25500000920E-02 0.  1.
    10030    2    1    2    0    0  0.00000000000E+00  0.00000000000E+00 -0.72724488013E+03  0.23312177022E+04  0.22148794232E+04 0.  0.
        2    1    3    3  502    0 -0.19423347107E+02  0.30804066717E+03  0.75580016230E+03  0.81639463765E+03  0.25500000920E-02 0. -1.
       -2    1    3    3    0  502  0.19423347107E+02 -0.30804066717E+03 -0.14830450424E+04  0.15148230646E+04  0.25500000920E-02 0.  1.
</event>
<event>
 5   0  0.5849604E-05  0.2148166E+04  0.7818609E-02  0.8540318E-01
        1   -1    0    0  501    0  0.00000000000E+00  0.00000000000E+00  0.12137301984E+04  0.12137301984E+04  0.50400001928E-02 0.  1.
       -1   -1    0    0    0  501  0.00000000000E+00  0.00000000000E+00 -0.95050343786E+03  0.95050343788E+03  0.50400001928E-02 0. -1.
    10030    2    1    2    0    0  0.00000000000E+00  0.00000000000E+00  0.26322676056E+03  0.21642336363E+04  0.21481664053E+04 0.  0.
        2    1    3    3  502    0 -0.10104841086E+03 -0.57839553896E+02 -0.94412686115E+03  0.95127899445E+03  0.25500000920E-02 0. -1.
       -2    1    3    3    0  502  0.10104841086E+03  0.57839553896E+02  0.12073536217E+04  0.12129546419E+04  0.25500000920E-02 0.  1.
</event>
<event>
 5   0  0.5861816E-05  0.1733540E+04  0.7818609E-02  0.8742463E-01
        1   -1    0    0  501    0  0.00000000000E+00  0.00000000000E+00  0.74330913420E+03  0.74330913422E+03  0.50400001928E-02 0.  1.
       -1   -1    0    0    0  501  0.00000000000E+00  0.00000000000E+00 -0.10107374766E+04  0.10107374766E+04  0.50400001928E-02 0. -1.
    10030    2    1    2    0    0  0.00000000000E+00  0.00000000000E+00 -0.26742834242E+03  0.17540466108E+04  0.17335401913E+04 0.  0.
        1    1    3    3  502    0  0.67607592603E+03 -0.53990895246E+03 -0.18638825421E+03  0.88505418819E+03  0.50400001928E-02 0. -1.
       -1    1    3    3    0  502 -0.67607592603E+03  0.53990895246E+03 -0.81040088210E+02  0.86899242265E+03  0.50400001928E-02 0.  1.
</event>
<event>
 5   0  0.1404159E-04  0.2205439E+04  0.7818609E-02  0.8516168E-01
       -2   -1    0    0    0  501  0.00000000000E+00  0.00000000000E+00  0.17113598289E+04  0.17113598289E+04  0.25500000920E-02 0. -1.
        2   -1    0    0  501    0  0.00000000000E+00  0.00000000000E+00 -0.71054013646E+03  0.71054013647E+03  0.25500000920E-02 0.  1.
    10030    2    1    2    0    0  0.00000000000E+00  0.00000000000E+00  0.10008196925E+04  0.24218999654E+04  0.22054385926E+04 0.  0.
        5    1    3    3  502    0 -0.29908123460E+02  0.68766987609E+03  0.14464658582E+04  0.16018957280E+04  0.46999998093E+01 0. -1.
       -5    1    3    3    0  502  0.29908123460E+02 -0.68766987609E+03 -0.44564616575E+03  0.82000423742E+03  0.46999998093E+01 0.  1.
</event>
<event>
 5   0  0.1241430E-04  0.2180051E+04  0.7818609E-02  0.8526778E-01
        2   -1    0    0  501    0  0.00000000000E+00  0.00000000000E+00  0.81789830669E+03  0.81789830669E+03  0.25500000920E-02 0. -1.
       -2   -1    0    0    0  501  0.00000000000E+00  0.00000000000E+00 -0.14526930437E+04  0.14526930437E+04  0.25500000920E-02 0.  1.
    10030    2    1    2    0    0  0.00000000000E+00  0.00000000000E+00 -0.63479473704E+03  0.22705913504E+04  0.21800506238E+04 0.  0.
        1    1    3    3  502    0  0.91111718030E+03  0.51419468889E+03  0.12916687873E+01  0.10461990072E+04  0.50400001928E-02 0.  1.
       -1    1    3    3    0  502 -0.91111718030E+03 -0.51419468889E+03 -0.63608640582E+03  0.12243923432E+04  0.50400001928E-02 0. -1.
</event>
<event>
 5   0  0.5895063E-05  0.1433096E+04  0.7818609E-02  0.8930204E-01
       -1   -1    0    0    0  501  0.00000000000E+00  0.00000000000E+00  0.36978634482E+03  0.36978634486E+03  0.50400001928E-02 0.  1.
        1   -1    0    0  501    0  0.00000000000E+00  0.00000000000E+00 -0.13884801360E+04  0.13884801360E+04  0.50400001928E-02 0. -1.
    10030    2    1    2    0    0  0.00000000000E+00  0.00000000000E+00 -0.10186937911E+04  0.17582664808E+04  0.14330959415E+04 0.  0.
        5    1    3    3  502    0  0.17898670445E+03 -0.28886418446E+03 -0.12833065264E+04  0.13275452867E+04  0.46999998093E+01 0. -1.
       -5    1    3    3    0  502 -0.17898670445E+03  0.28886418446E+03  0.26461273527E+03  0.43072119416E+03  0.46999998093E+01 0.  1.
</event>
<event>
 5   0  0.6263558E-05  0.2291808E+04  0.7818609E-02  0.8481158E-01
        1   -1    0    0  501    0  0.00000000000E+00  0.00000000000E+00  0.15415003910E+04  0.15415003910E+04  0.50400001928E-02 0. -1.
       -1   -1    0    0    0  501  0.00000000000E+00  0.00000000000E+00 -0.85182954206E+03  0.85182954207E+03  0.50400001928E-02 0.  1.
    10030    2    1    2    0    0  0.00000000000E+00  0.00000000000E+00  0.68967084897E+03  0.23933299331E+04  0.22918076466E+04 0.  0.
        3    1    3    3  502    0 -0.21177628479E+03  0.69236330050E+03  0.12723691798E+04  0.14639465409E+04  0.10100000352E+00 0. -1.
       -3    1    3    3    0  502  0.21177628479E+03 -0.69236330050E+03 -0.58269833086E+03  0.92938339219E+03  0.10100000352E+00 0.  1.
</event>
<event>
 5   0  0.1404159E-04  0.2258010E+04  0.7818609E-02  0.8494664E-01
       -2   -1    0    0    0  501  0.00000000000E+00  0.00000000000E+00  0.97080714192E+03  0.97080714192E+03  0.25500000920E-02 0.  1.
        2   -1    0    0  501    0  0.00000000000E+00  0.00000000000E+00 -0.13129818060E+04  0.13129818060E+04  0.25500000920E-02 0. -1.
    10030    2    1    2    0    0  0.00000000000E+00  0.00000000000E+00 -0.34217466405E+03  0.22837889479E+04  0.22580098445E+04 0.  0.
        5    1    3    3  502    0 -0.24842982978E+03 -0.83358442855E+03  0.55688659658E+03  0.10328238724E+04  0.46999998093E+01 0.  1.
       -5    1    3    3    0  502  0.24842982978E+03  0.83358442855E+03 -0.89906126063E+03  0.12509650755E+04  0.46999998093E+01 0. -1.
</event>
<event>
 5   0  0.6263558E-05  0.2136783E+04  0.7818609E-02  0.8545211E-01
        1   -1    0    0  501    0  0.00000000000E+00  0.00000000000E+00  0.17253694835E+04  0.17253694835E+04  0.50400001928E-02 0. -1.
       -1   -1    0    0    0  501  0.00000000000E+00  0.00000000000E+00 -0.66157466344E+03  0.66157466346E+03  0.50400001928E-02 0.  1.
    10030    2    1    2    0    0  0.00000000000E+00  0.00000000000E+00  0.10637948200E+04  0.23869441469E+04  0.21367833164E+04 0.  0.
        3    1    3    3  502    0 -0.43414027535E+03  0.39280578249E+03 -0.46642302726E+03  0.74854833645E+03  0.10100000352E+00 0.  1.
       -3    1    3    3    0  502  0.43414027535E+03 -0.39280578249E+03  0.15302178473E+04  0.16383958105E+04  0.10100000352E+00 0. -1.
</event>
<event>
 5   0  0.1252124E-04  0.2198670E+04  0.7818609E-02  0.8518982E-01
       -2   -1    0    0    0  501  0.00000000000E+00  0.00000000000E+00  0.16133617672E+04  0.16133617672E+04  0.25500000920E-02 0.  1.
        2   -1    0    0  501    0  0.00000000000E+00  0.00000000000E+00 -0.74908006814E+03  0.74908006814E+03  0.25500000920E-02 0. -1.
    10030    2    1    2    0    0  0.00000000000E+00  0.00000000000E+00  0.86428169906E+03  0.23624418353E+04  0.21986697274E+04 0.  0.
        3    1    3    3  502    0  0.57012067102E+03 -0.20169861206E+03  0.14185743858E+04  0.15421002587E+04  0.10100000352E+00 0.  1.
       -3    1    3    3    0  502 -0.57012067102E+03  0.20169861206E+03 -0.55429268673E+03  0.82034157666E+03  0.10100000352E+00 0. -1.
</event>
<event>
 5   0  0.5849604E-05  0.2189822E+04  0.7818609E-02  0.8522676E-01
       -1   -1    0    0    0  501  0.00000000000E+00  0.00000000000E+00  0.57216266054E+03  0.57216266056E+03  0.50400001928E-02 0. -1.
        1   -1    0    0  501    0  0.00000000000E+00  0.00000000000E+00 -0.20952614131E+04  0.20952614131E+04  0.50400001928E-02 0.  1.
    10030    2    1    2    0    0  0.00000000000E+00  0.00000000000E+00 -0.15230987526E+04  0.26674240737E+04  0.21898222254E+04 0.  0.
        2    1    3    3  502    0  0.46715738927E+03 -0.37975264021E+03  0.35245170148E+03  0.69761758577E+03  0.25500000920E-02 0. -1.
       -2    1    3    3    0  502 -0.46715738927E+03  0.37975264021E+03 -0.18755504540E+04  0.19698064879E+04  0.25500000920E-02 0.  1.
</event>
<event>
 5   0  0.1241430E-04  0.2185789E+04  0.7818609E-02  0.8524366E-01
       -2   -1    0    0    0  501  0.00000000000E+00  0.00000000000E+00  0.58613501121E+03  0.58613501122E+03  0.25500000920E-02 0. -1.
        2   -1    0    0  501    0  0.00000000000E+00  0.00000000000E+00 -0.20377879213E+04  0.20377879214E+04  0.25500000920E-02 0.  1.
    10030    2    1    2    0    0  0.00000000000E+00  0.00000000000E+00 -0.14516529101E+04  0.26239229326E+04  0.21857894191E+04 0.  0.
        1    1    3    3  502    0  0.29605392336E+03 -0.63858191565E+03 -0.17294628254E+04  0.18672108753E+04  0.50400001928E-02 0.  1.
       -1    1    3    3    0  502 -0.29605392336E+03  0.63858191565E+03  0.27780991525E+03  0.75671205724E+03  0.50400001928E-02 0. -1.
</event>
<event>
 5   0  0.5849604E-05  0.2213750E+04  0.7818609E-02  0.8512727E-01
        1   -1    0    0  501    0  0.00000000000E+00  0.00000000000E+00  0.16825708574E+04  0.16825708574E+04  0.50400001928E-02 0. -1.
       -1   -1    0    0    0  501  0.00000000000E+00  0.00000000000E+00 -0.72815474287E+03  0.72815474288E+03  0.50400001928E-02 0.  1.
    10030    2    1    2    0    0  0.00000000000E+00  0.00000000000E+00  0.95441611452E+03  0.24107256003E+04  0.22137497149E+04 0.  0.
        2    1    3    3  502    0  0.27672235883E+03  0.77612117637E+03 -0.32762919893E+03  0.88672444214E+03  0.25500000920E-02 0.  1.
       -2    1    3    3    0  502 -0.27672235883E+03 -0.77612117637E+03  0.12820453134E+04  0.15240011581E+04  0.25500000920E-02 0. -1.
</event>
<event>
 5   0  0.1311472E-04  0.2210327E+04  0.7818609E-02  0.8514142E-01
       -2   -1    0    0    0  501  0.00000000000E+00  0.00000000000E+00  0.21643352286E+04  0.21643352286E+04  0.25500000920E-02 0.  1.
        2   -1    0    0  501    0  0.00000000000E+00  0.00000000000E+00 -0.56432379759E+03  0.56432379760E+03  0.25500000920E-02 0. -1.
    10030    2    1    2    0    0  0.00000000000E+00  0.00000000000E+00  0.16000114311E+04  0.27286590262E+04  0.22103265600E+04 0.  0.
        4    1    3    3  502    0 -0.97536668268E+02  0.68809579186E+03  0.18608147584E+04  0.19863590809E+04  0.12699999809E+01 0.  1.
       -4    1    3    3    0  502  0.97536668268E+02 -0.68809579186E+03 -0.26080332731E+03  0.74229994535E+03  0.12699999809E+01 0. -1.
</event>
<event>
 5   0  0.5981239E-05  0.2181644E+04  0.7818609E-02  0.8526107E-01
       -1   -1    0    0    0  501  0.00000000000E+00  0.00000000000E+00  0.57561966534E+03  0.57561966536E+03  0.50400001928E-02 0.  1.
        1   -1    0    0  501    0  0.00000000000E+00  0.00000000000E+00 -0.20671507088E+04  0.20671507088E+04  0.50400001928E-02 0. -1.
    10030    2    1    2    0    0  0.00000000000E+00  0.00000000000E+00 -0.14915310434E+04  0.26427703741E+04  0.21816439666E+04 0.  0.
        4    1    3    3  502    0 -0.18792412933E+03  0.10667561462E+04 -0.58965975168E+03  0.12332819586E+04  0.12699999809E+01 0.  1.
       -4    1    3    3    0  502  0.18792412933E+03 -0.10667561462E+04 -0.90187129176E+03  0.14094884155E+04  0.12699999809E+01 0. -1.
</event>
<event>
 5   0  0.4586375E-05  0.2297560E+04  0.7818609E-02  0.8478884E-01
        4   -1    0    0  501    0  0.00000000000E+00  0.00000000000E+00  0.11970013100E+04  0.11970019837E+04  0.12699999809E+01 0.  1.
       -4   -1    0    0    0  501  0.00000000000E+00  0.00000000000E+00 -0.11024995953E+04  0.11025003268E+04  0.12699999809E+01 0. -1.
    10030    2    1    2    0    0  0.00000000000E+00  0.00000000000E+00  0.94501714709E+02  0.22995023105E+04  0.22975596406E+04 0.  0.
        1    1    3    3  502    0 -0.66714996403E+03 -0.92406055030E+03 -0.96808682214E+02  0.11438307987E+04  0.50400001928E-02 0. -1.
       -1    1    3    3    0  502  0.66714996403E+03  0.92406055030E+03  0.19131039692E+03  0.11556715118E+04  0.50400001928E-02 0.  1.
</event>
<event>
 5   0  0.5895063E-05  0.2215157E+04  0.7818609E-02  0.8512146E-01
        1   -1    0    0  501    0  0.00000000000E+00  0.00000000000E+00  0.16092678784E+04  0.16092678784E+04  0.50400001928E-02 0. -1.
       -1   -1    0    0    0  501  0.00000000000E+00  0.00000000000E+00 -0.76229053530E+03  0.76229053531E+03  0.50400001928E-02 0.  1.
    10030    2    1    2    0    0  0.00000000000E+00  0.00000000000E+00  0.84697734314E+03  0.23715584138E+04  0.22151565836E+04 0.  0.
        5    1    3    3  502    0  0.24714260021E+03 -0.13758606860E+03  0.15699356108E+04  0.15952207695E+04  0.46999998093E+01 0. -1.
       -5    1    3    3    0  502 -0.24714260021E+03  0.13758606860E+03 -0.72295826771E+03  0.77633764430E+03  0.46999998093E+01 0.  1.
</event>
<event>
 5   0  0.5849604E-05  0.2145654E+04  0.7818609E-02  0.8541395E-01
        1   -1    0    0  501    0  0.00000000000E+00  0.00000000000E+00  0.15273277781E+04  0.15273277781E+04  0.50400001928E-02 0. -1.
       -1   -1    0    0    0  501  0.00000000000E+00  0.00000000000E+00 -0.75357647881E+03  0.75357647883E+03  0.50400001928E-02 0.  1.
    10030    2    1    2    0    0  0.00000000000E+00  0.00000000000E+00  0.77375129926E+03  0.22809042569E+04  0.21456544820E+04 0.  0.
        2    1    3    3  502    0  0.10332324259E+04 -0.95744591113E+02  0.97265590987E+02  0.10422076894E+04  0.25500000920E-02 0.  1.
       -2    1    3    3    0  502 -0.10332324259E+04  0.95744591113E+02  0.67648570828E+03  0.12386965675E+04  0.25500000920E-02 0. -1.
</event>
<event>
 5   0  0.6263558E-05  0.1814633E+04  0.7818609E-02  0.8698556E-01
       -1   -1    0    0    0  501  0.00000000000E+00  0.00000000000E+00  0.75154208722E+03  0.75154208723E+03  0.50400001928E-02 0. -1.
        1   -1    0    0  501    0  0.00000000000E+00  0.00000000000E+00 -0.10953790243E+04  0.10953790243E+04  0.50400001928E-02 0.  1.
    10030    2    1    2    0    0  0.00000000000E+00  0.00000000000E+00 -0.34383693708E+03  0.18469211115E+04  0.18146332282E+04 0.  0.
        3    1    3    3  502    0 -0.12737585064E+03 -0.87087093399E+03 -0.39625501441E+03  0.96522476016E+03  0.10100000352E+00 0.  1.
       -3    1    3    3    0  502  0.12737585064E+03  0.87087093399E+03  0.52418077336E+02  0.88169635137E+03  0.10100000352E+00 0. -1.
</event>
<event>
 5   0  0.5895063E-05  0.2136018E+04  0.7818609E-02  0.8545541E-01
       -1   -1    0    0    0  501  0.00000000000E+00  0.00000000000E+00  0.51985414045E+03  0.51985414048E+03  0.50400001928E-02 0.  1.
        1   -1    0    0  501    0  0.00000000000E+00  0.00000000000E+00 -0.21941610906E+04  0.21941610906E+04  0.50400001928E-02 0. -1.
    10030    2    1    2    0    0  0.00000000000E+00  0.00000000000E+00 -0.16743069502E+04  0.27140152311E+04  0.21360184717E+04 0.  0.
        5    1    3    3  502    0  0.41241584005E+02  0.91919123295E+03 -0.15261024095E+04  0.17820280709E+04  0.46999998093E+01 0. -1.
       -5    1    3    3    0  502 -0.41241584005E+02 -0.91919123295E+03 -0.14820454064E+03  0.93198716024E+03  0.46999998093E+01 0.  1.
</event>
<event>
 5   0  0.5895063E-05  0.2224923E+04  0.7818609E-02  0.8508126E-01
        1   -1    0    0  501    0  0.00000000000E+00  0.00000000000E+00  0.10542125728E+04  0.10542125728E+04  0.50400001928E-02 0.  1.
       -1   -1    0    0    0  501  0.00000000000E+00  0.00000000000E+00 -0.11739284549E+04  0.11739284550E+04  0.50400001928E-02 0. -1.
    10030    2    1    2    0    0  0.00000000000E+00  0.00000000000E+00 -0.11971588214E+03  0.22281410278E+04  0.22249225935E+04 0.  0.
        5    1    3    3  502    0  0.11163531252E+03  0.85883811758E+03 -0.75906752034E+03  0.11516383745E+04  0.46999998093E+01 0. -1.
       -5    1    3    3    0  502 -0.11163531252E+03 -0.85883811758E+03  0.63935163820E+03  0.10765026533E+04  0.46999998093E+01 0.  1.
</event>
<event>
 5   0  0.5895063E-05  0.2251020E+04  0.7818609E-02  0.8497488E-01
       -1   -1    0    0    0  501  0.00000000000E+00  0.00000000000E+00  0.68327152457E+03  0.68327152459E+03  0.50400001928E-02 0.  1.
        1   -1    0    0  501    0  0.00000000000E+00  0.00000000000E+00 -0.18539811719E+04  0.18539811719E+04  0.50400001928E-02 0. -1.
    10030    2    1    2    0    0  0.00000000000E+00  0.00000000000E+00 -0.11707096473E+04  0.25372526965E+04  0.22510198061E+04 0.  0.
        5    1    3    3  502    0  0.63573192257E+03 -0.32356225470E+03 -0.15666308173E+04  0.17213953113E+04  0.46999998093E+01 0. -1.
       -5    1    3    3    0  502 -0.63573192257E+03  0.32356225470E+03  0.39592117002E+03  0.81585738515E+03  0.46999998093E+01 0.  1.
</event>
<event>
 5   0  0.1311472E-04  0.2271562E+04  0.7818609E-02  0.8489219E-01
        2   -1    0    0  501    0  0.00000000000E+00  0.00000000000E+00  0.20964161966E+04  0.20964161966E+04  0.25500000920E-02 0.  1.
       -2   -1    0    0    0  501  0.00000000000E+00  0.00000000000E+00 -0.61533517518E+03  0.61533517519E+03  0.25500000920E-02 0. -1.
    10030    2    1    2    0    0  0.00000000000E+00  0.00000000000E+00  0.14810810215E+04  0.27117513718E+04  0.22715621300E+04 0.  0.
        4    1    3    3  502    0 -0.34087055361E+03 -0.92621494440E+01  0.20338641701E+04  0.20622520692E+04  0.12699999809E+01 0.  1.
       -4    1    3    3    0  502  0.34087055361E+03  0.92621494440E+01 -0.55278314865E+03  0.64949930259E+03  0.12699999809E+01 0. -1.
</event>
<event>
 5   0  0.5981239E-05  0.2044464E+04  0.7818609E-02  0.8586110E-01
        1   -1    0    0  501    0  0.00000000000E+00  0.00000000000E+00  0.84248442511E+03  0.84248442513E+03  0.50400001928E-02 0.  1.
       -1   -1    0    0    0  501  0.00000000000E+00  0.00000000000E+00 -0.12403298268E+04  0.12403298269E+04  0.50400001928E-02 0. -1.
    10030    2    1    2    0    0  0.00000000000E+00  0.00000000000E+00 -0.39784540174E+03  0.20828142520E+04  0.20444642928E+04 0.  0.
        4    1    3    3  502    0  0.76691605737E+03  0.51570617049E+03 -0.64397402867E+03  0.11264178869E+04  0.12699999809E+01 0. -1.
       -4    1    3    3    0  502 -0.76691605737E+03 -0.51570617049E+03  0.24612862694E+03  0.95639636513E+03  0.12699999809E+01 0.  1.
</event>
<event>
 5   0  0.1252124E-04  0.2216779E+04  0.7818609E-02  0.8511476E-01
        2   -1    0    0  501    0  0.00000000000E+00  0.00000000000E+00  0.60966561172E+03  0.60966561172E+03  0.25500000920E-02 0. -1.
       -2   -1    0    0    0  501  0.00000000000E+00  0.00000000000E+00 -0.20150844548E+04  0.20150844548E+04  0.25500000920E-02 0.  1.
    10030    2    1    2    0    0  0.00000000000E+00  0.00000000000E+00 -0.14054188431E+04  0.26247500665E+04  0.22167793727E+04 0.  0.
        3    1    3    3  502    0  0.72473785957E+02 -0.63359467561E+03  0.37067991887E+03  0.73763017499E+03  0.10100000352E+00 0. -1.
       -3    1    3    3    0  502 -0.72473785957E+02  0.63359467561E+03 -0.17760987619E+04  0.18871198915E+04  0.10100000352E+00 0.  1.
</event>
<event>
 5   0  0.1241430E-04  0.2478026E+04  0.7818609E-02  0.8410856E-01
        2   -1    0    0  501    0  0.00000000000E+00  0.00000000000E+00  0.15803197395E+04  0.15803197395E+04  0.25500000920E-02 0. -1.
       -2   -1    0    0    0  501  0.00000000000E+00  0.00000000000E+00 -0.97141919187E+03  0.97141919187E+03  0.25500000920E-02 0.  1.
    10030    2    1    2    0    0  0.00000000000E+00  0.00000000000E+00  0.60890054768E+03  0.25517389314E+04  0.24780257660E+04 0.  0.
        1    1    3    3  502    0  0.65401178319E+03 -0.88615586500E+03  0.88891595369E+03  0.14153357207E+04  0.50400001928E-02 0. -1.
       -1    1    3    3    0  502 -0.65401178319E+03  0.88615586500E+03 -0.28001540602E+03  0.11364032107E+04  0.50400001928E-02 0.  1.
</event>
<event>
 5   0  0.5981239E-05  0.2276017E+04  0.7818609E-02  0.8487438E-01
        1   -1    0    0  501    0  0.00000000000E+00  0.00000000000E+00  0.13742397716E+04  0.13742397716E+04  0.50400001928E-02 0. -1.
       -1   -1    0    0    0  501  0.00000000000E+00  0.00000000000E+00 -0.94238530424E+03  0.94238530425E+03  0.50400001928E-02 0.  1.
    10030    2    1    2    0    0  0.00000000000E+00  0.00000000000E+00  0.43185446732E+03  0.23166250758E+04  0.22760170168E+04 0.  0.
        4    1    3    3  502    0 -0.47664531405E+03 -0.95268351126E+02 -0.83140911511E+03  0.96307296905E+03  0.12699999809E+01 0.  1.
       -4    1    3    3    0  502  0.47664531405E+03  0.95268351126E+02  0.12632635824E+04  0.13535521068E+04  0.12699999809E+01 0. -1.
</event>
<event>
 5   0  0.1241430E-04  0.2194106E+04  0.7818609E-02  0.8520885E-01
        2   -1    0    0  501    0  0.00000000000E+00  0.00000000000E+00  0.96129872811E+03  0.96129872812E+03  0.25500000920E-02 0. -1.
       -2   -1    0    0    0  501  0.00000000000E+00  0.00000000000E+00 -0.12519784514E+04  0.12519784514E+04  0.25500000920E-02 0.  1.
    10030    2    1    2    0    0  0.00000000000E+00  0.00000000000E+00 -0.29067972324E+03  0.22132771795E+04  0.21941060074E+04 0.  0.
        1    1    3    3  502    0 -0.64019231293E+03 -0.71441868993E+03 -0.68223566934E+03  0.11771515495E+04  0.50400001928E-02 0.  1.
       -1    1    3    3    0  502  0.64019231293E+03  0.71441868993E+03  0.39155594610E+03  0.10361256299E+04  0.50400001928E-02 0. -1.
</event>
<event>
 5   0  0.1241430E-04  0.2219256E+04  0.7818609E-02  0.8510456E-01
       -2   -1    0    0    0  501  0.00000000000E+00  0.00000000000E+00  0.70386039455E+03  0.70386039455E+03  0.25500000920E-02 0.  1.
        2   -1    0    0  501    0  0.00000000000E+00  0.00000000000E+00 -0.17493153269E+04  0.17493153269E+04  0.25500000920E-02 0. -1.
    10030    2    1    2    0    0  0.00000000000E+00  0.00000000000E+00 -0.10454549324E+04  0.24531757215E+04  0.22192555294E+04 0.  0.
        1    1    3    3  502    0 -0.13177149374E+03  0.13642389864E+03 -0.17312633421E+04  0.17416222227E+04  0.50400001928E-02 0. -1.
       -1    1    3    3    0  502  0.13177149374E+03 -0.13642389864E+03  0.68580840977E+03  0.71155349878E+03  0.50400001928E-02 0.  1.
</event>
<event>
 5   0  0.5849604E-05  0.2036939E+04  0.7818609E-02  0.8589543E-01
        1   -1    0    0  501    0  0.00000000000E+00  0.00000000000E+00  0.16913446617E+04  0.16913446617E+04  0.50400001928E-02 0. -1.
       -1   -1    0    0    0  501  0.00000000000E+00  0.00000000000E+00 -0.61328729509E+03  0.61328729511E+03  0.50400001928E-02 0.  1.
    10030    2    1    2    0    0  0.00000000000E+00  0.00000000000E+00  0.10780573666E+04  0.23046319568E+04  0.20369390690E+04 0.  0.
        2    1    3    3  502    0 -0.55163823190E+03 -0.18258685114E+03 -0.40733938846E+03  0.70962530571E+03  0.25500000920E-02 0.  1.
       -2    1    3    3    0  502  0.55163823190E+03  0.18258685114E+03  0.14853967551E+04  0.15950066511E+04  0.25500000920E-02 0. -1.
</event>
<event>
 5   0  0.1241430E-04  0.2204329E+04  0.7818609E-02  0.8516629E-01
       -2   -1    0    0    0  501  0.00000000000E+00  0.00000000000E+00  0.86868387667E+03  0.86868387667E+03  0.25500000920E-02 0. -1.
        2   -1    0    0  501    0  0.00000000000E+00  0.00000000000E+00 -0.13983986492E+04  0.13983986492E+04  0.25500000920E-02 0.  1.
    10030    2    1    2    0    0  0.00000000000E+00  0.00000000000E+00 -0.52971477254E+03  0.22670825259E+04  0.22043287956E+04 0.  0.
        1    1    3    3  502    0  0.11446743013E+02  0.35495169241E+03 -0.13379421349E+04  0.13842726929E+04  0.50400001928E-02 0.  1.
       -1    1    3    3    0  502 -0.11446743013E+02 -0.35495169241E+03  0.80822736239E+03  0.88280983298E+03  0.50400001928E-02 0. -1.
</event>
<event>
 5   0  0.5981239E-05  0.1811006E+04  0.7818609E-02  0.8700468E-01
        1   -1    0    0  501    0  0.00000000000E+00  0.00000000000E+00  0.10716717208E+04  0.10716717208E+04  0.50400001928E-02 0.  1.
       -1   -1    0    0    0  501  0.00000000000E+00  0.00000000000E+00 -0.76509989887E+03  0.76509989888E+03  0.50400001928E-02 0. -1.
    10030    2    1    2    0    0  0.00000000000E+00  0.00000000000E+00  0.30657182195E+03  0.18367716197E+04  0.18110062675E+04 0.  0.
        4    1    3    3  502    0 -0.38238467004E+03  0.54801604709E+03  0.77303982052E+03  0.10218276766E+04  0.12699999809E+01 0.  1.
       -4    1    3    3    0  502  0.38238467004E+03 -0.54801604709E+03 -0.46646799858E+03  0.81494394307E+03  0.12699999809E+01 0. -1.
</event>
<event>
 5   0  0.5849604E-05  0.2130233E+04  0.7818609E-02  0.8548041E-01
        1   -1    0    0  501    0  0.00000000000E+00  0.00000000000E+00  0.11463798032E+04  0.11463798032E+04  0.50400001928E-02 0.  1.
       -1   -1    0    0    0  501  0.00000000000E+00  0.00000000000E+00 -0.98961360146E+03  0.98961360147E+03  0.50400001928E-02 0. -1.
    10030    2    1    2    0    0  0.00000000000E+00  0.00000000000E+00  0.15676620170E+03  0.21359934046E+04  0.21302328940E+04 0.  0.
        2    1    3    3  502    0 -0.17123506470E+03 -0.77982003125E+03  0.78529474377E+03  0.11198788163E+04  0.25500000920E-02 0.  1.
       -2    1    3    3    0  502  0.17123506470E+03  0.77982003125E+03 -0.62852854207E+03  0.10161145884E+04  0.25500000920E-02 0. -1.
</event>
<event>
 5   0  0.5981239E-05  0.1810024E+04  0.7818609E-02  0.8700987E-01
        1   -1    0    0  501    0  0.00000000000E+00  0.00000000000E+00  0.14485431796E+04  0.14485431796E+04  0.50400001928E-02 0.  1.
       -1   -1    0    0    0  501  0.00000000000E+00  0.00000000000E+00 -0.56542812046E+03  0.56542812048E+03  0.50400001928E-02 0. -1.
    10030    2    1    2    0    0  0.00000000000E+00  0.00000000000E+00  0.88311505911E+03  0.20139713001E+04  0.18100243617E+04 0.  0.
        4    1    3    3  502    0  0.36123567401E+03  0.82966467184E+03  0.45771068841E+03  0.10140687191E+04  0.12699999809E+01 0.  1.
       -4    1    3    3    0  502 -0.36123567401E+03 -0.82966467184E+03  0.42540437070E+03  0.99990258095E+03  0.12699999809E+01 0. -1.
</event>
<event>
 5   0  0.1241430E-04  0.2155151E+04  0.7818609E-02  0.8537330E-01
       -2   -1    0    0    0  501  0.00000000000E+00  0.00000000000E+00  0.56631775671E+03  0.56631775672E+03  0.25500000920E-02 0. -1.
        2   -1    0    0  501    0  0.00000000000E+00  0.00000000000E+00 -0.20503846276E+04  0.20503846276E+04  0.25500000920E-02 0.  1.
    10030    2    1    2    0    0  0.00000000000E+00  0.00000000000E+00 -0.14840668708E+04  0.26167023843E+04  0.21551512454E+04 0.  0.
        1    1    3    3  502    0  0.10263639901E+03  0.74553199143E+03 -0.16784482543E+04  0.18394403288E+04  0.50400001928E-02 0.  1.
       -1    1    3    3    0  502 -0.10263639901E+03 -0.74553199143E+03  0.19438138347E+03  0.77726205550E+03  0.50400001928E-02 0. -1.
</event>
<event>
 5   0  0.5861816E-05  0.2204482E+04  0.7818609E-02  0.8516565E-01
        1   -1    0    0  501    0  0.00000000000E+00  0.00000000000E+00  0.17053977146E+04  0.17053977146E+04  0.50400001928E-02 0. -1.
       -1   -1    0    0    0  501  0.00000000000E+00  0.00000000000E+00 -0.71240594907E+03  0.71240594909E+03  0.50400001928E-02 0.  1.
    10030    2    1    2    0    0  0.00000000000E+00  0.00000000000E+00  0.99299176552E+03  0.24178036637E+04  0.22044822317E+04 0.  0.
        1    1    3    3  502    0  0.10632929900E+04  0.25689851018E+03  0.64505277983E+03  0.12699141372E+04  0.50400001928E-02 0. -1.
       -1    1    3    3    0  502 -0.10632929900E+04 -0.25689851018E+03  0.34793898569E+03  0.11478895265E+04  0.50400001928E-02 0.  1.
</event>
<event>
 5   0  0.5849604E-05  0.2210569E+04  0.7818609E-02  0.8514042E-01
        1   -1    0    0  501    0  0.00000000000E+00  0.00000000000E+00  0.72476989701E+03  0.72476989702E+03  0.50400001928E-02 0. -1.
       -1   -1    0    0    0  501  0.00000000000E+00  0.00000000000E+00 -0.16855754314E+04  0.16855754314E+04  0.50400001928E-02 0.  1.
    10030    2    1    2    0    0  0.00000000000E+00  0.00000000000E+00 -0.96080553439E+03  0.24103453284E+04  0.22105694577E+04 0.  0.
        2    1    3    3  502    0 -0.10607153044E+04  0.12393189352E+03 -0.79106965966E+03  0.13290098863E+04  0.25500000920E-02 0.  1.
       -2    1    3    3    0  502  0.10607153044E+04 -0.12393189352E+03 -0.16973587472E+03  0.10813354422E+04  0.25500000920E-02 0. -1.
</event>
<event>
 5   0  0.1226021E-04  0.2161062E+04  0.7818609E-02  0.8534812E-01
       -2   -1    0    0    0  501  0.00000000000E+00  0.00000000000E+00  0.42898100135E+03  0.42898100136E+03  0.25500000920E-02 0. -1.
        2   -1    0    0  501    0  0.00000000000E+00  0.00000000000E+00 -0.27216765944E+04  0.27216765944E+04  0.25500000920E-02 0.  1.
    10030    2    1    2    0    0  0.00000000000E+00  0.00000000000E+00 -0.22926955931E+04  0.31506575958E+04  0.21610622859E+04 0.  0.
        2    1    3    3  502    0 -0.18670419377E+03 -0.10190030368E+04 -0.69859304080E+03  0.12495030539E+04  0.25500000920E-02 0.  1.
       -2    1    3    3    0  502  0.18670419377E+03  0.10190030368E+04 -0.15941025523E+04  0.19011545419E+04  0.25500000920E-02 0. -1.
</event>
<event>
 5   0  0.1226021E-04  0.2194595E+04  0.7818609E-02  0.8520681E-01
        2   -1    0    0  501    0  0.00000000000E+00  0.00000000000E+00  0.11893061155E+04  0.11893061155E+04  0.25500000920E-02 0.  1.
       -2   -1    0    0    0  501  0.00000000000E+00  0.00000000000E+00 -0.10124071827E+04  0.10124071827E+04  0.25500000920E-02 0. -1.
    10030    2    1    2    0    0  0.00000000000E+00  0.00000000000E+00  0.17689893283E+03  0.22017132982E+04  0.21945952281E+04 0.  0.
        2    1    3    3  502    0 -0.69463544184E+03  0.12669581664E+03  0.93110936820E+03  0.11685610307E+04  0.25500000920E-02 0.  1.
       -2    1    3    3    0  502  0.69463544184E+03 -0.12669581664E+03 -0.75421043537E+03  0.10331522675E+04  0.25500000920E-02 0. -1.
</event>
<event>
 5   0  0.1404159E-04  0.2166754E+04  0.7818609E-02  0.8532394E-01
       -2   -1    0    0    0  501  0.00000000000E+00  0.00000000000E+00  0.12011807746E+04  0.12011807746E+04  0.25500000920E-02 0.  1.
        2   -1    0    0  501    0  0.00000000000E+00  0.00000000000E+00 -0.97712693887E+03  0.97712693888E+03  0.25500000920E-02 0. -1.
    10030    2    1    2    0    0  0.00000000000E+00  0.00000000000E+00  0.22405383574E+03  0.21783077135E+04  0.21667543408E+04 0.  0.
        5    1    3    3  502    0  0.24838555557E+02 -0.56791101582E+02 -0.97533251271E+03  0.97731150787E+03  0.46999998093E+01 0. -1.
       -5    1    3    3    0  502 -0.24838555557E+02  0.56791101582E+02  0.11993863485E+04  0.12009962056E+04  0.46999998093E+01 0.  1.
</event>
<event>
 5   0  0.1241430E-04  0.2177261E+04  0.7818609E-02  0.8527953E-01
       -2   -1    0    0    0  501  0.00000000000E+00  0.00000000000E+00  0.89033514218E+03  0.89033514219E+03  0.25500000920E-02 0.  1.
        2   -1    0    0  501    0  0.00000000000E+00  0.00000000000E+00 -0.13310902365E+04  0.13310902365E+04  0.25500000920E-02 0. -1.
    10030    2    1    2    0    0  0.00000000000E+00  0.00000000000E+00 -0.44075509430E+03  0.22214253787E+04  0.21772610454E+04 0.  0.
        1    1    3    3  502    0  0.47416107647E+03  0.94444622960E+03 -0.48703898446E+03  0.11636212354E+04  0.50400001928E-02 0. -1.
       -1    1    3    3    0  502 -0.47416107647E+03 -0.94444622960E+03  0.46283890162E+02  0.10578041433E+04  0.50400001928E-02 0.  1.
</event>
<event>
 5   0  0.6263558E-05  0.2151121E+04  0.7818609E-02  0.8539053E-01
        1   -1    0    0  501    0  0.00000000000E+00  0.00000000000E+00  0.74034743735E+03  0.74034743737E+03  0.50400001928E-02 0. -1.
       -1   -1    0    0    0  501  0.00000000000E+00  0.00000000000E+00 -0.15625507145E+04  0.15625507145E+04  0.50400001928E-02 0.  1.
    10030    2    1    2    0    0  0.00000000000E+00  0.00000000000E+00 -0.82220327717E+03  0.23028981519E+04  0.21511210261E+04 0.  0.
        3    1    3    3  502    0  0.83308778015E+03  0.68026865415E+03 -0.41693748160E+03  0.11535326458E+04  0.10100000352E+00 0. -1.
       -3    1    3    3    0  502 -0.83308778015E+03 -0.68026865415E+03 -0.40526579557E+03  0.11493655061E+04  0.10100000352E+00 0.  1.
</event>
<event>
 5   0  0.1311472E-04  0.2171970E+04  0.7818609E-02  0.8530186E-01
        2   -1    0    0  501    0  0.00000000000E+00  0.00000000000E+00  0.66570813547E+03  0.66570813547E+03  0.25500000920E-02 0.  1.
       -2   -1    0    0    0  501  0.00000000000E+00  0.00000000000E+00 -0.17715922549E+04  0.17715922549E+04  0.25500000920E-02 0. -1.
    10030    2    1    2    0    0  0.00000000000E+00  0.00000000000E+00 -0.11058841194E+04  0.24373003903E+04  0.21719699600E+04 0.  0.
        4    1    3    3  502    0  0.47781298735E+03  0.41456463068E+03  0.43761084467E+03  0.76920345044E+03  0.12699999809E+01 0.  1.
       -4    1    3    3    0  502 -0.47781298735E+03 -0.41456463068E+03 -0.15434949641E+04  0.16680969399E+04  0.12699999809E+01 0. -1.
</event>
<event>
 5   0  0.1404159E-04  0.2185841E+04  0.7818609E-02  0.8524345E-01
        2   -1    0    0  501    0  0.00000000000E+00  0.00000000000E+00  0.12943035040E+04  0.12943035040E+04  0.25500000920E-02 0. -1.
       -2   -1    0    0    0  501  0.00000000000E+00  0.00000000000E+00 -0.92287112984E+03  0.92287112985E+03  0.25500000920E-02 0.  1.
    10030    2    1    2    0    0  0.00000000000E+00  0.00000000000E+00  0.37143237414E+03  0.22171746338E+04  0.21858411078E+04 0.  0.
        5    1    3    3  502    0 -0.41480032424E+03 -0.19717303454E+03 -0.82022406973E+03  0.94006708756E+03  0.46999998093E+01 0.  1.
       -5    1    3    3    0  502  0.41480032424E+03  0.19717303454E+03  0.11916564439E+04  0.12771075463E+04  0.46999998093E+01 0. -1.
</event>
<event>
 5   0  0.1241430E-04  0.2197113E+04  0.7818609E-02  0.8519631E-01
        2   -1    0    0  501    0  0.00000000000E+00  0.00000000000E+00  0.17558220574E+04  0.17558220574E+04  0.25500000920E-02 0. -1.
       -2   -1    0    0    0  501  0.00000000000E+00  0.00000000000E+00 -0.68732819304E+03  0.68732819305E+03  0.25500000920E-02 0.  1.
    10030    2    1    2    0    0  0.00000000000E+00  0.00000000000E+00  0.10684938644E+04  0.24431502504E+04  0.21971126526E+04 0.  0.
        1    1    3    3  502    0 -0.10119026374E+04 -0.28742887733E+03  0.18214394985E+03  0.10675854653E+04  0.50400001928E-02 0. -1.
       -1    1    3    3    0  502  0.10119026374E+04  0.28742887733E+03  0.88634991451E+03  0.13755647852E+04  0.50400001928E-02 0.  1.
</event>
<event>
 5   0  0.5861816E-05  0.2937887E+04  0.7818609E-02  0.8261693E-01
       -1   -1    0    0    0  501  0.00000000000E+00  0.00000000000E+00  0.11592374792E+04  0.11592374792E+04  0.50400001928E-02 0. -1.
        1   -1    0    0  501    0  0.00000000000E+00  0.00000000000E+00 -0.18613914218E+04  0.18613914218E+04  0.50400001928E-02 0.  1.
    10030    2    1    2    0    0  0.00000000000E+00  0.00000000000E+00 -0.70215394258E+03  0.30206289010E+04  0.29378867913E+04 0.  0.
        1    1    3    3  502    0 -0.14358492057E+03  0.11760170802E+04 -0.12439600859E+04  0.17178677183E+04  0.50400001928E-02 0.  1.
       -1    1    3    3    0  502  0.14358492057E+03 -0.11760170802E+04  0.54180614331E+03  0.13027611827E+04  0.50400001928E-02 0. -1.
</event>
<event>
 5   0  0.4586375E-05  0.2223635E+04  0.7818609E-02  0.8508654E-01
       -4   -1    0    0    0  501  0.00000000000E+00  0.00000000000E+00  0.66643256163E+03  0.66643377172E+03  0.12699999809E+01 0. -1.
        4   -1    0    0  501    0  0.00000000000E+00  0.00000000000E+00 -0.18548561276E+04  0.18548565623E+04  0.12699999809E+01 0.  1.
    10030    2    1    2    0    0  0.00000000000E+00  0.00000000000E+00 -0.11884235659E+04  0.25212903341E+04  0.22236353965E+04 0.  0.
        1    1    3    3  502    0  0.44062219311E+02 -0.92850541353E+03  0.97419161111E+02  0.93464125476E+03  0.50400001928E-02 0. -1.
       -1    1    3    3    0  502 -0.44062219311E+02  0.92850541353E+03 -0.12858427271E+04  0.15866490793E+04  0.50400001928E-02 0.  1.
</event>
<event>
 5   0  0.5849604E-05  0.2194467E+04  0.7818609E-02  0.8520735E-01
       -1   -1    0    0    0  501  0.00000000000E+00  0.00000000000E+00  0.10205944500E+04  0.10205944500E+04  0.50400001928E-02 0. -1.
        1   -1    0    0  501    0  0.00000000000E+00  0.00000000000E+00 -0.11796274492E+04  0.11796274492E+04  0.50400001928E-02 0.  1.
    10030    2    1    2    0    0  0.00000000000E+00  0.00000000000E+00 -0.15903299917E+03  0.22002218992E+04  0.21944668853E+04 0.  0.
        2    1    3    3  502    0  0.65219694948E+03  0.52135958303E+02  0.80361251375E+03  0.10362779991E+04  0.25500000920E-02 0. -1.
       -2    1    3    3    0  502 -0.65219694948E+03 -0.52135958303E+02 -0.96264551292E+03  0.11639439001E+04  0.25500000920E-02 0.  1.
</event>
<event>
 5   0  0.1226021E-04  0.2230341E+04  0.7818609E-02  0.8505905E-01
       -2   -1    0    0    0  501  0.00000000000E+00  0.00000000000E+00  0.10132576548E+04  0.10132576548E+04  0.25500000920E-02 0.  1.
        2   -1    0    0  501    0  0.00000000000E+00  0.00000000000E+00 -0.12273338910E+04  0.12273338910E+04  0.25500000920E-02 0. -1.
    10030    2    1    2    0    0  0.00000000000E+00  0.00000000000E+00 -0.21407623619E+03  0.22405915459E+04  0.22303411937E+04 0.  0.
        2    1    3    3  502    0 -0.45868502358E+03  0.52894594519E+03  0.76495439108E+03  0.10369816701E+04  0.25500000920E-02 0.  1.
       -2    1    3    3    0  502  0.45868502358E+03 -0.52894594519E+03 -0.97903062727E+03  0.12036098757E+04  0.25500000920E-02 0. -1.
</event>
<event>
 5   0  0.1311472E-04  0.2576586E+04  0.7818609E-02  0.8376198E-01
        2   -1    0    0  501    0  0.00000000000E+00  0.00000000000E+00  0.14425126430E+04  0.14425126430E+04  0.25500000920E-02 0. -1.
       -2   -1    0    0    0  501  0.00000000000E+00  0.00000000000E+00 -0.11505611644E+04  0.11505611644E+04  0.25500000920E-02 0.  1.
    10030    2    1    2    0    0  0.00000000000E+00  0.00000000000E+00  0.29195147860E+03  0.25930738073E+04  0.25765861337E+04 0.  0.
        4    1    3    3  502    0  0.52964239459E+03  0.37379910111E+03  0.12664059760E+04  0.14226849768E+04  0.12699999809E+01 0. -1.
       -4    1    3    3    0  502 -0.52964239459E+03 -0.37379910111E+03 -0.97445449744E+03  0.11703888305E+04  0.12699999809E+01 0.  1.
</event>
<event>
 5   0  0.1404159E-04  0.2217887E+04  0.7818609E-02  0.8511020E-01
        2   -1    0    0  501    0  0.00000000000E+00  0.00000000000E+00  0.14197310932E+04  0.14197310932E+04  0.25500000920E-02 0.  1.
       -2   -1    0    0    0  501  0.00000000000E+00  0.00000000000E+00 -0.86618950131E+03  0.86618950131E+03  0.25500000920E-02 0. -1.
    10030    2    1    2    0    0  0.00000000000E+00  0.00000000000E+00  0.55354159191E+03  0.22859205945E+04  0.22178874341E+04 0.  0.
        5    1    3    3  502    0  0.72243692136E+03  0.30020009418E+03 -0.53327588227E+03  0.94680539632E+03  0.46999998093E+01 0. -1.
       -5    1    3    3    0  502 -0.72243692136E+03 -0.30020009418E+03  0.10868174742E+04  0.13391151982E+04  0.46999998093E+01 0.  1.
</event>
<event>
 5   0  0.5981239E-05  0.2211120E+04  0.7818609E-02  0.8513814E-01
       -1   -1    0    0    0  501  0.00000000000E+00  0.00000000000E+00  0.14784358746E+04  0.14784358746E+04  0.50400001928E-02 0. -1.
        1   -1    0    0  501    0  0.00000000000E+00  0.00000000000E+00 -0.82672738601E+03  0.82672738602E+03  0.50400001928E-02 0.  1.
    10030    2    1    2    0    0  0.00000000000E+00  0.00000000000E+00  0.65170848857E+03  0.23051632606E+04  0.22111204635E+04 0.  0.
        4    1    3    3  502    0  0.27237791335E+02 -0.73692587406E+03 -0.53286553117E+03  0.90980708304E+03  0.12699999809E+01 0.  1.
       -4    1    3    3    0  502 -0.27237791335E+02  0.73692587406E+03  0.11845740197E+04  0.13953561776E+04  0.12699999809E+01 0. -1.
</event>
<event>
 5   0  0.5981239E-05  0.2119299E+04  0.7818609E-02  0.8552789E-01
        1   -1    0    0  501    0  0.00000000000E+00  0.00000000000E+00  0.19967944037E+04  0.19967944037E+04  0.50400001928E-02 0.  1.
       -1   -1    0    0    0  501  0.00000000000E+00  0.00000000000E+00 -0.56233007942E+03  0.56233007945E+03  0.50400001928E-02 0. -1.
    10030    2    1    2    0    0  0.00000000000E+00  0.00000000000E+00  0.14344643243E+04  0.25591244832E+04  0.21192994651E+04 0.  0.
        4    1    3    3  502    0  0.48995905170E+03  0.88839205747E+02 -0.41224954446E+03  0.64645462071E+03  0.12699999809E+01 0. -1.
       -4    1    3    3    0  502 -0.48995905170E+03 -0.88839205747E+02  0.18467138687E+04  0.19126698624E+04  0.12699999809E+01 0.  1.
</event>
<event>
 5   0  0.1226021E-04  0.2359646E+04  0.7818609E-02  0.8454768E-01
       -2   -1    0    0    0  501  0.00000000000E+00  0.00000000000E+00  0.12368903366E+04  0.12368903366E+04  0.25500000920E-02 0. -1.
        2   -1    0    0  501    0  0.00000000000E+00  0.00000000000E+00 -0.11253889559E+04  0.11253889559E+04  0.25500000920E-02 0.  1.
    10030    2    1    2    0    0  0.00000000000E+00  0.00000000000E+00  0.11150138077E+03  0.23622792925E+04  0.23596463502E+04 0.  0.
        2    1    3    3  502    0 -0.18568676666E+03 -0.52421195368E+03 -0.98594145901E+03  0.11319709839E+04  0.25500000920E-02 0.  1.
       -2    1    3    3    0  502  0.18568676666E+03  0.52421195368E+03  0.10974428398E+04  0.12303083086E+04  0.25500000920E-02 0. -1.
</event>
<event>
 5   0  0.1241430E-04  0.2203835E+04  0.7818609E-02  0.8516834E-01
       -2   -1    0    0    0  501  0.00000000000E+00  0.00000000000E+00  0.15442670488E+04  0.15442670488E+04  0.25500000920E-02 0.  1.
        2   -1    0    0  501    0  0.00000000000E+00  0.00000000000E+00 -0.78627726793E+03  0.78627726793E+03  0.25500000920E-02 0. -1.
    10030    2    1    2    0    0  0.00000000000E+00  0.00000000000E+00  0.75798978085E+03  0.23305443167E+04  0.22038349086E+04 0.  0.
        1    1    3    3  502    0  0.19177343195E+03 -0.16354353080E+03  0.15133762693E+04  0.15342200846E+04  0.50400001928E-02 0.  1.
       -1    1    3    3    0  502 -0.19177343195E+03  0.16354353080E+03 -0.75538648843E+03  0.79632423208E+03  0.50400001928E-02 0. -1.
</event>
<event>
 5   0  0.1311472E-04  0.2206486E+04  0.7818609E-02  0.8515733E-01
       -2   -1    0    0    0  501  0.00000000000E+00  0.00000000000E+00  0.14361068360E+04  0.14361068360E+04  0.25500000920E-02 0. -1.
        2   -1    0    0  501    0  0.00000000000E+00  0.00000000000E+00 -0.84753115679E+03  0.84753115680E+03  0.25500000920E-02 0.  1.
    10030    2    1    2    0    0  0.00000000000E+00  0.00000000000E+00  0.58857567924E+03  0.22836379928E+04  0.22064861550E+04 0.  0.
        4    1    3    3  502    0 -0.85718420903E+03 -0.69438058132E+03  0.27912937963E+03  0.11379121159E+04  0.12699999809E+01 0.  1.
       -4    1    3    3    0  502  0.85718420903E+03  0.69438058132E+03  0.30944629962E+03  0.11457258770E+04  0.12699999809E+01 0. -1.
</event>
<event>
 5   0  0.5849604E-05  0.2229603E+04  0.7818609E-02  0.8506207E-01
       -1   -1    0    0    0  501  0.00000000000E+00  0.00000000000E+00  0.62873905659E+03  0.62873905661E+03  0.50400001928E-02 0. -1.
        1   -1    0    0  501    0  0.00000000000E+00  0.00000000000E+00 -0.19766274162E+04  0.19766274162E+04  0.50400001928E-02 0.  1.
    10030    2    1    2    0    0  0.00000000000E+00  0.00000000000E+00 -0.13478883596E+04  0.26053664728E+04  0.22296034239E+04 0.  0.
        2    1    3    3  502    0  0.79908200000E+03  0.23106338543E+03  0.19334119682E+03  0.85399247609E+03  0.25500000920E-02 0. -1.
       -2    1    3    3    0  502 -0.79908200000E+03 -0.23106338543E+03 -0.15412295564E+04  0.17513739967E+04  0.25500000920E-02 0.  1.
</event>
<event>
 5   0  0.1404159E-04  0.2193331E+04  0.7818609E-02  0.8521209E-01
       -2   -1    0    0    0  501  0.00000000000E+00  0.00000000000E+00  0.88638217673E+03  0.88638217673E+03  0.25500000920E-02 0.  1.
        2   -1    0    0  501    0  0.00000000000E+00  0.00000000000E+00 -0.13568357895E+04  0.13568357895E+04  0.25500000920E-02 0. -1.
    10030    2    1    2    0    0  0.00000000000E+00  0.00000000000E+00 -0.47045361274E+03  0.22432179662E+04  0.21933308556E+04 0.  0.
        5    1    3    3  502    0  0.22690293582E+03 -0.22040933110E+03 -0.13091516985E+04  0.13468353556E+04  0.46999998093E+01 0. -1.
       -5    1    3    3    0  502 -0.22690293582E+03  0.22040933110E+03  0.83869808575E+03  0.89638261058E+03  0.46999998093E+01 0.  1.
</event>
<event>
 5   0  0.5981239E-05  0.2174918E+04  0.7818609E-02  0.8528941E-01
       -1   -1    0    0    0  501  0.00000000000E+00  0.00000000000E+00  0.13341806686E+04  0.13341806686E+04  0.50400001928E-02 0.  1.
        1   -1    0    0  501    0  0.00000000000E+00  0.00000000000E+00 -0.88636201753E+03  0.88636201754E+03  0.50400001928E-02 0. -1.
    10030    2    1    2    0    0  0.00000000000E+00  0.00000000000E+00  0.44781865108E+03  0.22205426862E+04  0.21749179931E+04 0.  0.
        4    1    3    3  502    0  0.16073578540E+03  0.27519420525E+03  0.12854303677E+04  0.13243491557E+04  0.12699999809E+01 0.  1.
       -4    1    3    3    0  502 -0.16073578540E+03 -0.27519420525E+03 -0.83761171658E+03  0.89619353042E+03  0.12699999809E+01 0. -1.
</event>
<event>
 5   0  0.5861816E-05  0.1807528E+04  0.7818609E-02  0.8702306E-01
        1   -1    0    0  501    0  0.00000000000E+00  0.00000000000E+00  0.11225765740E+04  0.11225765741E+04  0.50400001928E-02 0.  1.
       -1   -1    0    0    0  501  0.00000000000E+00  0.00000000000E+00 -0.72760273974E+03  0.72760273976E+03  0.50400001928E-02 0. -1.
    10030    2    1    2    0    0  0.00000000000E+00  0.00000000000E+00  0.39497383430E+03  0.18501793138E+04  0.18075284682E+04 0.  0.
        1    1    3    3  502    0 -0.12049144954E+03 -0.89255561823E+03  0.27419567031E+03  0.94146534014E+03  0.50400001928E-02 0.  1.
       -1    1    3    3    0  502  0.12049144954E+03  0.89255561823E+03  0.12077816399E+03  0.90871397368E+03  0.50400001928E-02 0. -1.
</event>
<event>
 5   0  0.5861816E-05  0.2249347E+04  0.7818609E-02  0.8498165E-01
        1   -1    0    0  501    0  0.00000000000E+00  0.00000000000E+00  0.12600780550E+04  0.12600780550E+04  0.50400001928E-02 0. -1.
       -1   -1    0    0    0  501  0.00000000000E+00  0.00000000000E+00 -0.10038188876E+04  0.10038188876E+04  0.50400001928E-02 0.  1.
    10030    2    1    2    0    0  0.00000000000E+00  0.00000000000E+00  0.25625916742E+03  0.22638969425E+04  0.22493467064E+04 0.  0.
        1    1    3    3  502    0  0.32974864130E+03 -0.83337181918E+03 -0.55571190634E+03  0.10545418334E+04  0.50400001928E-02 0.  1.
       -1    1    3    3    0  502 -0.32974864130E+03  0.83337181918E+03  0.81197107376E+03  0.12093551092E+04  0.50400001928E-02 0. -1.
</event>
<event>
 5   0  0.5849604E-05  0.1869911E+04  0.7818609E-02  0.8669980E-01
       -1   -1    0    0    0  501  0.00000000000E+00  0.00000000000E+00  0.37116842322E+03  0.37116842326E+03  0.50400001928E-02 0.  1.
        1   -1    0    0  501    0  0.00000000000E+00  0.00000000000E+00 -0.23551094227E+04  0.23551094227E+04  0.50400001928E-02 0. -1.
    10030    2    1    2    0    0  0.00000000000E+00  0.00000000000E+00 -0.19839409995E+04  0.27262778460E+04  0.18699114963E+04 0.  0.
        2    1    3    3  502    0  0.40795755183E+03  0.83357354395E+03 -0.11573589426E+04  0.14834938285E+04  0.25500000920E-02 0. -1.
       -2    1    3    3    0  502 -0.40795755183E+03 -0.83357354395E+03 -0.82658205695E+03  0.12427840175E+04  0.25500000920E-02 0.  1.
</event>
<event>
 5   0  0.5861816E-05  0.2197327E+04  0.7818609E-02  0.8519541E-01
        1   -1    0    0  501    0  0.00000000000E+00  0.00000000000E+00  0.84019441215E+03  0.84019441217E+03  0.50400001928E-02 0. -1.
       -1   -1    0    0    0  501  0.00000000000E+00  0.00000000000E+00 -0.14366459847E+04  0.14366459847E+04  0.50400001928E-02 0.  1.
    10030    2    1    2    0    0  0.00000000000E+00  0.00000000000E+00 -0.59645157253E+03  0.22768403969E+04  0.21973274026E+04 0.  0.
        1    1    3    3  502    0 -0.12212193374E+03  0.48431768307E+03  0.71574718918E+03  0.87279517854E+03  0.50400001928E-02 0. -1.
       -1    1    3    3    0  502  0.12212193374E+03 -0.48431768307E+03 -0.13121987617E+04  0.14040452183E+04  0.50400001928E-02 0.  1.
</event>
<event>
 5   0  0.1241430E-04  0.2250724E+04  0.7818609E-02  0.8497607E-01
       -2   -1    0    0    0  501  0.00000000000E+00  0.00000000000E+00  0.18049667169E+04  0.18049667169E+04  0.25500000920E-02 0.  1.
        2   -1    0    0  501    0  0.00000000000E+00  0.00000000000E+00 -0.70164167631E+03  0.70164167632E+03  0.25500000920E-02 0. -1.
    10030    2    1    2    0    0  0.00000000000E+00  0.00000000000E+00  0.11033250406E+04  0.25066083933E+04  0.22507242150E+04 0.  0.
        1    1    3    3  502    0  0.35180644605E+03  0.41921022371E+02  0.17412346999E+04  0.17769140181E+04  0.50400001928E-02 0.  1.
       -1    1    3    3    0  502 -0.35180644605E+03 -0.41921022371E+02 -0.63790965931E+03  0.72969437511E+03  0.50400001928E-02 0. -1.
</event>
<event>
 5   0  0.6263558E-05  0.1518738E+04  0.7818609E-02  0.8872087E-01
        1   -1    0    0  501    0  0.00000000000E+00  0.00000000000E+00  0.19037815479E+04  0.19037815479E+04  0.50400001928E-02 0. -1.
       -1   -1    0    0    0  501  0.00000000000E+00  0.00000000000E+00 -0.30289263620E+03  0.30289263624E+03  0.50400001928E-02 0.  1.
    10030    2    1    2    0    0  0.00000000000E+00  0.00000000000E+00  0.16008889117E+04  0.22066741842E+04  0.15187381760E+04 0.  0.
        3    1    3    3  502    0  0.51845477720E+03 -0.34547228971E+03  0.14312640225E+04  0.15609814769E+04  0.10100000352E+00 0. -1.
       -3    1    3    3    0  502 -0.51845477720E+03  0.34547228971E+03  0.16962488924E+03  0.64569270726E+03  0.10100000352E+00 0.  1.
</event>
<event>
 5   0  0.1311472E-04  0.2200222E+04  0.7818609E-02  0.8518336E-01
       -2   -1    0    0    0  501  0.00000000000E+00  0.00000000000E+00  0.63456613630E+03  0.63456613630E+03  0.25500000920E-02 0.  1.
        2   -1    0    0  501    0  0.00000000000E+00  0.00000000000E+00 -0.19071989857E+04  0.19071989857E+04  0.25500000920E-02 0. -1.
    10030    2    1    2    0    0  0.00000000000E+00  0.00000000000E+00 -0.12726328494E+04  0.25417651220E+04  0.22002217084E+04 0.  0.
        4    1    3    3  502    0  0.78862849984E+03 -0.17983172717E+03 -0.14976945454E+04  0.17021647761E+04  0.12699999809E+01 0. -1.
       -4    1    3    3    0  502 -0.78862849984E+03  0.17983172717E+03  0.22506169601E+03  0.83960034586E+03  0.12699999809E+01 0.  1.
</event>
<event>
 5   0  0.1252124E-04  0.2241292E+04  0.7818609E-02  0.8501435E-01
        2   -1    0    0  501    0  0.00000000000E+00  0.00000000000E+00  0.17125681707E+04  0.17125681707E+04  0.25500000920E-02 0.  1.
       -2   -1    0    0    0  501  0.00000000000E+00  0.00000000000E+00 -0.73331257598E+03  0.73331257599E+03  0.25500000920E-02 0. -1.
    10030    2    1    2    0    0  0.00000000000E+00  0.00000000000E+00  0.97925559471E+03  0.24458807467E+04  0.22412922851E+04 0.  0.
        3    1    3    3  502    0 -0.10031167207E+04  0.44135488088E+03  0.74511466777E+03  0.13252294762E+04  0.10100000352E+00 0.  1.
       -3    1    3    3    0  502  0.10031167207E+04 -0.44135488088E+03  0.23414092694E+03  0.11206512705E+04  0.10100000352E+00 0. -1.
</event>
<event>
 5   0  0.1226021E-04  0.2123148E+04  0.7818609E-02  0.8551114E-01
       -2   -1    0    0    0  501  0.00000000000E+00  0.00000000000E+00  0.60800538602E+03  0.60800538603E+03  0.25500000920E-02 0.  1.
        2   -1    0    0  501    0  0.00000000000E+00  0.00000000000E+00 -0.18535029617E+04  0.18535029617E+04  0.25500000920E-02 0. -1.
    10030    2    1    2    0    0  0.00000000000E+00  0.00000000000E+00 -0.12454975757E+04  0.24615083478E+04  0.21231484015E+04 0.  0.
        2    1    3    3  502    0  0.62736345081E+03 -0.65504833325E+03 -0.12622598746E+04  0.15543401203E+04  0.25500000920E-02 0. -1.
       -2    1    3    3    0  502 -0.62736345081E+03  0.65504833325E+03  0.16762298937E+02  0.90716822750E+03  0.25500000920E-02 0.  1.
</event>
<event>
 5   0  0.5895063E-05  0.2174785E+04  0.7818609E-02  0.8528997E-01
       -1   -1    0    0    0  501  0.00000000000E+00  0.00000000000E+00  0.10340340016E+04  0.10340340016E+04  0.50400001928E-02 0.  1.
        1   -1    0    0  501    0  0.00000000000E+00  0.00000000000E+00 -0.11435040870E+04  0.11435040870E+04  0.50400001928E-02 0. -1.
    10030    2    1    2    0    0  0.00000000000E+00  0.00000000000E+00 -0.10947008536E+03  0.21775380886E+04  0.21747846854E+04 0.  0.
        5    1    3    3  502    0 -0.10019326464E+03  0.89101881241E+03  0.56122411204E+03  0.10578032938E+04  0.46999998093E+01 0.  1.
       -5    1    3    3    0  502  0.10019326464E+03 -0.89101881241E+03 -0.67069419740E+03  0.11197347948E+04  0.46999998093E+01 0. -1.
</event>
<event>
 5   0  0.5861816E-05  0.1961610E+04  0.7818609E-02  0.8624782E-01
       -1   -1    0    0    0  501  0.00000000000E+00  0.00000000000E+00  0.72165709836E+03  0.72165709838E+03  0.50400001928E-02 0.  1.
        1   -1    0    0  501    0  0.00000000000E+00  0.00000000000E+00 -0.13330135699E+04  0.13330135699E+04  0.50400001928E-02 0. -1.
    10030    2    1    2    0    0  0.00000000000E+00  0.00000000000E+00 -0.61135647152E+03  0.20546706683E+04  0.19616102619E+04 0.  0.
        1    1    3    3  502    0 -0.19224597594E+03 -0.88945746938E+03  0.77584354663E+02  0.91329756226E+03  0.50400001928E-02 0.  1.
       -1    1    3    3    0  502  0.19224597594E+03  0.88945746938E+03 -0.68894082618E+03  0.11413731060E+04  0.50400001928E-02 0. -1.
</event>
<event>
 5   0  0.1311472E-04  0.2208717E+04  0.7818609E-02  0.8514809E-01
        2   -1    0    0  501    0  0.00000000000E+00  0.00000000000E+00  0.19275196856E+04  0.19275196856E+04  0.25500000920E-02 0.  1.
       -2   -1    0    0    0  501  0.00000000000E+00  0.00000000000E+00 -0.63273400386E+03  0.63273400387E+03  0.25500000920E-02 0. -1.
    10030    2    1    2    0    0  0.00000000000E+00  0.00000000000E+00  0.12947856817E+04  0.25602536894E+04  0.22087165940E+04 0.  0.
        4    1    3    3  502    0  0.52824551734E+03 -0.24037791181E+03  0.17364970544E+04  0.18309146621E+04  0.12699999809E+01 0.  1.
       -4    1    3    3    0  502 -0.52824551734E+03  0.24037791181E+03 -0.44171137272E+03  0.72933902731E+03  0.12699999809E+01 0. -1.
</event>
<event>
 5   0  0.1311472E-04  0.2218323E+04  0.7818609E-02  0.8510840E-01
        2   -1    0    0  501    0  0.00000000000E+00  0.00000000000E+00  0.15920008443E+04  0.15920008443E+04  0.25500000920E-02 0.  1.
       -2   -1    0    0    0  501  0.00000000000E+00  0.00000000000E+00 -0.77276286838E+03  0.77276286838E+03  0.25500000920E-02 0. -1.
    10030    2    1    2    0    0  0.00000000000E+00  0.00000000000E+00  0.81923797594E+03  0.23647637127E+04  0.22183229151E+04 0.  0.
        4    1    3    3  502    0  0.43581349867E+03 -0.75150283613E+03 -0.32550397279E+03  0.92770920419E+03  0.12699999809E+01 0.  1.
       -4    1    3    3    0  502 -0.43581349867E+03  0.75150283613E+03  0.11447419487E+04  0.14370545085E+04  0.12699999809E+01 0. -1.
</event>
<event>
 5   0  0.1404159E-04  0.2133069E+04  0.7818609E-02  0.8546814E-01
       -2   -1    0    0    0  501  0.00000000000E+00  0.00000000000E+00  0.13039094732E+04  0.13039094732E+04  0.25500000920E-02 0. -1.
        2   -1    0    0  501    0  0.00000000000E+00  0.00000000000E+00 -0.87237361892E+03  0.87237361892E+03  0.25500000920E-02 0.  1.
    10030    2    1    2    0    0  0.00000000000E+00  0.00000000000E+00  0.43153585432E+03  0.21762830922E+04  0.21330693621E+04 0.  0.
        5    1    3    3  502    0  0.32074908111E+03 -0.27644382292E+03 -0.78292590802E+03  0.89011023346E+03  0.46999998093E+01 0.  1.
       -5    1    3    3    0  502 -0.32074908111E+03  0.27644382292E+03  0.12144617623E+04  0.12861728587E+04  0.46999998093E+01 0. -1.
</event>
<event>
 5   0  0.1252124E-04  0.2204523E+04  0.7818609E-02  0.8516548E-01
       -2   -1    0    0    0  501  0.00000000000E+00  0.00000000000E+00  0.51255307991E+03  0.51255307991E+03  0.25500000920E-02 0.  1.
        2   -1    0    0  501    0  0.00000000000E+00  0.00000000000E+00 -0.23704489784E+04  0.23704489784E+04  0.25500000920E-02 0. -1.
    10030    2    1    2    0    0  0.00000000000E+00  0.00000000000E+00 -0.18578958985E+04  0.28830020583E+04  0.22045234629E+04 0.  0.
        3    1    3    3  502    0  0.54459614263E+03 -0.91043509492E+00  0.32432311403E+03  0.63385430499E+03  0.10100000352E+00 0.  1.
       -3    1    3    3    0  502 -0.54459614263E+03  0.91043509492E+00 -0.21822190125E+04  0.22491477533E+04  0.10100000352E+00 0. -1.
</event>
<event>
 5   0  0.1311472E-04  0.2177095E+04  0.7818609E-02  0.8528023E-01
       -2   -1    0    0    0  501  0.00000000000E+00  0.00000000000E+00  0.64518333347E+03  0.64518333348E+03  0.25500000920E-02 0. -1.
        2   -1    0    0  501    0  0.00000000000E+00  0.00000000000E+00 -0.18365873582E+04  0.18365873582E+04  0.25500000920E-02 0.  1.
    10030    2    1    2    0    0  0.00000000000E+00  0.00000000000E+00 -0.11914040247E+04  0.24817706917E+04  0.21770949028E+04 0.  0.
        4    1    3    3  502    0 -0.47726378777E+03  0.91876552027E+03 -0.21246453874E+03  0.10569075634E+04  0.12699999809E+01 0. -1.
       -4    1    3    3    0  502  0.47726378777E+03 -0.91876552027E+03 -0.97893948600E+03  0.14248631283E+04  0.12699999809E+01 0.  1.
</event>
<event>
 5   0  0.5895063E-05  0.2116662E+04  0.7818609E-02  0.8553939E-01
       -1   -1    0    0    0  501  0.00000000000E+00  0.00000000000E+00  0.83780767881E+03  0.83780767882E+03  0.50400001928E-02 0. -1.
        1   -1    0    0  501    0  0.00000000000E+00  0.00000000000E+00 -0.13368991088E+04  0.13368991088E+04  0.50400001928E-02 0.  1.
    10030    2    1    2    0    0  0.00000000000E+00  0.00000000000E+00 -0.49909143001E+03  0.21747067876E+04  0.21166618428E+04 0.  0.
        5    1    3    3  502    0 -0.78957730644E+03  0.54750845081E+03 -0.70538398767E+03  0.11919674855E+04  0.46999998093E+01 0.  1.
       -5    1    3    3    0  502  0.78957730644E+03 -0.54750845081E+03  0.20629255766E+03  0.98273930210E+03  0.46999998093E+01 0. -1.
</event>
<event>
 5   0  0.5849604E-05  0.2243536E+04  0.7818609E-02  0.8500523E-01
       -1   -1    0    0    0  501  0.00000000000E+00  0.00000000000E+00  0.86025526202E+03  0.86025526203E+03  0.50400001928E-02 0.  1.
        1   -1    0    0  501    0  0.00000000000E+00  0.00000000000E+00 -0.14627791551E+04  0.14627791551E+04  0.50400001928E-02 0. -1.
    10030    2    1    2    0    0  0.00000000000E+00  0.00000000000E+00 -0.60252389310E+03  0.23230344172E+04  0.22435360174E+04 0.  0.
        2    1    3    3  502    0  0.33622229927E+03 -0.90449805350E+03 -0.89354609524E+03  0.13151375546E+04  0.25500000920E-02 0. -1.
       -2    1    3    3    0  502 -0.33622229927E+03  0.90449805350E+03  0.29102220214E+03  0.10078968625E+04  0.25500000920E-02 0.  1.
</event>
<event>
 5   0  0.1311472E-04  0.2103976E+04  0.7818609E-02  0.8559494E-01
        2   -1    0    0  501    0  0.00000000000E+00  0.00000000000E+00  0.11361272698E+04  0.11361272699E+04  0.25500000920E-02 0. -1.
       -2   -1    0    0    0  501  0.00000000000E+00  0.00000000000E+00 -0.97407950005E+03  0.97407950005E+03  0.25500000920E-02 0.  1.
    10030    2    1    2    0    0  0.00000000000E+00  0.00000000000E+00  0.16204776980E+03  0.21102067699E+04  0.21039755540E+04 0.  0.
        4    1    3    3  502    0  0.71840442323E+03  0.48058039333E+02 -0.68823015622E+03  0.99603054737E+03  0.12699999809E+01 0.  1.
       -4    1    3    3    0  502 -0.71840442323E+03 -0.48058039333E+02  0.85027792602E+03  0.11141762225E+04  0.12699999809E+01 0. -1.
</event>
<event>
 5   0  0.1252124E-04  0.2185679E+04  0.7818609E-02  0.8524412E-01
       -2   -1    0    0    0  501  0.00000000000E+00  0.00000000000E+00  0.10146059958E+04  0.10146059958E+04  0.25500000920E-02 0. -1.
        2   -1    0    0  501    0  0.00000000000E+00  0.00000000000E+00 -0.11771055618E+04  0.11771055618E+04  0.25500000920E-02 0.  1.
    10030    2    1    2    0    0  0.00000000000E+00  0.00000000000E+00 -0.16249956607E+03  0.21917115576E+04  0.21856791720E+04 0.  0.
        3    1    3    3  502    0 -0.40047610651E+03  0.10101198701E+04  0.35583959702E+02  0.10871934015E+04  0.10100000352E+00 0.  1.
       -3    1    3    3    0  502  0.40047610651E+03 -0.10101198701E+04 -0.19808352578E+03  0.11045181561E+04  0.10100000352E+00 0. -1.
</event>
<event>
 5   0  0.4586375E-05  0.2173299E+04  0.7818609E-02  0.8529625E-01
       -3   -1    0    0    0  501  0.00000000000E+00  0.00000000000E+00  0.10979980027E+04  0.10979980073E+04  0.10100000352E+00 0.  1.
        3   -1    0    0  501    0  0.00000000000E+00  0.00000000000E+00 -0.10754180569E+04  0.10754180617E+04  0.10100000352E+00 0. -1.
    10030    2    1    2    0    0  0.00000000000E+00  0.00000000000E+00  0.22579945738E+02  0.21734160690E+04  0.21732987726E+04 0.  0.
        4    1    3    3  502    0  0.70544491943E+03  0.28547707848E+03 -0.76441649577E+03  0.10786491036E+04  0.12699999809E+01 0. -1.
       -4    1    3    3    0  502 -0.70544491943E+03 -0.28547707848E+03  0.78699644151E+03  0.10947669654E+04  0.12699999809E+01 0.  1.
</event>
<event>
 5   0  0.1226021E-04  0.2212322E+04  0.7818609E-02  0.8513317E-01
        2   -1    0    0  501    0  0.00000000000E+00  0.00000000000E+00  0.13741803347E+04  0.13741803347E+04  0.25500000920E-02 0.  1.
       -2   -1    0    0    0  501  0.00000000000E+00  0.00000000000E+00 -0.89041574965E+03  0.89041574966E+03  0.25500000920E-02 0. -1.
    10030    2    1    2    0    0  0.00000000000E+00  0.00000000000E+00  0.48376458503E+03  0.22645960843E+04  0.22123216881E+04 0.  0.
        2    1    3    3  502    0  0.94683777797E+03 -0.57181355199E+03  0.25306268204E+03  0.11346864047E+04  0.25500000920E-02 0. -1.
       -2    1    3    3    0  502 -0.94683777797E+03  0.57181355199E+03  0.23070190300E+03  0.11299096796E+04  0.25500000920E-02 0.  1.
</event>
<event>
 5   0  0.1311472E-04  0.2185548E+04  0.7818609E-02  0.8524468E-01
        2   -1    0    0  501    0  0.00000000000E+00  0.00000000000E+00  0.20067115136E+04  0.20067115136E+04  0.25500000920E-02 0. -1.
       -2   -1    0    0    0  501  0.00000000000E+00  0.00000000000E+00 -0.59508042368E+03  0.59508042369E+03  0.25500000920E-02 0.  1.
    10030    2    1    2    0    0  0.00000000000E+00  0.00000000000E+00  0.14116310900E+04  0.26017919373E+04  0.21855477462E+04 0.  0.
        4    1    3    3  502    0  0.39894795899E+03 -0.80091011333E+03  0.14526164786E+04  0.17060811031E+04  0.12699999809E+01 0. -1.
       -4    1    3    3    0  502 -0.39894795899E+03  0.80091011333E+03 -0.40985388597E+02  0.89571083425E+03  0.12699999809E+01 0.  1.
</event>
<event>
 5   0  0.5861816E-05  0.2178560E+04  0.7818609E-02  0.8527405E-01
       -1   -1    0    0    0  501  0.00000000000E+00  0.00000000000E+00  0.86914753637E+03  0.86914753638E+03  0.50400001928E-02 0.  1.
        1   -1    0    0  501    0  0.00000000000E+00  0.00000000000E+00 -0.13651665309E+04  0.13651665309E+04  0.50400001928E-02 0. -1.
    10030    2    1    2    0    0  0.00000000000E+00  0.00000000000E+00 -0.49601899452E+03  0.22343140673E+04  0.21785601916E+04 0.  0.
        1    1    3    3  502    0  0.89178326671E+03  0.43887551054E+02  0.39192019414E+03  0.97509227796E+03  0.50400001928E-02 0.  1.
       -1    1    3    3    0  502 -0.89178326671E+03 -0.43887551054E+02 -0.88793918865E+03  0.12592217893E+04  0.50400001928E-02 0. -1.
</event>
<event>
 5   0  0.1226021E-04  0.2003441E+04  0.7818609E-02  0.8605014E-01
        2   -1    0    0  501    0  0.00000000000E+00  0.00000000000E+00  0.95194248767E+03  0.95194248767E+03  0.25500000920E-02 0.  1.
       -2   -1    0    0    0  501  0.00000000000E+00  0.00000000000E+00 -0.10541012571E+04  0.10541012571E+04  0.25500000920E-02 0. -1.
    10030    2    1    2    0    0  0.00000000000E+00  0.00000000000E+00 -0.10215876944E+03  0.20060437448E+04  0.20034408132E+04 0.  0.
        2    1    3    3  502    0  0.53195872780E+03 -0.67510541253E+03  0.46407555982E+03  0.97678735216E+03  0.25500000920E-02 0.  1.
       -2    1    3    3    0  502 -0.53195872780E+03  0.67510541253E+03 -0.56623432926E+03  0.10292563926E+04  0.25500000920E-02 0. -1.
</event>
<event>
 5   0  0.5895063E-05  0.2242542E+04  0.7818609E-02  0.8500927E-01
       -1   -1    0    0    0  501  0.00000000000E+00  0.00000000000E+00  0.11551511282E+04  0.11551511282E+04  0.50400001928E-02 0.  1.
        1   -1    0    0  501    0  0.00000000000E+00  0.00000000000E+00 -0.10883842409E+04  0.10883842409E+04  0.50400001928E-02 0. -1.
    10030    2    1    2    0    0  0.00000000000E+00  0.00000000000E+00  0.66766887255E+02  0.22435353691E+04  0.22425416686E+04 0.  0.
        5    1    3    3  502    0  0.19574817869E+03 -0.11581666178E+03  0.11318204808E+04  0.11544568157E+04  0.46999998093E+01 0.  1.
       -5    1    3    3    0  502 -0.19574817869E+03  0.11581666178E+03 -0.10650535935E+04  0.10890785535E+04  0.46999998093E+01 0. -1.
</event>
<event>
 5   0  0.5861816E-05  0.2028902E+04  0.7818609E-02  0.8593226E-01
       -1   -1    0    0    0  501  0.00000000000E+00  0.00000000000E+00  0.12584330164E+04  0.12584330164E+04  0.50400001928E-02 0.  1.
        1   -1    0    0  501    0  0.00000000000E+00  0.00000000000E+00 -0.81777189745E+03  0.81777189747E+03  0.50400001928E-02 0. -1.
    10030    2    1    2    0    0  0.00000000000E+00  0.00000000000E+00  0.44066111895E+03  0.20762049139E+04  0.20289023196E+04 0.  0.
        1    1    3    3  502    0 -0.17114911397E+03  0.26215155553E+02  0.12432006718E+04  0.12552000494E+04  0.50400001928E-02 0.  1.
       -1    1    3    3    0  502  0.17114911397E+03 -0.26215155553E+02 -0.80253955285E+03  0.82100486449E+03  0.50400001928E-02 0. -1.
</event>
<event>
 5   0  0.1404159E-04  0.2199278E+04  0.7818609E-02  0.8518729E-01
        2   -1    0    0  501    0  0.00000000000E+00  0.00000000000E+00  0.10583371961E+04  0.10583371961E+04  0.25500000920E-02 0.  1.
       -2   -1    0    0    0  501  0.00000000000E+00  0.00000000000E+00 -0.11425524400E+04  0.11425524400E+04  0.25500000920E-02 0. -1.
    10030    2    1    2    0    0  0.00000000000E+00  0.00000000000E+00 -0.84215243918E+02  0.22008896361E+04  0.21992778321E+04 0.  0.
        5    1    3    3  502    0  0.79636955929E+03  0.72340018805E+03  0.18537229830E+03  0.10917404847E+04  0.46999998093E+01 0.  1.
       -5    1    3    3    0  502 -0.79636955929E+03 -0.72340018805E+03 -0.26958754221E+03  0.11091491514E+04  0.46999998093E+01 0. -1.
</event>
<event>
 5   0  0.5895063E-05  0.2219060E+04  0.7818609E-02  0.8510536E-01
        1   -1    0    0  501    0  0.00000000000E+00  0.00000000000E+00  0.17371911146E+04  0.17371911146E+04  0.50400001928E-02 0.  1.
       -1   -1    0    0    0  501  0.00000000000E+00  0.00000000000E+00 -0.70864806081E+03  0.70864806082E+03  0.50400001928E-02 0. -1.
    10030    2    1    2    0    0  0.00000000000E+00  0.00000000000E+00  0.10285430538E+04  0.24458391755E+04  0.22190602648E+04 0.  0.
        5    1    3    3  502    0  0.14913866596E+03  0.38321602224E+03  0.16500886569E+04  0.17005621209E+04  0.46999998093E+01 0.  1.
       -5    1    3    3    0  502 -0.14913866596E+03 -0.38321602224E+03 -0.62154560307E+03  0.74527705457E+03  0.46999998093E+01 0. -1.
</event>
<event>
 5   0  0.1252124E-04  0.2175129E+04  0.7818609E-02  0.8528852E-01
       -2   -1    0    0    0  501  0.00000000000E+00  0.00000000000E+00  0.74226760982E+03  0.74226760983E+03  0.25500000920E-02 0. -1.
        2   -1    0    0  501    0  0.00000000000E+00  0.00000000000E+00 -0.15934901998E+04  0.15934901998E+04  0.25500000920E-02 0.  1.
    10030    2    1    2    0    0  0.00000000000E+00  0.00000000000E+00 -0.85122259002E+03  0.23357578097E+04  0.21751286508E+04 0.  0.
        3    1    3    3  502    0 -0.95655193194E+03  0.47994896849E+03 -0.21779035648E+03  0.10921425092E+04  0.10100000352E+00 0.  1.
       -3    1    3    3    0  502  0.95655193194E+03 -0.47994896849E+03 -0.63343223354E+03  0.12436153005E+04  0.10100000352E+00 0. -1.
</event>
<event>
 5   0  0.5861816E-05  0.2198619E+04  0.7818609E-02  0.8519003E-01
       -1   -1    0    0    0  501  0.00000000000E+00  0.00000000000E+00  0.10211843769E+04  0.10211843769E+04  0.50400001928E-02 0.  1.
        1   -1    0    0  501    0  0.00000000000E+00  0.00000000000E+00 -0.11834112343E+04  0.11834112343E+04  0.50400001928E-02 0. -1.
    10030    2    1    2    0    0  0.00000000000E+00  0.00000000000E+00 -0.16222685741E+03  0.22045956112E+04  0.21986187154E+04 0.  0.
        1    1    3    3  502    0 -0.11177804341E+03 -0.51385901846E+03  0.88687904107E+03  0.10310673379E+04  0.50400001928E-02 0.  1.
       -1    1    3    3    0  502  0.11177804341E+03  0.51385901846E+03 -0.10491058985E+04  0.11735282732E+04  0.50400001928E-02 0. -1.
</event>
<event>
 5   0  0.5895063E-05  0.2374309E+04  0.7818609E-02  0.8449185E-01
        1   -1    0    0  501    0  0.00000000000E+00  0.00000000000E+00  0.11882930900E+04  0.11882930900E+04  0.50400001928E-02 0.  1.
       -1   -1    0    0    0  501  0.00000000000E+00  0.00000000000E+00 -0.11860169501E+04  0.11860169501E+04  0.50400001928E-02 0. -1.
    10030    2    1    2    0    0  0.00000000000E+00  0.00000000000E+00  0.22761399529E+01  0.23743100401E+04  0.23743089491E+04 0.  0.
        5    1    3    3  502    0 -0.11501504972E+04 -0.27535189610E+03  0.10433125452E+03  0.11872539465E+04  0.46999998093E+01 0.  1.
       -5    1    3    3    0  502  0.11501504972E+04  0.27535189610E+03 -0.10205511457E+03  0.11870560936E+04  0.46999998093E+01 0. -1.
</event>
<event>
 5   0  0.1252124E-04  0.2207998E+04  0.7818609E-02  0.8515106E-01
       -2   -1    0    0    0  501  0.00000000000E+00  0.00000000000E+00  0.70826297323E+03  0.70826297324E+03  0.25500000920E-02 0. -1.
        2   -1    0    0  501    0  0.00000000000E+00  0.00000000000E+00 -0.17208496436E+04  0.17208496436E+04  0.25500000920E-02 0.  1.
    10030    2    1    2    0    0  0.00000000000E+00  0.00000000000E+00 -0.10125866704E+04  0.24291126168E+04  0.22079982655E+04 0.  0.
        3    1    3    3  502    0 -0.45980300291E+03  0.88796765339E+03  0.84378163496E+01  0.99998828088E+03  0.10100000352E+00 0.  1.
       -3    1    3    3    0  502  0.45980300291E+03 -0.88796765339E+03 -0.10210244867E+04  0.14291243360E+04  0.10100000352E+00 0. -1.
</event>
<event>
 5   0  0.1404159E-04  0.2159813E+04  0.7818609E-02  0.8535344E-01
        2   -1    0    0  501    0  0.00000000000E+00  0.00000000000E+00  0.16930405427E+04  0.16930405427E+04  0.25500000920E-02 0.  1.
       -2   -1    0    0    0  501  0.00000000000E+00  0.00000000000E+00 -0.68881842356E+03  0.68881842356E+03  0.25500000920E-02 0. -1.
    10030    2    1    2    0    0  0.00000000000E+00  0.00000000000E+00  0.10042221192E+04  0.23818589663E+04  0.21598125082E+04 0.  0.
        5    1    3    3  502    0 -0.77060865355E+03  0.73250455036E+03  0.71069875494E+03  0.12788727159E+04  0.46999998093E+01 0. -1.
       -5    1    3    3    0  502  0.77060865355E+03 -0.73250455036E+03  0.29352336425E+03  0.11029862504E+04  0.46999998093E+01 0.  1.
</event>
<event>
 5   0  0.1404159E-04  0.2166508E+04  0.7818609E-02  0.8532499E-01
       -2   -1    0    0    0  501  0.00000000000E+00  0.00000000000E+00  0.98614969958E+03  0.98614969959E+03  0.25500000920E-02 0. -1.
        2   -1    0    0  501    0  0.00000000000E+00  0.00000000000E+00 -0.11899204078E+04  0.11899204078E+04  0.25500000920E-02 0.  1.
    10030    2    1    2    0    0  0.00000000000E+00  0.00000000000E+00 -0.20377070820E+03  0.21760701074E+04  0.21665083916E+04 0.  0.
        5    1    3    3  502    0 -0.27205709570E+03  0.16265878698E+03  0.93851660297E+03  0.99061013944E+03  0.46999998093E+01 0. -1.
       -5    1    3    3    0  502  0.27205709570E+03 -0.16265878698E+03 -0.11422873112E+04  0.11854599679E+04  0.46999998093E+01 0.  1.
</event>
<event>
 5   0  0.5981239E-05  0.2226982E+04  0.7818609E-02  0.8507281E-01
        1   -1    0    0  501    0  0.00000000000E+00  0.00000000000E+00  0.19185081254E+04  0.19185081254E+04  0.50400001928E-02 0.  1.
       -1   -1    0    0    0  501  0.00000000000E+00  0.00000000000E+00 -0.64626348136E+03  0.64626348138E+03  0.50400001928E-02 0. -1.
    10030    2    1    2    0    0  0.00000000000E+00  0.00000000000E+00  0.12722446440E+04  0.25647716067E+04  0.22269815807E+04 0.  0.
        4    1    3    3  502    0 -0.10220938382E+04 -0.35412561826E+03  0.33189685801E+03  0.11314759851E+04  0.12699999809E+01 0. -1.
       -4    1    3    3    0  502  0.10220938382E+04  0.35412561826E+03  0.94034778598E+03  0.14332956217E+04  0.12699999809E+01 0.  1.
</event>
<event>
 5   0  0.5895063E-05  0.2210783E+04  0.7818609E-02  0.8513953E-01
        1   -1    0    0  501    0  0.00000000000E+00  0.00000000000E+00  0.13075079670E+04  0.13075079670E+04  0.50400001928E-02 0. -1.
       -1   -1    0    0    0  501  0.00000000000E+00  0.00000000000E+00 -0.93451880177E+03  0.93451880178E+03  0.50400001928E-02 0.  1.
    10030    2    1    2    0    0  0.00000000000E+00  0.00000000000E+00  0.37298916519E+03  0.22420267687E+04  0.22107833712E+04 0.  0.
        5    1    3    3  502    0  0.86008129383E+03 -0.49491576433E+02 -0.51588221494E+03  0.10041642285E+04  0.46999998093E+01 0. -1.
       -5    1    3    3    0  502 -0.86008129383E+03  0.49491576433E+02  0.88887138012E+03  0.12378625402E+04  0.46999998093E+01 0.  1.
</event>
<event>
 5   0  0.5981239E-05  0.2246198E+04  0.7818609E-02  0.8499442E-01
        1   -1    0    0  501    0  0.00000000000E+00  0.00000000000E+00  0.14266486326E+04  0.14266486326E+04  0.50400001928E-02 0. -1.
       -1   -1    0    0    0  501  0.00000000000E+00  0.00000000000E+00 -0.88413572711E+03  0.88413572712E+03  0.50400001928E-02 0.  1.
    10030    2    1    2    0    0  0.00000000000E+00  0.00000000000E+00  0.54251290544E+03  0.23107843597E+04  0.22461976993E+04 0.  0.
        4    1    3    3  502    0 -0.17265912662E+03 -0.53559507432E+03 -0.72863514304E+03  0.92064327631E+03  0.12699999809E+01 0.  1.
       -4    1    3    3    0  502  0.17265912662E+03  0.53559507432E+03  0.12711480485E+04  0.13901410834E+04  0.12699999809E+01 0. -1.
</event>
<event>
 5   0  0.5861816E-05  0.2207041E+04  0.7818609E-02  0.8515503E-01
       -1   -1    0    0    0  501  0.00000000000E+00  0.00000000000E+00  0.11951847459E+04  0.11951847459E+04  0.50400001928E-02 0. -1.
        1   -1    0    0  501    0  0.00000000000E+00  0.00000000000E+00 -0.10188865135E+04  0.10188865136E+04  0.50400001928E-02 0.  1.
    10030    2    1    2    0    0  0.00000000000E+00  0.00000000000E+00  0.17629823233E+03  0.22140712594E+04  0.22070411132E+04 0.  0.
        1    1    3    3  502    0 -0.63564298062E+03  0.12565717694E+03  0.98426144095E+03  0.11783897102E+04  0.50400001928E-02 0. -1.
       -1    1    3    3    0  502  0.63564298062E+03 -0.12565717694E+03 -0.80796320862E+03  0.10356815492E+04  0.50400001928E-02 0.  1.
</event>
<event>
 5   0  0.5981239E-05  0.2278185E+04  0.7818609E-02  0.8486572E-01
        1   -1    0    0  501    0  0.00000000000E+00  0.00000000000E+00  0.10496135909E+04  0.10496135909E+04  0.50400001928E-02 0. -1.
       -1   -1    0    0    0  501  0.00000000000E+00  0.00000000000E+00 -0.12361995187E+04  0.12361995187E+04  0.50400001928E-02 0.  1.
    10030    2    1    2    0    0  0.00000000000E+00  0.00000000000E+00 -0.18658592781E+03  0.22858131096E+04  0.22781850810E+04 0.  0.
        4    1    3    3  502    0 -0.49510202148E+03  0.34546119270E+03  0.87589202135E+03  0.10637941029E+04  0.12699999809E+01 0. -1.
       -4    1    3    3    0  502  0.49510202148E+03 -0.34546119270E+03 -0.10624779492E+04  0.12220190067E+04  0.12699999809E+01 0.  1.
</event>
<event>
 5   0  0.1252124E-04  0.2181836E+04  0.7818609E-02  0.8526026E-01
       -2   -1    0    0    0  501  0.00000000000E+00  0.00000000000E+00  0.11914786169E+04  0.11914786169E+04  0.25500000920E-02 0.  1.
        2   -1    0    0  501    0  0.00000000000E+00  0.00000000000E+00 -0.99884494646E+03  0.99884494646E+03  0.25500000920E-02 0. -1.
    10030    2    1    2    0    0  0.00000000000E+00  0.00000000000E+00  0.19263367049E+03  0.21903235634E+04  0.21818362866E+04 0.  0.
        3    1    3    3  502    0 -0.31527023869E+03 -0.46431406268E+03 -0.84280037349E+03  0.10125686900E+04  0.10100000352E+00 0. -1.
       -3    1    3    3    0  502  0.31527023869E+03  0.46431406268E+03  0.10354340440E+04  0.11777548734E+04  0.10100000352E+00 0.  1.
</event>
<event>
 5   0  0.1404159E-04  0.2220017E+04  0.7818609E-02  0.8510143E-01
       -2   -1    0    0    0  501  0.00000000000E+00  0.00000000000E+00  0.50122008729E+03  0.50122008730E+03  0.25500000920E-02 0. -1.
        2   -1    0    0  501    0  0.00000000000E+00  0.00000000000E+00 -0.24582385045E+04  0.24582385045E+04  0.25500000920E-02 0.  1.
    10030    2    1    2    0    0  0.00000000000E+00  0.00000000000E+00 -0.19570184172E+04  0.29594585918E+04  0.22200166827E+04 0.  0.
        5    1    3    3  502    0 -0.50568826606E+03  0.86318107041E+03 -0.33739051037E+03  0.10557730008E+04  0.46999998093E+01 0. -1.
       -5    1    3    3    0  502  0.50568826606E+03 -0.86318107041E+03 -0.16196279069E+04  0.19036855910E+04  0.46999998093E+01 0.  1.
</event>
<event>
 5   0  0.1404159E-04  0.1958406E+04  0.7818609E-02  0.8626318E-01
        2   -1    0    0  501    0  0.00000000000E+00  0.00000000000E+00  0.11255562725E+04  0.11255562725E+04  0.25500000920E-02 0. -1.
       -2   -1    0    0    0  501  0.00000000000E+00  0.00000000000E+00 -0.85187957658E+03  0.85187957659E+03  0.25500000920E-02 0.  1.
    10030    2    1    2    0    0  0.00000000000E+00  0.00000000000E+00  0.27367669594E+03  0.19774358491E+04  0.19584058832E+04 0.  0.
        5    1    3    3  502    0 -0.39326623701E+01  0.57230980533E+03 -0.66540224950E+03  0.87768799852E+03  0.46999998093E+01 0.  1.
       -5    1    3    3    0  502  0.39326623701E+01 -0.57230980533E+03  0.93907894544E+03  0.10997478506E+04  0.46999998093E+01 0. -1.
</event>
<event>
 5   0  0.5861816E-05  0.1756724E+04  0.7818609E-02  0.8729658E-01
        1   -1    0    0  501    0  0.00000000000E+00  0.00000000000E+00  0.21109074995E+04  0.21109074995E+04  0.50400001928E-02 0.  1.
       -1   -1    0    0    0  501  0.00000000000E+00  0.00000000000E+00 -0.36549207748E+03  0.36549207752E+03  0.50400001928E-02 0. -1.
    10030    2    1    2    0    0  0.00000000000E+00  0.00000000000E+00  0.17454154220E+04  0.24763995770E+04  0.17567241871E+04 0.  0.
        1    1    3    3  502    0 -0.83615194818E+03 -0.24145168803E+03  0.10399242184E+04  0.13560572916E+04  0.50400001928E-02 0.  1.
       -1    1    3    3    0  502  0.83615194818E+03  0.24145168803E+03  0.70549120362E+03  0.11203422854E+04  0.50400001928E-02 0. -1.
</event>
<event>
 5   0  0.1241430E-04  0.2193058E+04  0.7818609E-02  0.8521323E-01
        2   -1    0    0  501    0  0.00000000000E+00  0.00000000000E+00  0.88344593450E+03  0.88344593450E+03  0.25500000920E-02 0. -1.
       -2   -1    0    0    0  501  0.00000000000E+00  0.00000000000E+00 -0.13610066267E+04  0.13610066267E+04  0.25500000920E-02 0.  1.
    10030    2    1    2    0    0  0.00000000000E+00  0.00000000000E+00 -0.47756069216E+03  0.22444525612E+04  0.21930579301E+04 0.  0.
        1    1    3    3  502    0 -0.84376964271E+03  0.36515863544E+03 -0.85035262521E+03  0.12523528362E+04  0.50400001928E-02 0.  1.
       -1    1    3    3    0  502  0.84376964271E+03 -0.36515863544E+03  0.37279193304E+03  0.99209972501E+03  0.50400001928E-02 0. -1.
</event>
<event>
 5   0  0.1241430E-04  0.2164665E+04  0.7818609E-02  0.8533281E-01
        2   -1    0    0  501    0  0.00000000000E+00  0.00000000000E+00  0.13623153692E+04  0.13623153692E+04  0.25500000920E-02 0. -1.
       -2   -1    0    0    0  501  0.00000000000E+00  0.00000000000E+00 -0.85989198184E+03  0.85989198184E+03  0.25500000920E-02 0.  1.
    10030    2    1    2    0    0  0.00000000000E+00  0.00000000000E+00  0.50242338740E+03  0.22222073511E+04  0.21646653901E+04 0.  0.
        1    1    3    3  502    0 -0.87163676300E+03 -0.59007861202E+03 -0.74802382164E+01  0.10526154896E+04  0.50400001928E-02 0.  1.
       -1    1    3    3    0  502  0.87163676300E+03  0.59007861202E+03  0.50990362562E+03  0.11695918615E+04  0.50400001928E-02 0. -1.
</event>
<event>
 5   0  0.6263558E-05  0.2085483E+04  0.7818609E-02  0.8567665E-01
        1   -1    0    0  501    0  0.00000000000E+00  0.00000000000E+00  0.10342243989E+04  0.10342243989E+04  0.50400001928E-02 0.  1.
       -1   -1    0    0    0  501  0.00000000000E+00  0.00000000000E+00 -0.10513291670E+04  0.10513291670E+04  0.50400001928E-02 0. -1.
    10030    2    1    2    0    0  0.00000000000E+00  0.00000000000E+00 -0.17104768109E+02  0.20855535659E+04  0.20854834220E+04 0.  0.
        3    1    3    3  502    0  0.65403976959E+03  0.19934466937E+03  0.77875038006E+03  0.10363196814E+04  0.10100000352E+00 0.  1.
       -3    1    3    3    0  502 -0.65403976959E+03 -0.19934466937E+03 -0.79585514817E+03  0.10492338845E+04  0.10100000352E+00 0. -1.
</event>
<event>
 5   0  0.1311472E-04  0.2210286E+04  0.7818609E-02  0.8514159E-01
        2   -1    0    0  501    0  0.00000000000E+00  0.00000000000E+00  0.19717048590E+04  0.19717048590E+04  0.25500000920E-02 0.  1.
       -2   -1    0    0    0  501  0.00000000000E+00  0.00000000000E+00 -0.61943412167E+03  0.61943412167E+03  0.25500000920E-02 0. -1.
    10030    2    1    2    0    0  0.00000000000E+00  0.00000000000E+00  0.13522707373E+04  0.25911389807E+04  0.22102861964E+04 0.  0.
        4    1    3    3  502    0  0.33775973871E+03 -0.67598470897E+03 -0.26923061313E+03  0.80219929183E+03  0.12699999809E+01 0. -1.
       -4    1    3    3    0  502 -0.33775973871E+03  0.67598470897E+03  0.16215013505E+04  0.17889396889E+04  0.12699999809E+01 0.  1.
</event>
<event>
 5   0  0.5849604E-05  0.2214475E+04  0.7818609E-02  0.8512427E-01
        1   -1    0    0  501    0  0.00000000000E+00  0.00000000000E+00  0.19074875244E+04  0.19074875244E+04  0.50400001928E-02 0. -1.
       -1   -1    0    0    0  501  0.00000000000E+00  0.00000000000E+00 -0.64271692841E+03  0.64271692843E+03  0.50400001928E-02 0.  1.
    10030    2    1    2    0    0  0.00000000000E+00  0.00000000000E+00  0.12647705960E+04  0.25502044529E+04  0.22144746760E+04 0.  0.
        2    1    3    3  502    0  0.98719835362E+03 -0.10585805585E+02  0.55084516856E+02  0.98879065159E+03  0.25500000920E-02 0.  1.
       -2    1    3    3    0  502 -0.98719835362E+03  0.10585805585E+02  0.12096860792E+04  0.15614138013E+04  0.25500000920E-02 0. -1.
</event>
<event>
 5   0  0.1226021E-04  0.2167301E+04  0.7818609E-02  0.8532163E-01
       -2   -1    0    0    0  501  0.00000000000E+00  0.00000000000E+00  0.11224456152E+04  0.11224456152E+04  0.25500000920E-02 0.  1.
        2   -1    0    0  501    0  0.00000000000E+00  0.00000000000E+00 -0.10461967217E+04  0.10461967217E+04  0.25500000920E-02 0. -1.
    10030    2    1    2    0    0  0.00000000000E+00  0.00000000000E+00  0.76248893510E+02  0.21686423369E+04  0.21673014769E+04 0.  0.
        2    1    3    3  502    0  0.43450061278E+03  0.23151546047E+03 -0.92782699617E+03  0.10503585701E+04  0.25500000920E-02 0. -1.
       -2    1    3    3    0  502 -0.43450061278E+03 -0.23151546047E+03  0.10040758897E+04  0.11182837668E+04  0.25500000920E-02 0.  1.
</event>
<event>
 5   0  0.5861816E-05  0.2209148E+04  0.7818609E-02  0.8514630E-01
        1   -1    0    0  501    0  0.00000000000E+00  0.00000000000E+00  0.74159046398E+03  0.74159046399E+03  0.50400001928E-02 0. -1.
       -1   -1    0    0    0  501  0.00000000000E+00  0.00000000000E+00 -0.16452250653E+04  0.16452250653E+04  0.50400001928E-02 0.  1.
    10030    2    1    2    0    0  0.00000000000E+00  0.00000000000E+00 -0.90363460134E+03  0.23868155293E+04  0.22091475456E+04 0.  0.
        1    1    3    3  502    0 -0.32822516154E+02 -0.80526520420E+03  0.36428096205E+03  0.88443766654E+03  0.50400001928E-02 0. -1.
       -1    1    3    3    0  502  0.32822516154E+02  0.80526520420E+03 -0.12679155634E+04  0.15023778628E+04  0.50400001928E-02 0.  1.
</event>
<event>
 5   0  0.1226021E-04  0.2226616E+04  0.7818609E-02  0.8507431E-01
       -2   -1    0    0    0  501  0.00000000000E+00  0.00000000000E+00  0.17408470402E+04  0.17408470402E+04  0.25500000920E-02 0. -1.
        2   -1    0    0  501    0  0.00000000000E+00  0.00000000000E+00 -0.71198346040E+03  0.71198346040E+03  0.25500000920E-02 0.  1.
    10030    2    1    2    0    0  0.00000000000E+00  0.00000000000E+00  0.10288635798E+04  0.24528305006E+04  0.22266156379E+04 0.  0.
        2    1    3    3  502    0  0.40584904347E+03 -0.91677722332E+03 -0.18745571976E+02  0.10027688267E+04  0.25500000920E-02 0.  1.
       -2    1    3    3    0  502 -0.40584904347E+03  0.91677722332E+03  0.10476091518E+04  0.14500616739E+04  0.25500000920E-02 0. -1.
</event>
<event>
 5   0  0.1404159E-04  0.2186069E+04  0.7818609E-02  0.8524249E-01
        2   -1    0    0  501    0  0.00000000000E+00  0.00000000000E+00  0.16262418671E+04  0.16262418671E+04  0.25500000920E-02 0.  1.
       -2   -1    0    0    0  501  0.00000000000E+00  0.00000000000E+00 -0.73465372244E+03  0.73465372244E+03  0.25500000920E-02 0. -1.
    10030    2    1    2    0    0  0.00000000000E+00  0.00000000000E+00  0.89158814469E+03  0.23608955896E+04  0.21860692041E+04 0.  0.
        5    1    3    3  502    0  0.79041589778E+03  0.95643924716E+02 -0.36295893551E+03  0.87502361721E+03  0.46999998093E+01 0.  1.
       -5    1    3    3    0  502 -0.79041589778E+03 -0.95643924716E+02  0.12545470802E+04  0.14858719724E+04  0.46999998093E+01 0. -1.
</event>
<event>
 5   0  0.1404159E-04  0.2219897E+04  0.7818609E-02  0.8510192E-01
       -2   -1    0    0    0  501  0.00000000000E+00  0.00000000000E+00  0.49425186058E+03  0.49425186059E+03  0.25500000920E-02 0.  1.
        2   -1    0    0  501    0  0.00000000000E+00  0.00000000000E+00 -0.24926282853E+04  0.24926282853E+04  0.25500000920E-02 0. -1.
    10030    2    1    2    0    0  0.00000000000E+00  0.00000000000E+00 -0.19983764247E+04  0.29868801459E+04  0.22198974461E+04 0.  0.
        5    1    3    3  502    0 -0.10906305180E+03  0.81418345380E+03 -0.20035277319E+04  0.21653948620E+04  0.46999998093E+01 0. -1.
       -5    1    3    3    0  502  0.10906305180E+03 -0.81418345380E+03  0.51513072024E+01  0.82148528391E+03  0.46999998093E+01 0.  1.
</event>
<event>
 5   0  0.1404159E-04  0.2007044E+04  0.7818609E-02  0.8603334E-01
       -2   -1    0    0    0  501  0.00000000000E+00  0.00000000000E+00  0.10838724114E+04  0.10838724114E+04  0.25500000920E-02 0.  1.
        2   -1    0    0  501    0  0.00000000000E+00  0.00000000000E+00 -0.92912848394E+03  0.92912848394E+03  0.25500000920E-02 0. -1.
    10030    2    1    2    0    0  0.00000000000E+00  0.00000000000E+00  0.15474392744E+03  0.20130008953E+04  0.20070443247E+04 0.  0.
        5    1    3    3  502    0  0.80224223571E+03 -0.53396806889E+03  0.35805988454E+03  0.10280775624E+04  0.46999998093E+01 0.  1.
       -5    1    3    3    0  502 -0.80224223571E+03  0.53396806889E+03 -0.20331595710E+03  0.98492333294E+03  0.46999998093E+01 0. -1.
</event>
<event>
 5   0  0.5861816E-05  0.2189455E+04  0.7818609E-02  0.8522830E-01
       -1   -1    0    0    0  501  0.00000000000E+00  0.00000000000E+00  0.71496607187E+03  0.71496607189E+03  0.50400001928E-02 0. -1.
        1   -1    0    0  501    0  0.00000000000E+00  0.00000000000E+00 -0.16762026958E+04  0.16762026958E+04  0.50400001928E-02 0.  1.
    10030    2    1    2    0    0  0.00000000000E+00  0.00000000000E+00 -0.96123662390E+03  0.23911687677E+04  0.21894547788E+04 0.  0.
        1    1    3    3  502    0 -0.80125997255E+02  0.73390697121E+02 -0.16702989419E+04  0.16738294193E+04  0.50400001928E-02 0.  1.
       -1    1    3    3    0  502  0.80125997255E+02 -0.73390697121E+02  0.70906231797E+03  0.71733934832E+03  0.50400001928E-02 0. -1.
</event>
<event>
 5   0  0.6263558E-05  0.2089760E+04  0.7818609E-02  0.8565768E-01
       -1   -1    0    0    0  501  0.00000000000E+00  0.00000000000E+00  0.59024916914E+03  0.59024916916E+03  0.50400001928E-02 0. -1.
        1   -1    0    0  501    0  0.00000000000E+00  0.00000000000E+00 -0.18496837735E+04  0.18496837735E+04  0.50400001928E-02 0.  1.
    10030    2    1    2    0    0  0.00000000000E+00  0.00000000000E+00 -0.12594346044E+04  0.24399329427E+04  0.20897600920E+04 0.  0.
        3    1    3    3  502    0  0.13963991414E+03  0.35109893602E+03  0.50768892754E+03  0.63286477690E+03  0.10100000352E+00 0. -1.
       -3    1    3    3    0  502 -0.13963991414E+03 -0.35109893602E+03 -0.17671235319E+04  0.18070681658E+04  0.10100000352E+00 0.  1.
</event>
<event>
 5   0  0.6263558E-05  0.1609401E+04  0.7818609E-02  0.8814793E-01
        1   -1    0    0  501    0  0.00000000000E+00  0.00000000000E+00  0.22424030798E+04  0.22424030798E+04  0.50400001928E-02 0. -1.
       -1   -1    0    0    0  501  0.00000000000E+00  0.00000000000E+00 -0.28877178811E+03  0.28877178816E+03  0.50400001928E-02 0.  1.
    10030    2    1    2    0    0  0.00000000000E+00  0.00000000000E+00  0.19536312917E+04  0.25311748680E+04  0.16094008166E+04 0.  0.
        3    1    3    3  502    0 -0.53269205267E+03 -0.42175227868E+03  0.16549343465E+04  0.17889783423E+04  0.10100000352E+00 0. -1.
       -3    1    3    3    0  502  0.53269205267E+03  0.42175227868E+03  0.29869694519E+03  0.74219652574E+03  0.10100000352E+00 0.  1.
</event>
<event>
 5   0  0.1241430E-04  0.2210659E+04  0.7818609E-02  0.8514005E-01
        2   -1    0    0  501    0  0.00000000000E+00  0.00000000000E+00  0.16964532661E+04  0.16964532661E+04  0.25500000920E-02 0.  1.
       -2   -1    0    0    0  501  0.00000000000E+00  0.00000000000E+00 -0.72018079539E+03  0.72018079539E+03  0.25500000920E-02 0. -1.
    10030    2    1    2    0    0  0.00000000000E+00  0.00000000000E+00  0.97627247073E+03  0.24166340615E+04  0.22106587819E+04 0.  0.
        1    1    3    3  502    0  0.84147153603E+03 -0.65152080084E+03  0.16164610734E+03  0.10764214620E+04  0.50400001928E-02 0. -1.
       -1    1    3    3    0  502 -0.84147153603E+03  0.65152080084E+03  0.81462636339E+03  0.13402125995E+04  0.50400001928E-02 0.  1.
</event>
<event>
 5   0  0.5895063E-05  0.2090386E+04  0.7818609E-02  0.8565490E-01
        1   -1    0    0  501    0  0.00000000000E+00  0.00000000000E+00  0.18174271836E+04  0.18174271836E+04  0.50400001928E-02 0. -1.
       -1   -1    0    0    0  501  0.00000000000E+00  0.00000000000E+00 -0.60108505247E+03  0.60108505249E+03  0.50400001928E-02 0.  1.
    10030    2    1    2    0    0  0.00000000000E+00  0.00000000000E+00  0.12163421311E+04  0.24185122361E+04  0.20903859108E+04 0.  0.
        5    1    3    3  502    0  0.39304243620E+03 -0.87109093885E+02 -0.50777113983E+03  0.64801540979E+03  0.46999998093E+01 0.  1.
       -5    1    3    3    0  502 -0.39304243620E+03  0.87109093885E+02  0.17241132710E+04  0.17704968263E+04  0.46999998093E+01 0. -1.
</event>
<event>
 5   0  0.1241430E-04  0.2296251E+04  0.7818609E-02  0.8479401E-01
        2   -1    0    0  501    0  0.00000000000E+00  0.00000000000E+00  0.19145988123E+04  0.19145988123E+04  0.25500000920E-02 0. -1.
       -2   -1    0    0    0  501  0.00000000000E+00  0.00000000000E+00 -0.68849542106E+03  0.68849542107E+03  0.25500000920E-02 0.  1.
    10030    2    1    2    0    0  0.00000000000E+00  0.00000000000E+00  0.12261033912E+04  0.26030942334E+04  0.22962513063E+04 0.  0.
        1    1    3    3  502    0 -0.55896720164E+03  0.68621415366E+03 -0.21601572815E+03  0.91104170707E+03  0.50400001928E-02 0.  1.
       -1    1    3    3    0  502  0.55896720164E+03 -0.68621415366E+03  0.14421191194E+04  0.16920525263E+04  0.50400001928E-02 0. -1.
</event>
<event>
 5   0  0.1252124E-04  0.2174398E+04  0.7818609E-02  0.8529160E-01
       -2   -1    0    0    0  501  0.00000000000E+00  0.00000000000E+00  0.84401193298E+03  0.84401193298E+03  0.25500000920E-02 0. -1.
        2   -1    0    0  501    0  0.00000000000E+00  0.00000000000E+00 -0.14004558473E+04  0.14004558473E+04  0.25500000920E-02 0.  1.
    10030    2    1    2    0    0  0.00000000000E+00  0.00000000000E+00 -0.55644391436E+03  0.22444677803E+04  0.21743977987E+04 0.  0.
        3    1    3    3  502    0  0.94821437235E+03 -0.34885023165E+03 -0.69265027865E+03  0.12249781218E+04  0.10100000352E+00 0.  1.
       -3    1    3    3    0  502 -0.94821437235E+03  0.34885023165E+03  0.13620636429E+03  0.10194896586E+04  0.10100000352E+00 0. -1.
</event>
<event>
 5   0  0.1226021E-04  0.2226208E+04  0.7818609E-02  0.8507598E-01
        2   -1    0    0  501    0  0.00000000000E+00  0.00000000000E+00  0.89932668585E+03  0.89932668585E+03  0.25500000920E-02 0.  1.
       -2   -1    0    0    0  501  0.00000000000E+00  0.00000000000E+00 -0.13776977145E+04  0.13776977145E+04  0.25500000920E-02 0. -1.
    10030    2    1    2    0    0  0.00000000000E+00  0.00000000000E+00 -0.47837102863E+03  0.22770244003E+04  0.22262078247E+04 0.  0.
        2    1    3    3  502    0 -0.13643499743E+03  0.74147899667E+03 -0.10767765887E+04  0.13144783882E+04  0.25500000920E-02 0. -1.
       -2    1    3    3    0  502  0.13643499743E+03 -0.74147899667E+03  0.59840556012E+03  0.96254601210E+03  0.25500000920E-02 0.  1.
</event>
<event>
 5   0  0.5849604E-05  0.2226990E+04  0.7818609E-02  0.8507277E-01
       -1   -1    0    0    0  501  0.00000000000E+00  0.00000000000E+00  0.18955587381E+04  0.18955587381E+04  0.50400001928E-02 0.  1.
        1   -1    0    0  501    0  0.00000000000E+00  0.00000000000E+00 -0.65409284877E+03  0.65409284879E+03  0.50400001928E-02 0. -1.
    10030    2    1    2    0    0  0.00000000000E+00  0.00000000000E+00  0.12414658894E+04  0.25496515869E+04  0.22269902695E+04 0.  0.
        2    1    3    3  502    0 -0.64113970575E+03 -0.90161253996E+03  0.47634043893E+03  0.12045187870E+04  0.25500000920E-02 0. -1.
       -2    1    3    3    0  502  0.64113970575E+03  0.90161253996E+03  0.76512545043E+03  0.13451327999E+04  0.25500000920E-02 0.  1.
</event>
<event>
 5   0  0.1404159E-04  0.2104163E+04  0.7818609E-02  0.8559412E-01
       -2   -1    0    0    0  501  0.00000000000E+00  0.00000000000E+00  0.12315424909E+04  0.12315424909E+04  0.25500000920E-02 0.  1.
        2   -1    0    0  501    0  0.00000000000E+00  0.00000000000E+00 -0.89877193961E+03  0.89877193962E+03  0.25500000920E-02 0. -1.
    10030    2    1    2    0    0  0.00000000000E+00  0.00000000000E+00  0.33277055124E+03  0.21303144305E+04  0.21041633332E+04 0.  0.
        5    1    3    3  502    0 -0.50149021669E+03  0.82263903919E+03 -0.26150949877E+03  0.99831695076E+03  0.46999998093E+01 0. -1.
       -5    1    3    3    0  502  0.50149021669E+03 -0.82263903919E+03  0.59428005001E+03  0.11319974797E+04  0.46999998093E+01 0.  1.
</event>
<event>
 5   0  0.4586375E-05  0.2209138E+04  0.7818609E-02  0.8514634E-01
        3   -1    0    0  501    0  0.00000000000E+00  0.00000000000E+00  0.10783807796E+04  0.10783807843E+04  0.10100000352E+00 0.  1.
       -3   -1    0    0    0  501  0.00000000000E+00  0.00000000000E+00 -0.11313927761E+04  0.11313927806E+04  0.10100000352E+00 0. -1.
    10030    2    1    2    0    0  0.00000000000E+00  0.00000000000E+00 -0.53011996505E+02  0.22097735649E+04  0.22091376002E+04 0.  0.
        1    1    3    3  502    0 -0.99974503609E+03 -0.38453293758E+03  0.24323163358E+03  0.10984158342E+04  0.50400001928E-02 0. -1.
       -1    1    3    3    0  502  0.99974503609E+03  0.38453293758E+03 -0.29624363008E+03  0.11113577307E+04  0.50400001928E-02 0.  1.
</event>
<event>
 5   0  0.1404159E-04  0.2243323E+04  0.7818609E-02  0.8500610E-01
        2   -1    0    0  501    0  0.00000000000E+00  0.00000000000E+00  0.83404662776E+03  0.83404662777E+03  0.25500000920E-02 0.  1.
       -2   -1    0    0    0  501  0.00000000000E+00  0.00000000000E+00 -0.15084576159E+04  0.15084576159E+04  0.25500000920E-02 0. -1.
    10030    2    1    2    0    0  0.00000000000E+00  0.00000000000E+00 -0.67441098813E+03  0.23425042437E+04  0.22433225249E+04 0.  0.
        5    1    3    3  502    0 -0.65018101304E+02  0.20210620953E+03  0.81286381737E+03  0.84014519520E+03  0.46999998093E+01 0.  1.
       -5    1    3    3    0  502  0.65018101304E+02 -0.20210620953E+03 -0.14872748055E+04  0.15023590485E+04  0.46999998093E+01 0. -1.
</event>
<event>
 5   0  0.1241430E-04  0.1796913E+04  0.7818609E-02  0.8707943E-01
       -2   -1    0    0    0  501  0.00000000000E+00  0.00000000000E+00  0.10855782712E+04  0.10855782712E+04  0.25500000920E-02 0. -1.
        2   -1    0    0  501    0  0.00000000000E+00  0.00000000000E+00 -0.74358861832E+03  0.74358861832E+03  0.25500000920E-02 0.  1.
    10030    2    1    2    0    0  0.00000000000E+00  0.00000000000E+00  0.34198965286E+03  0.18291668895E+04  0.17969125151E+04 0.  0.
        1    1    3    3  502    0  0.76943977354E+03  0.42016762888E+03 -0.29117772326E+02  0.87716945122E+03  0.50400001928E-02 0.  1.
       -1    1    3    3    0  502 -0.76943977354E+03 -0.42016762888E+03  0.37110742519E+03  0.95199743829E+03  0.50400001928E-02 0. -1.
</event>
<event>
 5   0  0.1311472E-04  0.2146692E+04  0.7818609E-02  0.8540949E-01
       -2   -1    0    0    0  501  0.00000000000E+00  0.00000000000E+00  0.77349550685E+03  0.77349550685E+03  0.25500000920E-02 0. -1.
        2   -1    0    0  501    0  0.00000000000E+00  0.00000000000E+00 -0.14894360097E+04  0.14894360097E+04  0.25500000920E-02 0.  1.
    10030    2    1    2    0    0  0.00000000000E+00  0.00000000000E+00 -0.71594050285E+03  0.22629315165E+04  0.21466923964E+04 0.  0.
        4    1    3    3  502    0  0.54908690620E+03  0.49552034103E+03  0.46198724949E+03  0.87204969498E+03  0.12699999809E+01 0. -1.
       -4    1    3    3    0  502 -0.54908690620E+03 -0.49552034103E+03 -0.11779277523E+04  0.13908818216E+04  0.12699999809E+01 0.  1.
</event>
<event>
 5   0  0.5849604E-05  0.2162298E+04  0.7818609E-02  0.8534286E-01
       -1   -1    0    0    0  501  0.00000000000E+00  0.00000000000E+00  0.11603017364E+04  0.11603017364E+04  0.50400001928E-02 0.  1.
        1   -1    0    0  501    0  0.00000000000E+00  0.00000000000E+00 -0.10073958236E+04  0.10073958236E+04  0.50400001928E-02 0. -1.
    10030    2    1    2    0    0  0.00000000000E+00  0.00000000000E+00  0.15290591285E+03  0.21676975600E+04  0.21622979659E+04 0.  0.
        2    1    3    3  502    0  0.61629586625E+03 -0.94645809230E+02  0.96189389139E+03  0.11463063649E+04  0.25500000920E-02 0.  1.
       -2    1    3    3    0  502 -0.61629586625E+03  0.94645809230E+02 -0.80898797854E+03  0.10213911951E+04  0.25500000920E-02 0. -1.
</event>
<event>
 5   0  0.5849604E-05  0.2187894E+04  0.7818609E-02  0.8523484E-01
        1   -1    0    0  501    0  0.00000000000E+00  0.00000000000E+00  0.11457445326E+04  0.11457445326E+04  0.50400001928E-02 0. -1.
       -1   -1    0    0    0  501  0.00000000000E+00  0.00000000000E+00 -0.10444908496E+04  0.10444908497E+04  0.50400001928E-02 0.  1.
    10030    2    1    2    0    0  0.00000000000E+00  0.00000000000E+00  0.10125368299E+03  0.21902353823E+04  0.21878936724E+04 0.  0.
        2    1    3    3  502    0 -0.96580437932E+03  0.37517469219E+02  0.56355598240E+03  0.11188301949E+04  0.25500000920E-02 0. -1.
       -2    1    3    3    0  502  0.96580437932E+03 -0.37517469219E+02 -0.46230229941E+03  0.10714051874E+04  0.25500000920E-02 0.  1.
</event>
<event>
 5   0  0.1404159E-04  0.2128644E+04  0.7818609E-02  0.8548729E-01
       -2   -1    0    0    0  501  0.00000000000E+00  0.00000000000E+00  0.45711305861E+03  0.45711305862E+03  0.25500000920E-02 0.  1.
        2   -1    0    0  501    0  0.00000000000E+00  0.00000000000E+00 -0.24781208983E+04  0.24781208983E+04  0.25500000920E-02 0. -1.
    10030    2    1    2    0    0  0.00000000000E+00  0.00000000000E+00 -0.20210078397E+04  0.29352339569E+04  0.21286440975E+04 0.  0.
        5    1    3    3  502    0 -0.82306005019E+03  0.67073173891E+03 -0.90870229315E+03  0.13975231159E+04  0.46999998093E+01 0.  1.
       -5    1    3    3    0  502  0.82306005019E+03 -0.67073173891E+03 -0.11123055465E+04  0.15377108410E+04  0.46999998093E+01 0. -1.
</event>
<event>
 5   0  0.1252124E-04  0.2185130E+04  0.7818609E-02  0.8524643E-01
       -2   -1    0    0    0  501  0.00000000000E+00  0.00000000000E+00  0.10284649438E+04  0.10284649438E+04  0.25500000920E-02 0. -1.
        2   -1    0    0  501    0  0.00000000000E+00  0.00000000000E+00 -0.11606603000E+04  0.11606603000E+04  0.25500000920E-02 0.  1.
    10030    2    1    2    0    0  0.00000000000E+00  0.00000000000E+00 -0.13219535622E+03  0.21891252438E+04  0.21851301382E+04 0.  0.
        3    1    3    3  502    0 -0.10123306157E+04 -0.32797724282E+03  0.18197587523E+03  0.10795821306E+04  0.10100000352E+00 0.  1.
       -3    1    3    3    0  502  0.10123306157E+04  0.32797724282E+03 -0.31417123145E+03  0.11095431133E+04  0.10100000352E+00 0. -1.
</event>
<event>
 5   0  0.5849604E-05  0.2234420E+04  0.7818609E-02  0.8504237E-01
        1   -1    0    0  501    0  0.00000000000E+00  0.00000000000E+00  0.99886362837E+03  0.99886362839E+03  0.50400001928E-02 0. -1.
       -1   -1    0    0    0  501  0.00000000000E+00  0.00000000000E+00 -0.12495787065E+04  0.12495787065E+04  0.50400001928E-02 0.  1.
    10030    2    1    2    0    0  0.00000000000E+00  0.00000000000E+00 -0.25071507811E+03  0.22484423349E+04  0.22344204803E+04 0.  0.
        2    1    3    3  502    0  0.77845223883E+03  0.54628816482E+03  0.46461518455E+03  0.10584355988E+04  0.25500000920E-02 0. -1.
       -2    1    3    3    0  502 -0.77845223883E+03 -0.54628816482E+03 -0.71533026266E+03  0.11900067360E+04  0.25500000920E-02 0.  1.
</event>
<event>
 5   0  0.1226021E-04  0.2374859E+04  0.7818609E-02  0.8448977E-01
        2   -1    0    0  501    0  0.00000000000E+00  0.00000000000E+00  0.13011539306E+04  0.13011539306E+04  0.25500000920E-02 0. -1.
       -2   -1    0    0    0  501  0.00000000000E+00  0.00000000000E+00 -0.10836445258E+04  0.10836445258E+04  0.25500000920E-02 0.  1.
    10030    2    1    2    0    0  0.00000000000E+00  0.00000000000E+00  0.21750940477E+03  0.23847984563E+04  0.23748585929E+04 0.  0.
        2    1    3    3  502    0 -0.91554275944E+03 -0.73479434439E+03  0.28795907709E+03  0.12087438533E+04  0.25500000920E-02 0.  1.
       -2    1    3    3    0  502  0.91554275944E+03  0.73479434439E+03 -0.70449672315E+02  0.11760546030E+04  0.25500000920E-02 0. -1.
</event>
<event>
 5   0  0.5849604E-05  0.2190209E+04  0.7818609E-02  0.8522514E-01
        1   -1    0    0  501    0  0.00000000000E+00  0.00000000000E+00  0.19812720999E+04  0.19812720999E+04  0.50400001928E-02 0.  1.
       -1   -1    0    0    0  501  0.00000000000E+00  0.00000000000E+00 -0.60529490348E+03  0.60529490350E+03  0.50400001928E-02 0. -1.
    10030    2    1    2    0    0  0.00000000000E+00  0.00000000000E+00  0.13759771965E+04  0.25865670034E+04  0.21902090353E+04 0.  0.
        2    1    3    3  502    0  0.48717579945E+03 -0.94465331155E+03  0.99942349133E+03  0.14589576600E+04  0.25500000920E-02 0.  1.
       -2    1    3    3    0  502 -0.48717579945E+03  0.94465331155E+03  0.37655370512E+03  0.11276093435E+04  0.25500000920E-02 0. -1.
</event>
<event>
 5   0  0.6263558E-05  0.2183779E+04  0.7818609E-02  0.8525210E-01
       -1   -1    0    0    0  501  0.00000000000E+00  0.00000000000E+00  0.59412207198E+03  0.59412207200E+03  0.50400001928E-02 0. -1.
        1   -1    0    0  501    0  0.00000000000E+00  0.00000000000E+00 -0.20066967638E+04  0.20066967638E+04  0.50400001928E-02 0.  1.
    10030    2    1    2    0    0  0.00000000000E+00  0.00000000000E+00 -0.14125746918E+04  0.26008188358E+04  0.21837791456E+04 0.  0.
        3    1    3    3  502    0 -0.85356167324E+02  0.10848627527E+04 -0.59969731139E+03  0.12425175021E+04  0.10100000352E+00 0. -1.
       -3    1    3    3    0  502  0.85356167324E+02 -0.10848627527E+04 -0.81287738042E+03  0.13583013337E+04  0.10100000352E+00 0.  1.
</event>
<event>
 5   0  0.1241430E-04  0.2102586E+04  0.7818609E-02  0.8560105E-01
       -2   -1    0    0    0  501  0.00000000000E+00  0.00000000000E+00  0.76316661920E+03  0.76316661921E+03  0.25500000920E-02 0. -1.
        2   -1    0    0  501    0  0.00000000000E+00  0.00000000000E+00 -0.14481982517E+04  0.14481982517E+04  0.25500000920E-02 0.  1.
    10030    2    1    2    0    0  0.00000000000E+00  0.00000000000E+00 -0.68503163246E+03  0.22113648709E+04  0.21025856117E+04 0.  0.
        1    1    3    3  502    0  0.12291356108E+03 -0.32461880199E+03 -0.13861916394E+04  0.14289899829E+04  0.50400001928E-02 0.  1.
       -1    1    3    3    0  502 -0.12291356108E+03  0.32461880199E+03  0.70116000689E+03  0.78237488801E+03  0.50400001928E-02 0. -1.
</event>
<event>
 5   0  0.5849604E-05  0.2183023E+04  0.7818609E-02  0.8525528E-01
       -1   -1    0    0    0  501  0.00000000000E+00  0.00000000000E+00  0.67617253612E+03  0.67617253614E+03  0.50400001928E-02 0. -1.
        1   -1    0    0  501    0  0.00000000000E+00  0.00000000000E+00 -0.17619730942E+04  0.17619730942E+04  0.50400001928E-02 0.  1.
    10030    2    1    2    0    0  0.00000000000E+00  0.00000000000E+00 -0.10858005581E+04  0.24381456303E+04  0.21830234224E+04 0.  0.
        2    1    3    3  502    0 -0.37142102412E+03 -0.30735382157E+03  0.55081817251E+03  0.73199768303E+03  0.25500000920E-02 0. -1.
       -2    1    3    3    0  502  0.37142102412E+03  0.30735382157E+03 -0.16366187306E+04  0.17061479473E+04  0.25500000920E-02 0.  1.
</event>
<event>
 5   0  0.1241430E-04  0.2411371E+04  0.7818609E-02  0.8435259E-01
        2   -1    0    0  501    0  0.00000000000E+00  0.00000000000E+00  0.10232613416E+04  0.10232613416E+04  0.25500000920E-02 0.  1.
       -2   -1    0    0    0  501  0.00000000000E+00  0.00000000000E+00 -0.14206315719E+04  0.14206315719E+04  0.25500000920E-02 0. -1.
    10030    2    1    2    0    0  0.00000000000E+00  0.00000000000E+00 -0.39737023029E+03  0.24438929135E+04  0.24113708700E+04 0.  0.
        1    1    3    3  502    0 -0.39339587986E+02 -0.52448538620E+03 -0.12982343144E+04  0.14007301163E+04  0.50400001928E-02 0. -1.
       -1    1    3    3    0  502  0.39339587986E+02  0.52448538620E+03  0.90086408410E+03  0.10431627973E+04  0.50400001928E-02 0.  1.
</event>
<event>
 5   0  0.1252124E-04  0.2090166E+04  0.7818609E-02  0.8565588E-01
        2   -1    0    0  501    0  0.00000000000E+00  0.00000000000E+00  0.12636517343E+04  0.12636517343E+04  0.25500000920E-02 0.  1.
       -2   -1    0    0    0  501  0.00000000000E+00  0.00000000000E+00 -0.86431926462E+03  0.86431926463E+03  0.25500000920E-02 0. -1.
    10030    2    1    2    0    0  0.00000000000E+00  0.00000000000E+00  0.39933246964E+03  0.21279709989E+04  0.20901660582E+04 0.  0.
        3    1    3    3  502    0 -0.23843743682E+03  0.52862156315E+03  0.10848198063E+04  0.12300923505E+04  0.10100000352E+00 0.  1.
       -3    1    3    3    0  502  0.23843743682E+03 -0.52862156315E+03 -0.68548733669E+03  0.89787864841E+03  0.10100000352E+00 0. -1.
</event>
<event>
 5   0  0.5861816E-05  0.2253723E+04  0.7818609E-02  0.8496394E-01
       -1   -1    0    0    0  501  0.00000000000E+00  0.00000000000E+00  0.74784349938E+03  0.74784349939E+03  0.50400001928E-02 0. -1.
        1   -1    0    0  501    0  0.00000000000E+00  0.00000000000E+00 -0.16979715565E+04  0.16979715565E+04  0.50400001928E-02 0.  1.
    10030    2    1    2    0    0  0.00000000000E+00  0.00000000000E+00 -0.95012805710E+03  0.24458150559E+04  0.22537231335E+04 0.  0.
        1    1    3    3  502    0  0.40677499869E+01 -0.18713200063E+03 -0.16809832200E+04  0.16913720816E+04  0.50400001928E-02 0.  1.
       -1    1    3    3    0  502 -0.40677499869E+01  0.18713200063E+03  0.73085516294E+03  0.75444297430E+03  0.50400001928E-02 0. -1.
</event>
<event>
 5   0  0.5861816E-05  0.1574533E+04  0.7818609E-02  0.8836348E-01
        1   -1    0    0  501    0  0.00000000000E+00  0.00000000000E+00  0.84753167277E+03  0.84753167279E+03  0.50400001928E-02 0.  1.
       -1   -1    0    0    0  501  0.00000000000E+00  0.00000000000E+00 -0.73128700472E+03  0.73128700474E+03  0.50400001928E-02 0. -1.
    10030    2    1    2    0    0  0.00000000000E+00  0.00000000000E+00  0.11624466806E+03  0.15788186775E+04  0.15745334527E+04 0.  0.
        1    1    3    3  502    0 -0.86040645111E+02 -0.28280790260E+03 -0.67352478891E+03  0.73553989945E+03  0.50400001928E-02 0. -1.
       -1    1    3    3    0  502  0.86040645111E+02  0.28280790260E+03  0.78976945696E+03  0.84327877808E+03  0.50400001928E-02 0.  1.
</event>
<event>
 5   0  0.1241430E-04  0.2212126E+04  0.7818609E-02  0.8513398E-01
       -2   -1    0    0    0  501  0.00000000000E+00  0.00000000000E+00  0.16465585034E+04  0.16465585034E+04  0.25500000920E-02 0. -1.
        2   -1    0    0  501    0  0.00000000000E+00  0.00000000000E+00 -0.74298903403E+03  0.74298903404E+03  0.25500000920E-02 0.  1.
    10030    2    1    2    0    0  0.00000000000E+00  0.00000000000E+00  0.90356946936E+03  0.23895475374E+04  0.22121255949E+04 0.  0.
        1    1    3    3  502    0  0.25509726954E+03 -0.88387287518E+03  0.11150944053E+04  0.14455937912E+04  0.50400001928E-02 0. -1.
       -1    1    3    3    0  502 -0.25509726954E+03  0.88387287518E+03 -0.21152493598E+03  0.94395374620E+03  0.50400001928E-02 0.  1.
</event>
<event>
 5   0  0.5849604E-05  0.2233529E+04  0.7818609E-02  0.8504601E-01
       -1   -1    0    0    0  501  0.00000000000E+00  0.00000000000E+00  0.91839044373E+03  0.91839044375E+03  0.50400001928E-02 0.  1.
        1   -1    0    0  501    0  0.00000000000E+00  0.00000000000E+00 -0.13579871738E+04  0.13579871738E+04  0.50400001928E-02 0. -1.
    10030    2    1    2    0    0  0.00000000000E+00  0.00000000000E+00 -0.43959673010E+03  0.22763776176E+04  0.22335285476E+04 0.  0.
        2    1    3    3  502    0  0.10935639563E+03  0.10882706291E+04 -0.44967058172E+03  0.11825799827E+04  0.25500000920E-02 0. -1.
       -2    1    3    3    0  502 -0.10935639563E+03 -0.10882706291E+04  0.10073851620E+02  0.10937976348E+04  0.25500000920E-02 0.  1.
</event>
<event>
 5   0  0.5861816E-05  0.2201602E+04  0.7818609E-02  0.8517761E-01
        1   -1    0    0  501    0  0.00000000000E+00  0.00000000000E+00  0.17189340735E+04  0.17189340736E+04  0.50400001928E-02 0. -1.
       -1   -1    0    0    0  501  0.00000000000E+00  0.00000000000E+00 -0.70495036114E+03  0.70495036116E+03  0.50400001928E-02 0.  1.
    10030    2    1    2    0    0  0.00000000000E+00  0.00000000000E+00  0.10139837124E+04  0.24238844347E+04  0.22016023219E+04 0.  0.
        1    1    3    3  502    0  0.41597928677E+03 -0.96092742412E+03  0.88090307486E+03  0.13683605186E+04  0.50400001928E-02 0. -1.
       -1    1    3    3    0  502 -0.41597928677E+03  0.96092742412E+03  0.13308063754E+03  0.10555239161E+04  0.50400001928E-02 0.  1.
</event>
<event>
 5   0  0.1252124E-04  0.2223212E+04  0.7818609E-02  0.8508829E-01
        2   -1    0    0  501    0  0.00000000000E+00  0.00000000000E+00  0.68698743857E+03  0.68698743858E+03  0.25500000920E-02 0. -1.
       -2   -1    0    0    0  501  0.00000000000E+00  0.00000000000E+00 -0.17986755875E+04  0.17986755875E+04  0.25500000920E-02 0.  1.
    10030    2    1    2    0    0  0.00000000000E+00  0.00000000000E+00 -0.11116881490E+04  0.24856630261E+04  0.22232116721E+04 0.  0.
        3    1    3    3  502    0  0.56683818971E+03 -0.40221457612E+03 -0.15257717251E+04  0.16766220403E+04  0.10100000352E+00 0.  1.
       -3    1    3    3    0  502 -0.56683818971E+03  0.40221457612E+03  0.41408357615E+03  0.80904098586E+03  0.10100000352E+00 0. -1.
</event>
<event>
 5   0  0.5981239E-05  0.1918584E+04  0.7818609E-02  0.8645661E-01
       -1   -1    0    0    0  501  0.00000000000E+00  0.00000000000E+00  0.11488469308E+04  0.11488469308E+04  0.50400001928E-02 0. -1.
        1   -1    0    0  501    0  0.00000000000E+00  0.00000000000E+00 -0.80101255371E+03  0.80101255373E+03  0.50400001928E-02 0.  1.
    10030    2    1    2    0    0  0.00000000000E+00  0.00000000000E+00  0.34783437706E+03  0.19498594845E+04  0.19185836587E+04 0.  0.
        4    1    3    3  502    0 -0.16012889056E+03 -0.62869895592E+03 -0.54423886036E+03  0.84681827377E+03  0.12699999809E+01 0.  1.
       -4    1    3    3    0  502  0.16012889056E+03  0.62869895592E+03  0.89207323742E+03  0.11030412107E+04  0.12699999809E+01 0. -1.
</event>
<event>
 5   0  0.5981239E-05  0.2303745E+04  0.7818609E-02  0.8476446E-01
        1   -1    0    0  501    0  0.00000000000E+00  0.00000000000E+00  0.60772357096E+03  0.60772357098E+03  0.50400001928E-02 0. -1.
       -1   -1    0    0    0  501  0.00000000000E+00  0.00000000000E+00 -0.21832461647E+04  0.21832461647E+04  0.50400001928E-02 0.  1.
    10030    2    1    2    0    0  0.00000000000E+00  0.00000000000E+00 -0.15755225938E+04  0.27909697357E+04  0.23037449126E+04 0.  0.
        4    1    3    3  502    0 -0.90167499491E+03 -0.33218466796E+03 -0.18254574139E+02  0.96109275954E+03  0.12699999809E+01 0. -1.
       -4    1    3    3    0  502  0.90167499491E+03  0.33218466796E+03 -0.15572680196E+04  0.18298769762E+04  0.12699999809E+01 0.  1.
</event>
<event>
 5   0  0.5981239E-05  0.2170742E+04  0.7818609E-02  0.8530705E-01
        1   -1    0    0  501    0  0.00000000000E+00  0.00000000000E+00  0.12755068100E+04  0.12755068101E+04  0.50400001928E-02 0. -1.
       -1   -1    0    0    0  501  0.00000000000E+00  0.00000000000E+00 -0.92357832379E+03  0.92357832380E+03  0.50400001928E-02 0.  1.
    10030    2    1    2    0    0  0.00000000000E+00  0.00000000000E+00  0.35192848626E+03  0.21990851339E+04  0.21707422156E+04 0.  0.
        4    1    3    3  502    0 -0.57685822561E+03 -0.86217873117E+03 -0.14743936315E+03  0.10477869801E+04  0.12699999809E+01 0.  1.
       -4    1    3    3    0  502  0.57685822561E+03  0.86217873117E+03  0.49936784942E+03  0.11512981538E+04  0.12699999809E+01 0. -1.
</event>
<event>
 5   0  0.1226021E-04  0.2165266E+04  0.7818609E-02  0.8533026E-01
        2   -1    0    0  501    0  0.00000000000E+00  0.00000000000E+00  0.14961957219E+04  0.14961957219E+04  0.25500000920E-02 0. -1.
       -2   -1    0    0    0  501  0.00000000000E+00  0.00000000000E+00 -0.78338315923E+03  0.78338315923E+03  0.25500000920E-02 0.  1.
    10030    2    1    2    0    0  0.00000000000E+00  0.00000000000E+00  0.71281256270E+03  0.22795788812E+04  0.21652662944E+04 0.  0.
        2    1    3    3  502    0 -0.18694645771E+03  0.55300204667E+02 -0.76475109818E+03  0.78920930865E+03  0.25500000920E-02 0.  1.
       -2    1    3    3    0  502  0.18694645771E+03 -0.55300204667E+02  0.14775636609E+04  0.14903695725E+04  0.25500000920E-02 0. -1.
</event>
<event>
 5   0  0.1311472E-04  0.2182606E+04  0.7818609E-02  0.8525703E-01
       -2   -1    0    0    0  501  0.00000000000E+00  0.00000000000E+00  0.15767902679E+04  0.15767902679E+04  0.25500000920E-02 0. -1.
        2   -1    0    0  501    0  0.00000000000E+00  0.00000000000E+00 -0.75529527555E+03  0.75529527556E+03  0.25500000920E-02 0.  1.
    10030    2    1    2    0    0  0.00000000000E+00  0.00000000000E+00  0.82149499232E+03  0.23320855434E+04  0.21826060019E+04 0.  0.
        4    1    3    3  502    0 -0.61060730165E+03  0.44719489103E+03 -0.42930060090E+03  0.87012939625E+03  0.12699999809E+01 0.  1.
       -4    1    3    3    0  502  0.61060730165E+03 -0.44719489103E+03  0.12507955932E+04  0.14619561472E+04  0.12699999809E+01 0. -1.
</event>
<event>
 5   0  0.1252124E-04  0.2236471E+04  0.7818609E-02  0.8503400E-01
       -2   -1    0    0    0  501  0.00000000000E+00  0.00000000000E+00  0.13239514949E+04  0.13239514949E+04  0.25500000920E-02 0. -1.
        2   -1    0    0  501    0  0.00000000000E+00  0.00000000000E+00 -0.94448369747E+03  0.94448369747E+03  0.25500000920E-02 0.  1.
    10030    2    1    2    0    0  0.00000000000E+00  0.00000000000E+00  0.37946779746E+03  0.22684351924E+04  0.22364709729E+04 0.  0.
        3    1    3    3  502    0  0.67418442899E+03 -0.64778208548E+03  0.81193777382E+03  0.12383009462E+04  0.10100000352E+00 0. -1.
       -3    1    3    3    0  502 -0.67418442899E+03  0.64778208548E+03 -0.43246997636E+03  0.10301342462E+04  0.10100000352E+00 0.  1.
</event>
<event>
 5   0  0.6263558E-05  0.2195125E+04  0.7818609E-02  0.8520460E-01
       -1   -1    0    0    0  501  0.00000000000E+00  0.00000000000E+00  0.48127175080E+03  0.48127175082E+03  0.50400001928E-02 0.  1.
        1   -1    0    0  501    0  0.00000000000E+00  0.00000000000E+00 -0.25030427898E+04  0.25030427898E+04  0.50400001928E-02 0. -1.
    10030    2    1    2    0    0  0.00000000000E+00  0.00000000000E+00 -0.20217710390E+04  0.29843145406E+04  0.21951253138E+04 0.  0.
        3    1    3    3  502    0 -0.81983254260E+03 -0.62963055637E+03 -0.50936535931E+03  0.11523945136E+04  0.10100000352E+00 0. -1.
       -3    1    3    3    0  502  0.81983254260E+03  0.62963055637E+03 -0.15124056797E+04  0.18319200270E+04  0.10100000352E+00 0.  1.
</event>
<event>
 5   0  0.1252124E-04  0.2182673E+04  0.7818609E-02  0.8525675E-01
        2   -1    0    0  501    0  0.00000000000E+00  0.00000000000E+00  0.11856086759E+04  0.11856086759E+04  0.25500000920E-02 0. -1.
       -2   -1    0    0    0  501  0.00000000000E+00  0.00000000000E+00 -0.10045600797E+04  0.10045600797E+04  0.25500000920E-02 0.  1.
    10030    2    1    2    0    0  0.00000000000E+00  0.00000000000E+00  0.18104859612E+03  0.21901687556E+04  0.21826728073E+04 0.  0.
        3    1    3    3  502    0 -0.70964443600E+03 -0.82526239915E+03  0.10488962102E+02  0.10884683190E+04  0.10100000352E+00 0. -1.
       -3    1    3    3    0  502  0.70964443600E+03  0.82526239915E+03  0.17055963402E+03  0.11017004366E+04  0.10100000352E+00 0.  1.
</event>
<event>
 5   0  0.1226021E-04  0.2213024E+04  0.7818609E-02  0.8513027E-01
        2   -1    0    0  501    0  0.00000000000E+00  0.00000000000E+00  0.14084255904E+04  0.14084255904E+04  0.25500000920E-02 0.  1.
       -2   -1    0    0    0  501  0.00000000000E+00  0.00000000000E+00 -0.86931762165E+03  0.86931762165E+03  0.25500000920E-02 0. -1.
    10030    2    1    2    0    0  0.00000000000E+00  0.00000000000E+00  0.53910796875E+03  0.22777432120E+04  0.22130243419E+04 0.  0.
        2    1    3    3  502    0 -0.35406328905E+03  0.76931272602E+03  0.10025367524E+04  0.13123577343E+04  0.25500000920E-02 0.  1.
       -2    1    3    3    0  502  0.35406328905E+03 -0.76931272602E+03 -0.46342878361E+03  0.96538547770E+03  0.25500000920E-02 0. -1.
</event>
<event>
 5   0  0.6263558E-05  0.2051677E+04  0.7818609E-02  0.8582834E-01
        1   -1    0    0  501    0  0.00000000000E+00  0.00000000000E+00  0.17728997001E+04  0.17728997001E+04  0.50400001928E-02 0.  1.
       -1   -1    0    0    0  501  0.00000000000E+00  0.00000000000E+00 -0.59357245050E+03  0.59357245053E+03  0.50400001928E-02 0. -1.
    10030    2    1    2    0    0  0.00000000000E+00  0.00000000000E+00  0.11793272496E+04  0.23664721506E+04  0.20516767967E+04 0.  0.
        3    1    3    3  502    0 -0.54748586969E+03 -0.64804332281E+02 -0.40817545739E+03  0.68596471718E+03  0.10100000352E+00 0. -1.
       -3    1    3    3    0  502  0.54748586969E+03  0.64804332281E+02  0.15875027070E+04  0.16805074334E+04  0.10100000352E+00 0.  1.
</event>
<event>
 5   0  0.1404159E-04  0.2235383E+04  0.7818609E-02  0.8503844E-01
        2   -1    0    0  501    0  0.00000000000E+00  0.00000000000E+00  0.19756263256E+04  0.19756263256E+04  0.25500000920E-02 0. -1.
       -2   -1    0    0    0  501  0.00000000000E+00  0.00000000000E+00 -0.63232325063E+03  0.63232325063E+03  0.25500000920E-02 0.  1.
    10030    2    1    2    0    0  0.00000000000E+00  0.00000000000E+00  0.13433030750E+04  0.26079495763E+04  0.22353831531E+04 0.  0.
        5    1    3    3  502    0  0.47999988198E+03 -0.93832722672E+03  0.23769737354E+03  0.10804536096E+04  0.46999998093E+01 0. -1.
       -5    1    3    3    0  502 -0.47999988198E+03  0.93832722672E+03  0.11056057014E+04  0.15274959667E+04  0.46999998093E+01 0.  1.
</event>
<event>
 5   0  0.5895063E-05  0.2030440E+04  0.7818609E-02  0.8592520E-01
        1   -1    0    0  501    0  0.00000000000E+00  0.00000000000E+00  0.11934933089E+04  0.11934933089E+04  0.50400001928E-02 0. -1.
       -1   -1    0    0    0  501  0.00000000000E+00  0.00000000000E+00 -0.86357585612E+03  0.86357585614E+03  0.50400001928E-02 0.  1.
    10030    2    1    2    0    0  0.00000000000E+00  0.00000000000E+00  0.32991745274E+03  0.20570691650E+04  0.20304403522E+04 0.  0.
        5    1    3    3  502    0 -0.24895212349E+02 -0.88829617876E+03 -0.33235583391E+03  0.94877413705E+03  0.46999998093E+01 0.  1.
       -5    1    3    3    0  502  0.24895212349E+02  0.88829617876E+03  0.66227328666E+03  0.11082950280E+04  0.46999998093E+01 0. -1.
</event>
<event>
 5   0  0.1252124E-04  0.2186981E+04  0.7818609E-02  0.8523867E-01
        2   -1    0    0  501    0  0.00000000000E+00  0.00000000000E+00  0.13413579016E+04  0.13413579016E+04  0.25500000920E-02 0.  1.
       -2   -1    0    0    0  501  0.00000000000E+00  0.00000000000E+00 -0.89142575792E+03  0.89142575793E+03  0.25500000920E-02 0. -1.
    10030    2    1    2    0    0  0.00000000000E+00  0.00000000000E+00  0.44993214370E+03  0.22327836596E+04  0.21869805524E+04 0.  0.
        3    1    3    3  502    0 -0.10076252286E+04 -0.41414001379E+03  0.12864817029E+03  0.10969826408E+04  0.10100000352E+00 0.  1.
       -3    1    3    3    0  502  0.10076252286E+04  0.41414001379E+03  0.32128397342E+03  0.11358010187E+04  0.10100000352E+00 0. -1.
</event>
<event>
 5   0  0.1241430E-04  0.2221779E+04  0.7818609E-02  0.8509417E-01
        2   -1    0    0  501    0  0.00000000000E+00  0.00000000000E+00  0.16004440438E+04  0.16004440438E+04  0.25500000920E-02 0. -1.
       -2   -1    0    0    0  501  0.00000000000E+00  0.00000000000E+00 -0.77108352122E+03  0.77108352122E+03  0.25500000920E-02 0.  1.
    10030    2    1    2    0    0  0.00000000000E+00  0.00000000000E+00  0.82936052257E+03  0.23715275650E+04  0.22217794929E+04 0.  0.
        1    1    3    3  502    0  0.61950343640E+03 -0.18969328770E+03 -0.54853103631E+03  0.84891362866E+03  0.50400001928E-02 0.  1.
       -1    1    3    3    0  502 -0.61950343640E+03  0.18969328770E+03  0.13778915589E+04  0.15226139364E+04  0.50400001928E-02 0. -1.
</event>
<event>
 5   0  0.1311472E-04  0.2208854E+04  0.7818609E-02  0.8514752E-01
       -2   -1    0    0    0  501  0.00000000000E+00  0.00000000000E+00  0.73836573258E+03  0.73836573258E+03  0.25500000920E-02 0. -1.
        2   -1    0    0  501    0  0.00000000000E+00  0.00000000000E+00 -0.16519716905E+04  0.16519716905E+04  0.25500000920E-02 0.  1.
    10030    2    1    2    0    0  0.00000000000E+00  0.00000000000E+00 -0.91360595788E+03  0.23903374230E+04  0.22088542618E+04 0.  0.
        4    1    3    3  502    0  0.88452266087E+02 -0.50801684262E+03 -0.15137003520E+04  0.15991232861E+04  0.12699999809E+01 0.  1.
       -4    1    3    3    0  502 -0.88452266087E+02  0.50801684262E+03  0.60009439408E+03  0.79121413693E+03  0.12699999809E+01 0. -1.
</event>
<event>
 5   0  0.6263558E-05  0.2254402E+04  0.7818609E-02  0.8496120E-01
       -1   -1    0    0    0  501  0.00000000000E+00  0.00000000000E+00  0.14926653548E+04  0.14926653548E+04  0.50400001928E-02 0.  1.
        1   -1    0    0  501    0  0.00000000000E+00  0.00000000000E+00 -0.85121676303E+03  0.85121676305E+03  0.50400001928E-02 0. -1.
    10030    2    1    2    0    0  0.00000000000E+00  0.00000000000E+00  0.64144859178E+03  0.23438821179E+04  0.22544017137E+04 0.  0.
        3    1    3    3  502    0  0.27217783844E+03 -0.37087059916E+03  0.13906248545E+04  0.14647400020E+04  0.10100000352E+00 0.  1.
       -3    1    3    3    0  502 -0.27217783844E+03  0.37087059916E+03 -0.74917626277E+03  0.87914211590E+03  0.10100000352E+00 0. -1.
</event>
<event>
 5   0  0.5981239E-05  0.2249047E+04  0.7818609E-02  0.8498287E-01
       -1   -1    0    0    0  501  0.00000000000E+00  0.00000000000E+00  0.11225680582E+04  0.11225680582E+04  0.50400001928E-02 0. -1.
        1   -1    0    0  501    0  0.00000000000E+00  0.00000000000E+00 -0.11264818894E+04  0.11264818894E+04  0.50400001928E-02 0.  1.
    10030    2    1    2    0    0  0.00000000000E+00  0.00000000000E+00 -0.39138311796E+01  0.22490499477E+04  0.22490465422E+04 0.  0.
        4    1    3    3  502    0 -0.88768863097E+03 -0.53243486979E+03  0.43744445321E+03  0.11237603208E+04  0.12699999809E+01 0. -1.
       -4    1    3    3    0  502  0.88768863097E+03  0.53243486979E+03 -0.44135828439E+03  0.11252896268E+04  0.12699999809E+01 0.  1.
</event>
<event>
 5   0  0.1241430E-04  0.2241113E+04  0.7818609E-02  0.8501508E-01
       -2   -1    0    0    0  501  0.00000000000E+00  0.00000000000E+00  0.16062231466E+04  0.16062231466E+04  0.25500000920E-02 0. -1.
        2   -1    0    0  501    0  0.00000000000E+00  0.00000000000E+00 -0.78173895203E+03  0.78173895204E+03  0.25500000920E-02 0.  1.
    10030    2    1    2    0    0  0.00000000000E+00  0.00000000000E+00  0.82448419456E+03  0.23879620986E+04  0.22411132942E+04 0.  0.
        1    1    3    3  502    0 -0.50871721790E+03 -0.23540192607E+03 -0.62161359588E+03  0.83702493224E+03  0.50400001928E-02 0.  1.
       -1    1    3    3    0  502  0.50871721790E+03  0.23540192607E+03  0.14460977904E+04  0.15509371664E+04  0.50400001928E-02 0. -1.
</event>
<event>
 5   0  0.5861816E-05  0.2374993E+04  0.7818609E-02  0.8448925E-01
       -1   -1    0    0    0  501  0.00000000000E+00  0.00000000000E+00  0.20779294845E+04  0.20779294845E+04  0.50400001928E-02 0.  1.
        1   -1    0    0  501    0  0.00000000000E+00  0.00000000000E+00 -0.67863145701E+03  0.67863145703E+03  0.50400001928E-02 0. -1.
    10030    2    1    2    0    0  0.00000000000E+00  0.00000000000E+00  0.13992980275E+04  0.27565609415E+04  0.23749933167E+04 0.  0.
        1    1    3    3  502    0 -0.36789641917E+03 -0.11136696082E+04  0.91535876668E+03  0.14877800386E+04  0.50400001928E-02 0. -1.
       -1    1    3    3    0  502  0.36789641917E+03  0.11136696082E+04  0.48393926078E+03  0.12687809029E+04  0.50400001928E-02 0.  1.
</event>
<event>
 5   0  0.1311472E-04  0.2216373E+04  0.7818609E-02  0.8511644E-01
       -2   -1    0    0    0  501  0.00000000000E+00  0.00000000000E+00  0.58833683329E+03  0.58833683330E+03  0.25500000920E-02 0.  1.
        2   -1    0    0  501    0  0.00000000000E+00  0.00000000000E+00 -0.20873719146E+04  0.20873719146E+04  0.25500000920E-02 0. -1.
    10030    2    1    2    0    0  0.00000000000E+00  0.00000000000E+00 -0.14990350814E+04  0.26757087479E+04  0.22163734182E+04 0.  0.
        4    1    3    3  502    0 -0.27683158686E+03  0.10514140842E+04 -0.49067968261E+03  0.11928434381E+04  0.12699999809E+01 0. -1.
       -4    1    3    3    0  502  0.27683158686E+03 -0.10514140842E+04 -0.10083553987E+04  0.14828653098E+04  0.12699999809E+01 0.  1.
</event>
<event>
 5   0  0.1252124E-04  0.2166877E+04  0.7818609E-02  0.8532342E-01
        2   -1    0    0  501    0  0.00000000000E+00  0.00000000000E+00  0.15818542920E+04  0.15818542920E+04  0.25500000920E-02 0. -1.
       -2   -1    0    0    0  501  0.00000000000E+00  0.00000000000E+00 -0.74206536179E+03  0.74206536180E+03  0.25500000920E-02 0.  1.
    10030    2    1    2    0    0  0.00000000000E+00  0.00000000000E+00  0.83978893016E+03  0.23239196538E+04  0.21668772715E+04 0.  0.
        3    1    3    3  502    0 -0.63135738034E+03  0.67915428911E+03 -0.18105149497E+03  0.94479751490E+03  0.10100000352E+00 0.  1.
       -3    1    3    3    0  502  0.63135738034E+03 -0.67915428911E+03  0.10208404251E+04  0.13791221389E+04  0.10100000352E+00 0. -1.
</event>
<event>
 5   0  0.1404159E-04  0.2182565E+04  0.7818609E-02  0.8525720E-01
        2   -1    0    0  501    0  0.00000000000E+00  0.00000000000E+00  0.15834044212E+04  0.15834044212E+04  0.25500000920E-02 0.  1.
       -2   -1    0    0    0  501  0.00000000000E+00  0.00000000000E+00 -0.75211169810E+03  0.75211169811E+03  0.25500000920E-02 0. -1.
    10030    2    1    2    0    0  0.00000000000E+00  0.00000000000E+00  0.83129272306E+03  0.23355161193E+04  0.21825645356E+04 0.  0.
        5    1    3    3  502    0 -0.10436066695E+04  0.31640469855E+03  0.37220479647E+03  0.11522956714E+04  0.46999998093E+01 0.  1.
       -5    1    3    3    0  502  0.10436066695E+04 -0.31640469855E+03  0.45908792659E+03  0.11832204478E+04  0.46999998093E+01 0. -1.
</event>
<event>
 5   0  0.5981239E-05  0.2196030E+04  0.7818609E-02  0.8520082E-01
       -1   -1    0    0    0  501  0.00000000000E+00  0.00000000000E+00  0.99386675218E+03  0.99386675220E+03  0.50400001928E-02 0. -1.
        1   -1    0    0  501    0  0.00000000000E+00  0.00000000000E+00 -0.12130772303E+04  0.12130772304E+04  0.50400001928E-02 0.  1.
    10030    2    1    2    0    0  0.00000000000E+00  0.00000000000E+00 -0.21921047816E+03  0.22069439825E+04  0.21960301702E+04 0.  0.
        4    1    3    3  502    0 -0.45572446622E+03  0.25381139376E+02 -0.11132206865E+04  0.12031587182E+04  0.12699999809E+01 0.  1.
       -4    1    3    3    0  502  0.45572446622E+03 -0.25381139376E+02  0.89401020838E+03  0.10037852643E+04  0.12699999809E+01 0. -1.
</event>
<event>
 5   0  0.5981239E-05  0.2158461E+04  0.7818609E-02  0.8535919E-01
       -1   -1    0    0    0  501  0.00000000000E+00  0.00000000000E+00  0.71986516200E+03  0.71986516202E+03  0.50400001928E-02 0. -1.
        1   -1    0    0  501    0  0.00000000000E+00  0.00000000000E+00 -0.16179946779E+04  0.16179946779E+04  0.50400001928E-02 0.  1.
    10030    2    1    2    0    0  0.00000000000E+00  0.00000000000E+00 -0.89812951590E+03  0.23378598399E+04  0.21584605634E+04 0.  0.
        4    1    3    3  502    0  0.64886409579E+02 -0.66704720016E+03 -0.13652887958E+04  0.15209133184E+04  0.12699999809E+01 0.  1.
       -4    1    3    3    0  502 -0.64886409579E+02  0.66704720016E+03  0.46715927985E+03  0.81694652153E+03  0.12699999809E+01 0. -1.
</event>
<event>
 5   0  0.5861816E-05  0.2187624E+04  0.7818609E-02  0.8523597E-01
       -1   -1    0    0    0  501  0.00000000000E+00  0.00000000000E+00  0.10914577007E+04  0.10914577007E+04  0.50400001928E-02 0. -1.
        1   -1    0    0  501    0  0.00000000000E+00  0.00000000000E+00 -0.10961713631E+04  0.10961713631E+04  0.50400001928E-02 0.  1.
    10030    2    1    2    0    0  0.00000000000E+00  0.00000000000E+00 -0.47136623979E+01  0.21876290639E+04  0.21876239856E+04 0.  0.
        1    1    3    3  502    0  0.69031477511E+03 -0.42934478069E+03  0.72945990310E+03  0.10922376938E+04  0.50400001928E-02 0. -1.
       -1    1    3    3    0  502 -0.69031477511E+03  0.42934478069E+03 -0.73417356550E+03  0.10953913701E+04  0.50400001928E-02 0.  1.
</event>
<event>
 5   0  0.1404159E-04  0.2221878E+04  0.7818609E-02  0.8509377E-01
        2   -1    0    0  501    0  0.00000000000E+00  0.00000000000E+00  0.10207055750E+04  0.10207055750E+04  0.25500000920E-02 0. -1.
       -2   -1    0    0    0  501  0.00000000000E+00  0.00000000000E+00 -0.12091493941E+04  0.12091493941E+04  0.25500000920E-02 0.  1.
    10030    2    1    2    0    0  0.00000000000E+00  0.00000000000E+00 -0.18844381908E+03  0.22298549691E+04  0.22218780593E+04 0.  0.
        5    1    3    3  502    0  0.92552017613E+03  0.29806150534E+03  0.44504807473E+03  0.10693540743E+04  0.46999998093E+01 0. -1.
       -5    1    3    3    0  502 -0.92552017613E+03 -0.29806150534E+03 -0.63349189381E+03  0.11605008948E+04  0.46999998093E+01 0.  1.
</event>
<event>
 5   0  0.1311472E-04  0.2166716E+04  0.7818609E-02  0.8532411E-01
        2   -1    0    0  501    0  0.00000000000E+00  0.00000000000E+00  0.88238786848E+03  0.88238786849E+03  0.25500000920E-02 0.  1.
       -2   -1    0    0    0  501  0.00000000000E+00  0.00000000000E+00 -0.13301006872E+04  0.13301006872E+04  0.25500000920E-02 0. -1.
    10030    2    1    2    0    0  0.00000000000E+00  0.00000000000E+00 -0.44771281873E+03  0.22124885557E+04  0.21667161422E+04 0.  0.
        4    1    3    3  502    0  0.10205699897E+04  0.19899367871E+03  0.86709243785E+02  0.10433991058E+04  0.12699999809E+01 0.  1.
       -4    1    3    3    0  502 -0.10205699897E+04 -0.19899367871E+03 -0.53442206251E+03  0.11690894499E+04  0.12699999809E+01 0. -1.
</event>
<event>
 5   0  0.1241430E-04  0.2180044E+04  0.7818609E-02  0.8526780E-01
       -2   -1    0    0    0  501  0.00000000000E+00  0.00000000000E+00  0.13212574333E+04  0.13212574333E+04  0.25500000920E-02 0. -1.
        2   -1    0    0  501    0  0.00000000000E+00  0.00000000000E+00 -0.89925587161E+03  0.89925587162E+03  0.25500000920E-02 0.  1.
    10030    2    1    2    0    0  0.00000000000E+00  0.00000000000E+00  0.42200156173E+03  0.22205133050E+04  0.21800444994E+04 0.  0.
        1    1    3    3  502    0  0.20910474819E+02 -0.10425219320E+04  0.53447967442E+03  0.11717327976E+04  0.50400001928E-02 0. -1.
       -1    1    3    3    0  502 -0.20910474819E+02  0.10425219320E+04 -0.11247811269E+03  0.10487805073E+04  0.50400001928E-02 0.  1.
</event>
<event>
 5   0  0.1241430E-04  0.2204551E+04  0.7818609E-02  0.8516536E-01
        2   -1    0    0  501    0  0.00000000000E+00  0.00000000000E+00  0.43481249218E+03  0.43481249219E+03  0.25500000920E-02 0.  1.
       -2   -1    0    0    0  501  0.00000000000E+00  0.00000000000E+00 -0.27943340875E+04  0.27943340875E+04  0.25500000920E-02 0. -1.
    10030    2    1    2    0    0  0.00000000000E+00  0.00000000000E+00 -0.23595215953E+04  0.32291465797E+04  0.22045510823E+04 0.  0.
        1    1    3    3  502    0 -0.37184537991E+03 -0.76821405182E+03 -0.15800059529E+03  0.86797811269E+03  0.50400001928E-02 0.  1.
       -1    1    3    3    0  502  0.37184537991E+03  0.76821405182E+03 -0.22015210000E+04  0.23611684670E+04  0.50400001928E-02 0. -1.
</event>
<event>
 5   0  0.5849604E-05  0.2156348E+04  0.7818609E-02  0.8536820E-01
        1   -1    0    0  501    0  0.00000000000E+00  0.00000000000E+00  0.18558611197E+04  0.18558611197E+04  0.50400001928E-02 0. -1.
       -1   -1    0    0    0  501  0.00000000000E+00  0.00000000000E+00 -0.62637169190E+03  0.62637169192E+03  0.50400001928E-02 0.  1.
    10030    2    1    2    0    0  0.00000000000E+00  0.00000000000E+00  0.12294894278E+04  0.24822328116E+04  0.21563477173E+04 0.  0.
        2    1    3    3  502    0 -0.75246522822E+03  0.11872306810E+03  0.14930486290E+04  0.16761543173E+04  0.25500000920E-02 0. -1.
       -2    1    3    3    0  502  0.75246522822E+03 -0.11872306810E+03 -0.26355920121E+03  0.80607849439E+03  0.25500000920E-02 0.  1.
</event>
<event>
 5   0  0.5895063E-05  0.2203593E+04  0.7818609E-02  0.8516934E-01
        1   -1    0    0  501    0  0.00000000000E+00  0.00000000000E+00  0.14227283440E+04  0.14227283440E+04  0.50400001928E-02 0. -1.
       -1   -1    0    0    0  501  0.00000000000E+00  0.00000000000E+00 -0.85325877163E+03  0.85325877164E+03  0.50400001928E-02 0.  1.
    10030    2    1    2    0    0  0.00000000000E+00  0.00000000000E+00  0.56946957238E+03  0.22759871157E+04  0.22035929199E+04 0.  0.
        5    1    3    3  502    0  0.75484055326E+03  0.74747459582E+03 -0.17153116747E+02  0.10624588706E+04  0.46999998093E+01 0. -1.
       -5    1    3    3    0  502 -0.75484055326E+03 -0.74747459582E+03  0.58662268913E+03  0.12135282451E+04  0.46999998093E+01 0.  1.
</event>
<event>
 5   0  0.1404159E-04  0.1411671E+04  0.7818609E-02  0.8945414E-01
        2   -1    0    0  501    0  0.00000000000E+00  0.00000000000E+00  0.82662030116E+03  0.82662030116E+03  0.25500000920E-02 0. -1.
       -2   -1    0    0    0  501  0.00000000000E+00  0.00000000000E+00 -0.60269961109E+03  0.60269961110E+03  0.25500000920E-02 0.  1.
    10030    2    1    2    0    0  0.00000000000E+00  0.00000000000E+00  0.22392069007E+03  0.14293199123E+04  0.14116709730E+04 0.  0.
        5    1    3    3  502    0  0.35850854965E+02  0.69635084846E+03  0.22283675691E+03  0.73203012109E+03  0.46999998093E+01 0. -1.
       -5    1    3    3    0  502 -0.35850854965E+02 -0.69635084846E+03  0.10839331620E+01  0.69728979117E+03  0.46999998093E+01 0.  1.
</event>
<event>
 5   0  0.5981239E-05  0.2311742E+04  0.7818609E-02  0.8473306E-01
        1   -1    0    0  501    0  0.00000000000E+00  0.00000000000E+00  0.15870567021E+04  0.15870567021E+04  0.50400001928E-02 0. -1.
       -1   -1    0    0    0  501  0.00000000000E+00  0.00000000000E+00 -0.84183361411E+03  0.84183361413E+03  0.50400001928E-02 0.  1.
    10030    2    1    2    0    0  0.00000000000E+00  0.00000000000E+00  0.74522308797E+03  0.24288903162E+04  0.23117419227E+04 0.  0.
        4    1    3    3  502    0 -0.29107832982E+02  0.80693292424E+03 -0.49637261798E+03  0.94782667136E+03  0.12699999809E+01 0.  1.
       -4    1    3    3    0  502  0.29107832982E+02 -0.80693292424E+03  0.12415957060E+04  0.14810636449E+04  0.12699999809E+01 0. -1.
</event>
<event>
 5   0  0.1226021E-04  0.2202448E+04  0.7818609E-02  0.8517410E-01
       -2   -1    0    0    0  501  0.00000000000E+00  0.00000000000E+00  0.57340490408E+03  0.57340490409E+03  0.25500000920E-02 0.  1.
        2   -1    0    0  501    0  0.00000000000E+00  0.00000000000E+00 -0.21149008302E+04  0.21149008302E+04  0.25500000920E-02 0. -1.
    10030    2    1    2    0    0  0.00000000000E+00  0.00000000000E+00 -0.15414959261E+04  0.26883057343E+04  0.22024481903E+04 0.  0.
        2    1    3    3  502    0  0.10095397770E+04 -0.40346648360E+03 -0.55674686135E+03  0.12214429305E+04  0.25500000920E-02 0. -1.
       -2    1    3    3    0  502 -0.10095397770E+04  0.40346648360E+03 -0.98474906477E+03  0.14668628038E+04  0.25500000920E-02 0.  1.
</event>
<event>
 5   0  0.5861816E-05  0.2208762E+04  0.7818609E-02  0.8514790E-01
       -1   -1    0    0    0  501  0.00000000000E+00  0.00000000000E+00  0.99416081876E+03  0.99416081877E+03  0.50400001928E-02 0.  1.
        1   -1    0    0  501    0  0.00000000000E+00  0.00000000000E+00 -0.12268207539E+04  0.12268207539E+04  0.50400001928E-02 0. -1.
    10030    2    1    2    0    0  0.00000000000E+00  0.00000000000E+00 -0.23265993515E+03  0.22209815727E+04  0.22087617574E+04 0.  0.
        1    1    3    3  502    0 -0.16413633162E+03 -0.28198982467E+03  0.94458924614E+03  0.99935371142E+03  0.50400001928E-02 0.  1.
       -1    1    3    3    0  502  0.16413633162E+03  0.28198982467E+03 -0.11772491813E+04  0.12216278613E+04  0.50400001928E-02 0. -1.
</event>
<event>
 5   0  0.1252124E-04  0.2193078E+04  0.7818609E-02  0.8521315E-01
        2   -1    0    0  501    0  0.00000000000E+00  0.00000000000E+00  0.12971684934E+04  0.12971684934E+04  0.25500000920E-02 0.  1.
       -2   -1    0    0    0  501  0.00000000000E+00  0.00000000000E+00 -0.92694002478E+03  0.92694002478E+03  0.25500000920E-02 0. -1.
    10030    2    1    2    0    0  0.00000000000E+00  0.00000000000E+00  0.37022846863E+03  0.22241085182E+04  0.21930776506E+04 0.  0.
        3    1    3    3  502    0 -0.70445535800E+03  0.17923850913E+03 -0.64748554448E+03  0.97345844034E+03  0.10100000352E+00 0. -1.
       -3    1    3    3    0  502  0.70445535800E+03 -0.17923850913E+03  0.10177140131E+04  0.12506500779E+04  0.10100000352E+00 0.  1.
</event>
<event>
 5   0  0.1404159E-04  0.2080590E+04  0.7818609E-02  0.8569842E-01
       -2   -1    0    0    0  501  0.00000000000E+00  0.00000000000E+00  0.10857578320E+04  0.10857578320E+04  0.25500000920E-02 0.  1.
        2   -1    0    0  501    0  0.00000000000E+00  0.00000000000E+00 -0.99673607455E+03  0.99673607455E+03  0.25500000920E-02 0. -1.
    10030    2    1    2    0    0  0.00000000000E+00  0.00000000000E+00  0.89021757492E+02  0.20824939066E+04  0.20805903003E+04 0.  0.
        5    1    3    3  502    0 -0.40191404704E+02 -0.70024804878E+03  0.81347756738E+03  0.10741184858E+04  0.46999998093E+01 0.  1.
       -5    1    3    3    0  502  0.40191404704E+02  0.70024804878E+03 -0.72445580989E+03  0.10083754208E+04  0.46999998093E+01 0. -1.
</event>
<event>
 5   0  0.5861816E-05  0.2189949E+04  0.7818609E-02  0.8522623E-01
        1   -1    0    0  501    0  0.00000000000E+00  0.00000000000E+00  0.20377404526E+04  0.20377404526E+04  0.50400001928E-02 0. -1.
       -1   -1    0    0    0  501  0.00000000000E+00  0.00000000000E+00 -0.58838153299E+03  0.58838153302E+03  0.50400001928E-02 0.  1.
    10030    2    1    2    0    0  0.00000000000E+00  0.00000000000E+00  0.14493589196E+04  0.26261219856E+04  0.21899487221E+04 0.  0.
        1    1    3    3  502    0 -0.37662197508E+03  0.94648746001E+03  0.24308709686E+03  0.10472697650E+04  0.50400001928E-02 0. -1.
       -1    1    3    3    0  502  0.37662197508E+03 -0.94648746001E+03  0.12062718227E+04  0.15788522206E+04  0.50400001928E-02 0.  1.
</event>
<event>
 5   0  0.5981239E-05  0.2161937E+04  0.7818609E-02  0.8534440E-01
       -1   -1    0    0    0  501  0.00000000000E+00  0.00000000000E+00  0.13761382422E+04  0.13761382422E+04  0.50400001928E-02 0.  1.
        1   -1    0    0  501    0  0.00000000000E+00  0.00000000000E+00 -0.84910992238E+03  0.84910992239E+03  0.50400001928E-02 0. -1.
    10030    2    1    2    0    0  0.00000000000E+00  0.00000000000E+00  0.52702831985E+03  0.22252481646E+04  0.21619367577E+04 0.  0.
        4    1    3    3  502    0  0.79781420059E+03 -0.69305111569E+03  0.29561430612E+02  0.10572146607E+04  0.12699999809E+01 0. -1.
       -4    1    3    3    0  502 -0.79781420059E+03  0.69305111569E+03  0.49746688923E+03  0.11680335040E+04  0.12699999809E+01 0.  1.
</event>
<event>
 5   0  0.5895063E-05  0.2194504E+04  0.7818609E-02  0.8520719E-01
        1   -1    0    0  501    0  0.00000000000E+00  0.00000000000E+00  0.67886472064E+03  0.67886472066E+03  0.50400001928E-02 0.  1.
       -1   -1    0    0    0  501  0.00000000000E+00  0.00000000000E+00 -0.17734930911E+04  0.17734930911E+04  0.50400001928E-02 0. -1.
    10030    2    1    2    0    0  0.00000000000E+00  0.00000000000E+00 -0.10946283705E+04  0.24523578118E+04  0.21945039457E+04 0.  0.
        5    1    3    3  502    0  0.60128634542E+02  0.95441060387E+03 -0.11485091056E+04  0.14945267844E+04  0.46999998093E+01 0. -1.
       -5    1    3    3    0  502 -0.60128634542E+02 -0.95441060387E+03  0.53880735151E+02  0.95783102742E+03  0.46999998093E+01 0.  1.
</event>
<event>
 5   0  0.5895063E-05  0.2182540E+04  0.7818609E-02  0.8525731E-01
        1   -1    0    0  501    0  0.00000000000E+00  0.00000000000E+00  0.84191340542E+03  0.84191340543E+03  0.50400001928E-02 0. -1.
       -1   -1    0    0    0  501  0.00000000000E+00  0.00000000000E+00 -0.14144801118E+04  0.14144801118E+04  0.50400001928E-02 0.  1.
    10030    2    1    2    0    0  0.00000000000E+00  0.00000000000E+00 -0.57256670636E+03  0.22563935172E+04  0.21825395922E+04 0.  0.
        5    1    3    3  502    0  0.27156492569E+03 -0.82963172476E+03  0.39071226665E+03  0.95640706443E+03  0.46999998093E+01 0. -1.
       -5    1    3    3    0  502 -0.27156492569E+03  0.82963172476E+03 -0.96327897301E+03  0.12999864528E+04  0.46999998093E+01 0.  1.
</event>
<event>
 5   0  0.1404159E-04  0.2202647E+04  0.7818609E-02  0.8517327E-01
       -2   -1    0    0    0  501  0.00000000000E+00  0.00000000000E+00  0.63338731615E+03  0.63338731616E+03  0.25500000920E-02 0. -1.
        2   -1    0    0  501    0  0.00000000000E+00  0.00000000000E+00 -0.19149640350E+04  0.19149640350E+04  0.25500000920E-02 0.  1.
    10030    2    1    2    0    0  0.00000000000E+00  0.00000000000E+00 -0.12815767188E+04  0.25483513511E+04  0.22026474349E+04 0.  0.
        5    1    3    3  502    0 -0.71015930305E+03 -0.83121848917E+03 -0.48712115559E+03  0.11968957861E+04  0.46999998093E+01 0. -1.
       -5    1    3    3    0  502  0.71015930305E+03  0.83121848917E+03 -0.79445556323E+03  0.13514555651E+04  0.46999998093E+01 0.  1.
</event>
<event>
 5   0  0.1404159E-04  0.2264891E+04  0.7818609E-02  0.8491894E-01
        2   -1    0    0  501    0  0.00000000000E+00  0.00000000000E+00  0.13458444632E+04  0.13458444632E+04  0.25500000920E-02 0. -1.
       -2   -1    0    0    0  501  0.00000000000E+00  0.00000000000E+00 -0.95288299579E+03  0.95288299579E+03  0.25500000920E-02 0.  1.
    10030    2    1    2    0    0  0.00000000000E+00  0.00000000000E+00  0.39296146740E+03  0.22987274590E+04  0.22648905527E+04 0.  0.
        5    1    3    3  502    0  0.10584383503E+03 -0.65891531574E+03  0.11250468361E+04  0.13080996844E+04  0.46999998093E+01 0. -1.
       -5    1    3    3    0  502 -0.10584383503E+03  0.65891531574E+03 -0.73208536874E+03  0.99062777462E+03  0.46999998093E+01 0.  1.
</event>
<event>
 5   0  0.1252124E-04  0.2218138E+04  0.7818609E-02  0.8510917E-01
        2   -1    0    0  501    0  0.00000000000E+00  0.00000000000E+00  0.12943015791E+04  0.12943015791E+04  0.25500000920E-02 0. -1.
       -2   -1    0    0    0  501  0.00000000000E+00  0.00000000000E+00 -0.95034541971E+03  0.95034541971E+03  0.25500000920E-02 0.  1.
    10030    2    1    2    0    0  0.00000000000E+00  0.00000000000E+00  0.34395615939E+03  0.22446469988E+04  0.22181375768E+04 0.  0.
        3    1    3    3  502    0  0.20251676797E+03  0.10835989652E+04  0.48728369106E+02  0.11034374576E+04  0.10100000352E+00 0.  1.
       -3    1    3    3    0  502 -0.20251676797E+03 -0.10835989652E+04  0.29522779029E+03  0.11412095412E+04  0.10100000352E+00 0. -1.
</event>
<event>
 5   0  0.1404159E-04  0.2192760E+04  0.7818609E-02  0.8521447E-01
       -2   -1    0    0    0  501  0.00000000000E+00  0.00000000000E+00  0.84623204505E+03  0.84623204506E+03  0.25500000920E-02 0. -1.
        2   -1    0    0  501    0  0.00000000000E+00  0.00000000000E+00 -0.14204726914E+04  0.14204726914E+04  0.25500000920E-02 0.  1.
    10030    2    1    2    0    0  0.00000000000E+00  0.00000000000E+00 -0.57424064639E+03  0.22667047365E+04  0.21927603705E+04 0.  0.
        5    1    3    3  502    0 -0.72427779071E+03 -0.56133065663E+03  0.33513999116E+03  0.97571067836E+03  0.46999998093E+01 0. -1.
       -5    1    3    3    0  502  0.72427779071E+03  0.56133065663E+03 -0.90938063755E+03  0.12909940581E+04  0.46999998093E+01 0.  1.
</event>
<event>
 5   0  0.5849604E-05  0.2229196E+04  0.7818609E-02  0.8506374E-01
       -1   -1    0    0    0  501  0.00000000000E+00  0.00000000000E+00  0.17782840819E+04  0.17782840819E+04  0.50400001928E-02 0. -1.
        1   -1    0    0  501    0  0.00000000000E+00  0.00000000000E+00 -0.69861070511E+03  0.69861070512E+03  0.50400001928E-02 0.  1.
    10030    2    1    2    0    0  0.00000000000E+00  0.00000000000E+00  0.10796733768E+04  0.24768947870E+04  0.22291956364E+04 0.  0.
        2    1    3    3  502    0  0.28857913815E+03 -0.17873842108E+03  0.17194540854E+04  0.17526402066E+04  0.25500000920E-02 0. -1.
       -2    1    3    3    0  502 -0.28857913815E+03  0.17873842108E+03 -0.63978070859E+03  0.72425458040E+03  0.25500000920E-02 0.  1.
</event>
<event>
 5   0  0.1252124E-04  0.2205047E+04  0.7818609E-02  0.8516330E-01
        2   -1    0    0  501    0  0.00000000000E+00  0.00000000000E+00  0.12735273046E+04  0.12735273046E+04  0.25500000920E-02 0.  1.
       -2   -1    0    0    0  501  0.00000000000E+00  0.00000000000E+00 -0.95448118026E+03  0.95448118026E+03  0.25500000920E-02 0. -1.
    10030    2    1    2    0    0  0.00000000000E+00  0.00000000000E+00  0.31904612432E+03  0.22280084848E+04  0.22050467975E+04 0.  0.
        3    1    3    3  502    0  0.98163406707E+03 -0.48517532942E+03  0.29507992737E+02  0.10953863582E+04  0.10100000352E+00 0.  1.
       -3    1    3    3    0  502 -0.98163406707E+03  0.48517532942E+03  0.28953813158E+03  0.11326221266E+04  0.10100000352E+00 0. -1.
</event>
<event>
 5   0  0.1226021E-04  0.1971009E+04  0.7818609E-02  0.8620296E-01
       -2   -1    0    0    0  501  0.00000000000E+00  0.00000000000E+00  0.56886360183E+03  0.56886360183E+03  0.25500000920E-02 0. -1.
        2   -1    0    0  501    0  0.00000000000E+00  0.00000000000E+00 -0.17072974024E+04  0.17072974024E+04  0.25500000920E-02 0.  1.
    10030    2    1    2    0    0  0.00000000000E+00  0.00000000000E+00 -0.11384338006E+04  0.22761610043E+04  0.19710092336E+04 0.  0.
        2    1    3    3  502    0  0.17645636928E+02 -0.95152919023E+03 -0.27366376478E+03  0.99025805955E+03  0.25500000920E-02 0. -1.
       -2    1    3    3    0  502 -0.17645636928E+02  0.95152919023E+03 -0.86477003584E+03  0.12859029447E+04  0.25500000920E-02 0.  1.
</event>
<event>
 5   0  0.1252124E-04  0.1699767E+04  0.7818609E-02  0.8761497E-01
        2   -1    0    0  501    0  0.00000000000E+00  0.00000000000E+00  0.67476846098E+03  0.67476846098E+03  0.25500000920E-02 0. -1.
       -2   -1    0    0    0  501  0.00000000000E+00  0.00000000000E+00 -0.10704445071E+04  0.10704445071E+04  0.25500000920E-02 0.  1.
    10030    2    1    2    0    0  0.00000000000E+00  0.00000000000E+00 -0.39567604615E+03  0.17452129681E+04  0.16997672695E+04 0.  0.
        3    1    3    3  502    0 -0.81339451271E+03 -0.55770916016E+02  0.48538403326E+02  0.81674782838E+03  0.10100000352E+00 0. -1.
       -3    1    3    3    0  502  0.81339451271E+03  0.55770916016E+02 -0.44421444948E+03  0.92846513973E+03  0.10100000352E+00 0.  1.
</event>
<event>
 5   0  0.5849604E-05  0.2190842E+04  0.7818609E-02  0.8522249E-01
       -1   -1    0    0    0  501  0.00000000000E+00  0.00000000000E+00  0.85821253274E+03  0.85821253275E+03  0.50400001928E-02 0. -1.
        1   -1    0    0  501    0  0.00000000000E+00  0.00000000000E+00 -0.13981940016E+04  0.13981940016E+04  0.50400001928E-02 0.  1.
    10030    2    1    2    0    0  0.00000000000E+00  0.00000000000E+00 -0.53998146887E+03  0.22564065344E+04  0.21908424091E+04 0.  0.
        2    1    3    3  502    0  0.94530939972E+03  0.35089516398E+03 -0.71083094142E+03  0.12337008975E+04  0.25500000920E-02 0.  1.
       -2    1    3    3    0  502 -0.94530939972E+03 -0.35089516398E+03  0.17084947255E+03  0.10227056368E+04  0.25500000920E-02 0. -1.
</event>
<event>
 5   0  0.1226021E-04  0.2210334E+04  0.7818609E-02  0.8514139E-01
       -2   -1    0    0    0  501  0.00000000000E+00  0.00000000000E+00  0.10533348982E+04  0.10533348982E+04  0.25500000920E-02 0.  1.
        2   -1    0    0  501    0  0.00000000000E+00  0.00000000000E+00 -0.11595491844E+04  0.11595491844E+04  0.25500000920E-02 0. -1.
    10030    2    1    2    0    0  0.00000000000E+00  0.00000000000E+00 -0.10621428619E+03  0.22128840826E+04  0.22103335695E+04 0.  0.
        2    1    3    3  502    0 -0.49806975430E+03  0.12009588251E+03 -0.10334700088E+04  0.11534976204E+04  0.25500000920E-02 0. -1.
       -2    1    3    3    0  502  0.49806975430E+03 -0.12009588251E+03  0.92725572261E+03  0.10593864622E+04  0.25500000920E-02 0.  1.
</event>
<event>
 5   0  0.5981239E-05  0.2192820E+04  0.7818609E-02  0.8521423E-01
        1   -1    0    0  501    0  0.00000000000E+00  0.00000000000E+00  0.17560812544E+04  0.17560812544E+04  0.50400001928E-02 0. -1.
       -1   -1    0    0    0  501  0.00000000000E+00  0.00000000000E+00 -0.68454389016E+03  0.68454389018E+03  0.50400001928E-02 0.  1.
    10030    2    1    2    0    0  0.00000000000E+00  0.00000000000E+00  0.10715373642E+04  0.24406251446E+04  0.21928198224E+04 0.  0.
        4    1    3    3  502    0 -0.49315813845E+03  0.17890807860E+03 -0.53578659901E+03  0.74985461437E+03  0.12699999809E+01 0.  1.
       -4    1    3    3    0  502  0.49315813845E+03 -0.17890807860E+03  0.16073239632E+04  0.16907705302E+04  0.12699999809E+01 0. -1.
</event>
<event>
 5   0  0.5981239E-05  0.2225548E+04  0.7818609E-02  0.8507869E-01
        1   -1    0    0  501    0  0.00000000000E+00  0.00000000000E+00  0.14819211211E+04  0.14819211212E+04  0.50400001928E-02 0. -1.
       -1   -1    0    0    0  501  0.00000000000E+00  0.00000000000E+00 -0.83558137520E+03  0.83558137521E+03  0.50400001928E-02 0.  1.
    10030    2    1    2    0    0  0.00000000000E+00  0.00000000000E+00  0.64633974595E+03  0.23175024964E+04  0.22255477423E+04 0.  0.
        4    1    3    3  502    0 -0.79650154907E+03 -0.77512930037E+03  0.38043217971E+03  0.11747214164E+04  0.12699999809E+01 0.  1.
       -4    1    3    3    0  502  0.79650154907E+03  0.77512930037E+03  0.26590756624E+03  0.11427810799E+04  0.12699999809E+01 0. -1.
</event>
<event>
 5   0  0.1311472E-04  0.2107515E+04  0.7818609E-02  0.8557940E-01
       -2   -1    0    0    0  501  0.00000000000E+00  0.00000000000E+00  0.80094122233E+03  0.80094122234E+03  0.25500000920E-02 0. -1.
        2   -1    0    0  501    0  0.00000000000E+00  0.00000000000E+00 -0.13863754074E+04  0.13863754074E+04  0.25500000920E-02 0.  1.
    10030    2    1    2    0    0  0.00000000000E+00  0.00000000000E+00 -0.58543418509E+03  0.21873166298E+04  0.21075153271E+04 0.  0.
        4    1    3    3  502    0  0.58248349576E+03 -0.45777048000E+03 -0.10704671737E+04  0.13018227291E+04  0.12699999809E+01 0.  1.
       -4    1    3    3    0  502 -0.58248349576E+03  0.45777048000E+03  0.48503298859E+03  0.88549390066E+03  0.12699999809E+01 0. -1.
</event>
<event>
 5   0  0.6263558E-05  0.2273750E+04  0.7818609E-02  0.8488343E-01
       -1   -1    0    0    0  501  0.00000000000E+00  0.00000000000E+00  0.10806348956E+04  0.10806348956E+04  0.50400001928E-02 0.  1.
        1   -1    0    0  501    0  0.00000000000E+00  0.00000000000E+00 -0.11960422971E+04  0.11960422972E+04  0.50400001928E-02 0. -1.
    10030    2    1    2    0    0  0.00000000000E+00  0.00000000000E+00 -0.11540740156E+03  0.22766771927E+04  0.22737502439E+04 0.  0.
        3    1    3    3  502    0 -0.39006870252E+03 -0.16732802074E+03  0.99832583475E+03  0.10848072371E+04  0.10100000352E+00 0.  1.
       -3    1    3    3    0  502  0.39006870252E+03  0.16732802074E+03 -0.11137332363E+04  0.11918699556E+04  0.10100000352E+00 0. -1.
</event>
<event>
 5   0  0.4586375E-05  0.2093779E+04  0.7818609E-02  0.8563989E-01
       -4   -1    0    0    0  501  0.00000000000E+00  0.00000000000E+00  0.11163793141E+04  0.11163800365E+04  0.12699999809E+01 0.  1.
        4   -1    0    0  501    0  0.00000000000E+00  0.00000000000E+00 -0.98172328952E+03  0.98172411099E+03  0.12699999809E+01 0. -1.
    10030    2    1    2    0    0  0.00000000000E+00  0.00000000000E+00  0.13465602459E+03  0.20981041475E+04  0.20937785864E+04 0.  0.
        3    1    3    3  502    0 -0.24592976964E+03 -0.76202943111E+03 -0.60845893569E+03  0.10056801639E+04  0.10100000352E+00 0. -1.
       -3    1    3    3    0  502  0.24592976964E+03  0.76202943111E+03  0.74311496027E+03  0.10924239836E+04  0.10100000352E+00 0.  1.
</event>
<event>
 5   0  0.1241430E-04  0.2216126E+04  0.7818609E-02  0.8511746E-01
       -2   -1    0    0    0  501  0.00000000000E+00  0.00000000000E+00  0.81526720600E+03  0.81526720600E+03  0.25500000920E-02 0.  1.
        2   -1    0    0  501    0  0.00000000000E+00  0.00000000000E+00 -0.15060138285E+04  0.15060138285E+04  0.25500000920E-02 0. -1.
    10030    2    1    2    0    0  0.00000000000E+00  0.00000000000E+00 -0.69074662248E+03  0.23212810345E+04  0.22161260669E+04 0.  0.
        1    1    3    3  502    0 -0.79864280460E+03 -0.65719150901E+03 -0.76182215966E+03  0.12845637438E+04  0.50400001928E-02 0.  1.
       -1    1    3    3    0  502  0.79864280460E+03  0.65719150901E+03  0.71075537179E+02  0.10367172907E+04  0.50400001928E-02 0. -1.
</event>
<event>
 5   0  0.1252124E-04  0.2179553E+04  0.7818609E-02  0.8526987E-01
       -2   -1    0    0    0  501  0.00000000000E+00  0.00000000000E+00  0.53379606067E+03  0.53379606067E+03  0.25500000920E-02 0. -1.
        2   -1    0    0  501    0  0.00000000000E+00  0.00000000000E+00 -0.22248439837E+04  0.22248439837E+04  0.25500000920E-02 0.  1.
    10030    2    1    2    0    0  0.00000000000E+00  0.00000000000E+00 -0.16910479230E+04  0.27586400444E+04  0.21795531231E+04 0.  0.
        3    1    3    3  502    0  0.41551453040E+03  0.10909831599E+03  0.42210057992E+03  0.60226545417E+03  0.10100000352E+00 0. -1.
       -3    1    3    3    0  502 -0.41551453040E+03 -0.10909831599E+03 -0.21131485029E+04  0.21563745902E+04  0.10100000352E+00 0.  1.
</event>
<event>
 5   0  0.1226021E-04  0.2144770E+04  0.7818609E-02  0.8541774E-01
       -2   -1    0    0    0  501  0.00000000000E+00  0.00000000000E+00  0.60906215449E+03  0.60906215449E+03  0.25500000920E-02 0. -1.
        2   -1    0    0  501    0  0.00000000000E+00  0.00000000000E+00 -0.18881640895E+04  0.18881640895E+04  0.25500000920E-02 0.  1.
    10030    2    1    2    0    0  0.00000000000E+00  0.00000000000E+00 -0.12791019350E+04  0.24972262440E+04  0.21447697204E+04 0.  0.
        2    1    3    3  502    0 -0.26306819810E+03  0.59339813525E+03  0.35435788501E+03  0.73952399180E+03  0.25500000920E-02 0. -1.
       -2    1    3    3    0  502  0.26306819810E+03 -0.59339813525E+03 -0.16334598201E+04  0.17577022522E+04  0.25500000920E-02 0.  1.
</event>
<event>
 5   0  0.5861816E-05  0.2195050E+04  0.7818609E-02  0.8520491E-01
        1   -1    0    0  501    0  0.00000000000E+00  0.00000000000E+00  0.89602699250E+03  0.89602699252E+03  0.50400001928E-02 0.  1.
       -1   -1    0    0    0  501  0.00000000000E+00  0.00000000000E+00 -0.13443362804E+04  0.13443362804E+04  0.50400001928E-02 0. -1.
    10030    2    1    2    0    0  0.00000000000E+00  0.00000000000E+00 -0.44830928790E+03  0.22403632729E+04  0.21950504270E+04 0.  0.
        1    1    3    3  502    0  0.19815747124E+03  0.69391692992E+03  0.61982193491E+03  0.95129717757E+03  0.50400001928E-02 0.  1.
       -1    1    3    3    0  502 -0.19815747124E+03 -0.69391692992E+03 -0.10681312228E+04  0.12890660954E+04  0.50400001928E-02 0. -1.
</event>
<event>
 5   0  0.1311472E-04  0.2154485E+04  0.7818609E-02  0.8537615E-01
       -2   -1    0    0    0  501  0.00000000000E+00  0.00000000000E+00  0.16658872389E+04  0.16658872389E+04  0.25500000920E-02 0.  1.
        2   -1    0    0  501    0  0.00000000000E+00  0.00000000000E+00 -0.69659692980E+03  0.69659692980E+03  0.25500000920E-02 0. -1.
    10030    2    1    2    0    0  0.00000000000E+00  0.00000000000E+00  0.96929030911E+03  0.23624841687E+04  0.21544854941E+04 0.  0.
        4    1    3    3  502    0 -0.31788565481E+03  0.10224430638E+04  0.35485784457E+03  0.11279923807E+04  0.12699999809E+01 0.  1.
       -4    1    3    3    0  502  0.31788565481E+03 -0.10224430638E+04  0.61443246454E+03  0.12344917880E+04  0.12699999809E+01 0. -1.
</event>
<event>
 5   0  0.6263558E-05  0.2214924E+04  0.7818609E-02  0.8512242E-01
        1   -1    0    0  501    0  0.00000000000E+00  0.00000000000E+00  0.11684553572E+04  0.11684553572E+04  0.50400001928E-02 0. -1.
       -1   -1    0    0    0  501  0.00000000000E+00  0.00000000000E+00 -0.10496521383E+04  0.10496521383E+04  0.50400001928E-02 0.  1.
    10030    2    1    2    0    0  0.00000000000E+00  0.00000000000E+00  0.11880321889E+03  0.22181074956E+04  0.22149236233E+04 0.  0.
        3    1    3    3  502    0  0.47581048768E+03  0.91129441291E+03 -0.35303810531E+03  0.10869632198E+04  0.10100000352E+00 0.  1.
       -3    1    3    3    0  502 -0.47581048768E+03 -0.91129441291E+03  0.47184132420E+03  0.11311442758E+04  0.10100000352E+00 0. -1.
</event>
<event>
 5   0  0.1252124E-04  0.2182613E+04  0.7818609E-02  0.8525700E-01
        2   -1    0    0  501    0  0.00000000000E+00  0.00000000000E+00  0.13141293408E+04  0.13141293408E+04  0.25500000920E-02 0.  1.
       -2   -1    0    0    0  501  0.00000000000E+00  0.00000000000E+00 -0.90626562508E+03  0.90626562509E+03  0.25500000920E-02 0. -1.
    10030    2    1    2    0    0  0.00000000000E+00  0.00000000000E+00  0.40786371574E+03  0.22203949659E+04  0.21826133405E+04 0.  0.
        3    1    3    3  502    0 -0.81598213933E+03 -0.18481266116E+03 -0.50888813939E+03  0.97925978169E+03  0.10100000352E+00 0. -1.
       -3    1    3    3    0  502  0.81598213933E+03  0.18481266116E+03  0.91675185513E+03  0.12411351842E+04  0.10100000352E+00 0.  1.
</event>
<event>
 5   0  0.1252124E-04  0.1561125E+04  0.7818609E-02  0.8844793E-01
        2   -1    0    0  501    0  0.00000000000E+00  0.00000000000E+00  0.13021024272E+04  0.13021024272E+04  0.25500000920E-02 0. -1.
       -2   -1    0    0    0  501  0.00000000000E+00  0.00000000000E+00 -0.46791847895E+03  0.46791847895E+03  0.25500000920E-02 0.  1.
    10030    2    1    2    0    0  0.00000000000E+00  0.00000000000E+00  0.83418394826E+03  0.17700209062E+04  0.15611249626E+04 0.  0.
        3    1    3    3  502    0  0.67574483054E+03  0.29610338174E+03  0.70609038248E+03  0.10212110101E+04  0.10100000352E+00 0. -1.
       -3    1    3    3    0  502 -0.67574483054E+03 -0.29610338174E+03  0.12809356578E+03  0.74880989608E+03  0.10100000352E+00 0.  1.
</event>
<event>
 5   0  0.5981239E-05  0.2199201E+04  0.7818609E-02  0.8518761E-01
        1   -1    0    0  501    0  0.00000000000E+00  0.00000000000E+00  0.21299975627E+04  0.21299975628E+04  0.50400001928E-02 0. -1.
       -1   -1    0    0    0  501  0.00000000000E+00  0.00000000000E+00 -0.56766334156E+03  0.56766334158E+03  0.50400001928E-02 0.  1.
    10030    2    1    2    0    0  0.00000000000E+00  0.00000000000E+00  0.15623342212E+04  0.26976609043E+04  0.21992012496E+04 0.  0.
        4    1    3    3  502    0 -0.43746330661E+03 -0.86903402191E+03  0.15266281294E+03  0.98483593722E+03  0.12699999809E+01 0. -1.
       -4    1    3    3    0  502  0.43746330661E+03  0.86903402191E+03  0.14096714082E+04  0.17128249671E+04  0.12699999809E+01 0.  1.
</event>
<event>
 5   0  0.5861816E-05  0.2191889E+04  0.7818609E-02  0.8521812E-01
        1   -1    0    0  501    0  0.00000000000E+00  0.00000000000E+00  0.89477386305E+03  0.89477386306E+03  0.50400001928E-02 0.  1.
       -1   -1    0    0    0  501  0.00000000000E+00  0.00000000000E+00 -0.13423435690E+04  0.13423435691E+04  0.50400001928E-02 0. -1.
    10030    2    1    2    0    0  0.00000000000E+00  0.00000000000E+00 -0.44756970600E+03  0.22371174321E+04  0.21918886293E+04 0.  0.
        1    1    3    3  502    0  0.15988989689E+03 -0.48214960568E+01  0.88279486917E+03  0.89717044479E+03  0.50400001928E-02 0.  1.
       -1    1    3    3    0  502 -0.15988989689E+03  0.48214960568E+01 -0.13303645752E+04  0.13399469873E+04  0.50400001928E-02 0. -1.
</event>
<event>
 5   0  0.1241430E-04  0.2234001E+04  0.7818609E-02  0.8504408E-01
        2   -1    0    0  501    0  0.00000000000E+00  0.00000000000E+00  0.14638850382E+04  0.14638850382E+04  0.25500000920E-02 0. -1.
       -2   -1    0    0    0  501  0.00000000000E+00  0.00000000000E+00 -0.85231465338E+03  0.85231465338E+03  0.25500000920E-02 0.  1.
    10030    2    1    2    0    0  0.00000000000E+00  0.00000000000E+00  0.61157038480E+03  0.23161996916E+04  0.22340014941E+04 0.  0.
        1    1    3    3  502    0 -0.45673309288E+03  0.49785793443E+03  0.12280210402E+04  0.14016074045E+04  0.50400001928E-02 0. -1.
       -1    1    3    3    0  502  0.45673309288E+03 -0.49785793443E+03 -0.61645065543E+03  0.91459228709E+03  0.50400001928E-02 0.  1.
</event>
<event>
 5   0  0.5981239E-05  0.2209873E+04  0.7818609E-02  0.8514330E-01
        1   -1    0    0  501    0  0.00000000000E+00  0.00000000000E+00  0.81567392191E+03  0.81567392192E+03  0.50400001928E-02 0.  1.
       -1   -1    0    0    0  501  0.00000000000E+00  0.00000000000E+00 -0.14967800836E+04  0.14967800837E+04  0.50400001928E-02 0. -1.
    10030    2    1    2    0    0  0.00000000000E+00  0.00000000000E+00 -0.68110616174E+03  0.23124540056E+04  0.22098728299E+04 0.  0.
        4    1    3    3  502    0 -0.46840167145E+03 -0.80402584301E+03  0.28294540476E+03  0.97258284841E+03  0.12699999809E+01 0.  1.
       -4    1    3    3    0  502  0.46840167145E+03  0.80402584301E+03 -0.96405156651E+03  0.13398711572E+04  0.12699999809E+01 0. -1.
</event>
<event>
 5   0  0.1404159E-04  0.2195534E+04  0.7818609E-02  0.8520289E-01
       -2   -1    0    0    0  501  0.00000000000E+00  0.00000000000E+00  0.48615776231E+03  0.48615776231E+03  0.25500000920E-02 0.  1.
        2   -1    0    0  501    0  0.00000000000E+00  0.00000000000E+00 -0.24788097616E+04  0.24788097616E+04  0.25500000920E-02 0. -1.
    10030    2    1    2    0    0  0.00000000000E+00  0.00000000000E+00 -0.19926519993E+04  0.29649675239E+04  0.21955342010E+04 0.  0.
        5    1    3    3  502    0 -0.20089960759E+03  0.57809931827E+03 -0.22270266774E+04  0.23095950697E+04  0.46999998093E+01 0. -1.
       -5    1    3    3    0  502  0.20089960759E+03 -0.57809931827E+03  0.23437467805E+03  0.65537245428E+03  0.46999998093E+01 0.  1.
</event>
<event>
 5   0  0.5849604E-05  0.2160881E+04  0.7818609E-02  0.8534889E-01
       -1   -1    0    0    0  501  0.00000000000E+00  0.00000000000E+00  0.78015151523E+03  0.78015151524E+03  0.50400001928E-02 0.  1.
        1   -1    0    0  501    0  0.00000000000E+00  0.00000000000E+00 -0.14963146604E+04  0.14963146604E+04  0.50400001928E-02 0. -1.
    10030    2    1    2    0    0  0.00000000000E+00  0.00000000000E+00 -0.71616314520E+03  0.22764661757E+04  0.21608814402E+04 0.  0.
        2    1    3    3  502    0  0.29277859814E+03  0.80364880431E+03 -0.10535295174E+04  0.13570170051E+04  0.25500000920E-02 0. -1.
       -2    1    3    3    0  502 -0.29277859814E+03 -0.80364880431E+03  0.33736637216E+03  0.91944917057E+03  0.25500000920E-02 0.  1.
</event>
<event>
 5   0  0.5895063E-05  0.1445351E+04  0.7818609E-02  0.8921630E-01
       -1   -1    0    0    0  501  0.00000000000E+00  0.00000000000E+00  0.37007862343E+03  0.37007862346E+03  0.50400001928E-02 0. -1.
        1   -1    0    0  501    0  0.00000000000E+00  0.00000000000E+00 -0.14112134832E+04  0.14112134832E+04  0.50400001928E-02 0.  1.
    10030    2    1    2    0    0  0.00000000000E+00  0.00000000000E+00 -0.10411348598E+04  0.17812921067E+04  0.14453510899E+04 0.  0.
        5    1    3    3  502    0 -0.55439935762E+03 -0.41038020779E+02 -0.10896173736E+04  0.12232460414E+04  0.46999998093E+01 0.  1.
       -5    1    3    3    0  502  0.55439935762E+03  0.41038020779E+02  0.48482513808E+02  0.55804606532E+03  0.46999998093E+01 0. -1.
</event>
<event>
 5   0  0.5861816E-05  0.2197199E+04  0.7818609E-02  0.8519595E-01
        1   -1    0    0  501    0  0.00000000000E+00  0.00000000000E+00  0.12176058867E+04  0.12176058868E+04  0.50400001928E-02 0. -1.
       -1   -1    0    0    0  501  0.00000000000E+00  0.00000000000E+00 -0.99122415449E+03  0.99122415450E+03  0.50400001928E-02 0.  1.
    10030    2    1    2    0    0  0.00000000000E+00  0.00000000000E+00  0.22638173226E+03  0.22088300413E+04  0.21971985487E+04 0.  0.
        1    1    3    3  502    0 -0.72597252188E+03  0.51817842890E+03 -0.53159000471E+03  0.10383317966E+04  0.50400001928E-02 0.  1.
       -1    1    3    3    0  502  0.72597252188E+03 -0.51817842890E+03  0.75797173696E+03  0.11704982447E+04  0.50400001928E-02 0. -1.
</event>
<event>
 5   0  0.1404159E-04  0.2184333E+04  0.7818609E-02  0.8524977E-01
       -2   -1    0    0    0  501  0.00000000000E+00  0.00000000000E+00  0.12022054935E+04  0.12022054935E+04  0.25500000920E-02 0. -1.
        2   -1    0    0  501    0  0.00000000000E+00  0.00000000000E+00 -0.99219967888E+03  0.99219967888E+03  0.25500000920E-02 0.  1.
    10030    2    1    2    0    0  0.00000000000E+00  0.00000000000E+00  0.21000581463E+03  0.21944051724E+04  0.21843332206E+04 0.  0.
        5    1    3    3  502    0  0.71068268770E+03  0.17571210651E+03 -0.70920389812E+03  0.10192825350E+04  0.46999998093E+01 0.  1.
       -5    1    3    3    0  502 -0.71068268770E+03 -0.17571210651E+03  0.91920971275E+03  0.11751226374E+04  0.46999998093E+01 0. -1.
</event>
<event>
 5   0  0.5849604E-05  0.2224415E+04  0.7818609E-02  0.8508334E-01
        1   -1    0    0  501    0  0.00000000000E+00  0.00000000000E+00  0.78634363029E+03  0.78634363030E+03  0.50400001928E-02 0.  1.
       -1   -1    0    0    0  501  0.00000000000E+00  0.00000000000E+00 -0.15731108547E+04  0.15731108547E+04  0.50400001928E-02 0. -1.
    10030    2    1    2    0    0  0.00000000000E+00  0.00000000000E+00 -0.78676722440E+03  0.23594544850E+04  0.22244151594E+04 0.  0.
        2    1    3    3  502    0  0.96252631239E+03  0.53676309642E+03 -0.55225687877E+03  0.12327040131E+04  0.25500000920E-02 0. -1.
       -2    1    3    3    0  502 -0.96252631239E+03 -0.53676309642E+03 -0.23451034563E+03  0.11267504719E+04  0.25500000920E-02 0.  1.
</event>
<event>
 5   0  0.6263558E-05  0.2223536E+04  0.7818609E-02  0.8508695E-01
       -1   -1    0    0    0  501  0.00000000000E+00  0.00000000000E+00  0.64692650916E+03  0.64692650918E+03  0.50400001928E-02 0. -1.
        1   -1    0    0  501    0  0.00000000000E+00  0.00000000000E+00 -0.19106151858E+04  0.19106151858E+04  0.50400001928E-02 0.  1.
    10030    2    1    2    0    0  0.00000000000E+00  0.00000000000E+00 -0.12636886766E+04  0.25575416949E+04  0.22235355743E+04 0.  0.
        3    1    3    3  502    0 -0.56808025980E+03 -0.76305968885E+03  0.29955971721E+02  0.95177341881E+03  0.10100000352E+00 0. -1.
       -3    1    3    3    0  502  0.56808025980E+03  0.76305968885E+03 -0.12936446483E+04  0.16057682761E+04  0.10100000352E+00 0.  1.
</event>
<event>
 5   0  0.1252124E-04  0.2020935E+04  0.7818609E-02  0.8596895E-01
       -2   -1    0    0    0  501  0.00000000000E+00  0.00000000000E+00  0.56277028018E+03  0.56277028019E+03  0.25500000920E-02 0.  1.
        2   -1    0    0  501    0  0.00000000000E+00  0.00000000000E+00 -0.18143178161E+04  0.18143178161E+04  0.25500000920E-02 0. -1.
    10030    2    1    2    0    0  0.00000000000E+00  0.00000000000E+00 -0.12515475359E+04  0.23770880962E+04  0.20209345815E+04 0.  0.
        3    1    3    3  502    0  0.60721437091E+03 -0.58395250915E+03 -0.12820799785E+04  0.15340922093E+04  0.10100000352E+00 0. -1.
       -3    1    3    3    0  502 -0.60721437091E+03  0.58395250915E+03  0.30532442588E+02  0.84299588697E+03  0.10100000352E+00 0.  1.
</event>
<event>
 5   0  0.1404159E-04  0.2177648E+04  0.7818609E-02  0.8527790E-01
        2   -1    0    0  501    0  0.00000000000E+00  0.00000000000E+00  0.10656582567E+04  0.10656582567E+04  0.25500000920E-02 0. -1.
       -2   -1    0    0    0  501  0.00000000000E+00  0.00000000000E+00 -0.11124931141E+04  0.11124931141E+04  0.25500000920E-02 0.  1.
    10030    2    1    2    0    0  0.00000000000E+00  0.00000000000E+00 -0.46834857440E+02  0.21781513708E+04  0.21776477884E+04 0.  0.
        5    1    3    3  502    0  0.64667545361E+03 -0.22412498264E+03  0.82359256400E+03  0.10708631806E+04  0.46999998093E+01 0. -1.
       -5    1    3    3    0  502 -0.64667545361E+03  0.22412498264E+03 -0.87042742144E+03  0.11072881902E+04  0.46999998093E+01 0.  1.
</event>
<event>
 5   0  0.1241430E-04  0.2204949E+04  0.7818609E-02  0.8516371E-01
       -2   -1    0    0    0  501  0.00000000000E+00  0.00000000000E+00  0.59978194704E+03  0.59978194704E+03  0.25500000920E-02 0. -1.
        2   -1    0    0  501    0  0.00000000000E+00  0.00000000000E+00 -0.20264861232E+04  0.20264861232E+04  0.25500000920E-02 0.  1.
    10030    2    1    2    0    0  0.00000000000E+00  0.00000000000E+00 -0.14267041761E+04  0.26262680702E+04  0.22049487909E+04 0.  0.
        1    1    3    3  502    0 -0.27529515051E+03  0.10577012464E+04 -0.54103442794E+03  0.12195235130E+04  0.50400001928E-02 0. -1.
       -1    1    3    3    0  502  0.27529515051E+03 -0.10577012464E+04 -0.88566974820E+03  0.14067445572E+04  0.50400001928E-02 0.  1.
</event>
<event>
 5   0  0.5981239E-05  0.2206502E+04  0.7818609E-02  0.8515727E-01
        1   -1    0    0  501    0  0.00000000000E+00  0.00000000000E+00  0.74388902160E+03  0.74388902162E+03  0.50400001928E-02 0. -1.
       -1   -1    0    0    0  501  0.00000000000E+00  0.00000000000E+00 -0.16362153753E+04  0.16362153753E+04  0.50400001928E-02 0.  1.
    10030    2    1    2    0    0  0.00000000000E+00  0.00000000000E+00 -0.89232635373E+03  0.23801043970E+04  0.22065018964E+04 0.  0.
        4    1    3    3  502    0 -0.23779323134E+01  0.11027214593E+04 -0.40941254118E+03  0.11762739958E+04  0.12699999809E+01 0.  1.
       -4    1    3    3    0  502  0.23779323134E+01 -0.11027214593E+04 -0.48291381256E+03  0.12038304011E+04  0.12699999809E+01 0. -1.
</event>
<event>
 5   0  0.6263558E-05  0.2220145E+04  0.7818609E-02  0.8510090E-01
       -1   -1    0    0    0  501  0.00000000000E+00  0.00000000000E+00  0.94341764635E+03  0.94341764636E+03  0.50400001928E-02 0. -1.
        1   -1    0    0  501    0  0.00000000000E+00  0.00000000000E+00 -0.13061665818E+04  0.13061665818E+04  0.50400001928E-02 0.  1.
    10030    2    1    2    0    0  0.00000000000E+00  0.00000000000E+00 -0.36274893545E+03  0.22495842282E+04  0.22201446821E+04 0.  0.
        3    1    3    3  502    0 -0.39762330116E+03 -0.10032962965E+04  0.81981278996E+02  0.10823255927E+04  0.10100000352E+00 0. -1.
       -3    1    3    3    0  502  0.39762330116E+03  0.10032962965E+04 -0.44473021445E+03  0.11672586355E+04  0.10100000352E+00 0.  1.
</event>
<event>
 5   0  0.5861816E-05  0.2114490E+04  0.7818609E-02  0.8554887E-01
        1   -1    0    0  501    0  0.00000000000E+00  0.00000000000E+00  0.94586684219E+03  0.94586684220E+03  0.50400001928E-02 0.  1.
       -1   -1    0    0    0  501  0.00000000000E+00  0.00000000000E+00 -0.11817379571E+04  0.11817379571E+04  0.50400001928E-02 0. -1.
    10030    2    1    2    0    0  0.00000000000E+00  0.00000000000E+00 -0.23587111489E+03  0.21276047993E+04  0.21144897728E+04 0.  0.
        1    1    3    3  502    0 -0.28062088527E+03 -0.25452818233E+02 -0.11432607081E+04  0.11774722816E+04  0.50400001928E-02 0. -1.
       -1    1    3    3    0  502  0.28062088527E+03  0.25452818233E+02  0.90738959324E+03  0.95013251768E+03  0.50400001928E-02 0.  1.
</event>
<event>
 5   0  0.1226021E-04  0.2239002E+04  0.7818609E-02  0.8502368E-01
       -2   -1    0    0    0  501  0.00000000000E+00  0.00000000000E+00  0.78997559581E+03  0.78997559581E+03  0.25500000920E-02 0. -1.
        2   -1    0    0  501    0  0.00000000000E+00  0.00000000000E+00 -0.15864823857E+04  0.15864823857E+04  0.25500000920E-02 0.  1.
    10030    2    1    2    0    0  0.00000000000E+00  0.00000000000E+00 -0.79650678987E+03  0.23764579815E+04  0.22390018918E+04 0.  0.
        2    1    3    3  502    0 -0.68477733131E+02  0.78748811699E+02 -0.15813084789E+04  0.15847482705E+04  0.25500000920E-02 0.  1.
       -2    1    3    3    0  502  0.68477733131E+02 -0.78748811699E+02  0.78480168908E+03  0.79170971098E+03  0.25500000920E-02 0. -1.
</event>
<event>
 5   0  0.5861816E-05  0.2240771E+04  0.7818609E-02  0.8501648E-01
       -1   -1    0    0    0  501  0.00000000000E+00  0.00000000000E+00  0.10303114924E+04  0.10303114924E+04  0.50400001928E-02 0.  1.
        1   -1    0    0  501    0  0.00000000000E+00  0.00000000000E+00 -0.12183337986E+04  0.12183337986E+04  0.50400001928E-02 0. -1.
    10030    2    1    2    0    0  0.00000000000E+00  0.00000000000E+00 -0.18802230618E+03  0.22486452910E+04  0.22407706837E+04 0.  0.
        1    1    3    3  502    0  0.97144012802E+03  0.55779552647E+03 -0.11485775892E+03  0.11260657514E+04  0.50400001928E-02 0.  1.
       -1    1    3    3    0  502 -0.97144012802E+03 -0.55779552647E+03 -0.73164547255E+02  0.11225795396E+04  0.50400001928E-02 0. -1.
</event>
<event>
 5   0  0.4586375E-05  0.1966177E+04  0.7818609E-02  0.8622599E-01
        4   -1    0    0  501    0  0.00000000000E+00  0.00000000000E+00  0.57889959620E+03  0.57890098927E+03  0.12699999809E+01 0.  1.
       -4   -1    0    0    0  501  0.00000000000E+00  0.00000000000E+00 -0.16694793107E+04  0.16694797937E+04  0.12699999809E+01 0. -1.
    10030    2    1    2    0    0  0.00000000000E+00  0.00000000000E+00 -0.10905797145E+04  0.22483807830E+04  0.19661770093E+04 0.  0.
        4    1    3    3  502    0 -0.85309244559E+02  0.85950075884E+03 -0.10821913275E+04  0.13846150743E+04  0.12699999809E+01 0. -1.
       -4    1    3    3    0  502  0.85309244559E+02 -0.85950075884E+03 -0.83883869726E+01  0.86376570874E+03  0.12699999809E+01 0.  1.
</event>
<event>
 5   0  0.5981239E-05  0.2309232E+04  0.7818609E-02  0.8474290E-01
        1   -1    0    0  501    0  0.00000000000E+00  0.00000000000E+00  0.10227608253E+04  0.10227608253E+04  0.50400001928E-02 0.  1.
       -1   -1    0    0    0  501  0.00000000000E+00  0.00000000000E+00 -0.13034696236E+04  0.13034696236E+04  0.50400001928E-02 0. -1.
    10030    2    1    2    0    0  0.00000000000E+00  0.00000000000E+00 -0.28070879825E+03  0.23262304489E+04  0.23092316194E+04 0.  0.
        4    1    3    3  502    0  0.28122211092E+03 -0.67146757773E+03 -0.10431555025E+04  0.12720572310E+04  0.12699999809E+01 0. -1.
       -4    1    3    3    0  502 -0.28122211092E+03  0.67146757773E+03  0.76244670428E+03  0.10541732179E+04  0.12699999809E+01 0.  1.
</event>
<event>
 5   0  0.1241430E-04  0.2214407E+04  0.7818609E-02  0.8512456E-01
       -2   -1    0    0    0  501  0.00000000000E+00  0.00000000000E+00  0.13630745983E+04  0.13630745983E+04  0.25500000920E-02 0.  1.
        2   -1    0    0  501    0  0.00000000000E+00  0.00000000000E+00 -0.89936332848E+03  0.89936332849E+03  0.25500000920E-02 0. -1.
    10030    2    1    2    0    0  0.00000000000E+00  0.00000000000E+00  0.46371126981E+03  0.22624379268E+04  0.22144067447E+04 0.  0.
        1    1    3    3  502    0  0.13452198336E+03 -0.28364340706E+03  0.13166528887E+04  0.13535599638E+04  0.50400001928E-02 0.  1.
       -1    1    3    3    0  502 -0.13452198336E+03  0.28364340706E+03 -0.85294161885E+03  0.90887796297E+03  0.50400001928E-02 0. -1.
</event>
<event>
 5   0  0.1252124E-04  0.2308056E+04  0.7818609E-02  0.8474751E-01
       -2   -1    0    0    0  501  0.00000000000E+00  0.00000000000E+00  0.97194367675E+03  0.97194367675E+03  0.25500000920E-02 0.  1.
        2   -1    0    0  501    0  0.00000000000E+00  0.00000000000E+00 -0.13702242199E+04  0.13702242199E+04  0.25500000920E-02 0. -1.
    10030    2    1    2    0    0  0.00000000000E+00  0.00000000000E+00 -0.39828054320E+03  0.23421678967E+04  0.23080561226E+04 0.  0.
        3    1    3    3  502    0 -0.25559158060E+03 -0.88570813247E+03  0.50536431811E+03  0.10512844792E+04  0.10100000352E+00 0.  1.
       -3    1    3    3    0  502  0.25559158060E+03  0.88570813247E+03 -0.90364486130E+03  0.12908834175E+04  0.10100000352E+00 0. -1.
</event>
<event>
 5   0  0.5849604E-05  0.2315232E+04  0.7818609E-02  0.8471939E-01
        1   -1    0    0  501    0  0.00000000000E+00  0.00000000000E+00  0.16713055027E+04  0.16713055027E+04  0.50400001928E-02 0. -1.
       -1   -1    0    0    0  501  0.00000000000E+00  0.00000000000E+00 -0.80181330540E+03  0.80181330541E+03  0.50400001928E-02 0.  1.
    10030    2    1    2    0    0  0.00000000000E+00  0.00000000000E+00  0.86949219734E+03  0.24731188082E+04  0.23152321607E+04 0.  0.
        2    1    3    3  502    0  0.95533481064E+03  0.46082052182E+03  0.93011078128E+03  0.14107183345E+04  0.25500000920E-02 0. -1.
       -2    1    3    3    0  502 -0.95533481064E+03 -0.46082052182E+03 -0.60618583945E+02  0.10624004737E+04  0.25500000920E-02 0.  1.
</event>
<event>
 5   0  0.4586375E-05  0.2114260E+04  0.7818609E-02  0.8554988E-01
        3   -1    0    0  501    0  0.00000000000E+00  0.00000000000E+00  0.10617667090E+04  0.10617667138E+04  0.10100000352E+00 0. -1.
       -3   -1    0    0    0  501  0.00000000000E+00  0.00000000000E+00 -0.10525136341E+04  0.10525136390E+04  0.10100000352E+00 0.  1.
    10030    2    1    2    0    0  0.00000000000E+00  0.00000000000E+00  0.92530748563E+01  0.21142803527E+04  0.21142601048E+04 0.  0.
        5    1    3    3  502    0  0.89210103566E+03  0.43946226127E+03 -0.35388843101E+03  0.10555711480E+04  0.46999998093E+01 0.  1.
       -5    1    3    3    0  502 -0.89210103566E+03 -0.43946226127E+03  0.36314150586E+03  0.10587092047E+04  0.46999998093E+01 0. -1.
</event>
<event>
 5   0  0.5895063E-05  0.2155121E+04  0.7818609E-02  0.8537343E-01
        1   -1    0    0  501    0  0.00000000000E+00  0.00000000000E+00  0.11327327149E+04  0.11327327149E+04  0.50400001928E-02 0.  1.
       -1   -1    0    0    0  501  0.00000000000E+00  0.00000000000E+00 -0.10250753435E+04  0.10250753435E+04  0.50400001928E-02 0. -1.
    10030    2    1    2    0    0  0.00000000000E+00  0.00000000000E+00  0.10765737145E+03  0.21578080584E+04  0.21551207639E+04 0.  0.
        5    1    3    3  502    0 -0.10515531507E+04 -0.18861215395E+03 -0.86972813561E+02  0.10718791600E+04  0.46999998093E+01 0. -1.
       -5    1    3    3    0  502  0.10515531507E+04  0.18861215395E+03  0.19463018501E+03  0.10859288984E+04  0.46999998093E+01 0.  1.
</event>
<event>
 5   0  0.1404159E-04  0.2150811E+04  0.7818609E-02  0.8539185E-01
       -2   -1    0    0    0  501  0.00000000000E+00  0.00000000000E+00  0.86196676966E+03  0.86196676966E+03  0.25500000920E-02 0.  1.
        2   -1    0    0  501    0  0.00000000000E+00  0.00000000000E+00 -0.13416960930E+04  0.13416960930E+04  0.25500000920E-02 0. -1.
    10030    2    1    2    0    0  0.00000000000E+00  0.00000000000E+00 -0.47972932337E+03  0.22036628627E+04  0.21508114257E+04 0.  0.
        5    1    3    3  502    0 -0.14315723138E+03  0.61616074600E+03  0.65117637548E+03  0.90785506541E+03  0.46999998093E+01 0.  1.
       -5    1    3    3    0  502  0.14315723138E+03 -0.61616074600E+03 -0.11309056989E+04  0.12958077973E+04  0.46999998093E+01 0. -1.
</event>
<event>
 5   0  0.1241430E-04  0.2229115E+04  0.7818609E-02  0.8506407E-01
        2   -1    0    0  501    0  0.00000000000E+00  0.00000000000E+00  0.68399372829E+03  0.68399372829E+03  0.25500000920E-02 0. -1.
       -2   -1    0    0    0  501  0.00000000000E+00  0.00000000000E+00 -0.18161540095E+04  0.18161540095E+04  0.25500000920E-02 0.  1.
    10030    2    1    2    0    0  0.00000000000E+00  0.00000000000E+00 -0.11321602812E+04  0.25001477378E+04  0.22291145795E+04 0.  0.
        1    1    3    3  502    0 -0.99334929832E+03  0.98180011092E+02 -0.11222065474E+04  0.15019086783E+04  0.50400001928E-02 0.  1.
       -1    1    3    3    0  502  0.99334929832E+03 -0.98180011092E+02 -0.99537338634E+01  0.99823905949E+03  0.50400001928E-02 0. -1.
</event>
<event>
 5   0  0.5895063E-05  0.2152911E+04  0.7818609E-02  0.8538287E-01
        1   -1    0    0  501    0  0.00000000000E+00  0.00000000000E+00  0.12140492432E+04  0.12140492432E+04  0.50400001928E-02 0.  1.
       -1   -1    0    0    0  501  0.00000000000E+00  0.00000000000E+00 -0.95445566385E+03  0.95445566386E+03  0.50400001928E-02 0. -1.
    10030    2    1    2    0    0  0.00000000000E+00  0.00000000000E+00  0.25959357932E+03  0.21685049070E+04  0.21529107519E+04 0.  0.
        5    1    3    3  502    0  0.78167585727E+03 -0.71385315927E+03 -0.66888212548E+02  0.10607071235E+04  0.46999998093E+01 0. -1.
       -5    1    3    3    0  502 -0.78167585727E+03  0.71385315927E+03  0.32648179187E+03  0.11077977836E+04  0.46999998093E+01 0.  1.
</event>
<event>
 5   0  0.5981239E-05  0.2205910E+04  0.7818609E-02  0.8515972E-01
        1   -1    0    0  501    0  0.00000000000E+00  0.00000000000E+00  0.18740335434E+04  0.18740335434E+04  0.50400001928E-02 0. -1.
       -1   -1    0    0    0  501  0.00000000000E+00  0.00000000000E+00 -0.64913998853E+03  0.64913998855E+03  0.50400001928E-02 0.  1.
    10030    2    1    2    0    0  0.00000000000E+00  0.00000000000E+00  0.12248935549E+04  0.25231735320E+04  0.22059103453E+04 0.  0.
        4    1    3    3  502    0 -0.45810320658E+03 -0.10007738580E+04  0.53074828273E+03  0.12219256177E+04  0.12699999809E+01 0. -1.
       -4    1    3    3    0  502  0.45810320658E+03  0.10007738580E+04  0.69414527214E+03  0.13012479143E+04  0.12699999809E+01 0.  1.
</event>
<event>
 5   0  0.1311472E-04  0.2221118E+04  0.7818609E-02  0.8509690E-01
        2   -1    0    0  501    0  0.00000000000E+00  0.00000000000E+00  0.92692384952E+03  0.92692384953E+03  0.25500000920E-02 0. -1.
       -2   -1    0    0    0  501  0.00000000000E+00  0.00000000000E+00 -0.13305740287E+04  0.13305740287E+04  0.25500000920E-02 0.  1.
    10030    2    1    2    0    0  0.00000000000E+00  0.00000000000E+00 -0.40365017920E+03  0.22574978783E+04  0.22211175573E+04 0.  0.
        4    1    3    3  502    0 -0.95331745100E+03 -0.52891759673E+03 -0.41688288023E+03  0.11672021827E+04  0.12699999809E+01 0.  1.
       -4    1    3    3    0  502  0.95331745100E+03  0.52891759673E+03  0.13232701029E+02  0.10902956956E+04  0.12699999809E+01 0. -1.
</event>
<event>
 5   0  0.1241430E-04  0.2147807E+04  0.7818609E-02  0.8540471E-01
        2   -1    0    0  501    0  0.00000000000E+00  0.00000000000E+00  0.14099213457E+04  0.14099213457E+04  0.25500000920E-02 0. -1.
       -2   -1    0    0    0  501  0.00000000000E+00  0.00000000000E+00 -0.81796688067E+03  0.81796688067E+03  0.25500000920E-02 0.  1.
    10030    2    1    2    0    0  0.00000000000E+00  0.00000000000E+00  0.59195446507E+03  0.22278882264E+04  0.21478072215E+04 0.  0.
        1    1    3    3  502    0  0.20352350766E+03 -0.47678891410E+03  0.12715323259E+04  0.13731510997E+04  0.50400001928E-02 0. -1.
       -1    1    3    3    0  502 -0.20352350766E+03  0.47678891410E+03 -0.67957786085E+03  0.85473712670E+03  0.50400001928E-02 0.  1.
</event>
<event>
 5   0  0.1404159E-04  0.2183825E+04  0.7818609E-02  0.8525191E-01
       -2   -1    0    0    0  501  0.00000000000E+00  0.00000000000E+00  0.69601032593E+03  0.69601032593E+03  0.25500000920E-02 0. -1.
        2   -1    0    0  501    0  0.00000000000E+00  0.00000000000E+00 -0.17130103470E+04  0.17130103470E+04  0.25500000920E-02 0.  1.
    10030    2    1    2    0    0  0.00000000000E+00  0.00000000000E+00 -0.10170000211E+04  0.24090206730E+04  0.21838249838E+04 0.  0.
        5    1    3    3  502    0  0.42415311009E+03 -0.80799579315E+03  0.15290082168E+03  0.92529120487E+03  0.46999998093E+01 0. -1.
       -5    1    3    3    0  502 -0.42415311009E+03  0.80799579315E+03 -0.11699008428E+04  0.14837294681E+04  0.46999998093E+01 0.  1.
</event>
<event>
 5   0  0.1404159E-04  0.2228712E+04  0.7818609E-02  0.8506572E-01
       -2   -1    0    0    0  501  0.00000000000E+00  0.00000000000E+00  0.76800400018E+03  0.76800400018E+03  0.25500000920E-02 0.  1.
        2   -1    0    0  501    0  0.00000000000E+00  0.00000000000E+00 -0.16169048179E+04  0.16169048179E+04  0.25500000920E-02 0. -1.
    10030    2    1    2    0    0  0.00000000000E+00  0.00000000000E+00 -0.84890081777E+03  0.23849088181E+04  0.22287120658E+04 0.  0.
        5    1    3    3  502    0  0.38857936583E+02  0.40167975614E+02 -0.16153935962E+04  0.16163669033E+04  0.46999998093E+01 0. -1.
       -5    1    3    3    0  502 -0.38857936583E+02 -0.40167975614E+02  0.76649277841E+03  0.76854191483E+03  0.46999998093E+01 0.  1.
</event>
<event>
 5   0  0.1404159E-04  0.2074772E+04  0.7818609E-02  0.8572439E-01
        2   -1    0    0  501    0  0.00000000000E+00  0.00000000000E+00  0.85682497381E+03  0.85682497381E+03  0.25500000920E-02 0. -1.
       -2   -1    0    0    0  501  0.00000000000E+00  0.00000000000E+00 -0.12559967916E+04  0.12559967916E+04  0.25500000920E-02 0.  1.
    10030    2    1    2    0    0  0.00000000000E+00  0.00000000000E+00 -0.39917181775E+03  0.21128217654E+04  0.20747717157E+04 0.  0.
        5    1    3    3  502    0  0.49346394448E+03 -0.23583752873E+03 -0.10972399945E+04  0.12260031403E+04  0.46999998093E+01 0.  1.
       -5    1    3    3    0  502 -0.49346394448E+03  0.23583752873E+03  0.69806817674E+03  0.88681862510E+03  0.46999998093E+01 0. -1.
</event>
<event>
 5   0  0.5895063E-05  0.2273305E+04  0.7818609E-02  0.8488521E-01
       -1   -1    0    0    0  501  0.00000000000E+00  0.00000000000E+00  0.73695010556E+03  0.73695010558E+03  0.50400001928E-02 0. -1.
        1   -1    0    0  501    0  0.00000000000E+00  0.00000000000E+00 -0.17531431993E+04  0.17531431994E+04  0.50400001928E-02 0.  1.
    10030    2    1    2    0    0  0.00000000000E+00  0.00000000000E+00 -0.10161930938E+04  0.24900933049E+04  0.22733051409E+04 0.  0.
        5    1    3    3  502    0  0.51448018436E+02  0.82940202789E+03 -0.13575516861E+04  0.15917045244E+04  0.46999998093E+01 0.  1.
       -5    1    3    3    0  502 -0.51448018436E+02 -0.82940202789E+03  0.34135859233E+03  0.89838878056E+03  0.46999998093E+01 0. -1.
</event>
<event>
 5   0  0.1241430E-04  0.2138532E+04  0.7818609E-02  0.8544457E-01
       -2   -1    0    0    0  501  0.00000000000E+00  0.00000000000E+00  0.11117270785E+04  0.11117270785E+04  0.25500000920E-02 0. -1.
        2   -1    0    0  501    0  0.00000000000E+00  0.00000000000E+00 -0.10284266287E+04  0.10284266287E+04  0.25500000920E-02 0.  1.
    10030    2    1    2    0    0  0.00000000000E+00  0.00000000000E+00  0.83300449779E+02  0.21401537072E+04  0.21385319556E+04 0.  0.
        1    1    3    3  502    0 -0.54833284161E+03 -0.21932089720E+01  0.96030933121E+03  0.11058334988E+04  0.50400001928E-02 0. -1.
       -1    1    3    3    0  502  0.54833284161E+03  0.21932089720E+01 -0.87700888143E+03  0.10343202084E+04  0.50400001928E-02 0.  1.
</event>
<event>
 5   0  0.5849604E-05  0.2217881E+04  0.7818609E-02  0.8511022E-01
        1   -1    0    0  501    0  0.00000000000E+00  0.00000000000E+00  0.10709529198E+04  0.10709529198E+04  0.50400001928E-02 0. -1.
       -1   -1    0    0    0  501  0.00000000000E+00  0.00000000000E+00 -0.11482757641E+04  0.11482757641E+04  0.50400001928E-02 0.  1.
    10030    2    1    2    0    0  0.00000000000E+00  0.00000000000E+00 -0.77322844241E+02  0.22192286839E+04  0.22178812252E+04 0.  0.
        2    1    3    3  502    0 -0.50631834814E+03  0.77166828827E+03  0.57646328825E+03  0.10881820342E+04  0.25500000920E-02 0. -1.
       -2    1    3    3    0  502  0.50631834814E+03 -0.77166828827E+03 -0.65378613249E+03  0.11310466497E+04  0.25500000920E-02 0.  1.
</event>
<event>
 5   0  0.5849604E-05  0.2267030E+04  0.7818609E-02  0.8491035E-01
        1   -1    0    0  501    0  0.00000000000E+00  0.00000000000E+00  0.15078467817E+04  0.15078467817E+04  0.50400001928E-02 0. -1.
       -1   -1    0    0    0  501  0.00000000000E+00  0.00000000000E+00 -0.85211295574E+03  0.85211295575E+03  0.50400001928E-02 0.  1.
    10030    2    1    2    0    0  0.00000000000E+00  0.00000000000E+00  0.65573382593E+03  0.23599597374E+04  0.22670295789E+04 0.  0.
        2    1    3    3  502    0  0.78886926147E+03 -0.17211768080E+03 -0.50030527176E+03  0.94986555506E+03  0.25500000920E-02 0.  1.
       -2    1    3    3    0  502 -0.78886926147E+03  0.17211768080E+03  0.11560390977E+04  0.14100941824E+04  0.25500000920E-02 0. -1.
</event>
<event>
 5   0  0.6263558E-05  0.2221408E+04  0.7818609E-02  0.8509570E-01
       -1   -1    0    0    0  501  0.00000000000E+00  0.00000000000E+00  0.73692283951E+03  0.73692283953E+03  0.50400001928E-02 0. -1.
        1   -1    0    0  501    0  0.00000000000E+00  0.00000000000E+00 -0.16740736613E+04  0.16740736613E+04  0.50400001928E-02 0.  1.
    10030    2    1    2    0    0  0.00000000000E+00  0.00000000000E+00 -0.93715082183E+03  0.24109965009E+04  0.22214077663E+04 0.  0.
        3    1    3    3  502    0  0.70414047174E+03  0.76904755470E+03 -0.53275996987E+02  0.10440719742E+04  0.10100000352E+00 0.  1.
       -3    1    3    3    0  502 -0.70414047174E+03 -0.76904755470E+03 -0.88387482484E+03  0.13669245266E+04  0.10100000352E+00 0. -1.
</event>
<event>
 5   0  0.1241430E-04  0.2187487E+04  0.7818609E-02  0.8523654E-01
        2   -1    0    0  501    0  0.00000000000E+00  0.00000000000E+00  0.14015298915E+04  0.14015298915E+04  0.25500000920E-02 0.  1.
       -2   -1    0    0    0  501  0.00000000000E+00  0.00000000000E+00 -0.85354912478E+03  0.85354912479E+03  0.25500000920E-02 0. -1.
    10030    2    1    2    0    0  0.00000000000E+00  0.00000000000E+00  0.54798076675E+03  0.22550790163E+04  0.21874867883E+04 0.  0.
        1    1    3    3  502    0 -0.31973097831E+03  0.63365205715E+02 -0.80231586668E+03  0.86599872849E+03  0.50400001928E-02 0. -1.
       -1    1    3    3    0  502  0.31973097831E+03 -0.63365205715E+02  0.13502966334E+04  0.13890802878E+04  0.50400001928E-02 0.  1.
</event>
<event>
 5   0  0.5981239E-05  0.2203506E+04  0.7818609E-02  0.8516970E-01
        1   -1    0    0  501    0  0.00000000000E+00  0.00000000000E+00  0.99094398087E+03  0.99094398088E+03  0.50400001928E-02 0. -1.
       -1   -1    0    0    0  501  0.00000000000E+00  0.00000000000E+00 -0.12249527267E+04  0.12249527267E+04  0.50400001928E-02 0.  1.
    10030    2    1    2    0    0  0.00000000000E+00  0.00000000000E+00 -0.23400874581E+03  0.22158967076E+04  0.22035058714E+04 0.  0.
        4    1    3    3  502    0 -0.58338469463E+03 -0.93413048557E+03 -0.14751393562E+03  0.11111703020E+04  0.12699999809E+01 0.  1.
       -4    1    3    3    0  502  0.58338469463E+03  0.93413048557E+03 -0.86494810184E+02  0.11047264055E+04  0.12699999809E+01 0. -1.
</event>
<event>
 5   0  0.5981239E-05  0.2223237E+04  0.7818609E-02  0.8508818E-01
        1   -1    0    0  501    0  0.00000000000E+00  0.00000000000E+00  0.15426565677E+04  0.15426565677E+04  0.50400001928E-02 0. -1.
       -1   -1    0    0    0  501  0.00000000000E+00  0.00000000000E+00 -0.80101787256E+03  0.80101787257E+03  0.50400001928E-02 0.  1.
    10030    2    1    2    0    0  0.00000000000E+00  0.00000000000E+00  0.74163869516E+03  0.23436744403E+04  0.22232368133E+04 0.  0.
        4    1    3    3  502    0  0.14949624221E+03 -0.80582353732E+03  0.11624971731E+04  0.14223578980E+04  0.12699999809E+01 0. -1.
       -4    1    3    3    0  502 -0.14949624221E+03  0.80582353732E+03 -0.42085847792E+03  0.92131654228E+03  0.12699999809E+01 0.  1.
</event>
<event>
 5   0  0.5895063E-05  0.2227242E+04  0.7818609E-02  0.8507174E-01
       -1   -1    0    0    0  501  0.00000000000E+00  0.00000000000E+00  0.59956347100E+03  0.59956347102E+03  0.50400001928E-02 0.  1.
        1   -1    0    0  501    0  0.00000000000E+00  0.00000000000E+00 -0.20684243261E+04  0.20684243261E+04  0.50400001928E-02 0. -1.
    10030    2    1    2    0    0  0.00000000000E+00  0.00000000000E+00 -0.14688608551E+04  0.26679877971E+04  0.22272419433E+04 0.  0.
        5    1    3    3  502    0  0.49818100085E+03 -0.34633722021E+02 -0.19267634071E+04  0.19904328979E+04  0.46999998093E+01 0. -1.
       -5    1    3    3    0  502 -0.49818100085E+03  0.34633722021E+02  0.45790255198E+03  0.67755489919E+03  0.46999998093E+01 0.  1.
</event>
<event>
 5   0  0.1226021E-04  0.2190469E+04  0.7818609E-02  0.8522406E-01
        2   -1    0    0  501    0  0.00000000000E+00  0.00000000000E+00  0.14158000714E+04  0.14158000714E+04  0.25500000920E-02 0.  1.
       -2   -1    0    0    0  501  0.00000000000E+00  0.00000000000E+00 -0.84725157176E+03  0.84725157176E+03  0.25500000920E-02 0. -1.
    10030    2    1    2    0    0  0.00000000000E+00  0.00000000000E+00  0.56854849968E+03  0.22630516432E+04  0.21904692062E+04 0.  0.
        2    1    3    3  502    0  0.30747914876E+03  0.34251855028E+03 -0.74247563356E+03  0.87357452495E+03  0.25500000920E-02 0. -1.
       -2    1    3    3    0  502 -0.30747914876E+03 -0.34251855028E+03  0.13110241332E+04  0.13894771183E+04  0.25500000920E-02 0.  1.
</event>
<event>
 5   0  0.1311472E-04  0.2205620E+04  0.7818609E-02  0.8516093E-01
        2   -1    0    0  501    0  0.00000000000E+00  0.00000000000E+00  0.13959891372E+04  0.13959891372E+04  0.25500000920E-02 0.  1.
       -2   -1    0    0    0  501  0.00000000000E+00  0.00000000000E+00 -0.87120275250E+03  0.87120275250E+03  0.25500000920E-02 0. -1.
    10030    2    1    2    0    0  0.00000000000E+00  0.00000000000E+00  0.52478638471E+03  0.22671918897E+04  0.22056197123E+04 0.  0.
        4    1    3    3  502    0 -0.88637040013E+02 -0.19185320918E+03  0.13749781922E+04  0.13911257386E+04  0.12699999809E+01 0.  1.
       -4    1    3    3    0  502  0.88637040013E+02  0.19185320918E+03 -0.85019180747E+03  0.87606615111E+03  0.12699999809E+01 0. -1.
</event>
<event>
 5   0  0.1404159E-04  0.2172676E+04  0.7818609E-02  0.8529888E-01
       -2   -1    0    0    0  501  0.00000000000E+00  0.00000000000E+00  0.53100302137E+03  0.53100302137E+03  0.25500000920E-02 0.  1.
        2   -1    0    0  501    0  0.00000000000E+00  0.00000000000E+00 -0.22224543915E+04  0.22224543915E+04  0.25500000920E-02 0. -1.
    10030    2    1    2    0    0  0.00000000000E+00  0.00000000000E+00 -0.16914513701E+04  0.27534574129E+04  0.21726757667E+04 0.  0.
        5    1    3    3  502    0 -0.76161540689E+03  0.50338168884E+03 -0.15918879403E+04  0.18350968523E+04  0.46999998093E+01 0. -1.
       -5    1    3    3    0  502  0.76161540689E+03 -0.50338168884E+03 -0.99563429783E+02  0.91836056058E+03  0.46999998093E+01 0.  1.
</event>
<event>
 5   0  0.1252124E-04  0.2139889E+04  0.7818609E-02  0.8543873E-01
       -2   -1    0    0    0  501  0.00000000000E+00  0.00000000000E+00  0.52289567495E+03  0.52289567495E+03  0.25500000920E-02 0. -1.
        2   -1    0    0  501    0  0.00000000000E+00  0.00000000000E+00 -0.21893114125E+04  0.21893114125E+04  0.25500000920E-02 0.  1.
    10030    2    1    2    0    0  0.00000000000E+00  0.00000000000E+00 -0.16664157375E+04  0.27122070874E+04  0.21398892202E+04 0.  0.
        3    1    3    3  502    0  0.10091171286E+03  0.68010360676E+03 -0.18722537596E+04  0.19945070169E+04  0.10100000352E+00 0.  1.
       -3    1    3    3    0  502 -0.10091171286E+03 -0.68010360676E+03  0.20583802211E+03  0.71770007055E+03  0.10100000352E+00 0. -1.
</event>
<event>
 5   0  0.1404159E-04  0.2185874E+04  0.7818609E-02  0.8524331E-01
        2   -1    0    0  501    0  0.00000000000E+00  0.00000000000E+00  0.66565930289E+03  0.66565930290E+03  0.25500000920E-02 0.  1.
       -2   -1    0    0    0  501  0.00000000000E+00  0.00000000000E+00 -0.17944777740E+04  0.17944777740E+04  0.25500000920E-02 0. -1.
    10030    2    1    2    0    0  0.00000000000E+00  0.00000000000E+00 -0.11288184712E+04  0.24601370769E+04  0.21858735774E+04 0.  0.
        5    1    3    3  502    0  0.54611469727E+03  0.27787757007E+03  0.45414597726E+03  0.76271086604E+03  0.46999998093E+01 0.  1.
       -5    1    3    3    0  502 -0.54611469727E+03 -0.27787757007E+03 -0.15829644484E+04  0.16974262109E+04  0.46999998093E+01 0. -1.
</event>
<event>
 5   0  0.1226021E-04  0.2242108E+04  0.7818609E-02  0.8501104E-01
       -2   -1    0    0    0  501  0.00000000000E+00  0.00000000000E+00  0.13763890034E+04  0.13763890034E+04  0.25500000920E-02 0.  1.
        2   -1    0    0  501    0  0.00000000000E+00  0.00000000000E+00 -0.91308606288E+03  0.91308606288E+03  0.25500000920E-02 0. -1.
    10030    2    1    2    0    0  0.00000000000E+00  0.00000000000E+00  0.46330294054E+03  0.22894750663E+04  0.22421075943E+04 0.  0.
        2    1    3    3  502    0  0.12123628773E+03  0.86378252131E+03  0.95076160546E+03  0.12902581571E+04  0.25500000920E-02 0.  1.
       -2    1    3    3    0  502 -0.12123628773E+03 -0.86378252131E+03 -0.48745866492E+03  0.99921690918E+03  0.25500000920E-02 0. -1.
</event>
<event>
 5   0  0.5861816E-05  0.2180744E+04  0.7818609E-02  0.8526486E-01
        1   -1    0    0  501    0  0.00000000000E+00  0.00000000000E+00  0.14203430360E+04  0.14203430360E+04  0.50400001928E-02 0.  1.
       -1   -1    0    0    0  501  0.00000000000E+00  0.00000000000E+00 -0.83705950236E+03  0.83705950238E+03  0.50400001928E-02 0. -1.
    10030    2    1    2    0    0  0.00000000000E+00  0.00000000000E+00  0.58328353361E+03  0.22574025384E+04  0.21807444920E+04 0.  0.
        1    1    3    3  502    0  0.10333301735E+03  0.94505905250E+03  0.84435617300E+03  0.12715155021E+04  0.50400001928E-02 0.  1.
       -1    1    3    3    0  502 -0.10333301735E+03 -0.94505905250E+03 -0.26107263939E+03  0.98588703625E+03  0.50400001928E-02 0. -1.
</event>
<event>
 5   0  0.5981239E-05  0.2189120E+04  0.7818609E-02  0.8522970E-01
       -1   -1    0    0    0  501  0.00000000000E+00  0.00000000000E+00  0.16986712613E+04  0.16986712613E+04  0.50400001928E-02 0.  1.
        1   -1    0    0  501    0  0.00000000000E+00  0.00000000000E+00 -0.70529347524E+03  0.70529347526E+03  0.50400001928E-02 0. -1.
    10030    2    1    2    0    0  0.00000000000E+00  0.00000000000E+00  0.99337778607E+03  0.24039647366E+04  0.21891201495E+04 0.  0.
        4    1    3    3  502    0  0.42145731643E+03 -0.38375231443E+03  0.15228307637E+04  0.16260096114E+04  0.12699999809E+01 0.  1.
       -4    1    3    3    0  502 -0.42145731643E+03  0.38375231443E+03 -0.52945297765E+03  0.77795512521E+03  0.12699999809E+01 0. -1.
</event>
<event>
 5   0  0.1311472E-04  0.2180780E+04  0.7818609E-02  0.8526471E-01
        2   -1    0    0  501    0  0.00000000000E+00  0.00000000000E+00  0.98385216452E+03  0.98385216453E+03  0.25500000920E-02 0. -1.
       -2   -1    0    0    0  501  0.00000000000E+00  0.00000000000E+00 -0.12084640718E+04  0.12084640718E+04  0.25500000920E-02 0.  1.
    10030    2    1    2    0    0  0.00000000000E+00  0.00000000000E+00 -0.22461190724E+03  0.21923162363E+04  0.21807796705E+04 0.  0.
        4    1    3    3  502    0 -0.31078753852E+03  0.10317140659E+04 -0.28029944212E+03  0.11133697490E+04  0.12699999809E+01 0.  1.
       -4    1    3    3    0  502  0.31078753852E+03 -0.10317140659E+04  0.55687534874E+02  0.10789464873E+04  0.12699999809E+01 0. -1.
</event>
<event>
 5   0  0.1311472E-04  0.2239528E+04  0.7818609E-02  0.8502153E-01
       -2   -1    0    0    0  501  0.00000000000E+00  0.00000000000E+00  0.92809628752E+03  0.92809628753E+03  0.25500000920E-02 0.  1.
        2   -1    0    0  501    0  0.00000000000E+00  0.00000000000E+00 -0.13510147815E+04  0.13510147815E+04  0.25500000920E-02 0. -1.
    10030    2    1    2    0    0  0.00000000000E+00  0.00000000000E+00 -0.42291849397E+03  0.22791110690E+04  0.22395283460E+04 0.  0.
        4    1    3    3  502    0 -0.79216006726E+03 -0.53481127215E+03 -0.80514788572E+03  0.12497221290E+04  0.12699999809E+01 0.  1.
       -4    1    3    3    0  502  0.79216006726E+03  0.53481127215E+03  0.38222939176E+03  0.10293889400E+04  0.12699999809E+01 0. -1.
</event>
<event>
 5   0  0.5849604E-05  0.2172020E+04  0.7818609E-02  0.8530165E-01
        1   -1    0    0  501    0  0.00000000000E+00  0.00000000000E+00  0.77192041584E+03  0.77192041586E+03  0.50400001928E-02 0.  1.
       -1   -1    0    0    0  501  0.00000000000E+00  0.00000000000E+00 -0.15279011617E+04  0.15279011617E+04  0.50400001928E-02 0. -1.
    10030    2    1    2    0    0  0.00000000000E+00  0.00000000000E+00 -0.75598074589E+03  0.22998215776E+04  0.21720203500E+04 0.  0.
        2    1    3    3  502    0  0.21941567424E+03  0.68262540875E+02 -0.15018654383E+04  0.15193428867E+04  0.25500000920E-02 0. -1.
       -2    1    3    3    0  502 -0.21941567424E+03 -0.68262540875E+02  0.74588469240E+03  0.78047869090E+03  0.25500000920E-02 0.  1.
</event>
<event>
 5   0  0.5849604E-05  0.2150001E+04  0.7818609E-02  0.8539532E-01
       -1   -1    0    0    0  501  0.00000000000E+00  0.00000000000E+00  0.80413534712E+03  0.80413534713E+03  0.50400001928E-02 0. -1.
        1   -1    0    0  501    0  0.00000000000E+00  0.00000000000E+00 -0.14371039229E+04  0.14371039230E+04  0.50400001928E-02 0.  1.
    10030    2    1    2    0    0  0.00000000000E+00  0.00000000000E+00 -0.63296857583E+03  0.22412392701E+04  0.21500009879E+04 0.  0.
        2    1    3    3  502    0 -0.27310367980E+03 -0.58647342528E+03 -0.12114566749E+04  0.13733768505E+04  0.25500000920E-02 0.  1.
       -2    1    3    3    0  502  0.27310367980E+03  0.58647342528E+03  0.57848809906E+03  0.86786241954E+03  0.25500000920E-02 0. -1.
</event>
<event>
 5   0  0.1226021E-04  0.2210394E+04  0.7818609E-02  0.8514114E-01
        2   -1    0    0  501    0  0.00000000000E+00  0.00000000000E+00  0.14475858801E+04  0.14475858801E+04  0.25500000920E-02 0.  1.
       -2   -1    0    0    0  501  0.00000000000E+00  0.00000000000E+00 -0.84379158911E+03  0.84379158911E+03  0.25500000920E-02 0. -1.
    10030    2    1    2    0    0  0.00000000000E+00  0.00000000000E+00  0.60379429102E+03  0.22913774692E+04  0.22103943451E+04 0.  0.
        2    1    3    3  502    0  0.10268358195E+04  0.41281993152E+02 -0.11965217676E+03  0.10346074843E+04  0.25500000920E-02 0. -1.
       -2    1    3    3    0  502 -0.10268358195E+04 -0.41281993152E+02  0.72344646777E+03  0.12567699849E+04  0.25500000920E-02 0.  1.
</event>
<event>
 5   0  0.1252124E-04  0.2193738E+04  0.7818609E-02  0.8521039E-01
        2   -1    0    0  501    0  0.00000000000E+00  0.00000000000E+00  0.96826953923E+03  0.96826953923E+03  0.25500000920E-02 0. -1.
       -2   -1    0    0    0  501  0.00000000000E+00  0.00000000000E+00 -0.12425477815E+04  0.12425477815E+04  0.25500000920E-02 0.  1.
    10030    2    1    2    0    0  0.00000000000E+00  0.00000000000E+00 -0.27427824227E+03  0.22108173207E+04  0.21937376031E+04 0.  0.
        3    1    3    3  502    0 -0.20787752785E+03  0.56459724633E+03  0.78713717648E+03  0.99074116798E+03  0.10100000352E+00 0. -1.
       -3    1    3    3    0  502  0.20787752785E+03 -0.56459724633E+03 -0.10614154188E+04  0.12200761528E+04  0.10100000352E+00 0.  1.
</event>
<event>
 5   0  0.1226021E-04  0.2074973E+04  0.7818609E-02  0.8572349E-01
       -2   -1    0    0    0  501  0.00000000000E+00  0.00000000000E+00  0.10291717942E+04  0.10291717942E+04  0.25500000920E-02 0.  1.
        2   -1    0    0  501    0  0.00000000000E+00  0.00000000000E+00 -0.10458679359E+04  0.10458679359E+04  0.25500000920E-02 0. -1.
    10030    2    1    2    0    0  0.00000000000E+00  0.00000000000E+00 -0.16696141701E+02  0.20750397302E+04  0.20749725590E+04 0.  0.
        2    1    3    3  502    0  0.14991461746E+03  0.70058272843E+03 -0.75876374596E+03  0.10435578442E+04  0.25500000920E-02 0. -1.
       -2    1    3    3    0  502 -0.14991461746E+03 -0.70058272843E+03  0.74206760426E+03  0.10314818860E+04  0.25500000920E-02 0.  1.
</event>
<event>
 5   0  0.1241430E-04  0.2161651E+04  0.7818609E-02  0.8534561E-01
        2   -1    0    0  501    0  0.00000000000E+00  0.00000000000E+00  0.11651641940E+04  0.11651641940E+04  0.25500000920E-02 0. -1.
       -2   -1    0    0    0  501  0.00000000000E+00  0.00000000000E+00 -0.10025916021E+04  0.10025916021E+04  0.25500000920E-02 0.  1.
    10030    2    1    2    0    0  0.00000000000E+00  0.00000000000E+00  0.16257259189E+03  0.21677557961E+04  0.21616510690E+04 0.  0.
        1    1    3    3  502    0 -0.10237290240E+04  0.40003165028E+02 -0.26401513633E+03  0.10579817390E+04  0.50400001928E-02 0.  1.
       -1    1    3    3    0  502  0.10237290240E+04 -0.40003165028E+02  0.42658772822E+03  0.11097740571E+04  0.50400001928E-02 0. -1.
</event>
<event>
 5   0  0.5895063E-05  0.2248669E+04  0.7818609E-02  0.8498440E-01
        1   -1    0    0  501    0  0.00000000000E+00  0.00000000000E+00  0.11828048180E+04  0.11828048180E+04  0.50400001928E-02 0.  1.
       -1   -1    0    0    0  501  0.00000000000E+00  0.00000000000E+00 -0.10687543591E+04  0.10687543592E+04  0.50400001928E-02 0. -1.
    10030    2    1    2    0    0  0.00000000000E+00  0.00000000000E+00  0.11405045888E+03  0.22515591772E+04  0.22486687664E+04 0.  0.
        5    1    3    3  502    0  0.14086854033E+03 -0.73118791614E+03 -0.78645059249E+03  0.10830541717E+04  0.46999998093E+01 0. -1.
       -5    1    3    3    0  502 -0.14086854033E+03  0.73118791614E+03  0.90050105137E+03  0.11685050055E+04  0.46999998093E+01 0.  1.
</event>
<event>
 5   0  0.1404159E-04  0.2219725E+04  0.7818609E-02  0.8510263E-01
        2   -1    0    0  501    0  0.00000000000E+00  0.00000000000E+00  0.75203772179E+03  0.75203772180E+03  0.25500000920E-02 0.  1.
       -2   -1    0    0    0  501  0.00000000000E+00  0.00000000000E+00 -0.16379425647E+04  0.16379425647E+04  0.25500000920E-02 0. -1.
    10030    2    1    2    0    0  0.00000000000E+00  0.00000000000E+00 -0.88590484287E+03  0.23899802865E+04  0.22197248431E+04 0.  0.
        5    1    3    3  502    0 -0.18311915410E+03 -0.80175227489E+02  0.73248366312E+03  0.75928591350E+03  0.46999998093E+01 0.  1.
       -5    1    3    3    0  502  0.18311915410E+03  0.80175227489E+02 -0.16183885060E+04  0.16306943730E+04  0.46999998093E+01 0. -1.
</event>
<event>
 5   0  0.1311472E-04  0.2200627E+04  0.7818609E-02  0.8518167E-01
       -2   -1    0    0    0  501  0.00000000000E+00  0.00000000000E+00  0.10837385402E+04  0.10837385402E+04  0.25500000920E-02 0.  1.
        2   -1    0    0  501    0  0.00000000000E+00  0.00000000000E+00 -0.11171424225E+04  0.11171424225E+04  0.25500000920E-02 0. -1.
    10030    2    1    2    0    0  0.00000000000E+00  0.00000000000E+00 -0.33403882272E+02  0.22008809627E+04  0.22006274543E+04 0.  0.
        4    1    3    3  502    0 -0.91864763597E+03 -0.70867108714E+02  0.58482645429E+03  0.10913107810E+04  0.12699999809E+01 0.  1.
       -4    1    3    3    0  502  0.91864763597E+03  0.70867108714E+02 -0.61823033656E+03  0.11095701817E+04  0.12699999809E+01 0. -1.
</event>
<event>
 5   0  0.1226021E-04  0.2228338E+04  0.7818609E-02  0.8506725E-01
        2   -1    0    0  501    0  0.00000000000E+00  0.00000000000E+00  0.86291149592E+03  0.86291149592E+03  0.25500000920E-02 0.  1.
       -2   -1    0    0    0  501  0.00000000000E+00  0.00000000000E+00 -0.14385858190E+04  0.14385858190E+04  0.25500000920E-02 0. -1.
    10030    2    1    2    0    0  0.00000000000E+00  0.00000000000E+00 -0.57567432313E+03  0.23014973150E+04  0.22283377133E+04 0.  0.
        2    1    3    3  502    0  0.10016760797E+04 -0.47023400640E+03 -0.42209433481E+03  0.11843304509E+04  0.25500000920E-02 0. -1.
       -2    1    3    3    0  502 -0.10016760797E+04  0.47023400640E+03 -0.15357998832E+03  0.11171668641E+04  0.25500000920E-02 0.  1.
</event>
<event>
 5   0  0.6263558E-05  0.2320969E+04  0.7818609E-02  0.8469699E-01
        1   -1    0    0  501    0  0.00000000000E+00  0.00000000000E+00  0.18965035012E+04  0.18965035012E+04  0.50400001928E-02 0. -1.
       -1   -1    0    0    0  501  0.00000000000E+00  0.00000000000E+00 -0.71010874972E+03  0.71010874974E+03  0.50400001928E-02 0.  1.
    10030    2    1    2    0    0  0.00000000000E+00  0.00000000000E+00  0.11863947515E+04  0.26066122509E+04  0.23209685307E+04 0.  0.
        3    1    3    3  502    0 -0.23719018608E+03  0.68775825592E+03 -0.42220600989E+03  0.84114715000E+03  0.10100000352E+00 0.  1.
       -3    1    3    3    0  502  0.23719018608E+03 -0.68775825592E+03  0.16086007613E+04  0.17654651009E+04  0.10100000352E+00 0. -1.
</event>
<event>
 5   0  0.5895063E-05  0.2197821E+04  0.7818609E-02  0.8519336E-01
        1   -1    0    0  501    0  0.00000000000E+00  0.00000000000E+00  0.16347174684E+04  0.16347174684E+04  0.50400001928E-02 0. -1.
       -1   -1    0    0    0  501  0.00000000000E+00  0.00000000000E+00 -0.73872329883E+03  0.73872329885E+03  0.50400001928E-02 0.  1.
    10030    2    1    2    0    0  0.00000000000E+00  0.00000000000E+00  0.89599416953E+03  0.23734407672E+04  0.21978206305E+04 0.  0.
        5    1    3    3  502    0  0.70622275320E+03 -0.82900703065E+03  0.28936269192E+03  0.11268345449E+04  0.46999998093E+01 0.  1.
       -5    1    3    3    0  502 -0.70622275320E+03  0.82900703065E+03  0.60663147761E+03  0.12466062224E+04  0.46999998093E+01 0. -1.
</event>
<event>
 5   0  0.1241430E-04  0.2227687E+04  0.7818609E-02  0.8506992E-01
       -2   -1    0    0    0  501  0.00000000000E+00  0.00000000000E+00  0.96623327335E+03  0.96623327335E+03  0.25500000920E-02 0. -1.
        2   -1    0    0  501    0  0.00000000000E+00  0.00000000000E+00 -0.12840042255E+04  0.12840042255E+04  0.25500000920E-02 0.  1.
    10030    2    1    2    0    0  0.00000000000E+00  0.00000000000E+00 -0.31777095219E+03  0.22502374989E+04  0.22276872364E+04 0.  0.
        1    1    3    3  502    0  0.11087188199E+04  0.79676100706E+02 -0.87160337916E+02  0.11149899673E+04  0.50400001928E-02 0. -1.
       -1    1    3    3    0  502 -0.11087188199E+04 -0.79676100706E+02 -0.23061061427E+03  0.11352475316E+04  0.50400001928E-02 0.  1.
</event>
<event>
 5   0  0.1404159E-04  0.2217923E+04  0.7818609E-02  0.8511005E-01
       -2   -1    0    0    0  501  0.00000000000E+00  0.00000000000E+00  0.13854615004E+04  0.13854615004E+04  0.25500000920E-02 0.  1.
        2   -1    0    0  501    0  0.00000000000E+00  0.00000000000E+00 -0.88764306914E+03  0.88764306915E+03  0.25500000920E-02 0. -1.
    10030    2    1    2    0    0  0.00000000000E+00  0.00000000000E+00  0.49781843125E+03  0.22731045695E+04  0.22179227204E+04 0.  0.
        5    1    3    3  502    0 -0.73272489784E+03 -0.85284174315E+02  0.10975284227E+04  0.13224030758E+04  0.46999998093E+01 0.  1.
       -5    1    3    3    0  502  0.73272489784E+03  0.85284174315E+02 -0.59970999146E+03  0.95070149372E+03  0.46999998093E+01 0. -1.
</event>
<event>
 5   0  0.1404159E-04  0.2125381E+04  0.7818609E-02  0.8550145E-01
       -2   -1    0    0    0  501  0.00000000000E+00  0.00000000000E+00  0.78284032470E+03  0.78284032470E+03  0.25500000920E-02 0.  1.
        2   -1    0    0  501    0  0.00000000000E+00  0.00000000000E+00 -0.14425810687E+04  0.14425810687E+04  0.25500000920E-02 0. -1.
    10030    2    1    2    0    0  0.00000000000E+00  0.00000000000E+00 -0.65974074399E+03  0.22254213934E+04  0.21253805609E+04 0.  0.
        5    1    3    3  502    0 -0.12752744141E+03 -0.74961302701E+03  0.44743732475E+03  0.88227274023E+03  0.46999998093E+01 0.  1.
       -5    1    3    3    0  502  0.12752744141E+03  0.74961302701E+03 -0.11071780687E+04  0.13431486532E+04  0.46999998093E+01 0. -1.
</event>
<event>
 5   0  0.5981239E-05  0.2175684E+04  0.7818609E-02  0.8528618E-01
       -1   -1    0    0    0  501  0.00000000000E+00  0.00000000000E+00  0.12742322712E+04  0.12742322713E+04  0.50400001928E-02 0. -1.
        1   -1    0    0  501    0  0.00000000000E+00  0.00000000000E+00 -0.92871628991E+03  0.92871628992E+03  0.50400001928E-02 0.  1.
    10030    2    1    2    0    0  0.00000000000E+00  0.00000000000E+00  0.34551598134E+03  0.22029485612E+04  0.21756840464E+04 0.  0.
        4    1    3    3  502    0  0.78693487292E+01 -0.10280706036E+04 -0.18723583872E+03  0.10450119449E+04  0.12699999809E+01 0.  1.
       -4    1    3    3    0  502 -0.78693487292E+01  0.10280706036E+04  0.53275182006E+03  0.11579366163E+04  0.12699999809E+01 0. -1.
</event>
<event>
 5   0  0.5981239E-05  0.2137117E+04  0.7818609E-02  0.8545067E-01
       -1   -1    0    0    0  501  0.00000000000E+00  0.00000000000E+00  0.56600853654E+03  0.56600853656E+03  0.50400001928E-02 0. -1.
        1   -1    0    0  501    0  0.00000000000E+00  0.00000000000E+00 -0.20173138961E+04  0.20173138961E+04  0.50400001928E-02 0.  1.
    10030    2    1    2    0    0  0.00000000000E+00  0.00000000000E+00 -0.14513053595E+04  0.25833224326E+04  0.21371166427E+04 0.  0.
        4    1    3    3  502    0 -0.46852459767E+03  0.40791855325E+02 -0.18854827528E+04  0.19432514243E+04  0.12699999809E+01 0.  1.
       -4    1    3    3    0  502  0.46852459767E+03 -0.40791855325E+02  0.43417739322E+03  0.64007100838E+03  0.12699999809E+01 0. -1.
</event>
<event>
 5   0  0.5849604E-05  0.2200663E+04  0.7818609E-02  0.8518152E-01
       -1   -1    0    0    0  501  0.00000000000E+00  0.00000000000E+00  0.18492266799E+04  0.18492266799E+04  0.50400001928E-02 0. -1.
        1   -1    0    0  501    0  0.00000000000E+00  0.00000000000E+00 -0.65472214381E+03  0.65472214383E+03  0.50400001928E-02 0.  1.
    10030    2    1    2    0    0  0.00000000000E+00  0.00000000000E+00  0.11945045361E+04  0.25039488237E+04  0.22006632239E+04 0.  0.
        2    1    3    3  502    0 -0.39390662379E+03 -0.18803762058E+03 -0.55200287271E+03  0.70372419775E+03  0.25500000920E-02 0.  1.
       -2    1    3    3    0  502  0.39390662379E+03  0.18803762058E+03  0.17465074088E+04  0.18002246260E+04  0.25500000920E-02 0. -1.
</event>
<event>
 5   0  0.1241430E-04  0.2230493E+04  0.7818609E-02  0.8505842E-01
       -2   -1    0    0    0  501  0.00000000000E+00  0.00000000000E+00  0.19352848239E+04  0.19352848239E+04  0.25500000920E-02 0.  1.
        2   -1    0    0  501    0  0.00000000000E+00  0.00000000000E+00 -0.64268297405E+03  0.64268297406E+03  0.25500000920E-02 0. -1.
    10030    2    1    2    0    0  0.00000000000E+00  0.00000000000E+00  0.12926018499E+04  0.25779677980E+04  0.22304928660E+04 0.  0.
        1    1    3    3  502    0  0.64919905451E+03  0.90336015944E+03  0.55488713854E+03  0.12431487146E+04  0.50400001928E-02 0. -1.
       -1    1    3    3    0  502 -0.64919905451E+03 -0.90336015944E+03  0.73771471131E+03  0.13348190834E+04  0.50400001928E-02 0.  1.
</event>
<event>
 5   0  0.1404159E-04  0.2166803E+04  0.7818609E-02  0.8532374E-01
       -2   -1    0    0    0  501  0.00000000000E+00  0.00000000000E+00  0.20065079206E+04  0.20065079206E+04  0.25500000920E-02 0. -1.
        2   -1    0    0  501    0  0.00000000000E+00  0.00000000000E+00 -0.58497565938E+03  0.58497565938E+03  0.25500000920E-02 0.  1.
    10030    2    1    2    0    0  0.00000000000E+00  0.00000000000E+00  0.14215322612E+04  0.25914835800E+04  0.21668025235E+04 0.  0.
        5    1    3    3  502    0 -0.18293988906E+03 -0.95398051584E+02 -0.56125042358E+03  0.59798989893E+03  0.46999998093E+01 0.  1.
       -5    1    3    3    0  502  0.18293988906E+03  0.95398051584E+02  0.19827826848E+04  0.19934936811E+04  0.46999998093E+01 0. -1.
</event>
<event>
 5   0  0.1252124E-04  0.2001322E+04  0.7818609E-02  0.8606003E-01
       -2   -1    0    0    0  501  0.00000000000E+00  0.00000000000E+00  0.68306725748E+03  0.68306725748E+03  0.25500000920E-02 0.  1.
        2   -1    0    0  501    0  0.00000000000E+00  0.00000000000E+00 -0.14659209640E+04  0.14659209640E+04  0.25500000920E-02 0. -1.
    10030    2    1    2    0    0  0.00000000000E+00  0.00000000000E+00 -0.78285370648E+03  0.21489882214E+04  0.20013221755E+04 0.  0.
        3    1    3    3  502    0  0.38374182019E+03 -0.29523275536E+03  0.54891785897E+03  0.73193646616E+03  0.10100000352E+00 0.  1.
       -3    1    3    3    0  502 -0.38374182019E+03  0.29523275536E+03 -0.13317715654E+04  0.14170517553E+04  0.10100000352E+00 0. -1.
</event>
<event>
 5   0  0.5981239E-05  0.1351604E+04  0.7818609E-02  0.8989615E-01
       -1   -1    0    0    0  501  0.00000000000E+00  0.00000000000E+00  0.75630650511E+03  0.75630650513E+03  0.50400001928E-02 0.  1.
        1   -1    0    0  501    0  0.00000000000E+00  0.00000000000E+00 -0.60386639769E+03  0.60386639771E+03  0.50400001928E-02 0. -1.
    10030    2    1    2    0    0  0.00000000000E+00  0.00000000000E+00  0.15244010742E+03  0.13601729028E+04  0.13516036177E+04 0.  0.
        4    1    3    3  502    0 -0.56805068614E+03 -0.33954118844E+03 -0.61529750871E+02  0.66464827076E+03  0.12699999809E+01 0. -1.
       -4    1    3    3    0  502  0.56805068614E+03  0.33954118844E+03  0.21396985829E+03  0.69552463209E+03  0.12699999809E+01 0.  1.
</event>
<event>
 5   0  0.1241430E-04  0.2208508E+04  0.7818609E-02  0.8514895E-01
       -2   -1    0    0    0  501  0.00000000000E+00  0.00000000000E+00  0.18791362823E+04  0.18791362823E+04  0.25500000920E-02 0. -1.
        2   -1    0    0  501    0  0.00000000000E+00  0.00000000000E+00 -0.64890264966E+03  0.64890264967E+03  0.25500000920E-02 0.  1.
    10030    2    1    2    0    0  0.00000000000E+00  0.00000000000E+00  0.12302336327E+04  0.25280389320E+04  0.22085076524E+04 0.  0.
        1    1    3    3  502    0  0.43219208579E+03 -0.95786610064E+03  0.10034307529E+04  0.14529868346E+04  0.50400001928E-02 0. -1.
       -1    1    3    3    0  502 -0.43219208579E+03  0.95786610064E+03  0.22680287979E+03  0.10750520974E+04  0.50400001928E-02 0.  1.
</event>
<event>
 5   0  0.5981239E-05  0.2241984E+04  0.7818609E-02  0.8501154E-01
        1   -1    0    0  501    0  0.00000000000E+00  0.00000000000E+00  0.15833306926E+04  0.15833306926E+04  0.50400001928E-02 0. -1.
       -1   -1    0    0    0  501  0.00000000000E+00  0.00000000000E+00 -0.79365794805E+03  0.79365794807E+03  0.50400001928E-02 0.  1.
    10030    2    1    2    0    0  0.00000000000E+00  0.00000000000E+00  0.78967274452E+03  0.23769886406E+04  0.22419839327E+04 0.  0.
        4    1    3    3  502    0  0.97802815468E+02 -0.21446755978E+02 -0.78890677726E+03  0.79523636120E+03  0.12699999809E+01 0.  1.
       -4    1    3    3    0  502 -0.97802815468E+02  0.21446755978E+02  0.15785795218E+04  0.15817522795E+04  0.12699999809E+01 0. -1.
</event>
<event>
 5   0  0.1252124E-04  0.2195526E+04  0.7818609E-02  0.8520293E-01
        2   -1    0    0  501    0  0.00000000000E+00  0.00000000000E+00  0.99301262217E+03  0.99301262217E+03  0.25500000920E-02 0. -1.
       -2   -1    0    0    0  501  0.00000000000E+00  0.00000000000E+00 -0.12135629984E+04  0.12135629984E+04  0.25500000920E-02 0.  1.
    10030    2    1    2    0    0  0.00000000000E+00  0.00000000000E+00 -0.22055037622E+03  0.22065756206E+04  0.21955257914E+04 0.  0.
        3    1    3    3  502    0  0.57801964291E+02  0.90137856061E+03 -0.73732147017E+03  0.11659619793E+04  0.10100000352E+00 0.  1.
       -3    1    3    3    0  502 -0.57801964291E+02 -0.90137856061E+03  0.51677109396E+03  0.10406136412E+04  0.10100000352E+00 0. -1.
</event>
<event>
 5   0  0.1311472E-04  0.2199496E+04  0.7818609E-02  0.8518638E-01
        2   -1    0    0  501    0  0.00000000000E+00  0.00000000000E+00  0.16669997492E+04  0.16669997492E+04  0.25500000920E-02 0.  1.
       -2   -1    0    0    0  501  0.00000000000E+00  0.00000000000E+00 -0.72552244400E+03  0.72552244401E+03  0.25500000920E-02 0. -1.
    10030    2    1    2    0    0  0.00000000000E+00  0.00000000000E+00  0.94147730524E+03  0.23925221932E+04  0.21994960625E+04 0.  0.
        4    1    3    3  502    0  0.82287808346E+03 -0.14964741721E+03  0.12474942974E+04  0.15019208783E+04  0.12699999809E+01 0.  1.
       -4    1    3    3    0  502 -0.82287808346E+03  0.14964741721E+03 -0.30601699220E+03  0.89060131492E+03  0.12699999809E+01 0. -1.
</event>
<event>
 5   0  0.5861816E-05  0.2222455E+04  0.7818609E-02  0.8509140E-01
       -1   -1    0    0    0  501  0.00000000000E+00  0.00000000000E+00  0.81399754948E+03  0.81399754950E+03  0.50400001928E-02 0.  1.
        1   -1    0    0  501    0  0.00000000000E+00  0.00000000000E+00 -0.15169903304E+04  0.15169903304E+04  0.50400001928E-02 0. -1.
    10030    2    1    2    0    0  0.00000000000E+00  0.00000000000E+00 -0.70299278087E+03  0.23309878799E+04  0.22224548693E+04 0.  0.
        1    1    3    3  502    0 -0.63318180322E+03 -0.53616720784E+02  0.60463165946E+03  0.87713932321E+03  0.50400001928E-02 0.  1.
       -1    1    3    3    0  502  0.63318180322E+03  0.53616720784E+02 -0.13076244403E+04  0.14538485566E+04  0.50400001928E-02 0. -1.
</event>
<event>
 5   0  0.1241430E-04  0.2014046E+04  0.7818609E-02  0.8600082E-01
       -2   -1    0    0    0  501  0.00000000000E+00  0.00000000000E+00  0.80538715975E+03  0.80538715976E+03  0.25500000920E-02 0. -1.
        2   -1    0    0  501    0  0.00000000000E+00  0.00000000000E+00 -0.12591405120E+04  0.12591405120E+04  0.25500000920E-02 0.  1.
    10030    2    1    2    0    0  0.00000000000E+00  0.00000000000E+00 -0.45375335228E+03  0.20645276718E+04  0.20140462762E+04 0.  0.
        1    1    3    3  502    0 -0.59130190615E+03  0.12547589181E+03 -0.10524919463E+04  0.12137221431E+04  0.50400001928E-02 0.  1.
       -1    1    3    3    0  502  0.59130190615E+03 -0.12547589181E+03  0.59873859401E+03  0.85080552868E+03  0.50400001928E-02 0. -1.
</event>
<event>
 5   0  0.5895063E-05  0.2213902E+04  0.7818609E-02  0.8512664E-01
        1   -1    0    0  501    0  0.00000000000E+00  0.00000000000E+00  0.10469613419E+04  0.10469613419E+04  0.50400001928E-02 0.  1.
       -1   -1    0    0    0  501  0.00000000000E+00  0.00000000000E+00 -0.11703775722E+04  0.11703775722E+04  0.50400001928E-02 0. -1.
    10030    2    1    2    0    0  0.00000000000E+00  0.00000000000E+00 -0.12341623026E+03  0.22173389141E+04  0.22139015999E+04 0.  0.
        5    1    3    3  502    0 -0.27991692459E+03  0.25001397450E+03  0.98128162279E+03  0.10506170498E+04  0.46999998093E+01 0.  1.
       -5    1    3    3    0  502  0.27991692459E+03 -0.25001397450E+03 -0.11046978530E+04  0.11667218643E+04  0.46999998093E+01 0. -1.
</event>
<event>
 5   0  0.5895063E-05  0.1893678E+04  0.7818609E-02  0.8658010E-01
        1   -1    0    0  501    0  0.00000000000E+00  0.00000000000E+00  0.14888230136E+04  0.14888230137E+04  0.50400001928E-02 0. -1.
       -1   -1    0    0    0  501  0.00000000000E+00  0.00000000000E+00 -0.60215641150E+03  0.60215641152E+03  0.50400001928E-02 0.  1.
    10030    2    1    2    0    0  0.00000000000E+00  0.00000000000E+00  0.88666660215E+03  0.20909794252E+04  0.18936782444E+04 0.  0.
        5    1    3    3  502    0  0.39920086521E+03  0.43555769003E+03 -0.37362538040E+03  0.69906355005E+03  0.46999998093E+01 0.  1.
       -5    1    3    3    0  502 -0.39920086521E+03 -0.43555769003E+03  0.12602919825E+04  0.13919158751E+04  0.46999998093E+01 0. -1.
</event>
<event>
 5   0  0.5981239E-05  0.2177051E+04  0.7818609E-02  0.8528041E-01
       -1   -1    0    0    0  501  0.00000000000E+00  0.00000000000E+00  0.89229116732E+03  0.89229116734E+03  0.50400001928E-02 0.  1.
        1   -1    0    0  501    0  0.00000000000E+00  0.00000000000E+00 -0.13279161529E+04  0.13279161529E+04  0.50400001928E-02 0. -1.
    10030    2    1    2    0    0  0.00000000000E+00  0.00000000000E+00 -0.43562498556E+03  0.22202073202E+04  0.21770510827E+04 0.  0.
        4    1    3    3  502    0 -0.52036572794E+03 -0.68154005777E+03 -0.90163337745E+03  0.12442755729E+04  0.12699999809E+01 0. -1.
       -4    1    3    3    0  502  0.52036572794E+03  0.68154005777E+03  0.46600839189E+03  0.97593174729E+03  0.12699999809E+01 0.  1.
</event>
<event>
 5   0  0.6263558E-05  0.2256953E+04  0.7818609E-02  0.8495090E-01
        1   -1    0    0  501    0  0.00000000000E+00  0.00000000000E+00  0.11264135221E+04  0.11264135221E+04  0.50400001928E-02 0. -1.
       -1   -1    0    0    0  501  0.00000000000E+00  0.00000000000E+00 -0.11305433824E+04  0.11305433824E+04  0.50400001928E-02 0.  1.
    10030    2    1    2    0    0  0.00000000000E+00  0.00000000000E+00 -0.41298602948E+01  0.22569569045E+04  0.22569531260E+04 0.  0.
        3    1    3    3  502    0  0.50749213835E+03  0.57753043750E+03 -0.82812300991E+03  0.11299900028E+04  0.10100000352E+00 0.  1.
       -3    1    3    3    0  502 -0.50749213835E+03 -0.57753043750E+03  0.82399314961E+03  0.11269669017E+04  0.10100000352E+00 0. -1.
</event>
<event>
 5   0  0.6263558E-05  0.2273600E+04  0.7818609E-02  0.8488404E-01
        1   -1    0    0  501    0  0.00000000000E+00  0.00000000000E+00  0.15191094049E+04  0.15191094049E+04  0.50400001928E-02 0. -1.
       -1   -1    0    0    0  501  0.00000000000E+00  0.00000000000E+00 -0.85070494926E+03  0.85070494927E+03  0.50400001928E-02 0.  1.
    10030    2    1    2    0    0  0.00000000000E+00  0.00000000000E+00  0.66840445560E+03  0.23698143541E+04  0.22735996914E+04 0.  0.
        3    1    3    3  502    0  0.15108094015E+03 -0.63058453454E+02  0.15067578899E+04  0.15156256689E+04  0.10100000352E+00 0. -1.
       -3    1    3    3    0  502 -0.15108094015E+03  0.63058453454E+02 -0.83835343433E+03  0.85418868529E+03  0.10100000352E+00 0.  1.
</event>
<event>
 5   0  0.5981239E-05  0.1680261E+04  0.7818609E-02  0.8772703E-01
        1   -1    0    0  501    0  0.00000000000E+00  0.00000000000E+00  0.85112432018E+03  0.85112432019E+03  0.50400001928E-02 0.  1.
       -1   -1    0    0    0  501  0.00000000000E+00  0.00000000000E+00 -0.82927869819E+03  0.82927869821E+03  0.50400001928E-02 0. -1.
    10030    2    1    2    0    0  0.00000000000E+00  0.00000000000E+00  0.21845621986E+02  0.16804030184E+04  0.16802610134E+04 0.  0.
        4    1    3    3  502    0  0.64675681313E+03  0.42080828707E+03  0.34328155446E+03  0.84452224857E+03  0.12699999809E+01 0. -1.
       -4    1    3    3    0  502 -0.64675681313E+03 -0.42080828707E+03 -0.32143593247E+03  0.83588076983E+03  0.12699999809E+01 0.  1.
</event>
<event>
 5   0  0.6263558E-05  0.2196673E+04  0.7818609E-02  0.8519814E-01
       -1   -1    0    0    0  501  0.00000000000E+00  0.00000000000E+00  0.68861053811E+03  0.68861053813E+03  0.50400001928E-02 0. -1.
        1   -1    0    0  501    0  0.00000000000E+00  0.00000000000E+00 -0.17518511594E+04  0.17518511595E+04  0.50400001928E-02 0.  1.
    10030    2    1    2    0    0  0.00000000000E+00  0.00000000000E+00 -0.10632406213E+04  0.24404616976E+04  0.21966730932E+04 0.  0.
        3    1    3    3  502    0 -0.46769672070E+03 -0.40602092464E+03  0.47610112471E+03  0.78119492123E+03  0.10100000352E+00 0. -1.
       -3    1    3    3    0  502  0.46769672070E+03  0.40602092464E+03 -0.15393417461E+04  0.16592667764E+04  0.10100000352E+00 0.  1.
</event>
<event>
 5   0  0.5861816E-05  0.2152877E+04  0.7818609E-02  0.8538302E-01
        1   -1    0    0  501    0  0.00000000000E+00  0.00000000000E+00  0.11885869539E+04  0.11885869539E+04  0.50400001928E-02 0. -1.
       -1   -1    0    0    0  501  0.00000000000E+00  0.00000000000E+00 -0.97487200971E+03  0.97487200972E+03  0.50400001928E-02 0.  1.
    10030    2    1    2    0    0  0.00000000000E+00  0.00000000000E+00  0.21371494415E+03  0.21634589636E+04  0.21528772863E+04 0.  0.
        1    1    3    3  502    0 -0.69997311856E+03 -0.26745958998E+03  0.88345804086E+03  0.11584451256E+04  0.50400001928E-02 0. -1.
       -1    1    3    3    0  502  0.69997311856E+03  0.26745958998E+03 -0.66974309671E+03  0.10050138380E+04  0.50400001928E-02 0.  1.
</event>
<event>
 5   0  0.5895063E-05  0.2248347E+04  0.7818609E-02  0.8498570E-01
        1   -1    0    0  501    0  0.00000000000E+00  0.00000000000E+00  0.13082976971E+04  0.13082976971E+04  0.50400001928E-02 0. -1.
       -1   -1    0    0    0  501  0.00000000000E+00  0.00000000000E+00 -0.96596196508E+03  0.96596196510E+03  0.50400001928E-02 0.  1.
    10030    2    1    2    0    0  0.00000000000E+00  0.00000000000E+00  0.34233573199E+03  0.22742596622E+04  0.22483467832E+04 0.  0.
        5    1    3    3  502    0 -0.11862644707E+03  0.45043587617E+03 -0.86374611587E+03  0.98134813148E+03  0.46999998093E+01 0.  1.
       -5    1    3    3    0  502  0.11862644707E+03 -0.45043587617E+03  0.12060818479E+04  0.12929115307E+04  0.46999998093E+01 0. -1.
</event>
<event>
 5   0  0.1252124E-04  0.2227920E+04  0.7818609E-02  0.8506896E-01
        2   -1    0    0  501    0  0.00000000000E+00  0.00000000000E+00  0.15148787402E+04  0.15148787402E+04  0.25500000920E-02 0. -1.
       -2   -1    0    0    0  501  0.00000000000E+00  0.00000000000E+00 -0.81914597174E+03  0.81914597174E+03  0.25500000920E-02 0.  1.
    10030    2    1    2    0    0  0.00000000000E+00  0.00000000000E+00  0.69573276850E+03  0.23340247120E+04  0.22279199427E+04 0.  0.
        3    1    3    3  502    0  0.28051787316E+03  0.32594767113E+03  0.14244124407E+04  0.14879122867E+04  0.10100000352E+00 0. -1.
       -3    1    3    3    0  502 -0.28051787316E+03 -0.32594767113E+03 -0.72867967215E+03  0.84611242533E+03  0.10100000352E+00 0.  1.
</event>
<event>
 5   0  0.1226021E-04  0.2188790E+04  0.7818609E-02  0.8523109E-01
        2   -1    0    0  501    0  0.00000000000E+00  0.00000000000E+00  0.18873683930E+04  0.18873683930E+04  0.25500000920E-02 0. -1.
       -2   -1    0    0    0  501  0.00000000000E+00  0.00000000000E+00 -0.63458730504E+03  0.63458730505E+03  0.25500000920E-02 0.  1.
    10030    2    1    2    0    0  0.00000000000E+00  0.00000000000E+00  0.12527810880E+04  0.25219556981E+04  0.21887896401E+04 0.  0.
        2    1    3    3  502    0  0.55874943597E+03  0.83926327758E+03  0.13600675597E+03  0.10173797811E+04  0.25500000920E-02 0.  1.
       -2    1    3    3    0  502 -0.55874943597E+03 -0.83926327758E+03  0.11167743320E+04  0.15045759170E+04  0.25500000920E-02 0. -1.
</event>
<event>
 5   0  0.5895063E-05  0.2166239E+04  0.7818609E-02  0.8532613E-01
        1   -1    0    0  501    0  0.00000000000E+00  0.00000000000E+00  0.75704947103E+03  0.75704947104E+03  0.50400001928E-02 0. -1.
       -1   -1    0    0    0  501  0.00000000000E+00  0.00000000000E+00 -0.15496314715E+04  0.15496314715E+04  0.50400001928E-02 0.  1.
    10030    2    1    2    0    0  0.00000000000E+00  0.00000000000E+00 -0.79258200043E+03  0.23066809425E+04  0.21662388472E+04 0.  0.
        5    1    3    3  502    0 -0.97919033660E+03  0.45891814370E+03 -0.46111486835E+03  0.11756141330E+04  0.46999998093E+01 0.  1.
       -5    1    3    3    0  502  0.97919033660E+03 -0.45891814370E+03 -0.33146713208E+03  0.11310668095E+04  0.46999998093E+01 0. -1.
</event>
<event>
 5   0  0.1241430E-04  0.2314454E+04  0.7818609E-02  0.8472244E-01
       -2   -1    0    0    0  501  0.00000000000E+00  0.00000000000E+00  0.97223656202E+03  0.97223656202E+03  0.25500000920E-02 0. -1.
        2   -1    0    0  501    0  0.00000000000E+00  0.00000000000E+00 -0.13774164095E+04  0.13774164095E+04  0.25500000920E-02 0.  1.
    10030    2    1    2    0    0  0.00000000000E+00  0.00000000000E+00 -0.40517984746E+03  0.23496529715E+04  0.23144542289E+04 0.  0.
        1    1    3    3  502    0  0.49435646314E+03 -0.10308510234E+04 -0.38457134109E+03  0.12062078020E+04  0.50400001928E-02 0.  1.
       -1    1    3    3    0  502 -0.49435646314E+03  0.10308510234E+04 -0.20608506368E+02  0.11434451695E+04  0.50400001928E-02 0. -1.
</event>
<event>
 5   0  0.1241430E-04  0.2216096E+04  0.7818609E-02  0.8511758E-01
       -2   -1    0    0    0  501  0.00000000000E+00  0.00000000000E+00  0.24202238738E+04  0.24202238738E+04  0.25500000920E-02 0.  1.
        2   -1    0    0  501    0  0.00000000000E+00  0.00000000000E+00 -0.50729627604E+03  0.50729627605E+03  0.25500000920E-02 0. -1.
    10030    2    1    2    0    0  0.00000000000E+00  0.00000000000E+00  0.19129275977E+04  0.29275201498E+04  0.22160961697E+04 0.  0.
        1    1    3    3  502    0  0.77646074365E+03 -0.22190446101E+03  0.19587364909E+04  0.21186744717E+04  0.50400001928E-02 0.  1.
       -1    1    3    3    0  502 -0.77646074365E+03  0.22190446101E+03 -0.45808893205E+02  0.80884567809E+03  0.50400001928E-02 0. -1.
</event>
<event>
 5   0  0.1311472E-04  0.2194927E+04  0.7818609E-02  0.8520543E-01
       -2   -1    0    0    0  501  0.00000000000E+00  0.00000000000E+00  0.85728032343E+03  0.85728032344E+03  0.25500000920E-02 0. -1.
        2   -1    0    0  501    0  0.00000000000E+00  0.00000000000E+00 -0.14049384752E+04  0.14049384752E+04  0.25500000920E-02 0.  1.
    10030    2    1    2    0    0  0.00000000000E+00  0.00000000000E+00 -0.54765815177E+03  0.22622187986E+04  0.21949269787E+04 0.  0.
        4    1    3    3  502    0  0.10297058257E+03 -0.10636860217E+04 -0.16384014051E+02  0.10687847971E+04  0.12699999809E+01 0. -1.
       -4    1    3    3    0  502 -0.10297058257E+03  0.10636860217E+04 -0.53127413772E+03  0.11934340015E+04  0.12699999809E+01 0.  1.
</event>
<event>
 5   0  0.1226021E-04  0.2211125E+04  0.7818609E-02  0.8513812E-01
       -2   -1    0    0    0  501  0.00000000000E+00  0.00000000000E+00  0.13755410152E+04  0.13755410152E+04  0.25500000920E-02 0. -1.
        2   -1    0    0  501    0  0.00000000000E+00  0.00000000000E+00 -0.88857312425E+03  0.88857312426E+03  0.25500000920E-02 0.  1.
    10030    2    1    2    0    0  0.00000000000E+00  0.00000000000E+00  0.48696789090E+03  0.22641141394E+04  0.22111253039E+04 0.  0.
        2    1    3    3  502    0 -0.11040869576E+04 -0.45697305592E+02  0.20842121230E+03  0.11245157427E+04  0.25500000920E-02 0.  1.
       -2    1    3    3    0  502  0.11040869576E+04  0.45697305592E+02  0.27854667860E+03  0.11395983968E+04  0.25500000920E-02 0. -1.
</event>
<event>
 5   0  0.5895063E-05  0.2163268E+04  0.7818609E-02  0.8533874E-01
       -1   -1    0    0    0  501  0.00000000000E+00  0.00000000000E+00  0.72263800546E+03  0.72263800548E+03  0.50400001928E-02 0.  1.
        1   -1    0    0  501    0  0.00000000000E+00  0.00000000000E+00 -0.16189743573E+04  0.16189743573E+04  0.50400001928E-02 0. -1.
    10030    2    1    2    0    0  0.00000000000E+00  0.00000000000E+00 -0.89633635181E+03  0.23416123628E+04  0.21632682686E+04 0.  0.
        5    1    3    3  502    0 -0.47479841753E+03  0.69113235179E+02  0.60113084282E+03  0.76914924219E+03  0.46999998093E+01 0.  1.
       -5    1    3    3    0  502  0.47479841753E+03 -0.69113235179E+02 -0.14974671946E+04  0.15724631206E+04  0.46999998093E+01 0. -1.
</event>
<event>
 5   0  0.1226021E-04  0.2258218E+04  0.7818609E-02  0.8494580E-01
       -2   -1    0    0    0  501  0.00000000000E+00  0.00000000000E+00  0.11972164602E+04  0.11972164602E+04  0.25500000920E-02 0.  1.
        2   -1    0    0  501    0  0.00000000000E+00  0.00000000000E+00 -0.10648760776E+04  0.10648760776E+04  0.25500000920E-02 0. -1.
    10030    2    1    2    0    0  0.00000000000E+00  0.00000000000E+00  0.13234038260E+03  0.22620925378E+04  0.22582180304E+04 0.  0.
        2    1    3    3  502    0  0.26629904654E+03 -0.23223282536E+03 -0.10080688964E+04  0.10681994978E+04  0.25500000920E-02 0. -1.
       -2    1    3    3    0  502 -0.26629904654E+03  0.23223282536E+03  0.11404092790E+04  0.11938930400E+04  0.25500000920E-02 0.  1.
</event>
<event>
 5   0  0.5895063E-05  0.1706627E+04  0.7818609E-02  0.8757594E-01
        1   -1    0    0  501    0  0.00000000000E+00  0.00000000000E+00  0.10655298707E+04  0.10655298707E+04  0.50400001928E-02 0. -1.
       -1   -1    0    0    0  501  0.00000000000E+00  0.00000000000E+00 -0.68336343685E+03  0.68336343687E+03  0.50400001928E-02 0.  1.
    10030    2    1    2    0    0  0.00000000000E+00  0.00000000000E+00  0.38216643386E+03  0.17488933076E+04  0.17066272640E+04 0.  0.
        5    1    3    3  502    0 -0.15609982681E+03  0.48411392518E+03  0.89317018649E+03  0.10278660032E+04  0.46999998093E+01 0. -1.
       -5    1    3    3    0  502  0.15609982681E+03 -0.48411392518E+03 -0.51100375263E+03  0.72102730440E+03  0.46999998093E+01 0.  1.
</event>
<event>
 5   0  0.5849604E-05  0.2210383E+04  0.7818609E-02  0.8514119E-01
        1   -1    0    0  501    0  0.00000000000E+00  0.00000000000E+00  0.16184379823E+04  0.16184379823E+04  0.50400001928E-02 0.  1.
       -1   -1    0    0    0  501  0.00000000000E+00  0.00000000000E+00 -0.75470821015E+03  0.75470821017E+03  0.50400001928E-02 0. -1.
    10030    2    1    2    0    0  0.00000000000E+00  0.00000000000E+00  0.86372977217E+03  0.23731461925E+04  0.22103831640E+04 0.  0.
        2    1    3    3  502    0 -0.28680907263E+03 -0.93395464358E+03  0.98654886976E+03  0.13884557583E+04  0.25500000920E-02 0.  1.
       -2    1    3    3    0  502  0.28680907263E+03  0.93395464358E+03 -0.12281909759E+03  0.98469043417E+03  0.25500000920E-02 0. -1.
</event>
<event>
 5   0  0.5849604E-05  0.2183394E+04  0.7818609E-02  0.8525372E-01
       -1   -1    0    0    0  501  0.00000000000E+00  0.00000000000E+00  0.91090298955E+03  0.91090298957E+03  0.50400001928E-02 0. -1.
        1   -1    0    0  501    0  0.00000000000E+00  0.00000000000E+00 -0.13083745629E+04  0.13083745629E+04  0.50400001928E-02 0.  1.
    10030    2    1    2    0    0  0.00000000000E+00  0.00000000000E+00 -0.39747157336E+03  0.22192775525E+04  0.21833939643E+04 0.  0.
        2    1    3    3  502    0 -0.14957242348E+03 -0.70062864444E+03 -0.10360151908E+04  0.12595951266E+04  0.25500000920E-02 0.  1.
       -2    1    3    3    0  502  0.14957242348E+03  0.70062864444E+03  0.63854361744E+03  0.95968242594E+03  0.25500000920E-02 0. -1.
</event>
<event>
 5   0  0.5981239E-05  0.1926512E+04  0.7818609E-02  0.8641771E-01
       -1   -1    0    0    0  501  0.00000000000E+00  0.00000000000E+00  0.12675967570E+04  0.12675967570E+04  0.50400001928E-02 0. -1.
        1   -1    0    0  501    0  0.00000000000E+00  0.00000000000E+00 -0.73198512931E+03  0.73198512933E+03  0.50400001928E-02 0.  1.
    10030    2    1    2    0    0  0.00000000000E+00  0.00000000000E+00  0.53561162764E+03  0.19995818863E+04  0.19265118490E+04 0.  0.
        4    1    3    3  502    0  0.11705457730E+03  0.39253297868E+02  0.12593497646E+04  0.12653877027E+04  0.12699999809E+01 0. -1.
       -4    1    3    3    0  502 -0.11705457730E+03 -0.39253297868E+02 -0.72373813699E+03  0.73419418364E+03  0.12699999809E+01 0.  1.
</event>
<event>
 5   0  0.1241430E-04  0.2234217E+04  0.7818609E-02  0.8504320E-01
       -2   -1    0    0    0  501  0.00000000000E+00  0.00000000000E+00  0.68453980956E+03  0.68453980956E+03  0.25500000920E-02 0. -1.
        2   -1    0    0  501    0  0.00000000000E+00  0.00000000000E+00 -0.18230220126E+04  0.18230220126E+04  0.25500000920E-02 0.  1.
    10030    2    1    2    0    0  0.00000000000E+00  0.00000000000E+00 -0.11384822031E+04  0.25075618222E+04  0.22342167678E+04 0.  0.
        1    1    3    3  502    0  0.44622766851E+03 -0.30792142044E+03 -0.16654661262E+04  0.17514885529E+04  0.50400001928E-02 0.  1.
       -1    1    3    3    0  502 -0.44622766851E+03  0.30792142044E+03  0.52698392313E+03  0.75607326932E+03  0.50400001928E-02 0. -1.
</event>
<event>
 5   0  0.1311472E-04  0.2198672E+04  0.7818609E-02  0.8518981E-01
        2   -1    0    0  501    0  0.00000000000E+00  0.00000000000E+00  0.11491107244E+04  0.11491107244E+04  0.25500000920E-02 0.  1.
       -2   -1    0    0    0  501  0.00000000000E+00  0.00000000000E+00 -0.10517176797E+04  0.10517176798E+04  0.25500000920E-02 0. -1.
    10030    2    1    2    0    0  0.00000000000E+00  0.00000000000E+00  0.97393044680E+02  0.22008284042E+04  0.21986723857E+04 0.  0.
        4    1    3    3  502    0 -0.61269863707E+03  0.43531384226E+03 -0.75436239088E+03  0.10648765143E+04  0.12699999809E+01 0. -1.
       -4    1    3    3    0  502  0.61269863707E+03 -0.43531384226E+03  0.85175543556E+03  0.11359518898E+04  0.12699999809E+01 0.  1.
</event>
<event>
 5   0  0.6263558E-05  0.2205965E+04  0.7818609E-02  0.8515950E-01
       -1   -1    0    0    0  501  0.00000000000E+00  0.00000000000E+00  0.12784933431E+04  0.12784933431E+04  0.50400001928E-02 0.  1.
        1   -1    0    0  501    0  0.00000000000E+00  0.00000000000E+00 -0.95156527194E+03  0.95156527195E+03  0.50400001928E-02 0. -1.
    10030    2    1    2    0    0  0.00000000000E+00  0.00000000000E+00  0.32692807114E+03  0.22300586150E+04  0.22059645198E+04 0.  0.
        3    1    3    3  502    0 -0.36067091651E+03 -0.43292187004E+03 -0.79508271818E+03  0.97450571805E+03  0.10100000352E+00 0. -1.
       -3    1    3    3    0  502  0.36067091651E+03  0.43292187004E+03  0.11220107893E+04  0.12555528970E+04  0.10100000352E+00 0.  1.
</event>
<event>
 5   0  0.1252124E-04  0.2200424E+04  0.7818609E-02  0.8518252E-01
        2   -1    0    0  501    0  0.00000000000E+00  0.00000000000E+00  0.12299936789E+04  0.12299936789E+04  0.25500000920E-02 0.  1.
       -2   -1    0    0    0  501  0.00000000000E+00  0.00000000000E+00 -0.98412392693E+03  0.98412392694E+03  0.25500000920E-02 0. -1.
    10030    2    1    2    0    0  0.00000000000E+00  0.00000000000E+00  0.24586975199E+03  0.22141176059E+04  0.22004237859E+04 0.  0.
        3    1    3    3  502    0  0.53258170790E+02  0.86189410593E+03  0.80891670468E+03  0.11832346039E+04  0.10100000352E+00 0.  1.
       -3    1    3    3    0  502 -0.53258170790E+02 -0.86189410593E+03 -0.56304695268E+03  0.10308830020E+04  0.10100000352E+00 0. -1.
</event>
<event>
 5   0  0.6263558E-05  0.2176646E+04  0.7818609E-02  0.8528212E-01
       -1   -1    0    0    0  501  0.00000000000E+00  0.00000000000E+00  0.58965475096E+03  0.58965475099E+03  0.50400001928E-02 0.  1.
        1   -1    0    0  501    0  0.00000000000E+00  0.00000000000E+00 -0.20087121129E+04  0.20087121130E+04  0.50400001928E-02 0. -1.
    10030    2    1    2    0    0  0.00000000000E+00  0.00000000000E+00 -0.14190573620E+04  0.25983668639E+04  0.21766457137E+04 0.  0.
        3    1    3    3  502    0  0.34960843825E+02 -0.86416143884E+03  0.79112883727E+02  0.86847919466E+03  0.10100000352E+00 0.  1.
       -3    1    3    3    0  502 -0.34960843825E+02  0.86416143884E+03 -0.14981702457E+04  0.17298876693E+04  0.10100000352E+00 0. -1.
</event>
<event>
 5   0  0.5849604E-05  0.2198788E+04  0.7818609E-02  0.8518933E-01
        1   -1    0    0  501    0  0.00000000000E+00  0.00000000000E+00  0.16480388497E+04  0.16480388497E+04  0.50400001928E-02 0.  1.
       -1   -1    0    0    0  501  0.00000000000E+00  0.00000000000E+00 -0.73339696706E+03  0.73339696708E+03  0.50400001928E-02 0. -1.
    10030    2    1    2    0    0  0.00000000000E+00  0.00000000000E+00  0.91464188264E+03  0.23814358168E+04  0.21987875695E+04 0.  0.
        2    1    3    3  502    0  0.10538607169E+04  0.16662914457E+03  0.74444423693E+03  0.13009938141E+04  0.25500000920E-02 0.  1.
       -2    1    3    3    0  502 -0.10538607169E+04 -0.16662914457E+03  0.17019764571E+03  0.10804420027E+04  0.25500000920E-02 0. -1.
</event>
<event>
 5   0  0.1226021E-04  0.2220791E+04  0.7818609E-02  0.8509824E-01
        2   -1    0    0  501    0  0.00000000000E+00  0.00000000000E+00  0.24376947449E+04  0.24376947449E+04  0.25500000920E-02 0. -1.
       -2   -1    0    0    0  501  0.00000000000E+00  0.00000000000E+00 -0.50579657386E+03  0.50579657386E+03  0.25500000920E-02 0.  1.
    10030    2    1    2    0    0  0.00000000000E+00  0.00000000000E+00  0.19318981711E+04  0.29434913188E+04  0.22207905350E+04 0.  0.
        2    1    3    3  502    0 -0.80386687411E+03  0.75628823319E+03  0.11272147354E+04  0.15775889524E+04  0.25500000920E-02 0.  1.
       -2    1    3    3    0  502  0.80386687411E+03 -0.75628823319E+03  0.80468343570E+03  0.13659023664E+04  0.25500000920E-02 0. -1.
</event>
<event>
 5   0  0.5895063E-05  0.2160151E+04  0.7818609E-02  0.8535200E-01
        1   -1    0    0  501    0  0.00000000000E+00  0.00000000000E+00  0.10445672405E+04  0.10445672405E+04  0.50400001928E-02 0. -1.
       -1   -1    0    0    0  501  0.00000000000E+00  0.00000000000E+00 -0.11167905417E+04  0.11167905417E+04  0.50400001928E-02 0.  1.
    10030    2    1    2    0    0  0.00000000000E+00  0.00000000000E+00 -0.72223301262E+02  0.21613577822E+04  0.21601507488E+04 0.  0.
        5    1    3    3  502    0  0.58648346708E+02 -0.38100953160E+03  0.97337868453E+03  0.10469460565E+04  0.46999998093E+01 0. -1.
       -5    1    3    3    0  502 -0.58648346708E+02  0.38100953160E+03 -0.10456019858E+04  0.11144117257E+04  0.46999998093E+01 0.  1.
</event>
<event>
 5   0  0.5861816E-05  0.2124378E+04  0.7818609E-02  0.8550580E-01
       -1   -1    0    0    0  501  0.00000000000E+00  0.00000000000E+00  0.10402936997E+04  0.10402936997E+04  0.50400001928E-02 0. -1.
        1   -1    0    0  501    0  0.00000000000E+00  0.00000000000E+00 -0.10845455099E+04  0.10845455099E+04  0.50400001928E-02 0.  1.
    10030    2    1    2    0    0  0.00000000000E+00  0.00000000000E+00 -0.44251810231E+02  0.21248392096E+04  0.21243783665E+04 0.  0.
        1    1    3    3  502    0  0.65657448023E+03  0.18996293055E+03 -0.83536433381E+03  0.10793560735E+04  0.50400001928E-02 0.  1.
       -1    1    3    3    0  502 -0.65657448023E+03 -0.18996293055E+03  0.79111252358E+03  0.10454831362E+04  0.50400001928E-02 0. -1.
</event>
<event>
 5   0  0.1311472E-04  0.2086497E+04  0.7818609E-02  0.8567215E-01
        2   -1    0    0  501    0  0.00000000000E+00  0.00000000000E+00  0.16073632318E+04  0.16073632318E+04  0.25500000920E-02 0.  1.
       -2   -1    0    0    0  501  0.00000000000E+00  0.00000000000E+00 -0.67711344412E+03  0.67711344413E+03  0.25500000920E-02 0. -1.
    10030    2    1    2    0    0  0.00000000000E+00  0.00000000000E+00  0.93024978770E+03  0.22844766760E+04  0.20864968285E+04 0.  0.
        4    1    3    3  502    0  0.24287129138E+03  0.67883076528E+03  0.12907068532E+04  0.14784192456E+04  0.12699999809E+01 0.  1.
       -4    1    3    3    0  502 -0.24287129138E+03 -0.67883076528E+03 -0.36045706547E+03  0.80605743035E+03  0.12699999809E+01 0. -1.
</event>
<event>
 5   0  0.5861816E-05  0.2170883E+04  0.7818609E-02  0.8530646E-01
        1   -1    0    0  501    0  0.00000000000E+00  0.00000000000E+00  0.23117453968E+04  0.23117453969E+04  0.50400001928E-02 0. -1.
       -1   -1    0    0    0  501  0.00000000000E+00  0.00000000000E+00 -0.50965108017E+03  0.50965108019E+03  0.50400001928E-02 0.  1.
    10030    2    1    2    0    0  0.00000000000E+00  0.00000000000E+00  0.18020943167E+04  0.28213964770E+04  0.21708832660E+04 0.  0.
        1    1    3    3  502    0  0.87426840800E+03 -0.19517712721E+03  0.16977085655E+04  0.19195451893E+04  0.50400001928E-02 0. -1.
       -1    1    3    3    0  502 -0.87426840800E+03  0.19517712721E+03  0.10438575118E+03  0.90185128779E+03  0.50400001928E-02 0.  1.
</event>
<event>
 5   0  0.1311472E-04  0.2279826E+04  0.7818609E-02  0.8485918E-01
       -2   -1    0    0    0  501  0.00000000000E+00  0.00000000000E+00  0.10211445982E+04  0.10211445982E+04  0.25500000920E-02 0.  1.
        2   -1    0    0  501    0  0.00000000000E+00  0.00000000000E+00 -0.12724950191E+04  0.12724950191E+04  0.25500000920E-02 0. -1.
    10030    2    1    2    0    0  0.00000000000E+00  0.00000000000E+00 -0.25135042095E+03  0.22936396173E+04  0.22798257960E+04 0.  0.
        4    1    3    3  502    0  0.94513159273E+03 -0.63285177108E+03 -0.20112770445E+03  0.11550883335E+04  0.12699999809E+01 0.  1.
       -4    1    3    3    0  502 -0.94513159273E+03  0.63285177108E+03 -0.50222716505E+02  0.11385512838E+04  0.12699999809E+01 0. -1.
</event>
<event>
 5   0  0.1404159E-04  0.2096356E+04  0.7818609E-02  0.8562850E-01
       -2   -1    0    0    0  501  0.00000000000E+00  0.00000000000E+00  0.56260655671E+03  0.56260655671E+03  0.25500000920E-02 0. -1.
        2   -1    0    0  501    0  0.00000000000E+00  0.00000000000E+00 -0.19528340896E+04  0.19528340896E+04  0.25500000920E-02 0.  1.
    10030    2    1    2    0    0  0.00000000000E+00  0.00000000000E+00 -0.13902275329E+04  0.25154406463E+04  0.20963561367E+04 0.  0.
        5    1    3    3  502    0 -0.94990163387E+01 -0.41359169188E+03  0.46048634213E+03  0.61904610506E+03  0.46999998093E+01 0. -1.
       -5    1    3    3    0  502  0.94990163387E+01  0.41359169188E+03 -0.18507138751E+04  0.18963945413E+04  0.46999998093E+01 0.  1.
</event>
<event>
 5   0  0.5981239E-05  0.1551563E+04  0.7818609E-02  0.8850870E-01
       -1   -1    0    0    0  501  0.00000000000E+00  0.00000000000E+00  0.48619823013E+03  0.48619823016E+03  0.50400001928E-02 0.  1.
        1   -1    0    0  501    0  0.00000000000E+00  0.00000000000E+00 -0.12378423072E+04  0.12378423072E+04  0.50400001928E-02 0. -1.
    10030    2    1    2    0    0  0.00000000000E+00  0.00000000000E+00 -0.75164407706E+03  0.17240405374E+04  0.15515627463E+04 0.  0.
        4    1    3    3  502    0 -0.94390803915E+02 -0.72540707452E+03 -0.88827352574E+02  0.73689684427E+03  0.12699999809E+01 0.  1.
       -4    1    3    3    0  502  0.94390803915E+02  0.72540707452E+03 -0.66281672448E+03  0.98714369308E+03  0.12699999809E+01 0. -1.
</event>
<event>
 5   0  0.1404159E-04  0.2196561E+04  0.7818609E-02  0.8519861E-01
        2   -1    0    0  501    0  0.00000000000E+00  0.00000000000E+00  0.94297099767E+03  0.94297099768E+03  0.25500000920E-02 0. -1.
       -2   -1    0    0    0  501  0.00000000000E+00  0.00000000000E+00 -0.12791695910E+04  0.12791695910E+04  0.25500000920E-02 0.  1.
    10030    2    1    2    0    0  0.00000000000E+00  0.00000000000E+00 -0.33619859330E+03  0.22221405887E+04  0.21965607894E+04 0.  0.
        5    1    3    3  502    0  0.52047062153E+03 -0.82934561091E+03  0.33518175195E+03  0.10349264259E+04  0.46999998093E+01 0. -1.
       -5    1    3    3    0  502 -0.52047062153E+03  0.82934561091E+03 -0.67138034525E+03  0.11872141627E+04  0.46999998093E+01 0.  1.
</event>
<event>
 5   0  0.4586375E-05  0.2245854E+04  0.7818609E-02  0.8499582E-01
       -4   -1    0    0    0  501  0.00000000000E+00  0.00000000000E+00  0.19625329657E+04  0.19625333767E+04  0.12699999809E+01 0. -1.
        4   -1    0    0  501    0  0.00000000000E+00  0.00000000000E+00 -0.64251792518E+03  0.64251918032E+03  0.12699999809E+01 0.  1.
    10030    2    1    2    0    0  0.00000000000E+00  0.00000000000E+00  0.13200150406E+04  0.26050525570E+04  0.22458537613E+04 0.  0.
        5    1    3    3  502    0  0.15247036399E+02  0.99325310712E+03  0.52661962200E+02  0.99477614526E+03  0.46999998093E+01 0. -1.
       -5    1    3    3    0  502 -0.15247036399E+02 -0.99325310712E+03  0.12673530784E+04  0.16102764117E+04  0.46999998093E+01 0.  1.
</event>
<event>
 5   0  0.1226021E-04  0.2177498E+04  0.7818609E-02  0.8527853E-01
       -2   -1    0    0    0  501  0.00000000000E+00  0.00000000000E+00  0.15416033118E+04  0.15416033118E+04  0.25500000920E-02 0.  1.
        2   -1    0    0  501    0  0.00000000000E+00  0.00000000000E+00 -0.76892284603E+03  0.76892284603E+03  0.25500000920E-02 0. -1.
    10030    2    1    2    0    0  0.00000000000E+00  0.00000000000E+00  0.77268046573E+03  0.23105261578E+04  0.21774976518E+04 0.  0.
        2    1    3    3  502    0 -0.31368349153E+03  0.20708528449E+03  0.14705733111E+04  0.15178496339E+04  0.25500000920E-02 0.  1.
       -2    1    3    3    0  502  0.31368349153E+03 -0.20708528449E+03 -0.69789284535E+03  0.79267652388E+03  0.25500000920E-02 0. -1.
</event>
<event>
 5   0  0.5895063E-05  0.2182497E+04  0.7818609E-02  0.8525749E-01
       -1   -1    0    0    0  501  0.00000000000E+00  0.00000000000E+00  0.61946920482E+03  0.61946920484E+03  0.50400001928E-02 0.  1.
        1   -1    0    0  501    0  0.00000000000E+00  0.00000000000E+00 -0.19223290393E+04  0.19223290393E+04  0.50400001928E-02 0. -1.
    10030    2    1    2    0    0  0.00000000000E+00  0.00000000000E+00 -0.13028598345E+04  0.25417982442E+04  0.21824973232E+04 0.  0.
        5    1    3    3  502    0  0.24593316318E+03  0.98058698141E+03 -0.11298747804E+04  0.15161375460E+04  0.46999998093E+01 0. -1.
       -5    1    3    3    0  502 -0.24593316318E+03 -0.98058698141E+03 -0.17298505405E+03  0.10256606982E+04  0.46999998093E+01 0.  1.
</event>
</LesHouchesEvents>
