<LesHouchesEvents version="3.0">
<header>
<!--
#*********************************************************************
#                                                                    *
#                        MadGraph5_aMC@NLO                           *
#                                                                    *
#                           Going Beyond                             *
#                                                                    *
#                   http://madgraph.hep.uiuc.edu                     *
#                   http://madgraph.phys.ucl.ac.be                   *
#                   http://amcatnlo.cern.ch                          *
#                                                                    *
#                     The MadGraph5_aMC@NLO team                     *
#                                                                    *
#....................................................................*
#                                                                    *
# This file contains all the information necessary to reproduce      *
# the events generated:                                              *
#                                                                    *
# 1. software version                                                *
# 2. proc_card          : code generation info including model       *
# 3. param_card         : model primary parameters in the LH format  *
# 4. run_card           : running parameters (collider and cuts)     *
# 5. pythia_card        : present only if pythia has been run        *
# 6. pgs_card           : present only if pgs has been run           *
# 7. delphes_cards      : present only if delphes has been run       *
#                                                                    *
#                                                                    *
#*********************************************************************
-->
<MGVersion>
#5.2.2.3
</MGVersion>
<MG5ProcCard>
#************************************************************
#*                     MadGraph5_aMC@NLO                    *
#*                                                          *
#*                *                       *                 *
#*                  *        * *        *                   *
#*                    * * * * 5 * * * *                     *
#*                  *        * *        *                   *
#*                *                       *                 *
#*                                                          *
#*                                                          *
#*         VERSION 2.2.3                 2015-02-10         *
#*                                                          *
#*    The MadGraph5_aMC@NLO Development Team - Find us at   *
#*    https://server06.fynu.ucl.ac.be/projects/madgraph     *
#*                                                          *
#************************************************************
#*                                                          *
#*               Command File for MadGraph5_aMC@NLO         *
#*                                                          *
#*     run as ./bin/mg5_aMC  filename                       *
#*                                                          *
#************************************************************
set group_subprocesses Auto
set ignore_six_quark_processes False
set loop_optimized_output True
set gauge unitary
set complex_mass_scheme False
import model sm
define p = g u c d s u~ c~ d~ s~
define j = g u c d s u~ c~ d~ s~
define l+ = e+ mu+
define l- = e- mu-
define vl = ve vm vt
define vl~ = ve~ vm~ vt~
import model Zprime_UFO
generate p p > zph, zph > j j
add process p p > zph, zph > b b~
output Dijet_signal
</MG5ProcCard>
<MGProcCard>
#*********************************************************************
#                        MadGraph/MadEvent                           *
#                   http://madgraph.hep.uiuc.edu                     *
#                                                                    *
#                          proc_card.dat                             *
#*********************************************************************
#                                                                    *
#            This Files is generated by MADGRAPH 5                   *
#                                                                    *
# WARNING: This Files is generated for MADEVENT (compatibility issue)*
#          This files is NOT a valid MG4 proc_card.dat               *
#          Running this in MG4 will NEVER reproduce the result of MG5*
#                                                                    *
#*********************************************************************
#*********************************************************************
# Process(es) requested : mg2 input                                  *
#*********************************************************************
# Begin PROCESS # This is TAG. Do not modify this line
p p > zph , zph > j j           #Process
# Be carefull the coupling are here in MG5 convention
          
end_coup           # End the couplings input

done               # this tells MG there are no more procs
# End PROCESS  # This is TAG. Do not modify this line
#*********************************************************************
# Model information                                                  *
#*********************************************************************
# Begin MODEL  # This is TAG. Do not modify this line
Zprime_UFO
# End   MODEL  # This is TAG. Do not modify this line
#*********************************************************************
# Start multiparticle definitions                                    *
#*********************************************************************
# Begin MULTIPARTICLES # This is TAG. Do not modify this line

# End  MULTIPARTICLES # This is TAG. Do not modify this line
</MGProcCard>
<MGRunCard>
#*********************************************************************
#                       MadGraph5_aMC@NLO                            *
#                                                                    *
#                     run_card.dat MadEvent                          *
#                                                                    *
#  This file is used to set the parameters of the run.               *
#                                                                    *
#  Some notation/conventions:                                        *
#                                                                    *
#   Lines starting with a '# ' are info or comments                  *
#                                                                    *
#   mind the format:   value    = variable     ! comment             *
#*********************************************************************
#
#*******************                                                 
# Running parameters
#*******************                                                 
#                                                                    
#*********************************************************************
# Tag name for the run (one word)                                    *
#*********************************************************************
  tag_1     = run_tag ! name of the run 
#*********************************************************************
# Run to generate the grid pack                                      *
#*********************************************************************
  .false.     = gridpack  !True = setting up the grid pack
#*********************************************************************
# Number of events and rnd seed                                      *
# Warning: Do not generate more than 1M events in a single run       *
# If you want to run Pythia, avoid more than 50k events in a run.    *
#*********************************************************************
  2000 = nevents ! Number of unweighted events requested 
 3054 = iseed   ! rnd seed (0=assigned automatically=default))
#*********************************************************************
# Collider type and energy                                           *
# lpp: 0=No PDF, 1=proton, -1=antiproton, 2=photon from proton,      *
#                                         3=photon from electron     *
#*********************************************************************
        1     = lpp1    ! beam 1 type 
        1     = lpp2    ! beam 2 type
     4000     = ebeam1  ! beam 1 total energy in GeV
     4000     = ebeam2  ! beam 2 total energy in GeV
#*********************************************************************
# Beam polarization from -100 (left-handed) to 100 (right-handed)    *
#*********************************************************************
        0     = polbeam1 ! beam polarization for beam 1
        0     = polbeam2 ! beam polarization for beam 2
#*********************************************************************
# PDF CHOICE: this automatically fixes also alpha_s and its evol.    *
#*********************************************************************
 'nn23lo1'    = pdlabel     ! PDF set                                     
 230000    = lhaid     ! if pdlabel=lhapdf, this is the lhapdf number
#*********************************************************************
# Renormalization and factorization scales                           *
#*********************************************************************
 F        = fixed_ren_scale  ! if .true. use fixed ren scale
 F        = fixed_fac_scale  ! if .true. use fixed fac scale
 91.1880  = scale            ! fixed ren scale
 91.1880  = dsqrt_q2fact1    ! fixed fact scale for pdf1
 91.1880  = dsqrt_q2fact2    ! fixed fact scale for pdf2
 1        = scalefact        ! scale factor for event-by-event scales
#*********************************************************************
# Matching - Warning! ickkw > 1 is still beta
#*********************************************************************
 0        = ickkw            ! 0 no matching, 1 MLM, 2 CKKW matching
 1        = highestmult      ! for ickkw=2, highest mult group
 1        = ktscheme         ! for ickkw=1, 1 Durham kT, 2 Pythia pTE
 1        = alpsfact         ! scale factor for QCD emission vx
 F        = chcluster        ! cluster only according to channel diag
 T        = pdfwgt           ! for ickkw=1, perform pdf reweighting
 5        = asrwgtflavor     ! highest quark flavor for a_s reweight
 T        = clusinfo         ! include clustering tag in output
 3.0      = lhe_version       ! Change the way clustering information pass to shower.        
#*********************************************************************
#**********************************************************
#
#**********************************************************
# Automatic ptj and mjj cuts if xqcut > 0
# (turn off for VBF and single top processes)
#**********************************************************
   T  = auto_ptj_mjj  ! Automatic setting of ptj and mjj
#**********************************************************
#                                                                    
#**********************************
# BW cutoff (M+/-bwcutoff*Gamma)
#**********************************
  15  = bwcutoff      ! (M+/-bwcutoff*Gamma)
#**********************************************************
# Apply pt/E/eta/dr/mij cuts on decay products or not
# (note that etmiss/ptll/ptheavy/ht/sorted cuts always apply)
#**********************************************************
   T  = cut_decays    ! Cut decay products 
#*************************************************************
# Number of helicities to sum per event (0 = all helicities)
# 0 gives more stable result, but longer run time (needed for
# long decay chains e.g.).
# Use >=2 if most helicities contribute, e.g. pure QCD.
#*************************************************************
   0  = nhel          ! Number of helicities used per event
#*******************                                                 
# Standard Cuts
#*******************                                                 
#                                                                    
#*********************************************************************
# Minimum and maximum pt's (for max, -1 means no cut)                *
#*********************************************************************
 20  = ptj       ! minimum pt for the jets 
  0  = ptb       ! minimum pt for the b 
 10  = pta       ! minimum pt for the photons 
 10  = ptl       ! minimum pt for the charged leptons 
  0  = misset    ! minimum missing Et (sum of neutrino's momenta)
  0  = ptheavy   ! minimum pt for one heavy final state
 1.0 = ptonium   ! minimum pt for the quarkonium states
 -1  = ptjmax    ! maximum pt for the jets
 -1  = ptbmax    ! maximum pt for the b
 -1  = ptamax    ! maximum pt for the photons
 -1  = ptlmax    ! maximum pt for the charged leptons
 -1  = missetmax ! maximum missing Et (sum of neutrino's momenta)
#*********************************************************************
# Minimum and maximum E's (in the center of mass frame)              *
#*********************************************************************
  0  = ej     ! minimum E for the jets 
  0  = eb     ! minimum E for the b 
  0  = ea     ! minimum E for the photons 
  0  = el     ! minimum E for the charged leptons 
 -1   = ejmax ! maximum E for the jets
 -1   = ebmax ! maximum E for the b
 -1   = eamax ! maximum E for the photons
 -1   = elmax ! maximum E for the charged leptons
#*********************************************************************
# Maximum and minimum absolute rapidity (for max, -1 means no cut)   *
#*********************************************************************
   5  = etaj    ! max rap for the jets 
  -1  = etab    ! max rap for the b
 2.5  = etaa    ! max rap for the photons 
 2.5  = etal    ! max rap for the charged leptons 
 0.6  = etaonium ! max rap for the quarkonium states
   0  = etajmin ! min rap for the jets
   0  = etabmin ! min rap for the b
   0  = etaamin ! min rap for the photons
   0  = etalmin ! main rap for the charged leptons
#*********************************************************************
# Minimum and maximum DeltaR distance                                *
#*********************************************************************
 0.4 = drjj    ! min distance between jets 
 0   = drbb    ! min distance between b's 
 0.4 = drll    ! min distance between leptons 
 0.4 = draa    ! min distance between gammas 
 0   = drbj    ! min distance between b and jet 
 0.4 = draj    ! min distance between gamma and jet 
 0.4 = drjl    ! min distance between jet and lepton 
 0   = drab    ! min distance between gamma and b 
 0   = drbl    ! min distance between b and lepton 
 0.4 = dral    ! min distance between gamma and lepton 
 -1  = drjjmax ! max distance between jets
 -1  = drbbmax ! max distance between b's
 -1  = drllmax ! max distance between leptons
 -1  = draamax ! max distance between gammas
 -1  = drbjmax ! max distance between b and jet
 -1  = drajmax ! max distance between gamma and jet
 -1  = drjlmax ! max distance between jet and lepton
 -1  = drabmax ! max distance between gamma and b
 -1  = drblmax ! max distance between b and lepton
 -1  = dralmax ! maxdistance between gamma and lepton
#*********************************************************************
# Minimum and maximum invariant mass for pairs                       *
# WARNING: for four lepton final state mmll cut require to have      *
#          different lepton masses for each flavor!                  *           
#*********************************************************************
 0   = mmjj    ! min invariant mass of a jet pair 
 0   = mmbb    ! min invariant mass of a b pair 
 0   = mmaa    ! min invariant mass of gamma gamma pair
 0   = mmll    ! min invariant mass of l+l- (same flavour) lepton pair
 -1  = mmjjmax ! max invariant mass of a jet pair
 -1  = mmbbmax ! max invariant mass of a b pair
 -1  = mmaamax ! max invariant mass of gamma gamma pair
 -1  = mmllmax ! max invariant mass of l+l- (same flavour) lepton pair
#*********************************************************************
# Minimum and maximum invariant mass for all letpons                 *
#*********************************************************************
 0   = mmnl    ! min invariant mass for all letpons (l+- and vl) 
 -1  = mmnlmax ! max invariant mass for all letpons (l+- and vl) 
#*********************************************************************
# Minimum and maximum pt for 4-momenta sum of leptons                *
#*********************************************************************
 0   = ptllmin  ! Minimum pt for 4-momenta sum of leptons(l and vl)
 -1  = ptllmax  ! Maximum pt for 4-momenta sum of leptons(l and vl)
#*********************************************************************
# Inclusive cuts                                                     *
#*********************************************************************
 0  = xptj ! minimum pt for at least one jet  
 0  = xptb ! minimum pt for at least one b 
 0  = xpta ! minimum pt for at least one photon 
 0  = xptl ! minimum pt for at least one charged lepton 
#*********************************************************************
# Control the pt's of the jets sorted by pt                          *
#*********************************************************************
 0   = ptj1min ! minimum pt for the leading jet in pt
 0   = ptj2min ! minimum pt for the second jet in pt
 0   = ptj3min ! minimum pt for the third jet in pt
 0   = ptj4min ! minimum pt for the fourth jet in pt
 -1  = ptj1max ! maximum pt for the leading jet in pt 
 -1  = ptj2max ! maximum pt for the second jet in pt
 -1  = ptj3max ! maximum pt for the third jet in pt
 -1  = ptj4max ! maximum pt for the fourth jet in pt
 0   = cutuse  ! reject event if fails any (0) / all (1) jet pt cuts
#*********************************************************************
# Control the pt's of leptons sorted by pt                           *
#*********************************************************************
 0   = ptl1min ! minimum pt for the leading lepton in pt
 0   = ptl2min ! minimum pt for the second lepton in pt
 0   = ptl3min ! minimum pt for the third lepton in pt
 0   = ptl4min ! minimum pt for the fourth lepton in pt
 -1  = ptl1max ! maximum pt for the leading lepton in pt 
 -1  = ptl2max ! maximum pt for the second lepton in pt
 -1  = ptl3max ! maximum pt for the third lepton in pt
 -1  = ptl4max ! maximum pt for the fourth lepton in pt
#*********************************************************************
# Control the Ht(k)=Sum of k leading jets                            *
#*********************************************************************
 0   = htjmin ! minimum jet HT=Sum(jet pt)
 -1  = htjmax ! maximum jet HT=Sum(jet pt)
 0   = ihtmin  !inclusive Ht for all partons (including b)
 -1  = ihtmax  !inclusive Ht for all partons (including b)
 0   = ht2min ! minimum Ht for the two leading jets
 0   = ht3min ! minimum Ht for the three leading jets
 0   = ht4min ! minimum Ht for the four leading jets
 -1  = ht2max ! maximum Ht for the two leading jets
 -1  = ht3max ! maximum Ht for the three leading jets
 -1  = ht4max ! maximum Ht for the four leading jets
#***********************************************************************
# Photon-isolation cuts, according to hep-ph/9801442                   *
# When ptgmin=0, all the other parameters are ignored                  *
# When ptgmin>0, pta and draj are not going to be used                 *
#***********************************************************************
   0 = ptgmin ! Min photon transverse momentum
 0.4 = R0gamma ! Radius of isolation code
 1.0 = xn ! n parameter of eq.(3.4) in hep-ph/9801442
 1.0 = epsgamma ! epsilon_gamma parameter of eq.(3.4) in hep-ph/9801442
 .true. = isoEM ! isolate photons from EM energy (photons and leptons)
#*********************************************************************
# WBF cuts                                                           *
#*********************************************************************
 0   = xetamin ! minimum rapidity for two jets in the WBF case  
 0   = deltaeta ! minimum rapidity for two jets in the WBF case 
#*********************************************************************
# KT DURHAM CUT                                                      *
#*********************************************************************
 -1    =  ktdurham        
 0.4  =  dparameter 
#*********************************************************************
# maximal pdg code for quark to be considered as a light jet         *
# (otherwise b cuts are applied)                                     *
#*********************************************************************
 4 = maxjetflavor    ! Maximum jet pdg code
#*********************************************************************
# Jet measure cuts                                                   *
#*********************************************************************
 0   = xqcut   ! minimum kt jet measure between partons
#*********************************************************************
#
#*********************************************************************
# Store info for systematics studies                                 *
# WARNING: If use_syst is T, matched Pythia output is                *
#          meaningful ONLY if plotted taking matchscale              *
#          reweighting into account!                                 *
#*********************************************************************
   F  = use_syst      ! Enable systematics studies
#
#**************************************
# Parameter of the systematics study
#  will be used by SysCalc (if installed)
#**************************************                                  
#
0.5 1 2 = sys_scalefact  # factorization/renormalization scale factor
0.5 1 2 = sys_alpsfact  # \alpha_s emission scale factors
30 50 = sys_matchscale # variation of merging scale
# PDF sets and number of members (0 or none for all members).
CT10nlo.LHgrid = sys_pdf # matching scales
# MSTW2008nlo68cl.LHgrid 1  = sys_pdf
</MGRunCard>
<slha>
######################################################################
## PARAM_CARD AUTOMATICALY GENERATED BY MG5 FOLLOWING UFO MODEL   ####
######################################################################
##                                                                  ##
##  Width set on Auto will be computed following the information    ##
##        present in the decay.py files of the model.               ##
##        See  arXiv:1402.1178 for more details.                    ##
##                                                                  ##
######################################################################

###################################
## INFORMATION FOR CKMBLOCK
###################################
Block ckmblock 
    1 2.277360e-01 # cabi 

###################################
## INFORMATION FOR FRBLOCK
###################################
Block frblock 
    1 1.600000e+00 # gz 

###################################
## INFORMATION FOR MASS
###################################
Block mass 
    1 5.040000e-03 # MD 
    2 2.550000e-03 # MU 
    3 1.010000e-01 # MS 
    4 1.270000e+00 # MC 
    5 4.700000e+00 # MB 
    6 1.720000e+02 # MT 
   11 5.110000e-04 # Me 
   13 1.056600e-01 # MM 
   15 1.777000e+00 # MTA 
   23 9.118760e+01 # MZ 
   25 1.200000e+02 # MH 
  10030 3.700000e+03 # MZph 
  10031 3.000000e+02 # MZpl 
## Dependent parameters, given by model restrictions.
## Those values should be edited following the 
## analytical expression. MG5 ignores those values 
## but they are important for interfacing the output of MG5
## to external program such as Pythia.
  12 0.000000 # ve : 0.0 
  14 0.000000 # vm : 0.0 
  16 0.000000 # vt : 0.0 
  21 0.000000 # g : 0.0 
  22 0.000000 # a : 0.0 
  24 79.824360 # w+ : cmath.sqrt(MZ__exp__2/2. + cmath.sqrt(MZ__exp__4/4. - (aEW*cmath.pi*MZ__exp__2)/(Gf*sqrt__2))) 

###################################
## INFORMATION FOR SMINPUTS
###################################
Block sminputs 
    1 1.279000e+02 # aEWM1 
    2 1.166370e-05 # Gf 
    3 1.184000e-01 # aS 

###################################
## INFORMATION FOR YUKAWA
###################################
Block yukawa 
    1 5.040000e-03 # ymdo 
    2 2.550000e-03 # ymup 
    3 1.010000e-01 # yms 
    4 1.270000e+00 # ymc 
    5 4.700000e+00 # ymb 
    6 1.720000e+02 # ymt 
   11 5.110000e-04 # yme 
   13 1.056600e-01 # ymm 
   15 1.777000e+00 # ymtau 

###################################
## INFORMATION FOR DECAY
###################################
DECAY   6 1.508336e+00 # WT 
DECAY  23 2.495200e+00 # WZ 
DECAY  24 2.085000e+00 # WW 
DECAY  25 5.753088e-03 # WH 
## Dependent parameters, given by model restrictions.
## Those values should be edited following the 
## analytical expression. MG5 ignores those values 
## but they are important for interfacing the output of MG5
## to external program such as Pythia.
DECAY  1 0.000000 # d : 0.0 
DECAY  2 0.000000 # u : 0.0 
DECAY  3 0.000000 # s : 0.0 
DECAY  4 0.000000 # c : 0.0 
DECAY  5 0.000000 # b : 0.0 
DECAY  11 0.000000 # e- : 0.0 
DECAY  12 0.000000 # ve : 0.0 
DECAY  13 0.000000 # mu- : 0.0 
DECAY  14 0.000000 # vm : 0.0 
DECAY  15 0.000000 # ta- : 0.0 
DECAY  16 0.000000 # vt : 0.0 
DECAY  21 0.000000 # g : 0.0 
DECAY  22 0.000000 # a : 0.0 
DECAY  10030 0.308725 # zph : (gz__exp__2*MZph*(5 + cmath.sqrt(1 - (4*MT__exp__2)/MZph__exp__2)))/(144.*cmath.pi) 
DECAY  10031 0.132629 # zpl : (5*gz__exp__2*MZpl)/(144.*cmath.pi) 
#===========================================================
# QUANTUM NUMBERS OF NEW STATE(S) (NON SM PDG CODE)
#===========================================================

Block QNUMBERS 10030  # zph 
        1 0  # 3 times electric charge
        2 3  # number of spin states (2S+1)
        3 1  # colour rep (1: singlet, 3: triplet, 8: octet)
        4 0  # Particle/Antiparticle distinction (0=own anti)
Block QNUMBERS 10031  # zpl 
        1 0  # 3 times electric charge
        2 3  # number of spin states (2S+1)
        3 1  # colour rep (1: singlet, 3: triplet, 8: octet)
        4 0  # Particle/Antiparticle distinction (0=own anti)
</slha>
## END BANNER##
<MGGenerationInfo>
#  Number of Events        :         4317
#  Integrated weight (pb)  :  0.45438E-03
#  Max wgt                 :  0.27566E-06
#  Average wgt             :  0.10525E-06
</MGGenerationInfo>
</header>
<init>
     2212     2212  0.40000000000E+04  0.40000000000E+04 0 0  247000  247000 2   1
  0.45446093426E-03  0.26228671024E-05  0.27566140000E-06   0
</init>
<event>
 5   0  0.1724503E-06  0.1875471E+04  0.7818609E-02  0.8667163E-01
        2   -1    0    0  501    0  0.00000000000E+00  0.00000000000E+00  0.11021319533E+04  0.11021319533E+04  0.25500000920E-02 0. -1.
       -2   -1    0    0    0  501  0.00000000000E+00  0.00000000000E+00 -0.79786117793E+03  0.79786117793E+03  0.25500000920E-02 0.  1.
    10030    2    1    2    0    0  0.00000000000E+00  0.00000000000E+00  0.30427077536E+03  0.18999931312E+04  0.18754714591E+04 0.  0.
        1    1    3    3  502    0  0.38065996760E+03  0.41907103178E+03 -0.60518522808E+03  0.82871690035E+03  0.50400001928E-02 0.  1.
       -1    1    3    3    0  502 -0.38065996760E+03 -0.41907103178E+03  0.90945600344E+03  0.10712762309E+04  0.50400001928E-02 0. -1.
</event>
<event>
 5   0  0.6287345E-07  0.3659591E+04  0.7818609E-02  0.8076976E-01
       -1   -1    0    0    0  501  0.00000000000E+00  0.00000000000E+00  0.10432777646E+04  0.10432777646E+04  0.50400001928E-02 0.  1.
        1   -1    0    0  501    0  0.00000000000E+00  0.00000000000E+00 -0.32092615103E+04  0.32092615103E+04  0.50400001928E-02 0. -1.
    10030    2    1    2    0    0  0.00000000000E+00  0.00000000000E+00 -0.21659837457E+04  0.42525392749E+04  0.36595907829E+04 0.  0.
        5    1    3    3  502    0 -0.19574445547E+03 -0.15436432417E+04 -0.22017873292E+04  0.26961157027E+04  0.46999998093E+01 0. -1.
       -5    1    3    3    0  502  0.19574445547E+03  0.15436432417E+04  0.35803583469E+02  0.15564235722E+04  0.46999998093E+01 0.  1.
</event>
<event>
 5   0  0.1184684E-06  0.3522107E+04  0.7818609E-02  0.8108571E-01
        2   -1    0    0  501    0  0.00000000000E+00  0.00000000000E+00  0.20188629838E+04  0.20188629838E+04  0.25500000920E-02 0. -1.
       -2   -1    0    0    0  501  0.00000000000E+00  0.00000000000E+00 -0.15361665873E+04  0.15361665873E+04  0.25500000920E-02 0.  1.
    10030    2    1    2    0    0  0.00000000000E+00  0.00000000000E+00  0.48269639644E+03  0.35550295711E+04  0.35221072443E+04 0.  0.
        4    1    3    3  502    0  0.37881355290E+03  0.15260700622E+04  0.10418049967E+04  0.18861995670E+04  0.12699999809E+01 0. -1.
       -4    1    3    3    0  502 -0.37881355290E+03 -0.15260700622E+04 -0.55910860024E+03  0.16688300041E+04  0.12699999809E+01 0.  1.
</event>
<event>
 5   0  0.1685793E-06  0.3695609E+04  0.7818609E-02  0.8068936E-01
        2   -1    0    0  501    0  0.00000000000E+00  0.00000000000E+00  0.31682491271E+04  0.31682491271E+04  0.25500000920E-02 0. -1.
       -2   -1    0    0    0  501  0.00000000000E+00  0.00000000000E+00 -0.10776869972E+04  0.10776869972E+04  0.25500000920E-02 0.  1.
    10030    2    1    2    0    0  0.00000000000E+00  0.00000000000E+00  0.20905621299E+04  0.42459361243E+04  0.36956086850E+04 0.  0.
        3    1    3    3  502    0  0.12502220807E+04 -0.67687334880E+03 -0.31081119634E+03  0.14552719303E+04  0.10100000352E+00 0.  1.
       -3    1    3    3    0  502 -0.12502220807E+04  0.67687334880E+03  0.24013733263E+04  0.27906641940E+04  0.10100000352E+00 0. -1.
</event>
<event>
 5   0  0.1724503E-06  0.2989162E+04  0.7818609E-02  0.8246833E-01
       -2   -1    0    0    0  501  0.00000000000E+00  0.00000000000E+00  0.13629325112E+04  0.13629325112E+04  0.25500000920E-02 0. -1.
        2   -1    0    0  501    0  0.00000000000E+00  0.00000000000E+00 -0.16389455766E+04  0.16389455766E+04  0.25500000920E-02 0.  1.
    10030    2    1    2    0    0  0.00000000000E+00  0.00000000000E+00 -0.27601306544E+03  0.30018780878E+04  0.29891618962E+04 0.  0.
        1    1    3    3  502    0  0.19149302288E+02 -0.14894038847E+04 -0.14677002931E+02  0.14895992890E+04  0.50400001928E-02 0. -1.
       -1    1    3    3    0  502 -0.19149302288E+02  0.14894038847E+04 -0.26133606251E+03  0.15122787987E+04  0.50400001928E-02 0.  1.
</event>
<event>
 5   0  0.2398859E-06  0.1925021E+04  0.7818609E-02  0.8642501E-01
        2   -1    0    0  501    0  0.00000000000E+00  0.00000000000E+00  0.10338079143E+04  0.10338079143E+04  0.25500000920E-02 0. -1.
       -2   -1    0    0    0  501  0.00000000000E+00  0.00000000000E+00 -0.89613006387E+03  0.89613006387E+03  0.25500000920E-02 0.  1.
    10030    2    1    2    0    0  0.00000000000E+00  0.00000000000E+00  0.13767785040E+03  0.19299379781E+04  0.19250208853E+04 0.  0.
        1    1    3    3  502    0  0.34858224895E+03  0.89608408767E+03  0.11311138470E+03  0.96812729630E+03  0.50400001928E-02 0.  1.
       -1    1    3    3    0  502 -0.34858224895E+03 -0.89608408767E+03  0.24566465695E+02  0.96181068185E+03  0.50400001928E-02 0. -1.
</event>
<event>
 5   0  0.5679750E-07  0.2131417E+04  0.7818609E-02  0.8547529E-01
       -1   -1    0    0    0  501  0.00000000000E+00  0.00000000000E+00  0.98795813467E+03  0.98795813468E+03  0.50400001928E-02 0.  1.
        1   -1    0    0  501    0  0.00000000000E+00  0.00000000000E+00 -0.11495780849E+04  0.11495780849E+04  0.50400001928E-02 0. -1.
    10030    2    1    2    0    0  0.00000000000E+00  0.00000000000E+00 -0.16161995021E+03  0.21375362196E+04  0.21314173879E+04 0.  0.
        4    1    3    3  502    0 -0.70806466650E+03  0.33215321181E+03 -0.80680258899E+03  0.11236606955E+04  0.12699999809E+01 0. -1.
       -4    1    3    3    0  502  0.70806466650E+03 -0.33215321181E+03  0.64518263878E+03  0.10138755241E+04  0.12699999809E+01 0.  1.
</event>
<event>
 5   0  0.6261598E-07  0.3709870E+04  0.7818609E-02  0.8065778E-01
        1   -1    0    0  501    0  0.00000000000E+00  0.00000000000E+00  0.25508171244E+04  0.25508171244E+04  0.50400001928E-02 0. -1.
       -1   -1    0    0    0  501  0.00000000000E+00  0.00000000000E+00 -0.13488949189E+04  0.13488949189E+04  0.50400001928E-02 0.  1.
    10030    2    1    2    0    0  0.00000000000E+00  0.00000000000E+00  0.12019222055E+04  0.38997120434E+04  0.37098702178E+04 0.  0.
        1    1    3    3  502    0  0.73317859500E+02 -0.18323960223E+04  0.30788654310E+03  0.18595281161E+04  0.50400001928E-02 0.  1.
       -1    1    3    3    0  502 -0.73317859500E+02  0.18323960223E+04  0.89403566243E+03  0.20401839272E+04  0.50400001928E-02 0. -1.
</event>
<event>
 5   0  0.1184684E-06  0.3833585E+04  0.7818609E-02  0.8038986E-01
        2   -1    0    0  501    0  0.00000000000E+00  0.00000000000E+00  0.21288168095E+04  0.21288168095E+04  0.25500000920E-02 0. -1.
       -2   -1    0    0    0  501  0.00000000000E+00  0.00000000000E+00 -0.17258852344E+04  0.17258852344E+04  0.25500000920E-02 0.  1.
    10030    2    1    2    0    0  0.00000000000E+00  0.00000000000E+00  0.40293157506E+03  0.38547020439E+04  0.38335850053E+04 0.  0.
        4    1    3    3  502    0 -0.17322176879E+04 -0.70208778837E+03 -0.22582975502E+03  0.18826858665E+04  0.12699999809E+01 0.  1.
       -4    1    3    3    0  502  0.17322176879E+04  0.70208778837E+03  0.62876133008E+03  0.19720161774E+04  0.12699999809E+01 0. -1.
</event>
<event>
 5   0  0.1151180E-06  0.3660674E+04  0.7818609E-02  0.8076733E-01
        2   -1    0    0  501    0  0.00000000000E+00  0.00000000000E+00  0.11130840878E+04  0.11130840878E+04  0.25500000920E-02 0. -1.
       -2   -1    0    0    0  501  0.00000000000E+00  0.00000000000E+00 -0.30097755309E+04  0.30097755309E+04  0.25500000920E-02 0.  1.
    10030    2    1    2    0    0  0.00000000000E+00  0.00000000000E+00 -0.18966914430E+04  0.41228596187E+04  0.36606738458E+04 0.  0.
        5    1    3    3  502    0  0.16461332848E+04  0.73843966638E+03 -0.12955969514E+04  0.22211802004E+04  0.46999998093E+01 0.  1.
       -5    1    3    3    0  502 -0.16461332848E+04 -0.73843966638E+03 -0.60109449162E+03  0.19016794183E+04  0.46999998093E+01 0. -1.
</event>
<event>
 5   0  0.1724503E-06  0.3704665E+04  0.7818609E-02  0.8066929E-01
        2   -1    0    0  501    0  0.00000000000E+00  0.00000000000E+00  0.28457776136E+04  0.28457776136E+04  0.25500000920E-02 0. -1.
       -2   -1    0    0    0  501  0.00000000000E+00  0.00000000000E+00 -0.12056934873E+04  0.12056934873E+04  0.25500000920E-02 0.  1.
    10030    2    1    2    0    0  0.00000000000E+00  0.00000000000E+00  0.16400841263E+04  0.40514711010E+04  0.37046649161E+04 0.  0.
        1    1    3    3  502    0 -0.76147672560E+02  0.12236404126E+04 -0.69848301575E+03  0.14110183736E+04  0.50400001928E-02 0.  1.
       -1    1    3    3    0  502  0.76147672560E+02 -0.12236404126E+04  0.23385671420E+04  0.26404527273E+04  0.50400001928E-02 0. -1.
</event>
<event>
 5   0  0.1151180E-06  0.2438246E+04  0.7818609E-02  0.8425322E-01
        2   -1    0    0  501    0  0.00000000000E+00  0.00000000000E+00  0.11909482758E+04  0.11909482758E+04  0.25500000920E-02 0.  1.
       -2   -1    0    0    0  501  0.00000000000E+00  0.00000000000E+00 -0.12479640831E+04  0.12479640831E+04  0.25500000920E-02 0. -1.
    10030    2    1    2    0    0  0.00000000000E+00  0.00000000000E+00 -0.57015807252E+02  0.24389123589E+04  0.24382458227E+04 0.  0.
        5    1    3    3  502    0  0.86194912532E+03  0.85504352721E+03  0.81898240563E+02  0.12168751538E+04  0.46999998093E+01 0.  1.
       -5    1    3    3    0  502 -0.86194912532E+03 -0.85504352721E+03 -0.13891404781E+03  0.12220372051E+04  0.46999998093E+01 0. -1.
</event>
<event>
 5   0  0.1151180E-06  0.3685657E+04  0.7818609E-02  0.8071148E-01
       -2   -1    0    0    0  501  0.00000000000E+00  0.00000000000E+00  0.16807380214E+04  0.16807380214E+04  0.25500000920E-02 0. -1.
        2   -1    0    0  501    0  0.00000000000E+00  0.00000000000E+00 -0.20205506684E+04  0.20205506684E+04  0.25500000920E-02 0.  1.
    10030    2    1    2    0    0  0.00000000000E+00  0.00000000000E+00 -0.33981264696E+03  0.37012886898E+04  0.36856567027E+04 0.  0.
        5    1    3    3  502    0 -0.13813801166E+04  0.12020982640E+04  0.37714292699E+02  0.18315828458E+04  0.46999998093E+01 0. -1.
       -5    1    3    3    0  502  0.13813801166E+04 -0.12020982640E+04 -0.37752693965E+03  0.18697058440E+04  0.46999998093E+01 0.  1.
</event>
<event>
 5   0  0.6186440E-07  0.3723406E+04  0.7818609E-02  0.8062794E-01
        1   -1    0    0  501    0  0.00000000000E+00  0.00000000000E+00  0.20094634365E+04  0.20094634365E+04  0.50400001928E-02 0. -1.
       -1   -1    0    0    0  501  0.00000000000E+00  0.00000000000E+00 -0.17248080788E+04  0.17248080789E+04  0.50400001928E-02 0.  1.
    10030    2    1    2    0    0  0.00000000000E+00  0.00000000000E+00  0.28465535762E+03  0.37342715153E+04  0.37234063809E+04 0.  0.
        3    1    3    3  502    0 -0.15358186898E+04 -0.15083688653E+03  0.11867347612E+04  0.19467486274E+04  0.10100000352E+00 0. -1.
       -3    1    3    3    0  502  0.15358186898E+04  0.15083688653E+03 -0.90207940361E+03  0.17875228880E+04  0.10100000352E+00 0.  1.
</event>
<event>
 5   0  0.6287345E-07  0.3686208E+04  0.7818609E-02  0.8071025E-01
       -1   -1    0    0    0  501  0.00000000000E+00  0.00000000000E+00  0.20649767351E+04  0.20649767351E+04  0.50400001928E-02 0.  1.
        1   -1    0    0  501    0  0.00000000000E+00  0.00000000000E+00 -0.16450707233E+04  0.16450707233E+04  0.50400001928E-02 0. -1.
    10030    2    1    2    0    0  0.00000000000E+00  0.00000000000E+00  0.41990601184E+03  0.37100474584E+04  0.36862082259E+04 0.  0.
        5    1    3    3  502    0  0.16660039573E+04  0.78762309237E+03  0.17670362484E+03  0.18512605388E+04  0.46999998093E+01 0.  1.
       -5    1    3    3    0  502 -0.16660039573E+04 -0.78762309237E+03  0.24320238701E+03  0.18587869196E+04  0.46999998093E+01 0. -1.
</event>
<event>
 5   0  0.6287345E-07  0.3651485E+04  0.7818609E-02  0.8078799E-01
        1   -1    0    0  501    0  0.00000000000E+00  0.00000000000E+00  0.20001759433E+04  0.20001759433E+04  0.50400001928E-02 0. -1.
       -1   -1    0    0    0  501  0.00000000000E+00  0.00000000000E+00 -0.16665213315E+04  0.16665213315E+04  0.50400001928E-02 0.  1.
    10030    2    1    2    0    0  0.00000000000E+00  0.00000000000E+00  0.33365461175E+03  0.36666972748E+04  0.36514851095E+04 0.  0.
        5    1    3    3  502    0  0.18189039480E+04  0.15494931366E+03  0.19683363480E+03  0.18360790919E+04  0.46999998093E+01 0. -1.
       -5    1    3    3    0  502 -0.18189039480E+04 -0.15494931366E+03  0.13682097695E+03  0.18306181829E+04  0.46999998093E+01 0.  1.
</event>
<event>
 5   0  0.5679750E-07  0.3729283E+04  0.7818609E-02  0.8061503E-01
       -1   -1    0    0    0  501  0.00000000000E+00  0.00000000000E+00  0.18623499039E+04  0.18623499039E+04  0.50400001928E-02 0. -1.
        1   -1    0    0  501    0  0.00000000000E+00  0.00000000000E+00 -0.18669358044E+04  0.18669358044E+04  0.50400001928E-02 0.  1.
    10030    2    1    2    0    0  0.00000000000E+00  0.00000000000E+00 -0.45859004989E+01  0.37292857084E+04  0.37292828887E+04 0.  0.
        4    1    3    3  502    0 -0.10972653936E+04  0.85071226227E+03 -0.12469558559E+04  0.18661734155E+04  0.12699999809E+01 0.  1.
       -4    1    3    3    0  502  0.10972653936E+04 -0.85071226227E+03  0.12423699554E+04  0.18631122929E+04  0.12699999809E+01 0. -1.
</event>
<event>
 5   0  0.6261598E-07  0.4037931E+04  0.7818609E-02  0.7996938E-01
       -1   -1    0    0    0  501  0.00000000000E+00  0.00000000000E+00  0.17431129860E+04  0.17431129860E+04  0.50400001928E-02 0.  1.
        1   -1    0    0  501    0  0.00000000000E+00  0.00000000000E+00 -0.23384727703E+04  0.23384727703E+04  0.50400001928E-02 0. -1.
    10030    2    1    2    0    0  0.00000000000E+00  0.00000000000E+00 -0.59535978433E+03  0.40815857562E+04  0.40379312789E+04 0.  0.
        1    1    3    3  502    0 -0.42385334904E+03 -0.12268717787E+04  0.12654394611E+04  0.18127887502E+04  0.50400001928E-02 0.  1.
       -1    1    3    3    0  502  0.42385334904E+03  0.12268717787E+04 -0.18607992455E+04  0.22687970061E+04  0.50400001928E-02 0. -1.
</event>
<event>
 5   0  0.6261598E-07  0.2757252E+04  0.7818609E-02  0.8316664E-01
        1   -1    0    0  501    0  0.00000000000E+00  0.00000000000E+00  0.21134206801E+04  0.21134206801E+04  0.50400001928E-02 0.  1.
       -1   -1    0    0    0  501  0.00000000000E+00  0.00000000000E+00 -0.89930481187E+03  0.89930481188E+03  0.50400001928E-02 0. -1.
    10030    2    1    2    0    0  0.00000000000E+00  0.00000000000E+00  0.12141158682E+04  0.30127254920E+04  0.27572518109E+04 0.  0.
        1    1    3    3  502    0  0.86527030667E+03  0.78650641928E+03  0.14050137276E+04  0.18279356187E+04  0.50400001928E-02 0.  1.
       -1    1    3    3    0  502 -0.86527030667E+03 -0.78650641928E+03 -0.19089785940E+03  0.11847898733E+04  0.50400001928E-02 0. -1.
</event>
<event>
 5   0  0.1184684E-06  0.2742461E+04  0.7818609E-02  0.8321358E-01
        2   -1    0    0  501    0  0.00000000000E+00  0.00000000000E+00  0.21148351405E+04  0.21148351405E+04  0.25500000920E-02 0. -1.
       -2   -1    0    0    0  501  0.00000000000E+00  0.00000000000E+00 -0.88908713961E+03  0.88908713961E+03  0.25500000920E-02 0.  1.
    10030    2    1    2    0    0  0.00000000000E+00  0.00000000000E+00  0.12257480009E+04  0.30039222801E+04  0.27424607387E+04 0.  0.
        4    1    3    3  502    0 -0.37819708841E+03  0.22289818572E+03 -0.81003515418E+03  0.92134423686E+03  0.12699999809E+01 0.  1.
       -4    1    3    3    0  502  0.37819708841E+03 -0.22289818572E+03  0.20357831550E+04  0.20825780432E+04  0.12699999809E+01 0. -1.
</event>
<event>
 5   0  0.5875011E-07  0.2316002E+04  0.7818609E-02  0.8471638E-01
        1   -1    0    0  501    0  0.00000000000E+00  0.00000000000E+00  0.98985311741E+03  0.98985311743E+03  0.50400001928E-02 0. -1.
       -1   -1    0    0    0  501  0.00000000000E+00  0.00000000000E+00 -0.13547129771E+04  0.13547129771E+04  0.50400001928E-02 0.  1.
    10030    2    1    2    0    0  0.00000000000E+00  0.00000000000E+00 -0.36485985972E+03  0.23445660946E+04  0.23160024729E+04 0.  0.
        2    1    3    3  502    0 -0.11294691812E+04  0.77592899009E+02  0.63976149479E+02  0.11339374925E+04  0.25500000920E-02 0.  1.
       -2    1    3    3    0  502  0.11294691812E+04 -0.77592899009E+02 -0.42883600920E+03  0.12106286020E+04  0.25500000920E-02 0. -1.
</event>
<event>
 5   0  0.5679750E-07  0.2270355E+04  0.7818609E-02  0.8489702E-01
       -1   -1    0    0    0  501  0.00000000000E+00  0.00000000000E+00  0.13069086739E+04  0.13069086739E+04  0.50400001928E-02 0.  1.
        1   -1    0    0  501    0  0.00000000000E+00  0.00000000000E+00 -0.98601185347E+03  0.98601185349E+03  0.50400001928E-02 0. -1.
    10030    2    1    2    0    0  0.00000000000E+00  0.00000000000E+00  0.32089682041E+03  0.22929205274E+04  0.22703545484E+04 0.  0.
        4    1    3    3  502    0  0.18420477603E+03  0.27137954382E+03  0.12580102894E+04  0.13000652897E+04  0.12699999809E+01 0.  1.
       -4    1    3    3    0  502 -0.18420477603E+03 -0.27137954382E+03 -0.93711346900E+03  0.99285523768E+03  0.12699999809E+01 0. -1.
</event>
<event>
 5   0  0.1680194E-06  0.2610449E+04  0.7818609E-02  0.8364660E-01
        2   -1    0    0  501    0  0.00000000000E+00  0.00000000000E+00  0.15862149547E+04  0.15862149547E+04  0.25500000920E-02 0.  1.
       -2   -1    0    0    0  501  0.00000000000E+00  0.00000000000E+00 -0.10740105328E+04  0.10740105328E+04  0.25500000920E-02 0. -1.
    10030    2    1    2    0    0  0.00000000000E+00  0.00000000000E+00  0.51220442192E+03  0.26602254875E+04  0.26104494391E+04 0.  0.
        2    1    3    3  502    0 -0.26543756857E+03 -0.12650698702E+04  0.71674299932E+02  0.12946026744E+04  0.25500000920E-02 0. -1.
       -2    1    3    3    0  502  0.26543756857E+03  0.12650698702E+04  0.44053012199E+03  0.13656228131E+04  0.25500000920E-02 0.  1.
</event>
<event>
 5   0  0.6261598E-07  0.2790546E+04  0.7818609E-02  0.8306209E-01
       -1   -1    0    0    0  501  0.00000000000E+00  0.00000000000E+00  0.13169045278E+04  0.13169045278E+04  0.50400001928E-02 0. -1.
        1   -1    0    0  501    0  0.00000000000E+00  0.00000000000E+00 -0.14783051467E+04  0.14783051467E+04  0.50400001928E-02 0.  1.
    10030    2    1    2    0    0  0.00000000000E+00  0.00000000000E+00 -0.16140061891E+03  0.27952096746E+04  0.27905459977E+04 0.  0.
        1    1    3    3  502    0  0.56239360168E+02 -0.10266308501E+04 -0.10254908198E+04  0.14521588031E+04  0.50400001928E-02 0.  1.
       -1    1    3    3    0  502 -0.56239360168E+02  0.10266308501E+04  0.86409020088E+03  0.13430508715E+04  0.50400001928E-02 0. -1.
</event>
<event>
 5   0  0.6287345E-07  0.3725352E+04  0.7818609E-02  0.8062367E-01
        1   -1    0    0  501    0  0.00000000000E+00  0.00000000000E+00  0.20214707492E+04  0.20214707493E+04  0.50400001928E-02 0. -1.
       -1   -1    0    0    0  501  0.00000000000E+00  0.00000000000E+00 -0.17163550350E+04  0.17163550350E+04  0.50400001928E-02 0.  1.
    10030    2    1    2    0    0  0.00000000000E+00  0.00000000000E+00  0.30511571424E+03  0.37378257843E+04  0.37253517947E+04 0.  0.
        5    1    3    3  502    0  0.18174873801E+04 -0.10297877822E+03 -0.24331923311E+03  0.18365977635E+04  0.46999998093E+01 0.  1.
       -5    1    3    3    0  502 -0.18174873801E+04  0.10297877822E+03  0.54843494735E+03  0.19012280208E+04  0.46999998093E+01 0. -1.
</event>
<event>
 5   0  0.1724503E-06  0.3694299E+04  0.7818609E-02  0.8069226E-01
        2   -1    0    0  501    0  0.00000000000E+00  0.00000000000E+00  0.15610505057E+04  0.15610505057E+04  0.25500000920E-02 0. -1.
       -2   -1    0    0    0  501  0.00000000000E+00  0.00000000000E+00 -0.21856827214E+04  0.21856827214E+04  0.25500000920E-02 0.  1.
    10030    2    1    2    0    0  0.00000000000E+00  0.00000000000E+00 -0.62463221569E+03  0.37467332271E+04  0.36942989146E+04 0.  0.
        1    1    3    3  502    0 -0.71245665382E+03 -0.74888130648E+03 -0.18649077426E+04  0.21322050987E+04  0.50400001928E-02 0.  1.
       -1    1    3    3    0  502  0.71245665382E+03  0.74888130648E+03  0.12402755269E+04  0.16145281284E+04  0.50400001928E-02 0. -1.
</event>
<event>
 5   0  0.5679750E-07  0.3155991E+04  0.7818609E-02  0.8200538E-01
        1   -1    0    0  501    0  0.00000000000E+00  0.00000000000E+00  0.23478184937E+04  0.23478184937E+04  0.50400001928E-02 0. -1.
       -1   -1    0    0    0  501  0.00000000000E+00  0.00000000000E+00 -0.10605884637E+04  0.10605884637E+04  0.50400001928E-02 0.  1.
    10030    2    1    2    0    0  0.00000000000E+00  0.00000000000E+00  0.12872300300E+04  0.34084069575E+04  0.31559906270E+04 0.  0.
        4    1    3    3  502    0  0.22537560283E+03 -0.14205759132E+04  0.13445524523E+04  0.19689217855E+04  0.12699999809E+01 0. -1.
       -4    1    3    3    0  502 -0.22537560283E+03  0.14205759132E+04 -0.57322422245E+02  0.14394851720E+04  0.12699999809E+01 0.  1.
</event>
<event>
 5   0  0.1680194E-06  0.3703563E+04  0.7818609E-02  0.8067173E-01
       -2   -1    0    0    0  501  0.00000000000E+00  0.00000000000E+00  0.11453322970E+04  0.11453322970E+04  0.25500000920E-02 0.  1.
        2   -1    0    0  501    0  0.00000000000E+00  0.00000000000E+00 -0.29939744056E+04  0.29939744056E+04  0.25500000920E-02 0. -1.
    10030    2    1    2    0    0  0.00000000000E+00  0.00000000000E+00 -0.18486421086E+04  0.41393067026E+04  0.37035634641E+04 0.  0.
        2    1    3    3  502    0  0.56686848588E+03  0.10334437882E+04 -0.25205539187E+04  0.27825416440E+04  0.25500000920E-02 0. -1.
       -2    1    3    3    0  502 -0.56686848588E+03 -0.10334437882E+04  0.67191181012E+03  0.13567650586E+04  0.25500000920E-02 0.  1.
</event>
<event>
 5   0  0.1151180E-06  0.3702317E+04  0.7818609E-02  0.8067448E-01
       -2   -1    0    0    0  501  0.00000000000E+00  0.00000000000E+00  0.20528098331E+04  0.20528098331E+04  0.25500000920E-02 0.  1.
        2   -1    0    0  501    0  0.00000000000E+00  0.00000000000E+00 -0.16693159761E+04  0.16693159761E+04  0.25500000920E-02 0. -1.
    10030    2    1    2    0    0  0.00000000000E+00  0.00000000000E+00  0.38349385702E+03  0.37221258092E+04  0.37023172475E+04 0.  0.
        5    1    3    3  502    0 -0.49898911719E+03 -0.33313075396E+03  0.19523446679E+04  0.20424588198E+04  0.46999998093E+01 0.  1.
       -5    1    3    3    0  502  0.49898911719E+03  0.33313075396E+03 -0.15688508109E+04  0.16796669894E+04  0.46999998093E+01 0. -1.
</event>
<event>
 5   0  0.1724503E-06  0.3012569E+04  0.7818609E-02  0.8240151E-01
       -2   -1    0    0    0  501  0.00000000000E+00  0.00000000000E+00  0.17634641782E+04  0.17634641782E+04  0.25500000920E-02 0. -1.
        2   -1    0    0  501    0  0.00000000000E+00  0.00000000000E+00 -0.12866114536E+04  0.12866114536E+04  0.25500000920E-02 0.  1.
    10030    2    1    2    0    0  0.00000000000E+00  0.00000000000E+00  0.47685272463E+03  0.30500756318E+04  0.30125691425E+04 0.  0.
        1    1    3    3  502    0 -0.13396155768E+04 -0.53509181922E+02 -0.45675168535E+03  0.14163527909E+04  0.50400001928E-02 0.  1.
       -1    1    3    3    0  502  0.13396155768E+04  0.53509181922E+02  0.93360440999E+03  0.16337228408E+04  0.50400001928E-02 0. -1.
</event>
<event>
 5   0  0.1685793E-06  0.3584946E+04  0.7818609E-02  0.8093949E-01
       -2   -1    0    0    0  501  0.00000000000E+00  0.00000000000E+00  0.17672920575E+04  0.17672920575E+04  0.25500000920E-02 0.  1.
        2   -1    0    0  501    0  0.00000000000E+00  0.00000000000E+00 -0.18180125000E+04  0.18180125000E+04  0.25500000920E-02 0. -1.
    10030    2    1    2    0    0  0.00000000000E+00  0.00000000000E+00 -0.50720442511E+02  0.35853045575E+04  0.35849457746E+04 0.  0.
        3    1    3    3  502    0 -0.24159310244E+03 -0.13686294889E+04  0.11067624066E+04  0.17766364118E+04  0.10100000352E+00 0.  1.
       -3    1    3    3    0  502  0.24159310244E+03  0.13686294889E+04 -0.11574828491E+04  0.18086681457E+04  0.10100000352E+00 0. -1.
</event>
<event>
 5   0  0.1151180E-06  0.3251432E+04  0.7818609E-02  0.8175365E-01
       -2   -1    0    0    0  501  0.00000000000E+00  0.00000000000E+00  0.14707734836E+04  0.14707734836E+04  0.25500000920E-02 0. -1.
        2   -1    0    0  501    0  0.00000000000E+00  0.00000000000E+00 -0.17969818265E+04  0.17969818265E+04  0.25500000920E-02 0.  1.
    10030    2    1    2    0    0  0.00000000000E+00  0.00000000000E+00 -0.32620834287E+03  0.32677553101E+04  0.32514324356E+04 0.  0.
        5    1    3    3  502    0  0.52812520859E+02  0.94702728936E+03  0.11638579584E+04  0.15014117644E+04  0.46999998093E+01 0. -1.
       -5    1    3    3    0  502 -0.52812520859E+02 -0.94702728936E+03 -0.14900663012E+04  0.17663435456E+04  0.46999998093E+01 0.  1.
</event>
<event>
 5   0  0.1724503E-06  0.3381399E+04  0.7818609E-02  0.8142487E-01
        2   -1    0    0  501    0  0.00000000000E+00  0.00000000000E+00  0.22953941836E+04  0.22953941836E+04  0.25500000920E-02 0.  1.
       -2   -1    0    0    0  501  0.00000000000E+00  0.00000000000E+00 -0.12453047991E+04  0.12453047991E+04  0.25500000920E-02 0. -1.
    10030    2    1    2    0    0  0.00000000000E+00  0.00000000000E+00  0.10500893845E+04  0.35406989827E+04  0.33813993510E+04 0.  0.
        1    1    3    3  502    0  0.34901959907E+03  0.15819268910E+04  0.18349173660E+02  0.16200753258E+04  0.50400001928E-02 0.  1.
       -1    1    3    3    0  502 -0.34901959907E+03 -0.15819268910E+04  0.10317402108E+04  0.19206236569E+04  0.50400001928E-02 0. -1.
</event>
<event>
 5   0  0.1724503E-06  0.3190054E+04  0.7818609E-02  0.8191449E-01
       -2   -1    0    0    0  501  0.00000000000E+00  0.00000000000E+00  0.25538556203E+04  0.25538556203E+04  0.25500000920E-02 0. -1.
        2   -1    0    0  501    0  0.00000000000E+00  0.00000000000E+00 -0.99618409543E+03  0.99618409543E+03  0.25500000920E-02 0.  1.
    10030    2    1    2    0    0  0.00000000000E+00  0.00000000000E+00  0.15576715248E+04  0.35500397157E+04  0.31900535111E+04 0.  0.
        1    1    3    3  502    0 -0.46335370556E+03  0.81569015166E+03  0.22143918365E+04  0.24049071261E+04  0.50400001928E-02 0. -1.
       -1    1    3    3    0  502  0.46335370556E+03 -0.81569015166E+03 -0.65672031161E+03  0.11451325896E+04  0.50400001928E-02 0.  1.
</event>
<event>
 5   0  0.6261598E-07  0.2157440E+04  0.7818609E-02  0.8536354E-01
        1   -1    0    0  501    0  0.00000000000E+00  0.00000000000E+00  0.18587415524E+04  0.18587415524E+04  0.50400001928E-02 0. -1.
       -1   -1    0    0    0  501  0.00000000000E+00  0.00000000000E+00 -0.62603456251E+03  0.62603456253E+03  0.50400001928E-02 0.  1.
    10030    2    1    2    0    0  0.00000000000E+00  0.00000000000E+00  0.12327069899E+04  0.24847761149E+04  0.21574396442E+04 0.  0.
        1    1    3    3  502    0  0.64401703104E+03  0.55466339642E+03  0.13813856092E+04  0.16219234325E+04  0.50400001928E-02 0. -1.
       -1    1    3    3    0  502 -0.64401703104E+03 -0.55466339642E+03 -0.14867861936E+03  0.86285268237E+03  0.50400001928E-02 0.  1.
</event>
<event>
 5   0  0.1685793E-06  0.3706857E+04  0.7818609E-02  0.8066444E-01
       -2   -1    0    0    0  501  0.00000000000E+00  0.00000000000E+00  0.14644982435E+04  0.14644982435E+04  0.25500000920E-02 0. -1.
        2   -1    0    0  501    0  0.00000000000E+00  0.00000000000E+00 -0.23456480769E+04  0.23456480769E+04  0.25500000920E-02 0.  1.
    10030    2    1    2    0    0  0.00000000000E+00  0.00000000000E+00 -0.88114983346E+03  0.38101463204E+04  0.37068571531E+04 0.  0.
        3    1    3    3  502    0 -0.79608039567E+03  0.35057727811E+03 -0.21228058159E+04  0.22941126752E+04  0.10100000352E+00 0.  1.
       -3    1    3    3    0  502  0.79608039567E+03 -0.35057727811E+03  0.12416559825E+04  0.15160336452E+04  0.10100000352E+00 0. -1.
</event>
<event>
 5   0  0.5875011E-07  0.3545034E+04  0.7818609E-02  0.8103200E-01
       -1   -1    0    0    0  501  0.00000000000E+00  0.00000000000E+00  0.18878092641E+04  0.18878092641E+04  0.50400001928E-02 0. -1.
        1   -1    0    0  501    0  0.00000000000E+00  0.00000000000E+00 -0.16642656892E+04  0.16642656892E+04  0.50400001928E-02 0.  1.
    10030    2    1    2    0    0  0.00000000000E+00  0.00000000000E+00  0.22354357492E+03  0.35520749534E+04  0.35450338143E+04 0.  0.
        2    1    3    3  502    0 -0.14413875637E+04  0.99396048874E+03  0.38847354437E+03  0.17934512139E+04  0.25500000920E-02 0. -1.
       -2    1    3    3    0  502  0.14413875637E+04 -0.99396048874E+03 -0.16492996946E+03  0.17586237394E+04  0.25500000920E-02 0.  1.
</event>
<event>
 5   0  0.5679750E-07  0.3652793E+04  0.7818609E-02  0.8078505E-01
       -1   -1    0    0    0  501  0.00000000000E+00  0.00000000000E+00  0.18134351889E+04  0.18134351889E+04  0.50400001928E-02 0. -1.
        1   -1    0    0  501    0  0.00000000000E+00  0.00000000000E+00 -0.18394507071E+04  0.18394507071E+04  0.50400001928E-02 0.  1.
    10030    2    1    2    0    0  0.00000000000E+00  0.00000000000E+00 -0.26015518187E+02  0.36528858959E+04  0.36527932547E+04 0.  0.
        4    1    3    3  502    0  0.11581167318E+04  0.72569972439E+03  0.11985709748E+04  0.18178141954E+04  0.12699999809E+01 0. -1.
       -4    1    3    3    0  502 -0.11581167318E+04 -0.72569972439E+03 -0.12245864930E+04  0.18350717005E+04  0.12699999809E+01 0.  1.
</event>
<event>
 5   0  0.6261598E-07  0.2743854E+04  0.7818609E-02  0.8320914E-01
       -1   -1    0    0    0  501  0.00000000000E+00  0.00000000000E+00  0.87020348231E+03  0.87020348232E+03  0.50400001928E-02 0.  1.
        1   -1    0    0  501    0  0.00000000000E+00  0.00000000000E+00 -0.21629241151E+04  0.21629241151E+04  0.50400001928E-02 0. -1.
    10030    2    1    2    0    0  0.00000000000E+00  0.00000000000E+00 -0.12927206328E+04  0.30331275975E+04  0.27438542942E+04 0.  0.
        1    1    3    3  502    0  0.90464099893E+03 -0.98245180529E+03 -0.29925445401E+03  0.13686270913E+04  0.50400001928E-02 0.  1.
       -1    1    3    3    0  502 -0.90464099893E+03  0.98245180529E+03 -0.99346617881E+03  0.16645005062E+04  0.50400001928E-02 0. -1.
</event>
<event>
 5   0  0.1184684E-06  0.2866767E+04  0.7818609E-02  0.8282835E-01
        2   -1    0    0  501    0  0.00000000000E+00  0.00000000000E+00  0.11372495406E+04  0.11372495406E+04  0.25500000920E-02 0.  1.
       -2   -1    0    0    0  501  0.00000000000E+00  0.00000000000E+00 -0.18066287473E+04  0.18066287473E+04  0.25500000920E-02 0. -1.
    10030    2    1    2    0    0  0.00000000000E+00  0.00000000000E+00 -0.66937920677E+03  0.29438782879E+04  0.28667666196E+04 0.  0.
        4    1    3    3  502    0  0.99602179417E+03 -0.89701009868E+02  0.71981084902E+03  0.12321667732E+04  0.12699999809E+01 0. -1.
       -4    1    3    3    0  502 -0.99602179417E+03  0.89701009868E+02 -0.13891900558E+04  0.17117115147E+04  0.12699999809E+01 0.  1.
</event>
<event>
 5   0  0.1184684E-06  0.3441607E+04  0.7818609E-02  0.8127769E-01
       -2   -1    0    0    0  501  0.00000000000E+00  0.00000000000E+00  0.11638196094E+04  0.11638196094E+04  0.25500000920E-02 0.  1.
        2   -1    0    0  501    0  0.00000000000E+00  0.00000000000E+00 -0.25443500162E+04  0.25443500162E+04  0.25500000920E-02 0. -1.
    10030    2    1    2    0    0  0.00000000000E+00  0.00000000000E+00 -0.13805304067E+04  0.37081696256E+04  0.34416068585E+04 0.  0.
        4    1    3    3  502    0 -0.84837005295E+03 -0.92649517766E+03  0.57684781737E+03  0.13823458606E+04  0.12699999809E+01 0.  1.
       -4    1    3    3    0  502  0.84837005295E+03  0.92649517766E+03 -0.19573782241E+04  0.23258237650E+04  0.12699999809E+01 0. -1.
</event>
<event>
 5   0  0.1151180E-06  0.2159499E+04  0.7818609E-02  0.8535477E-01
        2   -1    0    0  501    0  0.00000000000E+00  0.00000000000E+00  0.17800718667E+04  0.17800718667E+04  0.25500000920E-02 0. -1.
       -2   -1    0    0    0  501  0.00000000000E+00  0.00000000000E+00 -0.65495066006E+03  0.65495066006E+03  0.25500000920E-02 0.  1.
    10030    2    1    2    0    0  0.00000000000E+00  0.00000000000E+00  0.11251212066E+04  0.24350225267E+04  0.21594992420E+04 0.  0.
        5    1    3    3  502    0  0.90645473284E+03  0.21581132325E+03  0.11776923965E+04  0.15017377203E+04  0.46999998093E+01 0. -1.
       -5    1    3    3    0  502 -0.90645473284E+03 -0.21581132325E+03 -0.52571189840E+02  0.93328480644E+03  0.46999998093E+01 0.  1.
</event>
<event>
 5   0  0.6261598E-07  0.3716148E+04  0.7818609E-02  0.8064393E-01
       -1   -1    0    0    0  501  0.00000000000E+00  0.00000000000E+00  0.13452084451E+04  0.13452084452E+04  0.50400001928E-02 0. -1.
        1   -1    0    0  501    0  0.00000000000E+00  0.00000000000E+00 -0.25664713200E+04  0.25664713200E+04  0.50400001928E-02 0.  1.
    10030    2    1    2    0    0  0.00000000000E+00  0.00000000000E+00 -0.12212628749E+04  0.39116797652E+04  0.37161479486E+04 0.  0.
        1    1    3    3  502    0 -0.13432312619E+04 -0.66428084753E+02  0.73891853452E+03  0.15344978052E+04  0.50400001928E-02 0. -1.
       -1    1    3    3    0  502  0.13432312619E+04  0.66428084753E+02 -0.19601814094E+04  0.23771819600E+04  0.50400001928E-02 0.  1.
</event>
<event>
 5   0  0.6186440E-07  0.3643128E+04  0.7818609E-02  0.8080684E-01
       -1   -1    0    0    0  501  0.00000000000E+00  0.00000000000E+00  0.15136467842E+04  0.15136467842E+04  0.50400001928E-02 0.  1.
        1   -1    0    0  501    0  0.00000000000E+00  0.00000000000E+00 -0.21921198857E+04  0.21921198857E+04  0.50400001928E-02 0. -1.
    10030    2    1    2    0    0  0.00000000000E+00  0.00000000000E+00 -0.67847310148E+03  0.37057666699E+04  0.36431278954E+04 0.  0.
        3    1    3    3  502    0  0.13638420033E+04 -0.14341513994E+03  0.88031983263E+03  0.16295999295E+04  0.10100000352E+00 0.  1.
       -3    1    3    3    0  502 -0.13638420033E+04  0.14341513994E+03 -0.15587929341E+04  0.20761667404E+04  0.10100000352E+00 0. -1.
</event>
<event>
 5   0  0.1680194E-06  0.2685392E+04  0.7818609E-02  0.8339760E-01
        2   -1    0    0  501    0  0.00000000000E+00  0.00000000000E+00  0.24891824631E+04  0.24891824631E+04  0.25500000920E-02 0.  1.
       -2   -1    0    0    0  501  0.00000000000E+00  0.00000000000E+00 -0.72426680072E+03  0.72426680072E+03  0.25500000920E-02 0. -1.
    10030    2    1    2    0    0  0.00000000000E+00  0.00000000000E+00  0.17649156624E+04  0.32134492638E+04  0.26853917546E+04 0.  0.
        2    1    3    3  502    0  0.43154632436E+03  0.52000531730E+03  0.22708677114E+04  0.23692779328E+04  0.25500000920E-02 0.  1.
       -2    1    3    3    0  502 -0.43154632436E+03 -0.52000531730E+03 -0.50595204907E+03  0.84417133098E+03  0.25500000920E-02 0. -1.
</event>
<event>
 5   0  0.1685793E-06  0.2607227E+04  0.7818609E-02  0.8365751E-01
       -2   -1    0    0    0  501  0.00000000000E+00  0.00000000000E+00  0.66778460834E+03  0.66778460835E+03  0.25500000920E-02 0. -1.
        2   -1    0    0  501    0  0.00000000000E+00  0.00000000000E+00 -0.25448442385E+04  0.25448442385E+04  0.25500000920E-02 0.  1.
    10030    2    1    2    0    0  0.00000000000E+00  0.00000000000E+00 -0.18770596302E+04  0.32126288469E+04  0.26072267359E+04 0.  0.
        3    1    3    3  502    0  0.30239522746E+03  0.11341886278E+04 -0.23977147841E+03  0.11980471982E+04  0.10100000352E+00 0.  1.
       -3    1    3    3    0  502 -0.30239522746E+03 -0.11341886278E+04 -0.16372881518E+04  0.20145816487E+04  0.10100000352E+00 0. -1.
</event>
<event>
 5   0  0.1184684E-06  0.3467180E+04  0.7818609E-02  0.8121612E-01
       -2   -1    0    0    0  501  0.00000000000E+00  0.00000000000E+00  0.20519050780E+04  0.20519050780E+04  0.25500000920E-02 0. -1.
        2   -1    0    0  501    0  0.00000000000E+00  0.00000000000E+00 -0.14646552683E+04  0.14646552683E+04  0.25500000920E-02 0.  1.
    10030    2    1    2    0    0  0.00000000000E+00  0.00000000000E+00  0.58724980966E+03  0.35165603463E+04  0.34671795930E+04 0.  0.
        4    1    3    3  502    0 -0.40257906765E+03 -0.16618446193E+04  0.40156005316E+01  0.17099167179E+04  0.12699999809E+01 0. -1.
       -4    1    3    3    0  502  0.40257906765E+03  0.16618446193E+04  0.58323420913E+03  0.18066436283E+04  0.12699999809E+01 0.  1.
</event>
<event>
 5   0  0.1680194E-06  0.3636953E+04  0.7818609E-02  0.8082079E-01
       -2   -1    0    0    0  501  0.00000000000E+00  0.00000000000E+00  0.17597301119E+04  0.17597301119E+04  0.25500000920E-02 0.  1.
        2   -1    0    0  501    0  0.00000000000E+00  0.00000000000E+00 -0.18791845054E+04  0.18791845054E+04  0.25500000920E-02 0. -1.
    10030    2    1    2    0    0  0.00000000000E+00  0.00000000000E+00 -0.11945439352E+03  0.36389146173E+04  0.36369534283E+04 0.  0.
        2    1    3    3  502    0  0.13548962419E+04 -0.84422931897E+03  0.81159864325E+03  0.17908543568E+04  0.25500000920E-02 0.  1.
       -2    1    3    3    0  502 -0.13548962419E+04  0.84422931897E+03 -0.93105303677E+03  0.18480602606E+04  0.25500000920E-02 0. -1.
</event>
<event>
 5   0  0.1724503E-06  0.2575124E+04  0.7818609E-02  0.8376700E-01
       -2   -1    0    0    0  501  0.00000000000E+00  0.00000000000E+00  0.10473663147E+04  0.10473663147E+04  0.25500000920E-02 0.  1.
        2   -1    0    0  501    0  0.00000000000E+00  0.00000000000E+00 -0.15828423837E+04  0.15828423837E+04  0.25500000920E-02 0. -1.
    10030    2    1    2    0    0  0.00000000000E+00  0.00000000000E+00 -0.53547606900E+03  0.26302086985E+04  0.25751239149E+04 0.  0.
        1    1    3    3  502    0 -0.87928538895E+01 -0.12857117230E+04 -0.19783543074E+03  0.13008730939E+04  0.50400001928E-02 0.  1.
       -1    1    3    3    0  502  0.87928538895E+01  0.12857117230E+04 -0.33764063826E+03  0.13293356045E+04  0.50400001928E-02 0. -1.
</event>
<event>
 5   0  0.6261598E-07  0.3693331E+04  0.7818609E-02  0.8069441E-01
        1   -1    0    0  501    0  0.00000000000E+00  0.00000000000E+00  0.18605069847E+04  0.18605069847E+04  0.50400001928E-02 0. -1.
       -1   -1    0    0    0  501  0.00000000000E+00  0.00000000000E+00 -0.18329267090E+04  0.18329267090E+04  0.50400001928E-02 0.  1.
    10030    2    1    2    0    0  0.00000000000E+00  0.00000000000E+00  0.27580275720E+02  0.36934336937E+04  0.36933307161E+04 0.  0.
        1    1    3    3  502    0  0.27944731812E+03  0.14265603423E+04 -0.11251040882E+04  0.18382122900E+04  0.50400001928E-02 0.  1.
       -1    1    3    3    0  502 -0.27944731812E+03 -0.14265603423E+04  0.11526843639E+04  0.18552214037E+04  0.50400001928E-02 0. -1.
</event>
<event>
 5   0  0.1151180E-06  0.3681485E+04  0.7818609E-02  0.8072077E-01
       -2   -1    0    0    0  501  0.00000000000E+00  0.00000000000E+00  0.13741312771E+04  0.13741312771E+04  0.25500000920E-02 0.  1.
        2   -1    0    0  501    0  0.00000000000E+00  0.00000000000E+00 -0.24658002321E+04  0.24658002321E+04  0.25500000920E-02 0. -1.
    10030    2    1    2    0    0  0.00000000000E+00  0.00000000000E+00 -0.10916689551E+04  0.38399315092E+04  0.36814851470E+04 0.  0.
        5    1    3    3  502    0  0.26455398716E+02 -0.18209423063E+04 -0.26638503739E+03  0.18405199943E+04  0.46999998093E+01 0.  1.
       -5    1    3    3    0  502 -0.26455398716E+02  0.18209423063E+04 -0.82528391766E+03  0.19994115149E+04  0.46999998093E+01 0. -1.
</event>
<event>
 5   0  0.6186440E-07  0.3630211E+04  0.7818609E-02  0.8083606E-01
        1   -1    0    0  501    0  0.00000000000E+00  0.00000000000E+00  0.12066822500E+04  0.12066822500E+04  0.50400001928E-02 0. -1.
       -1   -1    0    0    0  501  0.00000000000E+00  0.00000000000E+00 -0.27303023546E+04  0.27303023546E+04  0.50400001928E-02 0.  1.
    10030    2    1    2    0    0  0.00000000000E+00  0.00000000000E+00 -0.15236201046E+04  0.39369846046E+04  0.36302106762E+04 0.  0.
        3    1    3    3  502    0  0.14228630903E+04 -0.79838823947E+03  0.10079433033E+03  0.16346628588E+04  0.10100000352E+00 0. -1.
       -3    1    3    3    0  502 -0.14228630903E+04  0.79838823947E+03 -0.16244144349E+04  0.23023217458E+04  0.10100000352E+00 0.  1.
</event>
<event>
 5   0  0.6261598E-07  0.3717205E+04  0.7818609E-02  0.8064160E-01
        1   -1    0    0  501    0  0.00000000000E+00  0.00000000000E+00  0.15297517718E+04  0.15297517718E+04  0.50400001928E-02 0. -1.
       -1   -1    0    0    0  501  0.00000000000E+00  0.00000000000E+00 -0.22581461716E+04  0.22581461716E+04  0.50400001928E-02 0.  1.
    10030    2    1    2    0    0  0.00000000000E+00  0.00000000000E+00 -0.72839439980E+03  0.37878979434E+04  0.37172049214E+04 0.  0.
        1    1    3    3  502    0 -0.15951777206E+04 -0.66463703041E+03  0.33296943784E+03  0.17598872091E+04  0.50400001928E-02 0. -1.
       -1    1    3    3    0  502  0.15951777206E+04  0.66463703041E+03 -0.10613638376E+04  0.20280107343E+04  0.50400001928E-02 0.  1.
</event>
<event>
 5   0  0.6287345E-07  0.2002308E+04  0.7818609E-02  0.8605542E-01
        1   -1    0    0  501    0  0.00000000000E+00  0.00000000000E+00  0.23817809524E+04  0.23817809524E+04  0.50400001928E-02 0. -1.
       -1   -1    0    0    0  501  0.00000000000E+00  0.00000000000E+00 -0.42082358518E+03  0.42082358521E+03  0.50400001928E-02 0.  1.
    10030    2    1    2    0    0  0.00000000000E+00  0.00000000000E+00  0.19609573672E+04  0.28026045376E+04  0.20023082675E+04 0.  0.
        5    1    3    3  502    0 -0.14999535145E+03 -0.49413201159E+03 -0.22001082873E+03  0.56133047761E+03  0.46999998093E+01 0.  1.
       -5    1    3    3    0  502  0.14999535145E+03  0.49413201159E+03  0.21809681959E+04  0.22412740600E+04  0.46999998093E+01 0. -1.
</event>
<event>
 5   0  0.1724503E-06  0.2052654E+04  0.7818609E-02  0.8582391E-01
        2   -1    0    0  501    0  0.00000000000E+00  0.00000000000E+00  0.18856153833E+04  0.18856153833E+04  0.25500000920E-02 0. -1.
       -2   -1    0    0    0  501  0.00000000000E+00  0.00000000000E+00 -0.55862262576E+03  0.55862262577E+03  0.25500000920E-02 0.  1.
    10030    2    1    2    0    0  0.00000000000E+00  0.00000000000E+00  0.13269927576E+04  0.24442380091E+04  0.20526542979E+04 0.  0.
        1    1    3    3  502    0 -0.74445169488E+03  0.11138679820E+03 -0.16725804442E+03  0.77109700964E+03  0.50400001928E-02 0.  1.
       -1    1    3    3    0  502  0.74445169488E+03 -0.11138679820E+03  0.14942508020E+04  0.16731409995E+04  0.50400001928E-02 0. -1.
</event>
<event>
 5   0  0.5679750E-07  0.2610733E+04  0.7818609E-02  0.8364565E-01
        1   -1    0    0  501    0  0.00000000000E+00  0.00000000000E+00  0.20144458051E+04  0.20144458051E+04  0.50400001928E-02 0. -1.
       -1   -1    0    0    0  501  0.00000000000E+00  0.00000000000E+00 -0.84588102008E+03  0.84588102009E+03  0.50400001928E-02 0.  1.
    10030    2    1    2    0    0  0.00000000000E+00  0.00000000000E+00  0.11685647851E+04  0.28603268252E+04  0.26107328263E+04 0.  0.
        4    1    3    3  502    0  0.23936796854E+03 -0.48159991694E+03  0.18874258086E+04  0.19625527510E+04  0.12699999809E+01 0. -1.
       -4    1    3    3    0  502 -0.23936796854E+03  0.48159991694E+03 -0.71886102356E+03  0.89777407428E+03  0.12699999809E+01 0.  1.
</event>
<event>
 5   0  0.6261598E-07  0.2967676E+04  0.7818609E-02  0.8253022E-01
        1   -1    0    0  501    0  0.00000000000E+00  0.00000000000E+00  0.18909133531E+04  0.18909133531E+04  0.50400001928E-02 0. -1.
       -1   -1    0    0    0  501  0.00000000000E+00  0.00000000000E+00 -0.11643977098E+04  0.11643977098E+04  0.50400001928E-02 0.  1.
    10030    2    1    2    0    0  0.00000000000E+00  0.00000000000E+00  0.72651564335E+03  0.30553110629E+04  0.29676759781E+04 0.  0.
        1    1    3    3  502    0  0.64511166937E+03  0.13304374862E+04  0.49160765123E+03  0.15581755528E+04  0.50400001928E-02 0.  1.
       -1    1    3    3    0  502 -0.64511166937E+03 -0.13304374862E+04  0.23490799212E+03  0.14971355101E+04  0.50400001928E-02 0. -1.
</event>
<event>
 5   0  0.5679750E-07  0.2051473E+04  0.7818609E-02  0.8582926E-01
       -4   -1    0    0    0  501  0.00000000000E+00  0.00000000000E+00  0.81988828710E+03  0.81988927071E+03  0.12699999809E+01 0.  1.
        4   -1    0    0  501    0  0.00000000000E+00  0.00000000000E+00 -0.12832650247E+04  0.12832656532E+04  0.12699999809E+01 0. -1.
    10030    2    1    2    0    0  0.00000000000E+00  0.00000000000E+00 -0.46337673762E+03  0.21031549239E+04  0.20514732835E+04 0.  0.
        2    1    3    3  502    0 -0.42977050308E+02  0.45242673345E+02  0.81794135909E+03  0.82031822682E+03  0.25500000920E-02 0.  1.
       -2    1    3    3    0  502  0.42977050308E+02 -0.45242673345E+02 -0.12813180967E+04  0.12828366971E+04  0.25500000920E-02 0. -1.
</event>
<event>
 5   0  0.6186440E-07  0.3443720E+04  0.7818609E-02  0.8127259E-01
        1   -1    0    0  501    0  0.00000000000E+00  0.00000000000E+00  0.19852638894E+04  0.19852638894E+04  0.50400001928E-02 0.  1.
       -1   -1    0    0    0  501  0.00000000000E+00  0.00000000000E+00 -0.14934046769E+04  0.14934046770E+04  0.50400001928E-02 0. -1.
    10030    2    1    2    0    0  0.00000000000E+00  0.00000000000E+00  0.49185921245E+03  0.34786685664E+04  0.34437203007E+04 0.  0.
        3    1    3    3  502    0  0.96219268432E+03 -0.49971992060E+02  0.16874685060E+04  0.19431577215E+04  0.10100000352E+00 0.  1.
       -3    1    3    3    0  502 -0.96219268432E+03  0.49971992060E+02 -0.11956092935E+04  0.15355108449E+04  0.10100000352E+00 0. -1.
</event>
<event>
 5   0  0.1184684E-06  0.3611520E+04  0.7818609E-02  0.8087858E-01
        2   -1    0    0  501    0  0.00000000000E+00  0.00000000000E+00  0.18842291172E+04  0.18842291172E+04  0.25500000920E-02 0. -1.
       -2   -1    0    0    0  501  0.00000000000E+00  0.00000000000E+00 -0.17305586430E+04  0.17305586430E+04  0.25500000920E-02 0.  1.
    10030    2    1    2    0    0  0.00000000000E+00  0.00000000000E+00  0.15367047419E+03  0.36147877601E+04  0.36115198928E+04 0.  0.
        4    1    3    3  502    0  0.86007516985E+03 -0.13377999111E+04  0.93278707579E+03  0.18437817771E+04  0.12699999809E+01 0. -1.
       -4    1    3    3    0  502 -0.86007516985E+03  0.13377999111E+04 -0.77911660161E+03  0.17710059830E+04  0.12699999809E+01 0.  1.
</event>
<event>
 5   0  0.1724503E-06  0.1871520E+04  0.7818609E-02  0.8669164E-01
        2   -1    0    0  501    0  0.00000000000E+00  0.00000000000E+00  0.96288502881E+03  0.96288502882E+03  0.25500000920E-02 0. -1.
       -2   -1    0    0    0  501  0.00000000000E+00  0.00000000000E+00 -0.90939884704E+03  0.90939884704E+03  0.25500000920E-02 0.  1.
    10030    2    1    2    0    0  0.00000000000E+00  0.00000000000E+00  0.53486181777E+02  0.18722838759E+04  0.18715197408E+04 0.  0.
        1    1    3    3  502    0  0.16115403811E+03  0.73364431278E+03  0.58504077725E+03  0.95209102125E+03  0.50400001928E-02 0. -1.
       -1    1    3    3    0  502 -0.16115403811E+03 -0.73364431278E+03 -0.53155459547E+03  0.92019285461E+03  0.50400001928E-02 0.  1.
</event>
<event>
 5   0  0.5875011E-07  0.2360852E+04  0.7818609E-02  0.8454307E-01
        1   -1    0    0  501    0  0.00000000000E+00  0.00000000000E+00  0.76207413903E+03  0.76207413905E+03  0.50400001928E-02 0.  1.
       -1   -1    0    0    0  501  0.00000000000E+00  0.00000000000E+00 -0.18284381286E+04  0.18284381287E+04  0.50400001928E-02 0. -1.
    10030    2    1    2    0    0  0.00000000000E+00  0.00000000000E+00 -0.10663639896E+04  0.25905122677E+04  0.23608518909E+04 0.  0.
        2    1    3    3  502    0  0.99780151411E+03 -0.42216627760E+03 -0.10473517917E+04  0.15069100846E+04  0.25500000920E-02 0. -1.
       -2    1    3    3    0  502 -0.99780151411E+03  0.42216627760E+03 -0.19012197898E+02  0.10836021831E+04  0.25500000920E-02 0.  1.
</event>
<event>
 5   0  0.1680194E-06  0.3698871E+04  0.7818609E-02  0.8068212E-01
        2   -1    0    0  501    0  0.00000000000E+00  0.00000000000E+00  0.13862922902E+04  0.13862922902E+04  0.25500000920E-02 0. -1.
       -2   -1    0    0    0  501  0.00000000000E+00  0.00000000000E+00 -0.24673095533E+04  0.24673095533E+04  0.25500000920E-02 0.  1.
    10030    2    1    2    0    0  0.00000000000E+00  0.00000000000E+00 -0.10810172630E+04  0.38536018435E+04  0.36988712934E+04 0.  0.
        2    1    3    3  502    0 -0.13511257793E+04  0.12310862766E+04 -0.24712997352E+03  0.18445019696E+04  0.25500000920E-02 0. -1.
       -2    1    3    3    0  502  0.13511257793E+04 -0.12310862766E+04 -0.83388728951E+03  0.20090998740E+04  0.25500000920E-02 0.  1.
</event>
<event>
 5   0  0.6186440E-07  0.2324220E+04  0.7818609E-02  0.8468432E-01
        1   -1    0    0  501    0  0.00000000000E+00  0.00000000000E+00  0.12944034806E+04  0.12944034806E+04  0.50400001928E-02 0.  1.
       -1   -1    0    0    0  501  0.00000000000E+00  0.00000000000E+00 -0.10433373036E+04  0.10433373036E+04  0.50400001928E-02 0. -1.
    10030    2    1    2    0    0  0.00000000000E+00  0.00000000000E+00  0.25106617704E+03  0.23377407842E+04  0.23242198151E+04 0.  0.
        3    1    3    3  502    0  0.61997726055E+03  0.54302552279E+03 -0.69853215302E+03  0.10803683173E+04  0.10100000352E+00 0. -1.
       -3    1    3    3    0  502 -0.61997726055E+03 -0.54302552279E+03  0.94959833005E+03  0.12573724670E+04  0.10100000352E+00 0.  1.
</event>
<event>
 5   0  0.1680194E-06  0.2310988E+04  0.7818609E-02  0.8473601E-01
        2   -1    0    0  501    0  0.00000000000E+00  0.00000000000E+00  0.25058003678E+04  0.25058003678E+04  0.25500000920E-02 0.  1.
       -2   -1    0    0    0  501  0.00000000000E+00  0.00000000000E+00 -0.53283045487E+03  0.53283045488E+03  0.25500000920E-02 0. -1.
    10030    2    1    2    0    0  0.00000000000E+00  0.00000000000E+00  0.19729699130E+04  0.30386308227E+04  0.23109883166E+04 0.  0.
        2    1    3    3  502    0  0.98981730507E+02  0.10426036225E+04  0.34455878500E+03  0.11025155115E+04  0.25500000920E-02 0. -1.
       -2    1    3    3    0  502 -0.98981730507E+02 -0.10426036225E+04  0.16284111280E+04  0.19361153112E+04  0.25500000920E-02 0.  1.
</event>
<event>
 5   0  0.5875011E-07  0.3683175E+04  0.7818609E-02  0.8071701E-01
       -1   -1    0    0    0  501  0.00000000000E+00  0.00000000000E+00  0.21021558754E+04  0.21021558754E+04  0.50400001928E-02 0. -1.
        1   -1    0    0  501    0  0.00000000000E+00  0.00000000000E+00 -0.16133175838E+04  0.16133175838E+04  0.50400001928E-02 0.  1.
    10030    2    1    2    0    0  0.00000000000E+00  0.00000000000E+00  0.48883829157E+03  0.37154734592E+04  0.36831752810E+04 0.  0.
        2    1    3    3  502    0 -0.17461430184E+04 -0.18708030611E+03 -0.31490721930E+03  0.17841471460E+04  0.25500000920E-02 0. -1.
       -2    1    3    3    0  502  0.17461430184E+04  0.18708030611E+03  0.80374551087E+03  0.19313263132E+04  0.25500000920E-02 0.  1.
</event>
<event>
 5   0  0.5875011E-07  0.3751600E+04  0.7818609E-02  0.8056622E-01
        1   -1    0    0  501    0  0.00000000000E+00  0.00000000000E+00  0.21660647510E+04  0.21660647510E+04  0.50400001928E-02 0. -1.
       -1   -1    0    0    0  501  0.00000000000E+00  0.00000000000E+00 -0.16244327389E+04  0.16244327389E+04  0.50400001928E-02 0.  1.
    10030    2    1    2    0    0  0.00000000000E+00  0.00000000000E+00  0.54163201207E+03  0.37904974899E+04  0.37516004564E+04 0.  0.
        2    1    3    3  502    0 -0.15566589885E+04  0.24996701144E+02 -0.78636632171E+03  0.17441857795E+04  0.25500000920E-02 0.  1.
       -2    1    3    3    0  502  0.15566589885E+04 -0.24996701144E+02  0.13279983338E+04  0.20463117104E+04  0.25500000920E-02 0. -1.
</event>
<event>
 5   0  0.1151180E-06  0.2422687E+04  0.7818609E-02  0.8431058E-01
        2   -1    0    0  501    0  0.00000000000E+00  0.00000000000E+00  0.19213392319E+04  0.19213392319E+04  0.25500000920E-02 0. -1.
       -2   -1    0    0    0  501  0.00000000000E+00  0.00000000000E+00 -0.76371356787E+03  0.76371356788E+03  0.25500000920E-02 0.  1.
    10030    2    1    2    0    0  0.00000000000E+00  0.00000000000E+00  0.11576256640E+04  0.26850527997E+04  0.24226868059E+04 0.  0.
        5    1    3    3  502    0  0.10012892709E+04  0.58460182281E+03  0.19013240426E+03  0.11749518783E+04  0.46999998093E+01 0.  1.
       -5    1    3    3    0  502 -0.10012892709E+04 -0.58460182281E+03  0.96749325974E+03  0.15101009214E+04  0.46999998093E+01 0. -1.
</event>
<event>
 5   0  0.1680194E-06  0.3730359E+04  0.7818609E-02  0.8061267E-01
       -2   -1    0    0    0  501  0.00000000000E+00  0.00000000000E+00  0.31647327600E+04  0.31647327600E+04  0.25500000920E-02 0.  1.
        2   -1    0    0  501    0  0.00000000000E+00  0.00000000000E+00 -0.10992693744E+04  0.10992693744E+04  0.25500000920E-02 0. -1.
    10030    2    1    2    0    0  0.00000000000E+00  0.00000000000E+00  0.20654633856E+04  0.42640021344E+04  0.37303585893E+04 0.  0.
        2    1    3    3  502    0  0.97971271911E+03  0.15666555234E+03  0.28380745465E+04  0.30065009960E+04  0.25500000920E-02 0.  1.
       -2    1    3    3    0  502 -0.97971271911E+03 -0.15666555234E+03 -0.77261116086E+03  0.12575011384E+04  0.25500000920E-02 0. -1.
</event>
<event>
 5   0  0.6186440E-07  0.2673979E+04  0.7818609E-02  0.8343498E-01
       -1   -1    0    0    0  501  0.00000000000E+00  0.00000000000E+00  0.13678087905E+04  0.13678087905E+04  0.50400001928E-02 0.  1.
        1   -1    0    0  501    0  0.00000000000E+00  0.00000000000E+00 -0.13068643618E+04  0.13068643618E+04  0.50400001928E-02 0. -1.
    10030    2    1    2    0    0  0.00000000000E+00  0.00000000000E+00  0.60944428718E+02  0.26746731523E+04  0.26739787299E+04 0.  0.
        3    1    3    3  502    0 -0.19213120506E+03  0.13225919274E+04  0.67586369274E+02  0.13381822499E+04  0.10100000352E+00 0.  1.
       -3    1    3    3    0  502  0.19213120506E+03 -0.13225919274E+04 -0.66419405557E+01  0.13364909023E+04  0.10100000352E+00 0. -1.
</event>
<event>
 5   0  0.5679750E-07  0.3010881E+04  0.7818609E-02  0.8240631E-01
       -3   -1    0    0    0  501  0.00000000000E+00  0.00000000000E+00  0.96136836011E+03  0.96136836542E+03  0.10100000352E+00 0.  1.
        3   -1    0    0  501    0  0.00000000000E+00  0.00000000000E+00 -0.23574222083E+04  0.23574222104E+04  0.10100000352E+00 0. -1.
    10030    2    1    2    0    0  0.00000000000E+00  0.00000000000E+00 -0.13960538482E+04  0.33187905758E+04  0.30108810238E+04 0.  0.
        3    1    3    3  502    0 -0.64128327777E+02  0.14606073423E+04 -0.30233833160E+03  0.14929483340E+04  0.10100000352E+00 0.  1.
       -3    1    3    3    0  502  0.64128327777E+02 -0.14606073423E+04 -0.10937155166E+04  0.18258422419E+04  0.10100000352E+00 0. -1.
</event>
<event>
 5   0  0.1151180E-06  0.3641894E+04  0.7818609E-02  0.8080962E-01
       -2   -1    0    0    0  501  0.00000000000E+00  0.00000000000E+00  0.22511758426E+04  0.22511758426E+04  0.25500000920E-02 0. -1.
        2   -1    0    0  501    0  0.00000000000E+00  0.00000000000E+00 -0.14729407975E+04  0.14729407975E+04  0.25500000920E-02 0.  1.
    10030    2    1    2    0    0  0.00000000000E+00  0.00000000000E+00  0.77823504508E+03  0.37241166401E+04  0.36418944196E+04 0.  0.
        5    1    3    3  502    0  0.10086769895E+03 -0.69631215608E+03 -0.13283249738E+04  0.15031614143E+04  0.46999998093E+01 0.  1.
       -5    1    3    3    0  502 -0.10086769895E+03  0.69631215608E+03  0.21065600189E+04  0.22209552257E+04  0.46999998093E+01 0. -1.
</event>
<event>
 5   0  0.1685793E-06  0.3044534E+04  0.7818609E-02  0.8231127E-01
        2   -1    0    0  501    0  0.00000000000E+00  0.00000000000E+00  0.18777940004E+04  0.18777940004E+04  0.25500000920E-02 0. -1.
       -2   -1    0    0    0  501  0.00000000000E+00  0.00000000000E+00 -0.12340527274E+04  0.12340527274E+04  0.25500000920E-02 0.  1.
    10030    2    1    2    0    0  0.00000000000E+00  0.00000000000E+00  0.64374127304E+03  0.31118467278E+04  0.30445339924E+04 0.  0.
        3    1    3    3  502    0  0.58461390543E+03 -0.89695206743E+03 -0.78418223175E+03  0.13271165030E+04  0.10100000352E+00 0.  1.
       -3    1    3    3    0  502 -0.58461390543E+03  0.89695206743E+03  0.14279235048E+04  0.17847302248E+04  0.10100000352E+00 0. -1.
</event>
<event>
 5   0  0.1184684E-06  0.3620733E+04  0.7818609E-02  0.8085759E-01
        2   -1    0    0  501    0  0.00000000000E+00  0.00000000000E+00  0.23431200078E+04  0.23431200078E+04  0.25500000920E-02 0.  1.
       -2   -1    0    0    0  501  0.00000000000E+00  0.00000000000E+00 -0.13987444417E+04  0.13987444417E+04  0.25500000920E-02 0. -1.
    10030    2    1    2    0    0  0.00000000000E+00  0.00000000000E+00  0.94437556613E+03  0.37418644494E+04  0.36207325706E+04 0.  0.
        4    1    3    3  502    0  0.76448962406E+03  0.84053932375E+03  0.19287633333E+04  0.22385442477E+04  0.12699999809E+01 0.  1.
       -4    1    3    3    0  502 -0.76448962406E+03 -0.84053932375E+03 -0.98438776714E+03  0.15033202018E+04  0.12699999809E+01 0. -1.
</event>
<event>
 5   0  0.5875011E-07  0.2938876E+04  0.7818609E-02  0.8261404E-01
       -1   -1    0    0    0  501  0.00000000000E+00  0.00000000000E+00  0.10865918382E+04  0.10865918382E+04  0.50400001928E-02 0. -1.
        1   -1    0    0  501    0  0.00000000000E+00  0.00000000000E+00 -0.19871753459E+04  0.19871753459E+04  0.50400001928E-02 0.  1.
    10030    2    1    2    0    0  0.00000000000E+00  0.00000000000E+00 -0.90058350767E+03  0.30737671841E+04  0.29388763240E+04 0.  0.
        2    1    3    3  502    0 -0.12163153755E+04 -0.22332718596E+03  0.37983198461E+03  0.12936655136E+04  0.25500000920E-02 0. -1.
       -2    1    3    3    0  502  0.12163153755E+04  0.22332718596E+03 -0.12804154923E+04  0.17801016705E+04  0.25500000920E-02 0.  1.
</event>
<event>
 5   0  0.1151180E-06  0.3409626E+04  0.7818609E-02  0.8135548E-01
       -2   -1    0    0    0  501  0.00000000000E+00  0.00000000000E+00  0.12489546798E+04  0.12489546798E+04  0.25500000920E-02 0. -1.
        2   -1    0    0  501    0  0.00000000000E+00  0.00000000000E+00 -0.23270561787E+04  0.23270561787E+04  0.25500000920E-02 0.  1.
    10030    2    1    2    0    0  0.00000000000E+00  0.00000000000E+00 -0.10781014989E+04  0.35760108585E+04  0.34096261992E+04 0.  0.
        5    1    3    3  502    0 -0.19842659960E+03 -0.11299682924E+04  0.78350211191E+03  0.13892800678E+04  0.46999998093E+01 0. -1.
       -5    1    3    3    0  502  0.19842659960E+03  0.11299682924E+04 -0.18616036109E+04  0.21867307908E+04  0.46999998093E+01 0.  1.
</event>
<event>
 5   0  0.6287345E-07  0.3703705E+04  0.7818609E-02  0.8067141E-01
        1   -1    0    0  501    0  0.00000000000E+00  0.00000000000E+00  0.16817399018E+04  0.16817399018E+04  0.50400001928E-02 0.  1.
       -1   -1    0    0    0  501  0.00000000000E+00  0.00000000000E+00 -0.20391719428E+04  0.20391719428E+04  0.50400001928E-02 0. -1.
    10030    2    1    2    0    0  0.00000000000E+00  0.00000000000E+00 -0.35743204098E+03  0.37209118446E+04  0.37037045362E+04 0.  0.
        5    1    3    3  502    0  0.11985356005E+04 -0.34576995150E+03 -0.15537568316E+04  0.19925428043E+04  0.46999998093E+01 0. -1.
       -5    1    3    3    0  502 -0.11985356005E+04  0.34576995150E+03  0.11963247907E+04  0.17283690404E+04  0.46999998093E+01 0.  1.
</event>
<event>
 5   0  0.1680194E-06  0.3716900E+04  0.7818609E-02  0.8064227E-01
       -2   -1    0    0    0  501  0.00000000000E+00  0.00000000000E+00  0.14832686021E+04  0.14832686021E+04  0.25500000920E-02 0. -1.
        2   -1    0    0  501    0  0.00000000000E+00  0.00000000000E+00 -0.23285307077E+04  0.23285307077E+04  0.25500000920E-02 0.  1.
    10030    2    1    2    0    0  0.00000000000E+00  0.00000000000E+00 -0.84526210561E+03  0.38117993098E+04  0.37169000459E+04 0.  0.
        2    1    3    3  502    0 -0.61341545978E+03 -0.23099669010E+03  0.13607916503E+04  0.15104277251E+04  0.25500000920E-02 0. -1.
       -2    1    3    3    0  502  0.61341545978E+03  0.23099669010E+03 -0.22060537559E+04  0.23013715848E+04  0.25500000920E-02 0.  1.
</event>
<event>
 5   0  0.1151180E-06  0.3695744E+04  0.7818609E-02  0.8068906E-01
        2   -1    0    0  501    0  0.00000000000E+00  0.00000000000E+00  0.22938600706E+04  0.22938600706E+04  0.25500000920E-02 0.  1.
       -2   -1    0    0    0  501  0.00000000000E+00  0.00000000000E+00 -0.14885961326E+04  0.14885961326E+04  0.25500000920E-02 0. -1.
    10030    2    1    2    0    0  0.00000000000E+00  0.00000000000E+00  0.80526393804E+03  0.37824562032E+04  0.36957441631E+04 0.  0.
        5    1    3    3  502    0  0.16402309962E+04  0.68402737096E+03  0.92082960146E+03  0.20015495022E+04  0.46999998093E+01 0. -1.
       -5    1    3    3    0  502 -0.16402309962E+04 -0.68402737096E+03 -0.11556566342E+03  0.17809067010E+04  0.46999998093E+01 0.  1.
</event>
<event>
 5   0  0.1685793E-06  0.3377510E+04  0.7818609E-02  0.8143448E-01
        2   -1    0    0  501    0  0.00000000000E+00  0.00000000000E+00  0.17876077339E+04  0.17876077339E+04  0.25500000920E-02 0. -1.
       -2   -1    0    0    0  501  0.00000000000E+00  0.00000000000E+00 -0.15953688609E+04  0.15953688609E+04  0.25500000920E-02 0.  1.
    10030    2    1    2    0    0  0.00000000000E+00  0.00000000000E+00  0.19223887300E+03  0.33829765949E+04  0.33775101565E+04 0.  0.
        3    1    3    3  502    0 -0.58994638338E+03  0.77830236599E+03 -0.12838267422E+04  0.16130723549E+04  0.10100000352E+00 0.  1.
       -3    1    3    3    0  502  0.58994638338E+03 -0.77830236599E+03  0.14760656152E+04  0.17699042400E+04  0.10100000352E+00 0. -1.
</event>
<event>
 5   0  0.1685793E-06  0.2229396E+04  0.7818609E-02  0.8506292E-01
       -2   -1    0    0    0  501  0.00000000000E+00  0.00000000000E+00  0.12937318265E+04  0.12937318265E+04  0.25500000920E-02 0.  1.
        2   -1    0    0  501    0  0.00000000000E+00  0.00000000000E+00 -0.96043970167E+03  0.96043970168E+03  0.25500000920E-02 0. -1.
    10030    2    1    2    0    0  0.00000000000E+00  0.00000000000E+00  0.33329212481E+03  0.22541715282E+04  0.22293958011E+04 0.  0.
        3    1    3    3  502    0 -0.70009888639E+03  0.79362752214E+03 -0.18734220722E+03  0.10747465782E+04  0.10100000352E+00 0. -1.
       -3    1    3    3    0  502  0.70009888639E+03 -0.79362752214E+03  0.52063433202E+03  0.11794249499E+04  0.10100000352E+00 0.  1.
</event>
<event>
 5   0  0.6695815E-07  0.1973790E+04  0.7818609E-02  0.8618974E-01
        1   -1    0    0  501    0  0.00000000000E+00  0.00000000000E+00  0.13014441646E+04  0.13014441646E+04  0.50400001928E-02 0.  1.
       -1   -1    0    0    0  501  0.00000000000E+00  0.00000000000E+00 -0.74836992225E+03  0.74836992227E+03  0.50400001928E-02 0. -1.
    10030    2    1    2    0    0  0.00000000000E+00  0.00000000000E+00  0.55307424238E+03  0.20498140869E+04  0.19737899263E+04 0.  0.
        3    1    3    3  502    0  0.19017036167E+03  0.36667180567E+03 -0.65428262366E+03  0.77375625449E+03  0.10100000352E+00 0. -1.
       -3    1    3    3    0  502 -0.19017036167E+03 -0.36667180567E+03  0.12073568660E+04  0.12760578324E+04  0.10100000352E+00 0.  1.
</event>
<event>
 5   0  0.6261598E-07  0.3699108E+04  0.7818609E-02  0.8068160E-01
       -1   -1    0    0    0  501  0.00000000000E+00  0.00000000000E+00  0.14628187508E+04  0.14628187508E+04  0.50400001928E-02 0.  1.
        1   -1    0    0  501    0  0.00000000000E+00  0.00000000000E+00 -0.23385326477E+04  0.23385326477E+04  0.50400001928E-02 0. -1.
    10030    2    1    2    0    0  0.00000000000E+00  0.00000000000E+00 -0.87571389683E+03  0.38013513985E+04  0.36991076797E+04 0.  0.
        1    1    3    3  502    0  0.17521354812E+04 -0.40038575607E+03 -0.88645676398E+03  0.20040192346E+04  0.50400001928E-02 0.  1.
       -1    1    3    3    0  502 -0.17521354812E+04  0.40038575607E+03  0.10742867142E+02  0.17973321639E+04  0.50400001928E-02 0. -1.
</event>
<event>
 5   0  0.1724503E-06  0.3730357E+04  0.7818609E-02  0.8061268E-01
        2   -1    0    0  501    0  0.00000000000E+00  0.00000000000E+00  0.29278812858E+04  0.29278812858E+04  0.25500000920E-02 0.  1.
       -2   -1    0    0    0  501  0.00000000000E+00  0.00000000000E+00 -0.11881937118E+04  0.11881937118E+04  0.25500000920E-02 0. -1.
    10030    2    1    2    0    0  0.00000000000E+00  0.00000000000E+00  0.17396875740E+04  0.41160749976E+04  0.37303566225E+04 0.  0.
        1    1    3    3  502    0  0.62776941200E+03  0.36344809539E+03 -0.10261751721E+04  0.12566719685E+04  0.50400001928E-02 0. -1.
       -1    1    3    3    0  502 -0.62776941200E+03 -0.36344809539E+03  0.27658627461E+04  0.28594030291E+04  0.50400001928E-02 0.  1.
</event>
<event>
 5   0  0.1184684E-06  0.3709372E+04  0.7818609E-02  0.8065888E-01
        2   -1    0    0  501    0  0.00000000000E+00  0.00000000000E+00  0.17793109380E+04  0.17793109380E+04  0.25500000920E-02 0. -1.
       -2   -1    0    0    0  501  0.00000000000E+00  0.00000000000E+00 -0.19332538164E+04  0.19332538164E+04  0.25500000920E-02 0.  1.
    10030    2    1    2    0    0  0.00000000000E+00  0.00000000000E+00 -0.15394287836E+03  0.37125647544E+04  0.37093717320E+04 0.  0.
        4    1    3    3  502    0  0.15318899237E+04 -0.54674049604E+03  0.81500059000E+03  0.18192964253E+04  0.12699999809E+01 0. -1.
       -4    1    3    3    0  502 -0.15318899237E+04  0.54674049604E+03 -0.96894346836E+03  0.18932683292E+04  0.12699999809E+01 0.  1.
</event>
<event>
 5   0  0.1184684E-06  0.3673608E+04  0.7818609E-02  0.8073836E-01
       -2   -1    0    0    0  501  0.00000000000E+00  0.00000000000E+00  0.12315935575E+04  0.12315935575E+04  0.25500000920E-02 0. -1.
        2   -1    0    0  501    0  0.00000000000E+00  0.00000000000E+00 -0.27394168662E+04  0.27394168663E+04  0.25500000920E-02 0.  1.
    10030    2    1    2    0    0  0.00000000000E+00  0.00000000000E+00 -0.15078233088E+04  0.39710104237E+04  0.36736075804E+04 0.  0.
        4    1    3    3  502    0 -0.68168806149E+03 -0.17011161363E+04 -0.61997843209E+03  0.19346497336E+04  0.12699999809E+01 0.  1.
       -4    1    3    3    0  502  0.68168806149E+03  0.17011161363E+04 -0.88784487666E+03  0.20363606902E+04  0.12699999809E+01 0. -1.
</event>
<event>
 5   0  0.1680194E-06  0.2043819E+04  0.7818609E-02  0.8586403E-01
       -2   -1    0    0    0  501  0.00000000000E+00  0.00000000000E+00  0.78504015915E+03  0.78504015916E+03  0.25500000920E-02 0. -1.
        2   -1    0    0  501    0  0.00000000000E+00  0.00000000000E+00 -0.13302494376E+04  0.13302494376E+04  0.25500000920E-02 0.  1.
    10030    2    1    2    0    0  0.00000000000E+00  0.00000000000E+00 -0.54520927842E+03  0.21152895967E+04  0.20438191996E+04 0.  0.
        2    1    3    3  502    0 -0.78321650218E+03  0.53439073131E+03 -0.66711345234E+03  0.11593282112E+04  0.25500000920E-02 0.  1.
       -2    1    3    3    0  502  0.78321650218E+03 -0.53439073131E+03  0.12190417391E+03  0.95596138553E+03  0.25500000920E-02 0. -1.
</event>
<event>
 5   0  0.5679750E-07  0.3775366E+04  0.7818609E-02  0.8051462E-01
        1   -1    0    0  501    0  0.00000000000E+00  0.00000000000E+00  0.24025620451E+04  0.24025620451E+04  0.50400001928E-02 0.  1.
       -1   -1    0    0    0  501  0.00000000000E+00  0.00000000000E+00 -0.14831446082E+04  0.14831446082E+04  0.50400001928E-02 0. -1.
    10030    2    1    2    0    0  0.00000000000E+00  0.00000000000E+00  0.91941743689E+03  0.38857066533E+04  0.37753659123E+04 0.  0.
        4    1    3    3  502    0 -0.13851512250E+04  0.10259009858E+04 -0.33234683286E+03  0.17554409073E+04  0.12699999809E+01 0. -1.
       -4    1    3    3    0  502  0.13851512250E+04 -0.10259009858E+04  0.12517642698E+04  0.21302657460E+04  0.12699999809E+01 0.  1.
</event>
<event>
 5   0  0.1184684E-06  0.3716307E+04  0.7818609E-02  0.8064358E-01
        2   -1    0    0  501    0  0.00000000000E+00  0.00000000000E+00  0.24473857705E+04  0.24473857705E+04  0.25500000920E-02 0.  1.
       -2   -1    0    0    0  501  0.00000000000E+00  0.00000000000E+00 -0.14107846281E+04  0.14107846281E+04  0.25500000920E-02 0. -1.
    10030    2    1    2    0    0  0.00000000000E+00  0.00000000000E+00  0.10366011425E+04  0.38581703986E+04  0.37163068894E+04 0.  0.
        4    1    3    3  502    0  0.86172002974E+03  0.15684681948E+04  0.10374689179E+04  0.20685737251E+04  0.12699999809E+01 0.  1.
       -4    1    3    3    0  502 -0.86172002974E+03 -0.15684681948E+04 -0.86777538160E+00  0.17895966735E+04  0.12699999809E+01 0. -1.
</event>
<event>
 5   0  0.1408123E-06  0.1969341E+04  0.7818609E-02  0.8621090E-01
        2   -1    0    0  501    0  0.00000000000E+00  0.00000000000E+00  0.22097083459E+04  0.22097083459E+04  0.25500000920E-02 0.  1.
       -2   -1    0    0    0  501  0.00000000000E+00  0.00000000000E+00 -0.43878014250E+03  0.43878014251E+03  0.25500000920E-02 0. -1.
    10030    2    1    2    0    0  0.00000000000E+00  0.00000000000E+00  0.17709282034E+04  0.26484884885E+04  0.19693411517E+04 0.  0.
        4    1    3    3  502    0  0.48593884374E+03 -0.19814054410E+03 -0.23503793098E+03  0.57501363199E+03  0.12699999809E+01 0. -1.
       -4    1    3    3    0  502 -0.48593884374E+03  0.19814054410E+03  0.20059661344E+04  0.20734748565E+04  0.12699999809E+01 0.  1.
</event>
<event>
 5   0  0.1685793E-06  0.2305324E+04  0.7818609E-02  0.8475825E-01
        2   -1    0    0  501    0  0.00000000000E+00  0.00000000000E+00  0.11453625108E+04  0.11453625108E+04  0.25500000920E-02 0.  1.
       -2   -1    0    0    0  501  0.00000000000E+00  0.00000000000E+00 -0.11600081193E+04  0.11600081193E+04  0.25500000920E-02 0. -1.
    10030    2    1    2    0    0  0.00000000000E+00  0.00000000000E+00 -0.14645608482E+02  0.23053706302E+04  0.23053241092E+04 0.  0.
        3    1    3    3  502    0  0.62978133071E+02  0.10036826000E+04 -0.57061455890E+03  0.11562638072E+04  0.10100000352E+00 0.  1.
       -3    1    3    3    0  502 -0.62978133071E+02 -0.10036826000E+04  0.55596895042E+03  0.11491068230E+04  0.10100000352E+00 0. -1.
</event>
<event>
 5   0  0.6261598E-07  0.2211830E+04  0.7818609E-02  0.8513520E-01
        1   -1    0    0  501    0  0.00000000000E+00  0.00000000000E+00  0.87236563409E+03  0.87236563410E+03  0.50400001928E-02 0. -1.
       -1   -1    0    0    0  501  0.00000000000E+00  0.00000000000E+00 -0.14019902093E+04  0.14019902093E+04  0.50400001928E-02 0.  1.
    10030    2    1    2    0    0  0.00000000000E+00  0.00000000000E+00 -0.52962457517E+03  0.22743558434E+04  0.22118300820E+04 0.  0.
        1    1    3    3  502    0 -0.36142081572E+03 -0.73583655144E+03  0.49844278832E+03  0.95944027940E+03  0.50400001928E-02 0. -1.
       -1    1    3    3    0  502  0.36142081572E+03  0.73583655144E+03 -0.10280673635E+04  0.13149155640E+04  0.50400001928E-02 0.  1.
</event>
<event>
 5   0  0.1151180E-06  0.3673153E+04  0.7818609E-02  0.8073938E-01
       -2   -1    0    0    0  501  0.00000000000E+00  0.00000000000E+00  0.12741317489E+04  0.12741317489E+04  0.25500000920E-02 0.  1.
        2   -1    0    0  501    0  0.00000000000E+00  0.00000000000E+00 -0.26473035069E+04  0.26473035069E+04  0.25500000920E-02 0. -1.
    10030    2    1    2    0    0  0.00000000000E+00  0.00000000000E+00 -0.13731717580E+04  0.39214352558E+04  0.36731531126E+04 0.  0.
        5    1    3    3  502    0 -0.10896860288E+04  0.87743023937E+03 -0.19568393470E+04  0.24055231835E+04  0.46999998093E+01 0. -1.
       -5    1    3    3    0  502  0.10896860288E+04 -0.87743023937E+03  0.58366758904E+03  0.15159120723E+04  0.46999998093E+01 0.  1.
</event>
<event>
 5   0  0.1184684E-06  0.3550963E+04  0.7818609E-02  0.8101817E-01
       -2   -1    0    0    0  501  0.00000000000E+00  0.00000000000E+00  0.18361016429E+04  0.18361016429E+04  0.25500000920E-02 0. -1.
        2   -1    0    0  501    0  0.00000000000E+00  0.00000000000E+00 -0.17168627675E+04  0.17168627675E+04  0.25500000920E-02 0.  1.
    10030    2    1    2    0    0  0.00000000000E+00  0.00000000000E+00  0.11923887537E+03  0.35529644105E+04  0.35509629951E+04 0.  0.
        4    1    3    3  502    0  0.14530399306E+04 -0.93149209249E+03  0.47618374118E+03  0.17904622662E+04  0.12699999809E+01 0. -1.
       -4    1    3    3    0  502 -0.14530399306E+04  0.93149209249E+03 -0.35694486580E+03  0.17625021443E+04  0.12699999809E+01 0.  1.
</event>
<event>
 5   0  0.6287345E-07  0.2808204E+04  0.7818609E-02  0.8300726E-01
        1   -1    0    0  501    0  0.00000000000E+00  0.00000000000E+00  0.90432913876E+03  0.90432913877E+03  0.50400001928E-02 0.  1.
       -1   -1    0    0    0  501  0.00000000000E+00  0.00000000000E+00 -0.21800723859E+04  0.21800723859E+04  0.50400001928E-02 0. -1.
    10030    2    1    2    0    0  0.00000000000E+00  0.00000000000E+00 -0.12757432471E+04  0.30844015247E+04  0.28082043965E+04 0.  0.
        5    1    3    3  502    0  0.42687155290E+03  0.47606116185E+03  0.73512637306E+03  0.97431331042E+03  0.46999998093E+01 0.  1.
       -5    1    3    3    0  502 -0.42687155290E+03 -0.47606116185E+03 -0.20108696202E+04  0.21100882142E+04  0.46999998093E+01 0. -1.
</event>
<event>
 5   0  0.1497635E-06  0.1981933E+04  0.7818609E-02  0.8615115E-01
       -2   -1    0    0    0  501  0.00000000000E+00  0.00000000000E+00  0.82424235887E+03  0.82424235887E+03  0.25500000920E-02 0.  1.
        2   -1    0    0  501    0  0.00000000000E+00  0.00000000000E+00 -0.11914143508E+04  0.11914143508E+04  0.25500000920E-02 0. -1.
    10030    2    1    2    0    0  0.00000000000E+00  0.00000000000E+00 -0.36717199194E+03  0.20156567097E+04  0.19819325669E+04 0.  0.
        4    1    3    3  502    0  0.49111714489E+03  0.38474803917E+02  0.69089158614E+03  0.84853353336E+03  0.12699999809E+01 0.  1.
       -4    1    3    3    0  502 -0.49111714489E+03 -0.38474803917E+02 -0.10580635781E+04  0.11671231763E+04  0.12699999809E+01 0. -1.
</event>
<event>
 5   0  0.1724503E-06  0.2989383E+04  0.7818609E-02  0.8246769E-01
       -2   -1    0    0    0  501  0.00000000000E+00  0.00000000000E+00  0.12302849145E+04  0.12302849145E+04  0.25500000920E-02 0. -1.
        2   -1    0    0  501    0  0.00000000000E+00  0.00000000000E+00 -0.18159230273E+04  0.18159230273E+04  0.25500000920E-02 0.  1.
    10030    2    1    2    0    0  0.00000000000E+00  0.00000000000E+00 -0.58563811275E+03  0.30462079418E+04  0.29893830175E+04 0.  0.
        1    1    3    3  502    0 -0.37193420177E+02 -0.28884681991E+03  0.12010934943E+04  0.12358970095E+04  0.50400001928E-02 0. -1.
       -1    1    3    3    0  502  0.37193420177E+02  0.28884681991E+03 -0.17867316071E+04  0.18103109323E+04  0.50400001928E-02 0.  1.
</event>
<event>
 5   0  0.5679750E-07  0.3661291E+04  0.7818609E-02  0.8076595E-01
       -1   -1    0    0    0  501  0.00000000000E+00  0.00000000000E+00  0.16802684372E+04  0.16802684372E+04  0.50400001928E-02 0. -1.
        1   -1    0    0  501    0  0.00000000000E+00  0.00000000000E+00 -0.19944802267E+04  0.19944802267E+04  0.50400001928E-02 0.  1.
    10030    2    1    2    0    0  0.00000000000E+00  0.00000000000E+00 -0.31421178959E+03  0.36747486639E+04  0.36612905777E+04 0.  0.
        4    1    3    3  502    0 -0.11389820847E+04  0.38746935512E+03  0.12277658800E+04  0.17189599645E+04  0.12699999809E+01 0. -1.
       -4    1    3    3    0  502  0.11389820847E+04 -0.38746935512E+03 -0.15419776696E+04  0.19557886994E+04  0.12699999809E+01 0.  1.
</event>
<event>
 5   0  0.1680194E-06  0.3645810E+04  0.7818609E-02  0.8080078E-01
        2   -1    0    0  501    0  0.00000000000E+00  0.00000000000E+00  0.22414462293E+04  0.22414462293E+04  0.25500000920E-02 0. -1.
       -2   -1    0    0    0  501  0.00000000000E+00  0.00000000000E+00 -0.14825175811E+04  0.14825175811E+04  0.25500000920E-02 0.  1.
    10030    2    1    2    0    0  0.00000000000E+00  0.00000000000E+00  0.75892864818E+03  0.37239638104E+04  0.36458104405E+04 0.  0.
        2    1    3    3  502    0 -0.13199528445E+04  0.79391467413E+03 -0.61632227363E+03  0.16590446547E+04  0.25500000920E-02 0.  1.
       -2    1    3    3    0  502  0.13199528445E+04 -0.79391467413E+03  0.13752509218E+04  0.20649191557E+04  0.25500000920E-02 0. -1.
</event>
<event>
 5   0  0.5679750E-07  0.3432317E+04  0.7818609E-02  0.8130020E-01
       -1   -1    0    0    0  501  0.00000000000E+00  0.00000000000E+00  0.24858354571E+04  0.24858354571E+04  0.50400001928E-02 0. -1.
        1   -1    0    0  501    0  0.00000000000E+00  0.00000000000E+00 -0.11847929939E+04  0.11847929939E+04  0.50400001928E-02 0.  1.
    10030    2    1    2    0    0  0.00000000000E+00  0.00000000000E+00  0.13010424632E+04  0.36706284510E+04  0.34323172543E+04 0.  0.
        4    1    3    3  502    0  0.51550009571E+03 -0.64343140278E+03 -0.95912588218E+03  0.12647799767E+04  0.12699999809E+01 0.  1.
       -4    1    3    3    0  502 -0.51550009571E+03  0.64343140278E+03  0.22601683454E+04  0.24058484743E+04  0.12699999809E+01 0. -1.
</event>
<event>
 5   0  0.1151180E-06  0.2737789E+04  0.7818609E-02  0.8322847E-01
       -2   -1    0    0    0  501  0.00000000000E+00  0.00000000000E+00  0.13050426338E+04  0.13050426338E+04  0.25500000920E-02 0.  1.
        2   -1    0    0  501    0  0.00000000000E+00  0.00000000000E+00 -0.14358699654E+04  0.14358699654E+04  0.25500000920E-02 0. -1.
    10030    2    1    2    0    0  0.00000000000E+00  0.00000000000E+00 -0.13082733164E+03  0.27409125992E+04  0.27377885392E+04 0.  0.
        5    1    3    3  502    0 -0.10444083741E+04  0.88489656359E+03 -0.61090033658E+02  0.13702499270E+04  0.46999998093E+01 0. -1.
       -5    1    3    3    0  502  0.10444083741E+04 -0.88489656359E+03 -0.69737297981E+02  0.13706626722E+04  0.46999998093E+01 0.  1.
</event>
<event>
 5   0  0.1685793E-06  0.3690666E+04  0.7818609E-02  0.8070033E-01
       -2   -1    0    0    0  501  0.00000000000E+00  0.00000000000E+00  0.13129782549E+04  0.13129782549E+04  0.25500000920E-02 0.  1.
        2   -1    0    0  501    0  0.00000000000E+00  0.00000000000E+00 -0.25935346128E+04  0.25935346128E+04  0.25500000920E-02 0. -1.
    10030    2    1    2    0    0  0.00000000000E+00  0.00000000000E+00 -0.12805563579E+04  0.39065128677E+04  0.36906663626E+04 0.  0.
        3    1    3    3  502    0 -0.10706465986E+04  0.80496332961E+03 -0.19837632382E+04  0.23936513314E+04  0.10100000352E+00 0. -1.
       -3    1    3    3    0  502  0.10706465986E+04 -0.80496332961E+03  0.70320688030E+03  0.15128615363E+04  0.10100000352E+00 0.  1.
</event>
<event>
 5   0  0.5679750E-07  0.3366079E+04  0.7818609E-02  0.8146282E-01
        1   -1    0    0  501    0  0.00000000000E+00  0.00000000000E+00  0.28211026269E+04  0.28211026269E+04  0.50400001928E-02 0. -1.
       -1   -1    0    0    0  501  0.00000000000E+00  0.00000000000E+00 -0.10040835037E+04  0.10040835037E+04  0.50400001928E-02 0.  1.
    10030    2    1    2    0    0  0.00000000000E+00  0.00000000000E+00  0.18170191232E+04  0.38251861307E+04  0.33660793871E+04 0.  0.
        4    1    3    3  502    0 -0.32189415598E+03 -0.26096032402E+03 -0.94520512750E+03  0.10320515899E+04  0.12699999809E+01 0.  1.
       -4    1    3    3    0  502  0.32189415598E+03  0.26096032402E+03  0.27622242507E+04  0.27931345407E+04  0.12699999809E+01 0. -1.
</event>
<event>
 5   0  0.1184684E-06  0.2439624E+04  0.7818609E-02  0.8424816E-01
       -2   -1    0    0    0  501  0.00000000000E+00  0.00000000000E+00  0.59941076413E+03  0.59941076413E+03  0.25500000920E-02 0.  1.
        2   -1    0    0  501    0  0.00000000000E+00  0.00000000000E+00 -0.24823399044E+04  0.24823399044E+04  0.25500000920E-02 0. -1.
    10030    2    1    2    0    0  0.00000000000E+00  0.00000000000E+00 -0.18829291403E+04  0.30817506685E+04  0.24396239537E+04 0.  0.
        4    1    3    3  502    0 -0.75659626445E+03 -0.70006227553E+03 -0.17653764772E+04  0.20442800239E+04  0.12699999809E+01 0. -1.
       -4    1    3    3    0  502  0.75659626445E+03  0.70006227553E+03 -0.11755266311E+03  0.10374706447E+04  0.12699999809E+01 0.  1.
</event>
<event>
 5   0  0.6287345E-07  0.3710667E+04  0.7818609E-02  0.8065602E-01
        1   -1    0    0  501    0  0.00000000000E+00  0.00000000000E+00  0.26053819274E+04  0.26053819274E+04  0.50400001928E-02 0.  1.
       -1   -1    0    0    0  501  0.00000000000E+00  0.00000000000E+00 -0.13212120316E+04  0.13212120316E+04  0.50400001928E-02 0. -1.
    10030    2    1    2    0    0  0.00000000000E+00  0.00000000000E+00  0.12841698958E+04  0.39265939590E+04  0.37106667591E+04 0.  0.
        5    1    3    3  502    0 -0.81508521922E+03 -0.11523115230E+04 -0.63216945526E+03  0.15465594300E+04  0.46999998093E+01 0.  1.
       -5    1    3    3    0  502  0.81508521922E+03  0.11523115230E+04  0.19163393510E+04  0.23800345289E+04  0.46999998093E+01 0. -1.
</event>
<event>
 5   0  0.1724503E-06  0.3664664E+04  0.7818609E-02  0.8075838E-01
        2   -1    0    0  501    0  0.00000000000E+00  0.00000000000E+00  0.28165608002E+04  0.28165608002E+04  0.25500000920E-02 0. -1.
       -2   -1    0    0    0  501  0.00000000000E+00  0.00000000000E+00 -0.11920357007E+04  0.11920357007E+04  0.25500000920E-02 0.  1.
    10030    2    1    2    0    0  0.00000000000E+00  0.00000000000E+00  0.16245250996E+04  0.40085965009E+04  0.36646642558E+04 0.  0.
        1    1    3    3  502    0 -0.46937401639E+03 -0.17218087656E+04  0.12665777585E+04  0.21884141772E+04  0.50400001928E-02 0.  1.
       -1    1    3    3    0  502  0.46937401639E+03  0.17218087656E+04  0.35794734103E+03  0.18201823237E+04  0.50400001928E-02 0. -1.
</event>
<event>
 5   0  0.1685793E-06  0.3677713E+04  0.7818609E-02  0.8072919E-01
       -2   -1    0    0    0  501  0.00000000000E+00  0.00000000000E+00  0.20121103782E+04  0.20121103782E+04  0.25500000920E-02 0.  1.
        2   -1    0    0  501    0  0.00000000000E+00  0.00000000000E+00 -0.16805207917E+04  0.16805207917E+04  0.25500000920E-02 0. -1.
    10030    2    1    2    0    0  0.00000000000E+00  0.00000000000E+00  0.33158958648E+03  0.36926311698E+04  0.36777130533E+04 0.  0.
        3    1    3    3  502    0  0.44802359792E+02  0.55332908490E+02 -0.16791363816E+04  0.16806451084E+04  0.10100000352E+00 0. -1.
       -3    1    3    3    0  502 -0.44802359792E+02 -0.55332908490E+02  0.20107259681E+04  0.20119860614E+04  0.10100000352E+00 0.  1.
</event>
<event>
 5   0  0.6261598E-07  0.3520827E+04  0.7818609E-02  0.8108872E-01
       -1   -1    0    0    0  501  0.00000000000E+00  0.00000000000E+00  0.18441138400E+04  0.18441138400E+04  0.50400001928E-02 0. -1.
        1   -1    0    0  501    0  0.00000000000E+00  0.00000000000E+00 -0.16805118106E+04  0.16805118106E+04  0.50400001928E-02 0.  1.
    10030    2    1    2    0    0  0.00000000000E+00  0.00000000000E+00  0.16360202936E+03  0.35246256506E+04  0.35208266576E+04 0.  0.
        1    1    3    3  502    0  0.49387906035E+02  0.11913516084E+04  0.13783035594E+04  0.18224923928E+04  0.50400001928E-02 0. -1.
       -1    1    3    3    0  502 -0.49387906035E+02 -0.11913516084E+04 -0.12147015301E+04  0.17021332578E+04  0.50400001928E-02 0.  1.
</event>
<event>
 5   0  0.1680194E-06  0.3603812E+04  0.7818609E-02  0.8089619E-01
        2   -1    0    0  501    0  0.00000000000E+00  0.00000000000E+00  0.22553657916E+04  0.22553657916E+04  0.25500000920E-02 0.  1.
       -2   -1    0    0    0  501  0.00000000000E+00  0.00000000000E+00 -0.14396179097E+04  0.14396179097E+04  0.25500000920E-02 0. -1.
    10030    2    1    2    0    0  0.00000000000E+00  0.00000000000E+00  0.81574788193E+03  0.36949837014E+04  0.36038118633E+04 0.  0.
        2    1    3    3  502    0  0.11830121269E+04 -0.10188765209E+04 -0.51446072414E+03  0.16438664465E+04  0.25500000920E-02 0. -1.
       -2    1    3    3    0  502 -0.11830121269E+04  0.10188765209E+04  0.13302086061E+04  0.20511172548E+04  0.25500000920E-02 0.  1.
</event>
<event>
 5   0  0.1184684E-06  0.1981229E+04  0.7818609E-02  0.8615447E-01
        2   -1    0    0  501    0  0.00000000000E+00  0.00000000000E+00  0.23407132507E+04  0.23407132507E+04  0.25500000920E-02 0.  1.
       -2   -1    0    0    0  501  0.00000000000E+00  0.00000000000E+00 -0.41923864347E+03  0.41923864348E+03  0.25500000920E-02 0. -1.
    10030    2    1    2    0    0  0.00000000000E+00  0.00000000000E+00  0.19214746073E+04  0.27599518942E+04  0.19812293638E+04 0.  0.
        4    1    3    3  502    0  0.77676764489E+03  0.61384353166E+03  0.91362049190E+03  0.13471732894E+04  0.12699999809E+01 0. -1.
       -4    1    3    3    0  502 -0.77676764489E+03 -0.61384353166E+03  0.10078541154E+04  0.14127786048E+04  0.12699999809E+01 0.  1.
</event>
<event>
 5   0  0.1184684E-06  0.2745536E+04  0.7818609E-02  0.8320380E-01
        2   -1    0    0  501    0  0.00000000000E+00  0.00000000000E+00  0.17277457043E+04  0.17277457043E+04  0.25500000920E-02 0.  1.
       -2   -1    0    0    0  501  0.00000000000E+00  0.00000000000E+00 -0.10907229346E+04  0.10907229346E+04  0.25500000920E-02 0. -1.
    10030    2    1    2    0    0  0.00000000000E+00  0.00000000000E+00  0.63702276971E+03  0.28184686389E+04  0.27455359148E+04 0.  0.
        4    1    3    3  502    0 -0.29221317924E+03  0.41150770582E+03  0.16290454685E+04  0.17054377401E+04  0.12699999809E+01 0.  1.
       -4    1    3    3    0  502  0.29221317924E+03 -0.41150770582E+03 -0.99202269876E+03  0.11130308989E+04  0.12699999809E+01 0. -1.
</event>
<event>
 5   0  0.5875011E-07  0.3432210E+04  0.7818609E-02  0.8130046E-01
        1   -1    0    0  501    0  0.00000000000E+00  0.00000000000E+00  0.14126965359E+04  0.14126965359E+04  0.50400001928E-02 0.  1.
       -1   -1    0    0    0  501  0.00000000000E+00  0.00000000000E+00 -0.20846769199E+04  0.20846769199E+04  0.50400001928E-02 0. -1.
    10030    2    1    2    0    0  0.00000000000E+00  0.00000000000E+00 -0.67198038394E+03  0.34973734558E+04  0.34322097041E+04 0.  0.
        2    1    3    3  502    0 -0.16735005341E+02 -0.10008719488E+04  0.10843867233E+04  0.14757775185E+04  0.25500000920E-02 0.  1.
       -2    1    3    3    0  502  0.16735005341E+02  0.10008719488E+04 -0.17563671072E+04  0.20215959373E+04  0.25500000920E-02 0. -1.
</event>
<event>
 5   0  0.6261598E-07  0.2836067E+04  0.7818609E-02  0.8292158E-01
       -1   -1    0    0    0  501  0.00000000000E+00  0.00000000000E+00  0.11782306685E+04  0.11782306685E+04  0.50400001928E-02 0.  1.
        1   -1    0    0  501    0  0.00000000000E+00  0.00000000000E+00 -0.17066431814E+04  0.17066431814E+04  0.50400001928E-02 0. -1.
    10030    2    1    2    0    0  0.00000000000E+00  0.00000000000E+00 -0.52841251283E+03  0.28848738499E+04  0.28360672323E+04 0.  0.
        1    1    3    3  502    0  0.90360792085E+03 -0.74619404928E+03 -0.10763868618E+04  0.15912012789E+04  0.50400001928E-02 0. -1.
       -1    1    3    3    0  502 -0.90360792085E+03  0.74619404928E+03  0.54797434893E+03  0.12936725710E+04  0.50400001928E-02 0.  1.
</event>
<event>
 5   0  0.5679750E-07  0.2881071E+04  0.7818609E-02  0.8278532E-01
       -1   -1    0    0    0  501  0.00000000000E+00  0.00000000000E+00  0.78859999852E+03  0.78859999853E+03  0.50400001928E-02 0. -1.
        1   -1    0    0  501    0  0.00000000000E+00  0.00000000000E+00 -0.26314261041E+04  0.26314261041E+04  0.50400001928E-02 0.  1.
    10030    2    1    2    0    0  0.00000000000E+00  0.00000000000E+00 -0.18428261056E+04  0.34200261027E+04  0.28810710660E+04 0.  0.
        4    1    3    3  502    0  0.13054550640E+04 -0.16993264126E+03 -0.16156710173E+04  0.20841027988E+04  0.12699999809E+01 0.  1.
       -4    1    3    3    0  502 -0.13054550640E+04  0.16993264126E+03 -0.22715508829E+03  0.13359233039E+04  0.12699999809E+01 0. -1.
</event>
<event>
 5   0  0.5875011E-07  0.3722002E+04  0.7818609E-02  0.8063103E-01
        1   -1    0    0  501    0  0.00000000000E+00  0.00000000000E+00  0.29758070776E+04  0.29758070776E+04  0.50400001928E-02 0. -1.
       -1   -1    0    0    0  501  0.00000000000E+00  0.00000000000E+00 -0.11638268925E+04  0.11638268925E+04  0.50400001928E-02 0.  1.
    10030    2    1    2    0    0  0.00000000000E+00  0.00000000000E+00  0.18119801850E+04  0.41396339701E+04  0.37220017753E+04 0.  0.
        2    1    3    3  502    0  0.99751805272E+03 -0.14468350518E+04  0.22495065737E+03  0.17717157590E+04  0.25500000920E-02 0.  1.
       -2    1    3    3    0  502 -0.99751805272E+03  0.14468350518E+04  0.15870295277E+04  0.23679182111E+04  0.25500000920E-02 0. -1.
</event>
<event>
 5   0  0.5679750E-07  0.3666356E+04  0.7818609E-02  0.8075459E-01
        1   -1    0    0  501    0  0.00000000000E+00  0.00000000000E+00  0.24104412992E+04  0.24104412992E+04  0.50400001928E-02 0. -1.
       -1   -1    0    0    0  501  0.00000000000E+00  0.00000000000E+00 -0.13941604275E+04  0.13941604275E+04  0.50400001928E-02 0.  1.
    10030    2    1    2    0    0  0.00000000000E+00  0.00000000000E+00  0.10162808716E+04  0.38046017267E+04  0.36663561596E+04 0.  0.
        4    1    3    3  502    0 -0.16570786616E+04  0.75537954147E+03  0.72589151635E+03  0.19604662835E+04  0.12699999809E+01 0. -1.
       -4    1    3    3    0  502  0.16570786616E+04 -0.75537954147E+03  0.29038935527E+03  0.18441354432E+04  0.12699999809E+01 0.  1.
</event>
<event>
 5   0  0.1680194E-06  0.3493245E+04  0.7818609E-02  0.8115393E-01
        2   -1    0    0  501    0  0.00000000000E+00  0.00000000000E+00  0.14809154038E+04  0.14809154038E+04  0.25500000920E-02 0.  1.
       -2   -1    0    0    0  501  0.00000000000E+00  0.00000000000E+00 -0.20600034060E+04  0.20600034060E+04  0.25500000920E-02 0. -1.
    10030    2    1    2    0    0  0.00000000000E+00  0.00000000000E+00 -0.57908800219E+03  0.35409188098E+04  0.34932453540E+04 0.  0.
        2    1    3    3  502    0  0.14259460490E+04 -0.60901132595E+03 -0.11045529146E+04  0.19037473759E+04  0.25500000920E-02 0. -1.
       -2    1    3    3    0  502 -0.14259460490E+04  0.60901132595E+03  0.52546491244E+03  0.16371714339E+04  0.25500000920E-02 0.  1.
</event>
<event>
 5   0  0.5875011E-07  0.3634843E+04  0.7818609E-02  0.8082557E-01
       -1   -1    0    0    0  501  0.00000000000E+00  0.00000000000E+00  0.13441059602E+04  0.13441059602E+04  0.50400001928E-02 0.  1.
        1   -1    0    0  501    0  0.00000000000E+00  0.00000000000E+00 -0.24574109178E+04  0.24574109178E+04  0.50400001928E-02 0. -1.
    10030    2    1    2    0    0  0.00000000000E+00  0.00000000000E+00 -0.11133049576E+04  0.38015168780E+04  0.36348428639E+04 0.  0.
        2    1    3    3  502    0 -0.55510413440E+03  0.13057138576E+04  0.63120595866E+03  0.15528844903E+04  0.25500000920E-02 0.  1.
       -2    1    3    3    0  502  0.55510413440E+03 -0.13057138576E+04 -0.17445109163E+04  0.22486323877E+04  0.25500000920E-02 0. -1.
</event>
<event>
 5   0  0.1680194E-06  0.3702584E+04  0.7818609E-02  0.8067389E-01
        2   -1    0    0  501    0  0.00000000000E+00  0.00000000000E+00  0.10832990478E+04  0.10832990478E+04  0.25500000920E-02 0.  1.
       -2   -1    0    0    0  501  0.00000000000E+00  0.00000000000E+00 -0.31637450949E+04  0.31637450949E+04  0.25500000920E-02 0. -1.
    10030    2    1    2    0    0  0.00000000000E+00  0.00000000000E+00 -0.20804460471E+04  0.42470441426E+04  0.37025839888E+04 0.  0.
        2    1    3    3  502    0 -0.16916586069E+04 -0.74538942075E+03 -0.92570287639E+03  0.20674235285E+04  0.25500000920E-02 0.  1.
       -2    1    3    3    0  502  0.16916586069E+04  0.74538942075E+03 -0.11547431707E+04  0.21796206141E+04  0.25500000920E-02 0. -1.
</event>
<event>
 5   0  0.5679750E-07  0.2557341E+04  0.7818609E-02  0.8382838E-01
       -1   -1    0    0    0  501  0.00000000000E+00  0.00000000000E+00  0.10706589792E+04  0.10706589792E+04  0.50400001928E-02 0. -1.
        1   -1    0    0  501    0  0.00000000000E+00  0.00000000000E+00 -0.15270950557E+04  0.15270950557E+04  0.50400001928E-02 0.  1.
    10030    2    1    2    0    0  0.00000000000E+00  0.00000000000E+00 -0.45643607652E+03  0.25977540349E+04  0.25573408326E+04 0.  0.
        4    1    3    3  502    0  0.18672514869E+03 -0.59209426793E+01 -0.15131564447E+04  0.15246459844E+04  0.12699999809E+01 0.  1.
       -4    1    3    3    0  502 -0.18672514869E+03  0.59209426793E+01  0.10567203682E+04  0.10731080505E+04  0.12699999809E+01 0. -1.
</event>
<event>
 5   0  0.6261598E-07  0.3716396E+04  0.7818609E-02  0.8064338E-01
       -1   -1    0    0    0  501  0.00000000000E+00  0.00000000000E+00  0.19003619805E+04  0.19003619806E+04  0.50400001928E-02 0.  1.
        1   -1    0    0  501    0  0.00000000000E+00  0.00000000000E+00 -0.18169700108E+04  0.18169700108E+04  0.50400001928E-02 0. -1.
    10030    2    1    2    0    0  0.00000000000E+00  0.00000000000E+00  0.83391969707E+02  0.37173319914E+04  0.37163964958E+04 0.  0.
        1    1    3    3  502    0 -0.15731506203E+04  0.84212459576E+03 -0.47701339824E+03  0.18470296400E+04  0.50400001928E-02 0. -1.
       -1    1    3    3    0  502  0.15731506203E+04 -0.84212459576E+03  0.56040536795E+03  0.18703023514E+04  0.50400001928E-02 0.  1.
</event>
<event>
 5   0  0.1680194E-06  0.3491968E+04  0.7818609E-02  0.8115696E-01
        2   -1    0    0  501    0  0.00000000000E+00  0.00000000000E+00  0.18774843960E+04  0.18774843960E+04  0.25500000920E-02 0. -1.
       -2   -1    0    0    0  501  0.00000000000E+00  0.00000000000E+00 -0.16236940343E+04  0.16236940343E+04  0.25500000920E-02 0.  1.
    10030    2    1    2    0    0  0.00000000000E+00  0.00000000000E+00  0.25379036173E+03  0.35011784303E+04  0.34919680487E+04 0.  0.
        2    1    3    3  502    0 -0.39744580569E+03 -0.12416408723E+04 -0.10375573379E+04  0.16661813988E+04  0.25500000920E-02 0.  1.
       -2    1    3    3    0  502  0.39744580569E+03  0.12416408723E+04  0.12913476996E+04  0.18349970315E+04  0.25500000920E-02 0. -1.
</event>
<event>
 5   0  0.1724503E-06  0.3610726E+04  0.7818609E-02  0.8088039E-01
       -2   -1    0    0    0  501  0.00000000000E+00  0.00000000000E+00  0.17360992906E+04  0.17360992906E+04  0.25500000920E-02 0. -1.
        2   -1    0    0  501    0  0.00000000000E+00  0.00000000000E+00 -0.18773904708E+04  0.18773904708E+04  0.25500000920E-02 0.  1.
    10030    2    1    2    0    0  0.00000000000E+00  0.00000000000E+00 -0.14129118016E+03  0.36134897614E+04  0.36107263893E+04 0.  0.
        1    1    3    3  502    0  0.13382456445E+04 -0.10965170942E+04 -0.58687476359E+03  0.18269299743E+04  0.50400001928E-02 0.  1.
       -1    1    3    3    0  502 -0.13382456445E+04  0.10965170942E+04  0.44558358343E+03  0.17865597871E+04  0.50400001928E-02 0. -1.
</event>
<event>
 5   0  0.1685793E-06  0.3605371E+04  0.7818609E-02  0.8089262E-01
        2   -1    0    0  501    0  0.00000000000E+00  0.00000000000E+00  0.33483625577E+04  0.33483625577E+04  0.25500000920E-02 0.  1.
       -2   -1    0    0    0  501  0.00000000000E+00  0.00000000000E+00 -0.97052671437E+03  0.97052671437E+03  0.25500000920E-02 0. -1.
    10030    2    1    2    0    0  0.00000000000E+00  0.00000000000E+00  0.23778358434E+04  0.43188892721E+04  0.36053711663E+04 0.  0.
        3    1    3    3  502    0  0.74534172479E+03  0.95066346714E+03 -0.41393877449E+03  0.12769654004E+04  0.10100000352E+00 0. -1.
       -3    1    3    3    0  502 -0.74534172479E+03 -0.95066346714E+03  0.27917746179E+04  0.30419238718E+04  0.10100000352E+00 0.  1.
</event>
<event>
 5   0  0.5875011E-07  0.1998266E+04  0.7818609E-02  0.8607432E-01
        1   -1    0    0  501    0  0.00000000000E+00  0.00000000000E+00  0.65010701753E+03  0.65010701755E+03  0.50400001928E-02 0.  1.
       -1   -1    0    0    0  501  0.00000000000E+00  0.00000000000E+00 -0.15355426869E+04  0.15355426869E+04  0.50400001928E-02 0. -1.
    10030    2    1    2    0    0  0.00000000000E+00  0.00000000000E+00 -0.88543566934E+03  0.21856497044E+04  0.19982663251E+04 0.  0.
        2    1    3    3  502    0  0.10885811102E+03 -0.99270557047E+03 -0.40895870419E+03  0.10791485809E+04  0.25500000920E-02 0.  1.
       -2    1    3    3    0  502 -0.10885811102E+03  0.99270557047E+03 -0.47647696515E+03  0.11065011235E+04  0.25500000920E-02 0. -1.
</event>
<event>
 5   0  0.5679750E-07  0.3644689E+04  0.7818609E-02  0.8080331E-01
        1   -1    0    0  501    0  0.00000000000E+00  0.00000000000E+00  0.21576255496E+04  0.21576255496E+04  0.50400001928E-02 0.  1.
       -1   -1    0    0    0  501  0.00000000000E+00  0.00000000000E+00 -0.15391643537E+04  0.15391643537E+04  0.50400001928E-02 0. -1.
    10030    2    1    2    0    0  0.00000000000E+00  0.00000000000E+00  0.61846119586E+03  0.36967899033E+04  0.36446894707E+04 0.  0.
        4    1    3    3  502    0  0.24292106314E+03 -0.32914667236E+03  0.21104511339E+04  0.21497334198E+04  0.12699999809E+01 0.  1.
       -4    1    3    3    0  502 -0.24292106314E+03  0.32914667236E+03 -0.14919899380E+04  0.15470564834E+04  0.12699999809E+01 0. -1.
</event>
<event>
 5   0  0.6261598E-07  0.3631478E+04  0.7818609E-02  0.8083319E-01
       -1   -1    0    0    0  501  0.00000000000E+00  0.00000000000E+00  0.29851642377E+04  0.29851642377E+04  0.50400001928E-02 0. -1.
        1   -1    0    0  501    0  0.00000000000E+00  0.00000000000E+00 -0.11044308845E+04  0.11044308845E+04  0.50400001928E-02 0.  1.
    10030    2    1    2    0    0  0.00000000000E+00  0.00000000000E+00  0.18807333532E+04  0.40895951222E+04  0.36314777044E+04 0.  0.
        1    1    3    3  502    0 -0.22754415835E+03  0.31889068962E+03 -0.10562721728E+04  0.11265782347E+04  0.50400001928E-02 0.  1.
       -1    1    3    3    0  502  0.22754415835E+03 -0.31889068962E+03  0.29370055260E+04  0.29630168875E+04  0.50400001928E-02 0. -1.
</event>
<event>
 5   0  0.1724503E-06  0.2128029E+04  0.7818609E-02  0.8548996E-01
       -2   -1    0    0    0  501  0.00000000000E+00  0.00000000000E+00  0.93981312914E+03  0.93981312915E+03  0.25500000920E-02 0.  1.
        2   -1    0    0  501    0  0.00000000000E+00  0.00000000000E+00 -0.12046292496E+04  0.12046292496E+04  0.25500000920E-02 0. -1.
    10030    2    1    2    0    0  0.00000000000E+00  0.00000000000E+00 -0.26481612046E+03  0.21444423787E+04  0.21280285567E+04 0.  0.
        1    1    3    3  502    0 -0.74617257990E+03 -0.85913511735E+02 -0.89185999191E+03  0.11660055299E+04  0.50400001928E-02 0. -1.
       -1    1    3    3    0  502  0.74617257990E+03  0.85913511735E+02  0.62704387145E+03  0.97843684888E+03  0.50400001928E-02 0.  1.
</event>
<event>
 5   0  0.1680194E-06  0.3653205E+04  0.7818609E-02  0.8078412E-01
        2   -1    0    0  501    0  0.00000000000E+00  0.00000000000E+00  0.20983370753E+04  0.20983370753E+04  0.25500000920E-02 0.  1.
       -2   -1    0    0    0  501  0.00000000000E+00  0.00000000000E+00 -0.15900572509E+04  0.15900572509E+04  0.25500000920E-02 0. -1.
    10030    2    1    2    0    0  0.00000000000E+00  0.00000000000E+00  0.50827982440E+03  0.36883943262E+04  0.36532046651E+04 0.  0.
        2    1    3    3  502    0 -0.15544449424E+03 -0.14058183778E+04 -0.91284323547E+03  0.16833808466E+04  0.25500000920E-02 0. -1.
       -2    1    3    3    0  502  0.15544449424E+03  0.14058183778E+04  0.14211230599E+04  0.20050134796E+04  0.25500000920E-02 0.  1.
</event>
<event>
 5   0  0.1151180E-06  0.3690006E+04  0.7818609E-02  0.8070180E-01
       -2   -1    0    0    0  501  0.00000000000E+00  0.00000000000E+00  0.27170409642E+04  0.27170409642E+04  0.25500000920E-02 0. -1.
        2   -1    0    0  501    0  0.00000000000E+00  0.00000000000E+00 -0.12528466383E+04  0.12528466383E+04  0.25500000920E-02 0.  1.
    10030    2    1    2    0    0  0.00000000000E+00  0.00000000000E+00  0.14641943260E+04  0.39698876025E+04  0.36900057659E+04 0.  0.
        5    1    3    3  502    0  0.46415903555E+03 -0.11063837521E+04  0.22400074955E+04  0.25410990313E+04  0.46999998093E+01 0. -1.
       -5    1    3    3    0  502 -0.46415903555E+03  0.11063837521E+04 -0.77581316954E+03  0.14287885712E+04  0.46999998093E+01 0.  1.
</event>
<event>
 5   0  0.1151180E-06  0.3438275E+04  0.7818609E-02  0.8128576E-01
        2   -1    0    0  501    0  0.00000000000E+00  0.00000000000E+00  0.21048657237E+04  0.21048657237E+04  0.25500000920E-02 0.  1.
       -2   -1    0    0    0  501  0.00000000000E+00  0.00000000000E+00 -0.14040962604E+04  0.14040962604E+04  0.25500000920E-02 0. -1.
    10030    2    1    2    0    0  0.00000000000E+00  0.00000000000E+00  0.70076946325E+03  0.35089619841E+04  0.34382752021E+04 0.  0.
        5    1    3    3  502    0 -0.13043360019E+04  0.81095169343E+03 -0.43781241738E+03  0.15970713377E+04  0.46999998093E+01 0. -1.
       -5    1    3    3    0  502  0.13043360019E+04 -0.81095169343E+03  0.11385818806E+04  0.19118906464E+04  0.46999998093E+01 0.  1.
</event>
<event>
 5   0  0.1184684E-06  0.3675561E+04  0.7818609E-02  0.8073399E-01
        2   -1    0    0  501    0  0.00000000000E+00  0.00000000000E+00  0.12975879815E+04  0.12975879815E+04  0.25500000920E-02 0.  1.
       -2   -1    0    0    0  501  0.00000000000E+00  0.00000000000E+00 -0.26028584201E+04  0.26028584201E+04  0.25500000920E-02 0. -1.
    10030    2    1    2    0    0  0.00000000000E+00  0.00000000000E+00 -0.13052704386E+04  0.39004464016E+04  0.36755613467E+04 0.  0.
        4    1    3    3  502    0 -0.85550024594E+03 -0.10037302380E+04 -0.20108183821E+04  0.24047343388E+04  0.12699999809E+01 0. -1.
       -4    1    3    3    0  502  0.85550024594E+03  0.10037302380E+04  0.70554794344E+03  0.14957120628E+04  0.12699999809E+01 0.  1.
</event>
<event>
 5   0  0.6261598E-07  0.2701678E+04  0.7818609E-02  0.8334461E-01
        1   -1    0    0  501    0  0.00000000000E+00  0.00000000000E+00  0.10036349937E+04  0.10036349937E+04  0.50400001928E-02 0. -1.
       -1   -1    0    0    0  501  0.00000000000E+00  0.00000000000E+00 -0.18181573272E+04  0.18181573272E+04  0.50400001928E-02 0.  1.
    10030    2    1    2    0    0  0.00000000000E+00  0.00000000000E+00 -0.81452233352E+03  0.28217923209E+04  0.27016782323E+04 0.  0.
        1    1    3    3  502    0  0.30051532645E+03 -0.32831241112E+03  0.92485120213E+03  0.10263762696E+04  0.50400001928E-02 0. -1.
       -1    1    3    3    0  502 -0.30051532645E+03  0.32831241112E+03 -0.17393735357E+04  0.17954160513E+04  0.50400001928E-02 0.  1.
</event>
<event>
 5   0  0.1724503E-06  0.3562121E+04  0.7818609E-02  0.8099224E-01
        2   -1    0    0  501    0  0.00000000000E+00  0.00000000000E+00  0.21606977860E+04  0.21606977860E+04  0.25500000920E-02 0. -1.
       -2   -1    0    0    0  501  0.00000000000E+00  0.00000000000E+00 -0.14681261335E+04  0.14681261335E+04  0.25500000920E-02 0.  1.
    10030    2    1    2    0    0  0.00000000000E+00  0.00000000000E+00  0.69257165254E+03  0.36288239196E+04  0.35621212143E+04 0.  0.
        1    1    3    3  502    0  0.11270339817E+04  0.67406836902E+03  0.15719795367E+04  0.20483391873E+04  0.50400001928E-02 0. -1.
       -1    1    3    3    0  502 -0.11270339817E+04 -0.67406836902E+03 -0.87940788421E+03  0.15804847323E+04  0.50400001928E-02 0.  1.
</event>
<event>
 5   0  0.1151180E-06  0.3569035E+04  0.7818609E-02  0.8097622E-01
       -2   -1    0    0    0  501  0.00000000000E+00  0.00000000000E+00  0.20162725604E+04  0.20162725604E+04  0.25500000920E-02 0. -1.
        2   -1    0    0  501    0  0.00000000000E+00  0.00000000000E+00 -0.15794006607E+04  0.15794006607E+04  0.25500000920E-02 0.  1.
    10030    2    1    2    0    0  0.00000000000E+00  0.00000000000E+00  0.43687189970E+03  0.35956732211E+04  0.35690347233E+04 0.  0.
        5    1    3    3  502    0 -0.19485350051E+03 -0.11242118715E+04  0.16007775543E+04  0.19657901941E+04  0.46999998093E+01 0. -1.
       -5    1    3    3    0  502  0.19485350051E+03  0.11242118715E+04 -0.11639056546E+04  0.16298830270E+04  0.46999998093E+01 0.  1.
</event>
<event>
 5   0  0.5875011E-07  0.2550874E+04  0.7818609E-02  0.8385082E-01
        1   -1    0    0  501    0  0.00000000000E+00  0.00000000000E+00  0.13840375858E+04  0.13840375858E+04  0.50400001928E-02 0. -1.
       -1   -1    0    0    0  501  0.00000000000E+00  0.00000000000E+00 -0.11753576156E+04  0.11753576156E+04  0.50400001928E-02 0.  1.
    10030    2    1    2    0    0  0.00000000000E+00  0.00000000000E+00  0.20867997020E+03  0.25593952013E+04  0.25508736673E+04 0.  0.
        2    1    3    3  502    0 -0.60585034220E+03  0.94583571844E+03 -0.50189638758E+03  0.12302681932E+04  0.25500000920E-02 0.  1.
       -2    1    3    3    0  502  0.60585034220E+03 -0.94583571844E+03  0.71057635778E+03  0.13291270081E+04  0.25500000920E-02 0. -1.
</event>
<event>
 5   0  0.1184684E-06  0.3641668E+04  0.7818609E-02  0.8081013E-01
       -2   -1    0    0    0  501  0.00000000000E+00  0.00000000000E+00  0.12847395099E+04  0.12847395099E+04  0.25500000920E-02 0. -1.
        2   -1    0    0  501    0  0.00000000000E+00  0.00000000000E+00 -0.25806290097E+04  0.25806290097E+04  0.25500000920E-02 0.  1.
    10030    2    1    2    0    0  0.00000000000E+00  0.00000000000E+00 -0.12958894998E+04  0.38653685196E+04  0.36416677768E+04 0.  0.
        4    1    3    3  502    0 -0.12431904150E+04 -0.10445071468E+03  0.75979948714E+03  0.14607290075E+04  0.12699999809E+01 0. -1.
       -4    1    3    3    0  502  0.12431904150E+04  0.10445071468E+03 -0.20556889869E+04  0.24046395122E+04  0.12699999809E+01 0.  1.
</event>
<event>
 5   0  0.1680194E-06  0.2047478E+04  0.7818609E-02  0.8584739E-01
        2   -1    0    0  501    0  0.00000000000E+00  0.00000000000E+00  0.10817757473E+04  0.10817757473E+04  0.25500000920E-02 0. -1.
       -2   -1    0    0    0  501  0.00000000000E+00  0.00000000000E+00 -0.96881575217E+03  0.96881575217E+03  0.25500000920E-02 0.  1.
    10030    2    1    2    0    0  0.00000000000E+00  0.00000000000E+00  0.11295999511E+03  0.20505914995E+04  0.20474778478E+04 0.  0.
        2    1    3    3  502    0 -0.37782878711E+03 -0.93591794076E+02 -0.89181119468E+03  0.97305766697E+03  0.25500000920E-02 0.  1.
       -2    1    3    3    0  502  0.37782878711E+03  0.93591794076E+02  0.10047711898E+04  0.10775338325E+04  0.25500000920E-02 0. -1.
</event>
<event>
 5   0  0.6186440E-07  0.2015986E+04  0.7818609E-02  0.8599183E-01
        1   -1    0    0  501    0  0.00000000000E+00  0.00000000000E+00  0.89824434679E+03  0.89824434680E+03  0.50400001928E-02 0. -1.
       -1   -1    0    0    0  501  0.00000000000E+00  0.00000000000E+00 -0.11311514361E+04  0.11311514361E+04  0.50400001928E-02 0.  1.
    10030    2    1    2    0    0  0.00000000000E+00  0.00000000000E+00 -0.23290708934E+03  0.20293957829E+04  0.20159864909E+04 0.  0.
        3    1    3    3  502    0  0.19919847969E+03  0.65551471265E+02 -0.11089492881E+04  0.11286033685E+04  0.10100000352E+00 0.  1.
       -3    1    3    3    0  502 -0.19919847969E+03 -0.65551471265E+02  0.87604219874E+03  0.90079241442E+03  0.10100000352E+00 0. -1.
</event>
<event>
 5   0  0.1685793E-06  0.3441254E+04  0.7818609E-02  0.8127855E-01
        2   -1    0    0  501    0  0.00000000000E+00  0.00000000000E+00  0.15183333164E+04  0.15183333164E+04  0.25500000920E-02 0. -1.
       -2   -1    0    0    0  501  0.00000000000E+00  0.00000000000E+00 -0.19498736486E+04  0.19498736486E+04  0.25500000920E-02 0.  1.
    10030    2    1    2    0    0  0.00000000000E+00  0.00000000000E+00 -0.43154033219E+03  0.34682069650E+04  0.34412544942E+04 0.  0.
        3    1    3    3  502    0 -0.12402822205E+04  0.51593326193E+03  0.86785845516E+03  0.15992702791E+04  0.10100000352E+00 0. -1.
       -3    1    3    3    0  502  0.12402822205E+04 -0.51593326193E+03 -0.12993987874E+04  0.18689366859E+04  0.10100000352E+00 0.  1.
</event>
<event>
 5   0  0.1680194E-06  0.3640676E+04  0.7818609E-02  0.8081237E-01
       -2   -1    0    0    0  501  0.00000000000E+00  0.00000000000E+00  0.16208796752E+04  0.16208796752E+04  0.25500000920E-02 0. -1.
        2   -1    0    0  501    0  0.00000000000E+00  0.00000000000E+00 -0.20443413336E+04  0.20443413336E+04  0.25500000920E-02 0.  1.
    10030    2    1    2    0    0  0.00000000000E+00  0.00000000000E+00 -0.42346165839E+03  0.36652210087E+04  0.36406764847E+04 0.  0.
        2    1    3    3  502    0  0.10342385985E+04  0.65700566728E+03 -0.15670331003E+04  0.19891954814E+04  0.25500000920E-02 0.  1.
       -2    1    3    3    0  502 -0.10342385985E+04 -0.65700566728E+03  0.11435714419E+04  0.16760255274E+04  0.25500000920E-02 0. -1.
</event>
<event>
 5   0  0.1151180E-06  0.3373688E+04  0.7818609E-02  0.8144395E-01
       -2   -1    0    0    0  501  0.00000000000E+00  0.00000000000E+00  0.19087940907E+04  0.19087940907E+04  0.25500000920E-02 0.  1.
        2   -1    0    0  501    0  0.00000000000E+00  0.00000000000E+00 -0.14907017003E+04  0.14907017003E+04  0.25500000920E-02 0. -1.
    10030    2    1    2    0    0  0.00000000000E+00  0.00000000000E+00  0.41809239046E+03  0.33994957910E+04  0.33736879503E+04 0.  0.
        5    1    3    3  502    0 -0.11287619937E+04 -0.99652808186E+03 -0.55719749568E+03  0.16055101979E+04  0.46999998093E+01 0. -1.
       -5    1    3    3    0  502  0.11287619937E+04  0.99652808186E+03  0.97528988615E+03  0.17939855931E+04  0.46999998093E+01 0.  1.
</event>
<event>
 5   0  0.6287345E-07  0.2305674E+04  0.7818609E-02  0.8475687E-01
       -1   -1    0    0    0  501  0.00000000000E+00  0.00000000000E+00  0.11578787394E+04  0.11578787394E+04  0.50400001928E-02 0.  1.
        1   -1    0    0  501    0  0.00000000000E+00  0.00000000000E+00 -0.11478169252E+04  0.11478169252E+04  0.50400001928E-02 0. -1.
    10030    2    1    2    0    0  0.00000000000E+00  0.00000000000E+00  0.10061814176E+02  0.23056956646E+04  0.23056737101E+04 0.  0.
        5    1    3    3  502    0  0.36246471876E+03 -0.10340578652E+03 -0.10844459854E+04  0.11480934693E+04  0.46999998093E+01 0. -1.
       -5    1    3    3    0  502 -0.36246471876E+03  0.10340578652E+03  0.10945077996E+04  0.11576021952E+04  0.46999998093E+01 0.  1.
</event>
<event>
 5   0  0.6261598E-07  0.3632497E+04  0.7818609E-02  0.8083088E-01
       -1   -1    0    0    0  501  0.00000000000E+00  0.00000000000E+00  0.19551441757E+04  0.19551441757E+04  0.50400001928E-02 0. -1.
        1   -1    0    0  501    0  0.00000000000E+00  0.00000000000E+00 -0.16872200497E+04  0.16872200497E+04  0.50400001928E-02 0.  1.
    10030    2    1    2    0    0  0.00000000000E+00  0.00000000000E+00  0.26792412602E+03  0.36423642254E+04  0.36324969116E+04 0.  0.
        1    1    3    3  502    0  0.27290919515E+03 -0.11687439134E+04  0.15008659600E+04  0.19217284912E+04  0.50400001928E-02 0. -1.
       -1    1    3    3    0  502 -0.27290919515E+03  0.11687439134E+04 -0.12329418339E+04  0.17206357342E+04  0.50400001928E-02 0.  1.
</event>
<event>
 5   0  0.1724503E-06  0.2390380E+04  0.7818609E-02  0.8443114E-01
       -2   -1    0    0    0  501  0.00000000000E+00  0.00000000000E+00  0.14648464880E+04  0.14648464880E+04  0.25500000920E-02 0.  1.
        2   -1    0    0  501    0  0.00000000000E+00  0.00000000000E+00 -0.97517324457E+03  0.97517324457E+03  0.25500000920E-02 0. -1.
    10030    2    1    2    0    0  0.00000000000E+00  0.00000000000E+00  0.48967324343E+03  0.24400197326E+04  0.23903799719E+04 0.  0.
        1    1    3    3  502    0  0.52346026600E+03  0.54479007735E+03  0.11901745221E+04  0.14097241828E+04  0.50400001928E-02 0.  1.
       -1    1    3    3    0  502 -0.52346026600E+03 -0.54479007735E+03 -0.70050127867E+03  0.10302955498E+04  0.50400001928E-02 0. -1.
</event>
<event>
 5   0  0.6261598E-07  0.2526293E+04  0.7818609E-02  0.8393678E-01
        1   -1    0    0  501    0  0.00000000000E+00  0.00000000000E+00  0.19264557459E+04  0.19264557459E+04  0.50400001928E-02 0. -1.
       -1   -1    0    0    0  501  0.00000000000E+00  0.00000000000E+00 -0.82822513508E+03  0.82822513509E+03  0.50400001928E-02 0.  1.
    10030    2    1    2    0    0  0.00000000000E+00  0.00000000000E+00  0.10982306108E+04  0.27546808810E+04  0.25262929920E+04 0.  0.
        1    1    3    3  502    0  0.86092462296E+03 -0.46261378055E+03  0.14216679856E+04  0.17252079810E+04  0.50400001928E-02 0. -1.
       -1    1    3    3    0  502 -0.86092462296E+03  0.46261378055E+03 -0.32343737480E+03  0.10294729000E+04  0.50400001928E-02 0.  1.
</event>
<event>
 5   0  0.5679750E-07  0.2723900E+04  0.7818609E-02  0.8327292E-01
       -3   -1    0    0    0  501  0.00000000000E+00  0.00000000000E+00  0.11400771533E+04  0.11400771578E+04  0.10100000352E+00 0.  1.
        3   -1    0    0  501    0  0.00000000000E+00  0.00000000000E+00 -0.16270020300E+04  0.16270020331E+04  0.10100000352E+00 0. -1.
    10030    2    1    2    0    0  0.00000000000E+00  0.00000000000E+00 -0.48692487668E+03  0.27670791909E+04  0.27239000373E+04 0.  0.
        2    1    3    3  502    0 -0.98547504068E+03 -0.26507641812E+03  0.67276692740E+03  0.12223100678E+04  0.25500000920E-02 0. -1.
       -2    1    3    3    0  502  0.98547504068E+03  0.26507641812E+03 -0.11596918041E+04  0.15447691231E+04  0.25500000920E-02 0.  1.
</event>
<event>
 5   0  0.1680194E-06  0.3696165E+04  0.7818609E-02  0.8068812E-01
        2   -1    0    0  501    0  0.00000000000E+00  0.00000000000E+00  0.21517724949E+04  0.21517724949E+04  0.25500000920E-02 0. -1.
       -2   -1    0    0    0  501  0.00000000000E+00  0.00000000000E+00 -0.15872541578E+04  0.15872541578E+04  0.25500000920E-02 0.  1.
    10030    2    1    2    0    0  0.00000000000E+00  0.00000000000E+00  0.56451833710E+03  0.37390266527E+04  0.36961654936E+04 0.  0.
        2    1    3    3  502    0  0.48219611323E+03  0.71024199651E+03  0.19378353591E+04  0.21194722608E+04  0.25500000920E-02 0. -1.
       -2    1    3    3    0  502 -0.48219611323E+03 -0.71024199651E+03 -0.13733170220E+04  0.16195543919E+04  0.25500000920E-02 0.  1.
</event>
<event>
 5   0  0.1724503E-06  0.1819210E+04  0.7818609E-02  0.8696150E-01
        2   -1    0    0  501    0  0.00000000000E+00  0.00000000000E+00  0.21308575647E+04  0.21308575647E+04  0.25500000920E-02 0.  1.
       -2   -1    0    0    0  501  0.00000000000E+00  0.00000000000E+00 -0.38828553264E+03  0.38828553265E+03  0.25500000920E-02 0. -1.
    10030    2    1    2    0    0  0.00000000000E+00  0.00000000000E+00  0.17425720320E+04  0.25191430973E+04  0.18192098994E+04 0.  0.
        1    1    3    3  502    0 -0.27495966354E+03 -0.59511659735E+03  0.17444607884E+04  0.18635745285E+04  0.50400001928E-02 0.  1.
       -1    1    3    3    0  502  0.27495966354E+03  0.59511659735E+03 -0.18887563478E+01  0.65556856883E+03  0.50400001928E-02 0. -1.
</event>
<event>
 5   0  0.1184684E-06  0.3505875E+04  0.7818609E-02  0.8112399E-01
        2   -1    0    0  501    0  0.00000000000E+00  0.00000000000E+00  0.17131920524E+04  0.17131920524E+04  0.25500000920E-02 0. -1.
       -2   -1    0    0    0  501  0.00000000000E+00  0.00000000000E+00 -0.17936049607E+04  0.17936049607E+04  0.25500000920E-02 0.  1.
    10030    2    1    2    0    0  0.00000000000E+00  0.00000000000E+00 -0.80412908253E+02  0.35067970131E+04  0.35058749343E+04 0.  0.
        4    1    3    3  502    0  0.64716223787E+03  0.50786247783E+03 -0.15885298776E+04  0.17889024690E+04  0.12699999809E+01 0.  1.
       -4    1    3    3    0  502 -0.64716223787E+03 -0.50786247783E+03  0.15081169694E+04  0.17178945441E+04  0.12699999809E+01 0. -1.
</event>
<event>
 5   0  0.1685793E-06  0.2126673E+04  0.7818609E-02  0.8549584E-01
        2   -1    0    0  501    0  0.00000000000E+00  0.00000000000E+00  0.68162162519E+03  0.68162162520E+03  0.25500000920E-02 0. -1.
       -2   -1    0    0    0  501  0.00000000000E+00  0.00000000000E+00 -0.16588150464E+04  0.16588150464E+04  0.25500000920E-02 0.  1.
    10030    2    1    2    0    0  0.00000000000E+00  0.00000000000E+00 -0.97719342123E+03  0.23404366716E+04  0.21266727137E+04 0.  0.
        3    1    3    3  502    0 -0.50344560907E+03 -0.83584628986E+03 -0.95367064829E+03  0.13643988483E+04  0.10100000352E+00 0.  1.
       -3    1    3    3    0  502  0.50344560907E+03  0.83584628986E+03 -0.23522772945E+02  0.97603782335E+03  0.10100000352E+00 0. -1.
</event>
<event>
 5   0  0.5875011E-07  0.3644049E+04  0.7818609E-02  0.8080476E-01
       -1   -1    0    0    0  501  0.00000000000E+00  0.00000000000E+00  0.14802165032E+04  0.14802165032E+04  0.50400001928E-02 0. -1.
        1   -1    0    0  501    0  0.00000000000E+00  0.00000000000E+00 -0.22427615860E+04  0.22427615860E+04  0.50400001928E-02 0.  1.
    10030    2    1    2    0    0  0.00000000000E+00  0.00000000000E+00 -0.76254508277E+03  0.37229780892E+04  0.36440486892E+04 0.  0.
        2    1    3    3  502    0  0.17888897209E+04  0.28847674691E+03 -0.57626628065E+03  0.19014279090E+04  0.25500000920E-02 0. -1.
       -2    1    3    3    0  502 -0.17888897209E+04 -0.28847674691E+03 -0.18627880212E+03  0.18215501802E+04  0.25500000920E-02 0.  1.
</event>
<event>
 5   0  0.6186440E-07  0.3736011E+04  0.7818609E-02  0.8060028E-01
       -1   -1    0    0    0  501  0.00000000000E+00  0.00000000000E+00  0.17473872592E+04  0.17473872592E+04  0.50400001928E-02 0.  1.
        1   -1    0    0  501    0  0.00000000000E+00  0.00000000000E+00 -0.19969499705E+04  0.19969499705E+04  0.50400001928E-02 0. -1.
    10030    2    1    2    0    0  0.00000000000E+00  0.00000000000E+00 -0.24956271133E+03  0.37443372298E+04  0.37360112076E+04 0.  0.
        3    1    3    3  502    0 -0.91928308263E+03  0.13131801260E+04  0.83648151863E+03  0.18080997679E+04  0.10100000352E+00 0.  1.
       -3    1    3    3    0  502  0.91928308263E+03 -0.13131801260E+04 -0.10860442300E+04  0.19362374619E+04  0.10100000352E+00 0. -1.
</event>
<event>
 5   0  0.6287345E-07  0.3715660E+04  0.7818609E-02  0.8064500E-01
        1   -1    0    0  501    0  0.00000000000E+00  0.00000000000E+00  0.25740318957E+04  0.25740318957E+04  0.50400001928E-02 0. -1.
       -1   -1    0    0    0  501  0.00000000000E+00  0.00000000000E+00 -0.13409047657E+04  0.13409047657E+04  0.50400001928E-02 0.  1.
    10030    2    1    2    0    0  0.00000000000E+00  0.00000000000E+00  0.12331271300E+04  0.39149366614E+04  0.37156596378E+04 0.  0.
        5    1    3    3  502    0  0.26437945859E+02  0.18470997016E+04  0.40839924071E+03  0.18919007116E+04  0.46999998093E+01 0.  1.
       -5    1    3    3    0  502 -0.26437945859E+02 -0.18470997016E+04  0.82472788932E+03  0.20230359498E+04  0.46999998093E+01 0. -1.
</event>
<event>
 5   0  0.1184684E-06  0.3656310E+04  0.7818609E-02  0.8077714E-01
       -2   -1    0    0    0  501  0.00000000000E+00  0.00000000000E+00  0.22085752292E+04  0.22085752292E+04  0.25500000920E-02 0.  1.
        2   -1    0    0  501    0  0.00000000000E+00  0.00000000000E+00 -0.15132608814E+04  0.15132608814E+04  0.25500000920E-02 0. -1.
    10030    2    1    2    0    0  0.00000000000E+00  0.00000000000E+00  0.69531434775E+03  0.37218361106E+04  0.36563098873E+04 0.  0.
        4    1    3    3  502    0 -0.10795361163E+04 -0.12764775836E+04  0.11007509284E+04  0.20016112178E+04  0.12699999809E+01 0.  1.
       -4    1    3    3    0  502  0.10795361163E+04  0.12764775836E+04 -0.40543658070E+03  0.17202248928E+04  0.12699999809E+01 0. -1.
</event>
<event>
 5   0  0.5875011E-07  0.3685004E+04  0.7818609E-02  0.8071293E-01
        1   -1    0    0  501    0  0.00000000000E+00  0.00000000000E+00  0.12448315133E+04  0.12448315133E+04  0.50400001928E-02 0.  1.
       -1   -1    0    0    0  501  0.00000000000E+00  0.00000000000E+00 -0.27271264067E+04  0.27271264068E+04  0.50400001928E-02 0. -1.
    10030    2    1    2    0    0  0.00000000000E+00  0.00000000000E+00 -0.14822948934E+04  0.39719579201E+04  0.36850036049E+04 0.  0.
        2    1    3    3  502    0 -0.16414325127E+04 -0.59512492220E+03 -0.13754801811E+04  0.22227055800E+04  0.25500000920E-02 0. -1.
       -2    1    3    3    0  502  0.16414325127E+04  0.59512492220E+03 -0.10681471231E+03  0.17492523401E+04  0.25500000920E-02 0.  1.
</event>
<event>
 5   0  0.6287345E-07  0.3454568E+04  0.7818609E-02  0.8124642E-01
        1   -1    0    0  501    0  0.00000000000E+00  0.00000000000E+00  0.16264034380E+04  0.16264034380E+04  0.50400001928E-02 0. -1.
       -1   -1    0    0    0  501  0.00000000000E+00  0.00000000000E+00 -0.18344216077E+04  0.18344216078E+04  0.50400001928E-02 0.  1.
    10030    2    1    2    0    0  0.00000000000E+00  0.00000000000E+00 -0.20801816976E+03  0.34608250458E+04  0.34545677643E+04 0.  0.
        5    1    3    3  502    0 -0.29299474384E+03 -0.15608376501E+04 -0.78452397577E+03  0.17713159087E+04  0.46999998093E+01 0.  1.
       -5    1    3    3    0  502  0.29299474384E+03  0.15608376501E+04  0.57650580601E+03  0.16895091371E+04  0.46999998093E+01 0. -1.
</event>
<event>
 5   0  0.5679750E-07  0.3313581E+04  0.7818609E-02  0.8159448E-01
        1   -1    0    0  501    0  0.00000000000E+00  0.00000000000E+00  0.18747268054E+04  0.18747268054E+04  0.50400001928E-02 0. -1.
       -1   -1    0    0    0  501  0.00000000000E+00  0.00000000000E+00 -0.14641888564E+04  0.14641888564E+04  0.50400001928E-02 0.  1.
    10030    2    1    2    0    0  0.00000000000E+00  0.00000000000E+00  0.41053794898E+03  0.33389156619E+04  0.33135805995E+04 0.  0.
        4    1    3    3  502    0  0.80875252042E+03 -0.13530121358E+03  0.16559169461E+04  0.18478229360E+04  0.12699999809E+01 0. -1.
       -4    1    3    3    0  502 -0.80875252042E+03  0.13530121358E+03 -0.12453789971E+04  0.14910927258E+04  0.12699999809E+01 0.  1.
</event>
<event>
 5   0  0.1724503E-06  0.3363099E+04  0.7818609E-02  0.8147023E-01
       -2   -1    0    0    0  501  0.00000000000E+00  0.00000000000E+00  0.16910512455E+04  0.16910512455E+04  0.25500000920E-02 0.  1.
        2   -1    0    0  501    0  0.00000000000E+00  0.00000000000E+00 -0.16721012221E+04  0.16721012221E+04  0.25500000920E-02 0. -1.
    10030    2    1    2    0    0  0.00000000000E+00  0.00000000000E+00  0.18950023427E+02  0.33631524676E+04  0.33630990793E+04 0.  0.
        1    1    3    3  502    0  0.53079944311E+03  0.46820198407E+03  0.15348345031E+04  0.16901710265E+04  0.50400001928E-02 0.  1.
       -1    1    3    3    0  502 -0.53079944311E+03 -0.46820198407E+03 -0.15158844797E+04  0.16729814412E+04  0.50400001928E-02 0. -1.
</event>
<event>
 5   0  0.6186440E-07  0.3636658E+04  0.7818609E-02  0.8082146E-01
        1   -1    0    0  501    0  0.00000000000E+00  0.00000000000E+00  0.12608086456E+04  0.12608086456E+04  0.50400001928E-02 0. -1.
       -1   -1    0    0    0  501  0.00000000000E+00  0.00000000000E+00 -0.26223810194E+04  0.26223810194E+04  0.50400001928E-02 0.  1.
    10030    2    1    2    0    0  0.00000000000E+00  0.00000000000E+00 -0.13615723738E+04  0.38831896651E+04  0.36366581700E+04 0.  0.
        3    1    3    3  502    0 -0.71835606963E+03  0.12199180658E+04 -0.18992308501E+04  0.23688210912E+04  0.10100000352E+00 0.  1.
       -3    1    3    3    0  502  0.71835606963E+03 -0.12199180658E+04  0.53765847626E+03  0.15143685738E+04  0.10100000352E+00 0. -1.
</event>
<event>
 5   0  0.1184684E-06  0.2264590E+04  0.7818609E-02  0.8492015E-01
        2   -1    0    0  501    0  0.00000000000E+00  0.00000000000E+00  0.15917593998E+04  0.15917593998E+04  0.25500000920E-02 0. -1.
       -2   -1    0    0    0  501  0.00000000000E+00  0.00000000000E+00 -0.80545592910E+03  0.80545592910E+03  0.25500000920E-02 0.  1.
    10030    2    1    2    0    0  0.00000000000E+00  0.00000000000E+00  0.78630347072E+03  0.23972153289E+04  0.22645900700E+04 0.  0.
        4    1    3    3  502    0  0.15869059863E+03  0.36882645631E+03 -0.72756535504E+03  0.83100458466E+03  0.12699999809E+01 0.  1.
       -4    1    3    3    0  502 -0.15869059863E+03 -0.36882645631E+03  0.15138688258E+04  0.15662107443E+04  0.12699999809E+01 0. -1.
</event>
<event>
 5   0  0.1184684E-06  0.2735538E+04  0.7818609E-02  0.8323565E-01
       -2   -1    0    0    0  501  0.00000000000E+00  0.00000000000E+00  0.12806195727E+04  0.12806195727E+04  0.25500000920E-02 0.  1.
        2   -1    0    0  501    0  0.00000000000E+00  0.00000000000E+00 -0.14608496849E+04  0.14608496849E+04  0.25500000920E-02 0. -1.
    10030    2    1    2    0    0  0.00000000000E+00  0.00000000000E+00 -0.18023011217E+03  0.27414692576E+04  0.27355384839E+04 0.  0.
        4    1    3    3  502    0 -0.14863625524E+03 -0.12163624210E+04  0.51878827059E+03  0.13307040085E+04  0.12699999809E+01 0.  1.
       -4    1    3    3    0  502  0.14863625524E+03  0.12163624210E+04 -0.69901838275E+03  0.14107652491E+04  0.12699999809E+01 0. -1.
</event>
<event>
 5   0  0.1724503E-06  0.3449777E+04  0.7818609E-02  0.8125796E-01
       -2   -1    0    0    0  501  0.00000000000E+00  0.00000000000E+00  0.17330976798E+04  0.17330976798E+04  0.25500000920E-02 0.  1.
        2   -1    0    0  501    0  0.00000000000E+00  0.00000000000E+00 -0.17167185065E+04  0.17167185065E+04  0.25500000920E-02 0. -1.
    10030    2    1    2    0    0  0.00000000000E+00  0.00000000000E+00  0.16379173315E+02  0.34498161862E+04  0.34497773032E+04 0.  0.
        1    1    3    3  502    0 -0.35256748393E+03  0.93153250041E+03  0.14164611997E+04  0.17315943406E+04  0.50400001928E-02 0.  1.
       -1    1    3    3    0  502  0.35256748393E+03 -0.93153250041E+03 -0.14000820264E+04  0.17182218456E+04  0.50400001928E-02 0. -1.
</event>
<event>
 5   0  0.1680194E-06  0.3474084E+04  0.7818609E-02  0.8119959E-01
        2   -1    0    0  501    0  0.00000000000E+00  0.00000000000E+00  0.25625124602E+04  0.25625124602E+04  0.25500000920E-02 0. -1.
       -2   -1    0    0    0  501  0.00000000000E+00  0.00000000000E+00 -0.11774827910E+04  0.11774827910E+04  0.25500000920E-02 0.  1.
    10030    2    1    2    0    0  0.00000000000E+00  0.00000000000E+00  0.13850296692E+04  0.37399952512E+04  0.34740836626E+04 0.  0.
        2    1    3    3  502    0 -0.51055184695E+03  0.14729210508E+04 -0.13239608713E+03  0.15645089754E+04  0.25500000920E-02 0.  1.
       -2    1    3    3    0  502  0.51055184695E+03 -0.14729210508E+04  0.15174257564E+04  0.21754862758E+04  0.25500000920E-02 0. -1.
</event>
<event>
 5   0  0.1724503E-06  0.2159022E+04  0.7818609E-02  0.8535680E-01
       -2   -1    0    0    0  501  0.00000000000E+00  0.00000000000E+00  0.59057338535E+03  0.59057338535E+03  0.25500000920E-02 0. -1.
        2   -1    0    0  501    0  0.00000000000E+00  0.00000000000E+00 -0.19732411627E+04  0.19732411627E+04  0.25500000920E-02 0.  1.
    10030    2    1    2    0    0  0.00000000000E+00  0.00000000000E+00 -0.13826677773E+04  0.25638145480E+04  0.21590217355E+04 0.  0.
        1    1    3    3  502    0 -0.98288123329E+03  0.38471540574E+03 -0.96024771641E+03  0.14269327731E+04  0.50400001928E-02 0.  1.
       -1    1    3    3    0  502  0.98288123329E+03 -0.38471540574E+03 -0.42242006090E+03  0.11368817749E+04  0.50400001928E-02 0. -1.
</event>
<event>
 5   0  0.1685793E-06  0.3726280E+04  0.7818609E-02  0.8062163E-01
        2   -1    0    0  501    0  0.00000000000E+00  0.00000000000E+00  0.26813366032E+04  0.26813366032E+04  0.25500000920E-02 0.  1.
       -2   -1    0    0    0  501  0.00000000000E+00  0.00000000000E+00 -0.12946120752E+04  0.12946120752E+04  0.25500000920E-02 0. -1.
    10030    2    1    2    0    0  0.00000000000E+00  0.00000000000E+00  0.13867245280E+04  0.39759486784E+04  0.37262800454E+04 0.  0.
        3    1    3    3  502    0 -0.83342346502E+03  0.16299013475E+03 -0.10761024757E+04  0.13708234767E+04  0.10100000352E+00 0. -1.
       -3    1    3    3    0  502  0.83342346502E+03 -0.16299013475E+03  0.24628270037E+04  0.26051252017E+04  0.10100000352E+00 0.  1.
</event>
<event>
 5   0  0.6287345E-07  0.3407836E+04  0.7818609E-02  0.8135986E-01
       -1   -1    0    0    0  501  0.00000000000E+00  0.00000000000E+00  0.19803336911E+04  0.19803336911E+04  0.50400001928E-02 0.  1.
        1   -1    0    0  501    0  0.00000000000E+00  0.00000000000E+00 -0.14660848208E+04  0.14660848208E+04  0.50400001928E-02 0. -1.
    10030    2    1    2    0    0  0.00000000000E+00  0.00000000000E+00  0.51424887030E+03  0.34464185119E+04  0.34078363603E+04 0.  0.
        5    1    3    3  502    0 -0.13468202056E+04  0.40377707564E+03 -0.71624540498E+03  0.15779702669E+04  0.46999998093E+01 0. -1.
       -5    1    3    3    0  502  0.13468202056E+04 -0.40377707564E+03  0.12304942753E+04  0.18684482450E+04  0.46999998093E+01 0.  1.
</event>
<event>
 5   0  0.1680194E-06  0.3697187E+04  0.7818609E-02  0.8068585E-01
       -2   -1    0    0    0  501  0.00000000000E+00  0.00000000000E+00  0.12009066844E+04  0.12009066845E+04  0.25500000920E-02 0.  1.
        2   -1    0    0  501    0  0.00000000000E+00  0.00000000000E+00 -0.28455985673E+04  0.28455985673E+04  0.25500000920E-02 0. -1.
    10030    2    1    2    0    0  0.00000000000E+00  0.00000000000E+00 -0.16446918828E+04  0.40465052517E+04  0.36971872231E+04 0.  0.
        2    1    3    3  502    0  0.19096275205E+03 -0.16834054664E+04 -0.12889586481E+02  0.16942511261E+04  0.25500000920E-02 0.  1.
       -2    1    3    3    0  502 -0.19096275205E+03  0.16834054664E+04 -0.16318022963E+04  0.23522541256E+04  0.25500000920E-02 0. -1.
</event>
<event>
 5   0  0.6261598E-07  0.2183038E+04  0.7818609E-02  0.8525521E-01
       -1   -1    0    0    0  501  0.00000000000E+00  0.00000000000E+00  0.78819468127E+03  0.78819468128E+03  0.50400001928E-02 0. -1.
        1   -1    0    0  501    0  0.00000000000E+00  0.00000000000E+00 -0.15115729363E+04  0.15115729363E+04  0.50400001928E-02 0.  1.
    10030    2    1    2    0    0  0.00000000000E+00  0.00000000000E+00 -0.72337825505E+03  0.22997676176E+04  0.21830380196E+04 0.  0.
        1    1    3    3  502    0 -0.58728007387E+03  0.90694875471E+03 -0.19862274758E+03  0.10985922468E+04  0.50400001928E-02 0. -1.
       -1    1    3    3    0  502  0.58728007387E+03 -0.90694875471E+03 -0.52475550746E+03  0.12011753708E+04  0.50400001928E-02 0.  1.
</event>
<event>
 5   0  0.5679750E-07  0.1871977E+04  0.7818609E-02  0.8668932E-01
       -1   -1    0    0    0  501  0.00000000000E+00  0.00000000000E+00  0.55795912879E+03  0.55795912881E+03  0.50400001928E-02 0. -1.
        1   -1    0    0  501    0  0.00000000000E+00  0.00000000000E+00 -0.15701413330E+04  0.15701413330E+04  0.50400001928E-02 0.  1.
    10030    2    1    2    0    0  0.00000000000E+00  0.00000000000E+00 -0.10121822042E+04  0.21281004618E+04  0.18719772331E+04 0.  0.
        4    1    3    3  502    0 -0.59071656537E+03 -0.13039171486E+03  0.30585999831E+03  0.67786430160E+03  0.12699999809E+01 0. -1.
       -4    1    3    3    0  502  0.59071656537E+03  0.13039171486E+03 -0.13180422025E+04  0.14502361602E+04  0.12699999809E+01 0.  1.
</event>
<event>
 5   0  0.1680194E-06  0.2450071E+04  0.7818609E-02  0.8420992E-01
        2   -1    0    0  501    0  0.00000000000E+00  0.00000000000E+00  0.11018700979E+04  0.11018700979E+04  0.25500000920E-02 0.  1.
       -2   -1    0    0    0  501  0.00000000000E+00  0.00000000000E+00 -0.13619684707E+04  0.13619684707E+04  0.25500000920E-02 0. -1.
    10030    2    1    2    0    0  0.00000000000E+00  0.00000000000E+00 -0.26009837280E+03  0.24638385686E+04  0.24500712906E+04 0.  0.
        2    1    3    3  502    0 -0.93115187537E+03 -0.92552677733E+02 -0.92512611706E+03  0.13158526307E+04  0.25500000920E-02 0. -1.
       -2    1    3    3    0  502  0.93115187537E+03  0.92552677733E+02  0.66502774427E+03  0.11479859380E+04  0.25500000920E-02 0.  1.
</event>
<event>
 5   0  0.1851685E-06  0.2080355E+04  0.7818609E-02  0.8569947E-01
        2   -1    0    0  501    0  0.00000000000E+00  0.00000000000E+00  0.12378685490E+04  0.12378685490E+04  0.25500000920E-02 0.  1.
       -2   -1    0    0    0  501  0.00000000000E+00  0.00000000000E+00 -0.87405858769E+03  0.87405858770E+03  0.25500000920E-02 0. -1.
    10030    2    1    2    0    0  0.00000000000E+00  0.00000000000E+00  0.36380996126E+03  0.21119271367E+04  0.20803553885E+04 0.  0.
        3    1    3    3  502    0 -0.51631053168E+03 -0.64762797435E+03  0.82071706854E+03  0.11660081797E+04  0.10100000352E+00 0.  1.
       -3    1    3    3    0  502  0.51631053168E+03  0.64762797435E+03 -0.45690710727E+03  0.94591895698E+03  0.10100000352E+00 0. -1.
</event>
<event>
 5   0  0.1151180E-06  0.3218288E+04  0.7818609E-02  0.8184004E-01
       -2   -1    0    0    0  501  0.00000000000E+00  0.00000000000E+00  0.93238227962E+03  0.93238227962E+03  0.25500000920E-02 0.  1.
        2   -1    0    0  501    0  0.00000000000E+00  0.00000000000E+00 -0.27771275798E+04  0.27771275798E+04  0.25500000920E-02 0. -1.
    10030    2    1    2    0    0  0.00000000000E+00  0.00000000000E+00 -0.18447453001E+04  0.37095098594E+04  0.32182880813E+04 0.  0.
        5    1    3    3  502    0  0.15818185859E+02 -0.12908951231E+04  0.18479384503E+03  0.13041592268E+04  0.46999998093E+01 0.  1.
       -5    1    3    3    0  502 -0.15818185859E+02  0.12908951231E+04 -0.20295391452E+04  0.24053506326E+04  0.46999998093E+01 0. -1.
</event>
<event>
 5   0  0.5875011E-07  0.3588233E+04  0.7818609E-02  0.8093192E-01
        1   -1    0    0  501    0  0.00000000000E+00  0.00000000000E+00  0.19374927433E+04  0.19374927433E+04  0.50400001928E-02 0. -1.
       -1   -1    0    0    0  501  0.00000000000E+00  0.00000000000E+00 -0.16613498709E+04  0.16613498709E+04  0.50400001928E-02 0.  1.
    10030    2    1    2    0    0  0.00000000000E+00  0.00000000000E+00  0.27614287238E+03  0.35988426142E+04  0.35882326117E+04 0.  0.
        2    1    3    3  502    0 -0.34127399502E+03  0.12448984397E+04 -0.11116519878E+04  0.17035287514E+04  0.25500000920E-02 0.  1.
       -2    1    3    3    0  502  0.34127399502E+03 -0.12448984397E+04  0.13877948601E+04  0.18953138628E+04  0.25500000920E-02 0. -1.
</event>
<event>
 5   0  0.6186440E-07  0.1875541E+04  0.7818609E-02  0.8667128E-01
        1   -1    0    0  501    0  0.00000000000E+00  0.00000000000E+00  0.63708117831E+03  0.63708117833E+03  0.50400001928E-02 0.  1.
       -1   -1    0    0    0  501  0.00000000000E+00  0.00000000000E+00 -0.13803792705E+04  0.13803792705E+04  0.50400001928E-02 0. -1.
    10030    2    1    2    0    0  0.00000000000E+00  0.00000000000E+00 -0.74329809223E+03  0.20174604489E+04  0.18755411509E+04 0.  0.
        3    1    3    3  502    0  0.81316055424E+03  0.85770039390E+02 -0.86555197724E+03  0.11907001395E+04  0.10100000352E+00 0. -1.
       -3    1    3    3    0  502 -0.81316055424E+03 -0.85770039390E+02  0.12225388501E+03  0.82676030942E+03  0.10100000352E+00 0.  1.
</event>
<event>
 5   0  0.1724503E-06  0.3741233E+04  0.7818609E-02  0.8058885E-01
       -2   -1    0    0    0  501  0.00000000000E+00  0.00000000000E+00  0.21355912860E+04  0.21355912860E+04  0.25500000920E-02 0. -1.
        2   -1    0    0  501    0  0.00000000000E+00  0.00000000000E+00 -0.16385185557E+04  0.16385185557E+04  0.25500000920E-02 0.  1.
    10030    2    1    2    0    0  0.00000000000E+00  0.00000000000E+00  0.49707273026E+03  0.37741098417E+04  0.37412329249E+04 0.  0.
        1    1    3    3  502    0  0.14708922759E+04 -0.11412168995E+04  0.64433709964E+02  0.18628075054E+04  0.50400001928E-02 0.  1.
       -1    1    3    3    0  502 -0.14708922759E+04  0.11412168995E+04  0.43263902030E+03  0.19113023364E+04  0.50400001928E-02 0. -1.
</event>
<event>
 5   0  0.1184684E-06  0.3202436E+04  0.7818609E-02  0.8188174E-01
        2   -1    0    0  501    0  0.00000000000E+00  0.00000000000E+00  0.30132865911E+04  0.30132865911E+04  0.25500000920E-02 0.  1.
       -2   -1    0    0    0  501  0.00000000000E+00  0.00000000000E+00 -0.85086447531E+03  0.85086447531E+03  0.25500000920E-02 0. -1.
    10030    2    1    2    0    0  0.00000000000E+00  0.00000000000E+00  0.21624221158E+04  0.38641510664E+04  0.32024356445E+04 0.  0.
        4    1    3    3  502    0 -0.13060604824E+04  0.77997879399E+03  0.16842068201E+04  0.22695186997E+04  0.12699999809E+01 0. -1.
       -4    1    3    3    0  502  0.13060604824E+04 -0.77997879399E+03  0.47821529572E+03  0.15946323667E+04  0.12699999809E+01 0.  1.
</event>
<event>
 5   0  0.1680194E-06  0.3683456E+04  0.7818609E-02  0.8071638E-01
        2   -1    0    0  501    0  0.00000000000E+00  0.00000000000E+00  0.14383670995E+04  0.14383670995E+04  0.25500000920E-02 0. -1.
       -2   -1    0    0    0  501  0.00000000000E+00  0.00000000000E+00 -0.23582036606E+04  0.23582036606E+04  0.25500000920E-02 0.  1.
    10030    2    1    2    0    0  0.00000000000E+00  0.00000000000E+00 -0.91983656107E+03  0.37965707601E+04  0.36834562896E+04 0.  0.
        2    1    3    3  502    0 -0.36808072932E+03 -0.75168693028E+03  0.12310240837E+04  0.14886023509E+04  0.25500000920E-02 0. -1.
       -2    1    3    3    0  502  0.36808072932E+03  0.75168693028E+03 -0.21508606448E+04  0.23079684092E+04  0.25500000920E-02 0.  1.
</event>
<event>
 5   0  0.1680194E-06  0.3565960E+04  0.7818609E-02  0.8098334E-01
       -2   -1    0    0    0  501  0.00000000000E+00  0.00000000000E+00  0.10587273730E+04  0.10587273730E+04  0.25500000920E-02 0. -1.
        2   -1    0    0  501    0  0.00000000000E+00  0.00000000000E+00 -0.30026786209E+04  0.30026786209E+04  0.25500000920E-02 0.  1.
    10030    2    1    2    0    0  0.00000000000E+00  0.00000000000E+00 -0.19439512480E+04  0.40614059939E+04  0.35659602063E+04 0.  0.
        2    1    3    3  502    0 -0.57566823707E+03  0.13905191000E+04  0.11693490539E+03  0.15095068925E+04  0.25500000920E-02 0. -1.
       -2    1    3    3    0  502  0.57566823707E+03 -0.13905191000E+04 -0.20608861533E+04  0.25518991014E+04  0.25500000920E-02 0.  1.
</event>
<event>
 5   0  0.1151180E-06  0.3169763E+04  0.7818609E-02  0.8196849E-01
        2   -1    0    0  501    0  0.00000000000E+00  0.00000000000E+00  0.11061145368E+04  0.11061145368E+04  0.25500000920E-02 0. -1.
       -2   -1    0    0    0  501  0.00000000000E+00  0.00000000000E+00 -0.22708764682E+04  0.22708764682E+04  0.25500000920E-02 0.  1.
    10030    2    1    2    0    0  0.00000000000E+00  0.00000000000E+00 -0.11647619314E+04  0.33769910050E+04  0.31697630655E+04 0.  0.
        5    1    3    3  502    0  0.47387869683E+03 -0.14462702910E+04 -0.11123803790E+03  0.15259930423E+04  0.46999998093E+01 0. -1.
       -5    1    3    3    0  502 -0.47387869683E+03  0.14462702910E+04 -0.10535238935E+04  0.18509979628E+04  0.46999998093E+01 0.  1.
</event>
<event>
 5   0  0.5679750E-07  0.1834959E+04  0.7818609E-02  0.8687926E-01
       -1   -1    0    0    0  501  0.00000000000E+00  0.00000000000E+00  0.43652581767E+03  0.43652581769E+03  0.50400001928E-02 0.  1.
        1   -1    0    0  501    0  0.00000000000E+00  0.00000000000E+00 -0.19283368361E+04  0.19283368361E+04  0.50400001928E-02 0. -1.
    10030    2    1    2    0    0  0.00000000000E+00  0.00000000000E+00 -0.14918110184E+04  0.23648626538E+04  0.18349591975E+04 0.  0.
        4    1    3    3  502    0 -0.48497768435E+03  0.60162964253E+03 -0.10850452913E+03  0.78034378760E+03  0.12699999809E+01 0.  1.
       -4    1    3    3    0  502  0.48497768435E+03 -0.60162964253E+03 -0.13833064893E+04  0.15845188662E+04  0.12699999809E+01 0. -1.
</event>
<event>
 5   0  0.1151180E-06  0.3060770E+04  0.7818609E-02  0.8226587E-01
        2   -1    0    0  501    0  0.00000000000E+00  0.00000000000E+00  0.17926502878E+04  0.17926502878E+04  0.25500000920E-02 0.  1.
       -2   -1    0    0    0  501  0.00000000000E+00  0.00000000000E+00 -0.13064891754E+04  0.13064891754E+04  0.25500000920E-02 0. -1.
    10030    2    1    2    0    0  0.00000000000E+00  0.00000000000E+00  0.48616111247E+03  0.30991394632E+04  0.30607699660E+04 0.  0.
        5    1    3    3  502    0  0.12011029102E+03  0.14205735364E+04  0.80647326467E+03  0.16379489830E+04  0.46999998093E+01 0.  1.
       -5    1    3    3    0  502 -0.12011029102E+03 -0.14205735364E+04 -0.32031215221E+03  0.14611904801E+04  0.46999998093E+01 0. -1.
</event>
<event>
 5   0  0.1184684E-06  0.3665112E+04  0.7818609E-02  0.8075738E-01
        2   -1    0    0  501    0  0.00000000000E+00  0.00000000000E+00  0.19047065204E+04  0.19047065204E+04  0.25500000920E-02 0.  1.
       -2   -1    0    0    0  501  0.00000000000E+00  0.00000000000E+00 -0.17631389276E+04  0.17631389276E+04  0.25500000920E-02 0. -1.
    10030    2    1    2    0    0  0.00000000000E+00  0.00000000000E+00  0.14156759280E+03  0.36678454480E+04  0.36651123921E+04 0.  0.
        4    1    3    3  502    0 -0.79325771472E+03  0.15381537370E+04 -0.53223161201E+03  0.18106481774E+04  0.12699999809E+01 0. -1.
       -4    1    3    3    0  502  0.79325771472E+03 -0.15381537370E+04  0.67379920482E+03  0.18571972706E+04  0.12699999809E+01 0.  1.
</event>
<event>
 5   0  0.5875011E-07  0.2874704E+04  0.7818609E-02  0.8280444E-01
        1   -1    0    0  501    0  0.00000000000E+00  0.00000000000E+00  0.16184993783E+04  0.16184993783E+04  0.50400001928E-02 0. -1.
       -1   -1    0    0    0  501  0.00000000000E+00  0.00000000000E+00 -0.12764789826E+04  0.12764789826E+04  0.50400001928E-02 0.  1.
    10030    2    1    2    0    0  0.00000000000E+00  0.00000000000E+00  0.34202039568E+03  0.28949783609E+04  0.28747037689E+04 0.  0.
        2    1    3    3  502    0  0.35605074482E+02  0.25227370946E+03  0.15955790335E+04  0.16157915082E+04  0.25500000920E-02 0. -1.
       -2    1    3    3    0  502 -0.35605074482E+02 -0.25227370946E+03 -0.12535586378E+04  0.12791868527E+04  0.25500000920E-02 0.  1.
</event>
<event>
 5   0  0.6261598E-07  0.3622906E+04  0.7818609E-02  0.8085265E-01
        1   -1    0    0  501    0  0.00000000000E+00  0.00000000000E+00  0.25778483412E+04  0.25778483412E+04  0.50400001928E-02 0.  1.
       -1   -1    0    0    0  501  0.00000000000E+00  0.00000000000E+00 -0.12729073729E+04  0.12729073729E+04  0.50400001928E-02 0. -1.
    10030    2    1    2    0    0  0.00000000000E+00  0.00000000000E+00  0.13049409683E+04  0.38507557142E+04  0.36229061041E+04 0.  0.
        1    1    3    3  502    0 -0.17609306041E+04  0.38423500569E+03  0.84511211654E+03  0.19906600970E+04  0.50400001928E-02 0.  1.
       -1    1    3    3    0  502  0.17609306041E+04 -0.38423500569E+03  0.45982885177E+03  0.18600956172E+04  0.50400001928E-02 0. -1.
</event>
<event>
 5   0  0.1151180E-06  0.2520090E+04  0.7818609E-02  0.8395863E-01
       -2   -1    0    0    0  501  0.00000000000E+00  0.00000000000E+00  0.15689931407E+04  0.15689931407E+04  0.25500000920E-02 0. -1.
        2   -1    0    0  501    0  0.00000000000E+00  0.00000000000E+00 -0.10119311505E+04  0.10119311505E+04  0.25500000920E-02 0.  1.
    10030    2    1    2    0    0  0.00000000000E+00  0.00000000000E+00  0.55706199018E+03  0.25809242912E+04  0.25200897080E+04 0.  0.
        5    1    3    3  502    0  0.83800552251E+03 -0.13636013531E+03 -0.67498863535E+03  0.10846562083E+04  0.46999998093E+01 0.  1.
       -5    1    3    3    0  502 -0.83800552251E+03  0.13636013531E+03  0.12320506255E+04  0.14962680830E+04  0.46999998093E+01 0. -1.
</event>
<event>
 5   0  0.1151180E-06  0.3657497E+04  0.7818609E-02  0.8077447E-01
       -2   -1    0    0    0  501  0.00000000000E+00  0.00000000000E+00  0.19738175492E+04  0.19738175492E+04  0.25500000920E-02 0.  1.
        2   -1    0    0  501    0  0.00000000000E+00  0.00000000000E+00 -0.16943412481E+04  0.16943412481E+04  0.25500000920E-02 0. -1.
    10030    2    1    2    0    0  0.00000000000E+00  0.00000000000E+00  0.27947630111E+03  0.36681587973E+04  0.36574966793E+04 0.  0.
        5    1    3    3  502    0 -0.11838732238E+04 -0.13132711520E+04  0.60806996030E+03  0.18697615076E+04  0.46999998093E+01 0.  1.
       -5    1    3    3    0  502  0.11838732238E+04  0.13132711520E+04 -0.32859365918E+03  0.17983972897E+04  0.46999998093E+01 0. -1.
</event>
<event>
 5   0  0.1680194E-06  0.3607000E+04  0.7818609E-02  0.8088890E-01
       -2   -1    0    0    0  501  0.00000000000E+00  0.00000000000E+00  0.21601404592E+04  0.21601404592E+04  0.25500000920E-02 0.  1.
        2   -1    0    0  501    0  0.00000000000E+00  0.00000000000E+00 -0.15057412858E+04  0.15057412858E+04  0.25500000920E-02 0. -1.
    10030    2    1    2    0    0  0.00000000000E+00  0.00000000000E+00  0.65439917337E+03  0.36658817450E+04  0.36070002343E+04 0.  0.
        2    1    3    3  502    0  0.57180100835E+03 -0.13442735807E+04 -0.74769714242E+03  0.16410602883E+04  0.25500000920E-02 0. -1.
       -2    1    3    3    0  502 -0.57180100835E+03  0.13442735807E+04  0.14020963158E+04  0.20248214567E+04  0.25500000920E-02 0.  1.
</event>
<event>
 5   0  0.1184684E-06  0.3645680E+04  0.7818609E-02  0.8080108E-01
        2   -1    0    0  501    0  0.00000000000E+00  0.00000000000E+00  0.24410085557E+04  0.24410085557E+04  0.25500000920E-02 0.  1.
       -2   -1    0    0    0  501  0.00000000000E+00  0.00000000000E+00 -0.13612181359E+04  0.13612181359E+04  0.25500000920E-02 0. -1.
    10030    2    1    2    0    0  0.00000000000E+00  0.00000000000E+00  0.10797904199E+04  0.38022266916E+04  0.36456796984E+04 0.  0.
        4    1    3    3  502    0 -0.10093557036E+04  0.61429592807E+03 -0.90772151715E+03  0.14900061709E+04  0.12699999809E+01 0. -1.
       -4    1    3    3    0  502  0.10093557036E+04 -0.61429592807E+03  0.19875119370E+04  0.23122205207E+04  0.12699999809E+01 0.  1.
</event>
<event>
 5   0  0.5679750E-07  0.3396513E+04  0.7818609E-02  0.8138763E-01
        1   -1    0    0  501    0  0.00000000000E+00  0.00000000000E+00  0.16128986383E+04  0.16128986383E+04  0.50400001928E-02 0. -1.
       -1   -1    0    0    0  501  0.00000000000E+00  0.00000000000E+00 -0.17881321172E+04  0.17881321172E+04  0.50400001928E-02 0.  1.
    10030    2    1    2    0    0  0.00000000000E+00  0.00000000000E+00 -0.17523347891E+03  0.34010307555E+04  0.33965134223E+04 0.  0.
        4    1    3    3  502    0  0.15651476420E+04 -0.40470144346E+03  0.43327108400E+03  0.16736773419E+04  0.12699999809E+01 0. -1.
       -4    1    3    3    0  502 -0.15651476420E+04  0.40470144346E+03 -0.60850456291E+03  0.17273534136E+04  0.12699999809E+01 0.  1.
</event>
<event>
 5   0  0.5679750E-07  0.3613029E+04  0.7818609E-02  0.8087514E-01
        1   -1    0    0  501    0  0.00000000000E+00  0.00000000000E+00  0.10023499874E+04  0.10023499874E+04  0.50400001928E-02 0.  1.
       -1   -1    0    0    0  501  0.00000000000E+00  0.00000000000E+00 -0.32558427754E+04  0.32558427754E+04  0.50400001928E-02 0. -1.
    10030    2    1    2    0    0  0.00000000000E+00  0.00000000000E+00 -0.22534927880E+04  0.42581927628E+04  0.36130286270E+04 0.  0.
        4    1    3    3  502    0 -0.60830567155E+03  0.15543607766E+04 -0.19410827554E+04  0.25600541185E+04  0.12699999809E+01 0. -1.
       -4    1    3    3    0  502  0.60830567155E+03 -0.15543607766E+04 -0.31241003264E+03  0.16981386443E+04  0.12699999809E+01 0.  1.
</event>
<event>
 5   0  0.6261598E-07  0.3723045E+04  0.7818609E-02  0.8062874E-01
       -1   -1    0    0    0  501  0.00000000000E+00  0.00000000000E+00  0.13868905303E+04  0.13868905303E+04  0.50400001928E-02 0.  1.
        1   -1    0    0  501    0  0.00000000000E+00  0.00000000000E+00 -0.24985860893E+04  0.24985860893E+04  0.50400001928E-02 0. -1.
    10030    2    1    2    0    0  0.00000000000E+00  0.00000000000E+00 -0.11116955590E+04  0.38854766197E+04  0.37230446608E+04 0.  0.
        1    1    3    3  502    0  0.87525626404E+03  0.15283860624E+04  0.73130510826E+02  0.17627777952E+04  0.50400001928E-02 0.  1.
       -1    1    3    3    0  502 -0.87525626404E+03 -0.15283860624E+04 -0.11848260698E+04  0.21226988245E+04  0.50400001928E-02 0. -1.
</event>
<event>
 5   0  0.1184684E-06  0.3755837E+04  0.7818609E-02  0.8055699E-01
        2   -1    0    0  501    0  0.00000000000E+00  0.00000000000E+00  0.31299213710E+04  0.31299213710E+04  0.25500000920E-02 0. -1.
       -2   -1    0    0    0  501  0.00000000000E+00  0.00000000000E+00 -0.11267305909E+04  0.11267305909E+04  0.25500000920E-02 0.  1.
    10030    2    1    2    0    0  0.00000000000E+00  0.00000000000E+00  0.20031907801E+04  0.42566519620E+04  0.37558371402E+04 0.  0.
        4    1    3    3  502    0  0.41707869230E+03 -0.17653391900E+04  0.45078663735E+03  0.18691140405E+04  0.12699999809E+01 0.  1.
       -4    1    3    3    0  502 -0.41707869230E+03  0.17653391900E+04  0.15524041427E+04  0.23875379215E+04  0.12699999809E+01 0. -1.
</event>
<event>
 5   0  0.6287345E-07  0.3534180E+04  0.7818609E-02  0.8105737E-01
       -1   -1    0    0    0  501  0.00000000000E+00  0.00000000000E+00  0.98828223846E+03  0.98828223848E+03  0.50400001928E-02 0.  1.
        1   -1    0    0  501    0  0.00000000000E+00  0.00000000000E+00 -0.31596316229E+04  0.31596316229E+04  0.50400001928E-02 0. -1.
    10030    2    1    2    0    0  0.00000000000E+00  0.00000000000E+00 -0.21713493845E+04  0.41479138614E+04  0.35341804216E+04 0.  0.
        5    1    3    3  502    0  0.91971357967E+03 -0.41380470562E+03  0.61733217492E+03  0.11824671273E+04  0.46999998093E+01 0.  1.
       -5    1    3    3    0  502 -0.91971357967E+03  0.41380470562E+03 -0.27886815594E+04  0.29654467341E+04  0.46999998093E+01 0. -1.
</event>
<event>
 5   0  0.1680194E-06  0.2751239E+04  0.7818609E-02  0.8318569E-01
       -2   -1    0    0    0  501  0.00000000000E+00  0.00000000000E+00  0.12046670790E+04  0.12046670790E+04  0.25500000920E-02 0. -1.
        2   -1    0    0  501    0  0.00000000000E+00  0.00000000000E+00 -0.15708315806E+04  0.15708315806E+04  0.25500000920E-02 0.  1.
    10030    2    1    2    0    0  0.00000000000E+00  0.00000000000E+00 -0.36616450156E+03  0.27754986596E+04  0.27512390604E+04 0.  0.
        2    1    3    3  502    0 -0.89681644336E+03  0.77300907823E+03 -0.88961939503E+03  0.14809609840E+04  0.25500000920E-02 0. -1.
       -2    1    3    3    0  502  0.89681644336E+03 -0.77300907823E+03  0.52345489347E+03  0.12945376756E+04  0.25500000920E-02 0.  1.
</event>
<event>
 5   0  0.5875011E-07  0.1849309E+04  0.7818609E-02  0.8680508E-01
       -1   -1    0    0    0  501  0.00000000000E+00  0.00000000000E+00  0.10680654839E+04  0.10680654839E+04  0.50400001928E-02 0.  1.
        1   -1    0    0  501    0  0.00000000000E+00  0.00000000000E+00 -0.80049965972E+03  0.80049965974E+03  0.50400001928E-02 0. -1.
    10030    2    1    2    0    0  0.00000000000E+00  0.00000000000E+00  0.26756582420E+03  0.18685651437E+04  0.18493091212E+04 0.  0.
        2    1    3    3  502    0  0.26475387163E+03  0.41426241796E+03 -0.65749211095E+03  0.82097736841E+03  0.25500000920E-02 0. -1.
       -2    1    3    3    0  502 -0.26475387163E+03 -0.41426241796E+03  0.92505793515E+03  0.10475877753E+04  0.25500000920E-02 0.  1.
</event>
<event>
 5   0  0.6186440E-07  0.3740174E+04  0.7818609E-02  0.8059117E-01
        1   -1    0    0  501    0  0.00000000000E+00  0.00000000000E+00  0.20881225116E+04  0.20881225116E+04  0.50400001928E-02 0.  1.
       -1   -1    0    0    0  501  0.00000000000E+00  0.00000000000E+00 -0.16748184270E+04  0.16748184270E+04  0.50400001928E-02 0. -1.
    10030    2    1    2    0    0  0.00000000000E+00  0.00000000000E+00  0.41330408457E+03  0.37629409386E+04  0.37401743597E+04 0.  0.
        3    1    3    3  502    0  0.28338932121E+03 -0.51745502223E+03  0.19920404012E+04  0.20775692955E+04  0.10100000352E+00 0.  1.
       -3    1    3    3    0  502 -0.28338932121E+03  0.51745502223E+03 -0.15787363167E+04  0.16853716430E+04  0.10100000352E+00 0. -1.
</event>
<event>
 5   0  0.1184684E-06  0.2778979E+04  0.7818609E-02  0.8309824E-01
        2   -1    0    0  501    0  0.00000000000E+00  0.00000000000E+00  0.93753124832E+03  0.93753124832E+03  0.25500000920E-02 0.  1.
       -2   -1    0    0    0  501  0.00000000000E+00  0.00000000000E+00 -0.20593251306E+04  0.20593251306E+04  0.25500000920E-02 0. -1.
    10030    2    1    2    0    0  0.00000000000E+00  0.00000000000E+00 -0.11217938823E+04  0.29968563789E+04  0.27789794245E+04 0.  0.
        4    1    3    3  502    0  0.10904533022E+04  0.53146254174E+03 -0.12916199631E+04  0.17719550163E+04  0.12699999809E+01 0. -1.
       -4    1    3    3    0  502 -0.10904533022E+04 -0.53146254174E+03  0.16982608084E+03  0.12249013627E+04  0.12699999809E+01 0.  1.
</event>
<event>
 5   0  0.6261598E-07  0.3622334E+04  0.7818609E-02  0.8085395E-01
        1   -1    0    0  501    0  0.00000000000E+00  0.00000000000E+00  0.31799295990E+04  0.31799295990E+04  0.50400001928E-02 0.  1.
       -1   -1    0    0    0  501  0.00000000000E+00  0.00000000000E+00 -0.10315719860E+04  0.10315719860E+04  0.50400001928E-02 0. -1.
    10030    2    1    2    0    0  0.00000000000E+00  0.00000000000E+00  0.21483576131E+04  0.42115015850E+04  0.36223342153E+04 0.  0.
        1    1    3    3  502    0 -0.10622476247E+02  0.10487292962E+04 -0.64260092343E+03  0.12299926506E+04  0.50400001928E-02 0. -1.
       -1    1    3    3    0  502  0.10622476247E+02 -0.10487292962E+04  0.27909585365E+04  0.29815089344E+04  0.50400001928E-02 0.  1.
</event>
<event>
 5   0  0.1680194E-06  0.1894169E+04  0.7818609E-02  0.8657764E-01
        2   -1    0    0  501    0  0.00000000000E+00  0.00000000000E+00  0.10485836586E+04  0.10485836586E+04  0.25500000920E-02 0. -1.
       -2   -1    0    0    0  501  0.00000000000E+00  0.00000000000E+00 -0.85541043212E+03  0.85541043213E+03  0.25500000920E-02 0.  1.
    10030    2    1    2    0    0  0.00000000000E+00  0.00000000000E+00  0.19317322646E+03  0.19039940907E+04  0.18941693699E+04 0.  0.
        2    1    3    3  502    0 -0.13199678452E+03 -0.70228437671E+03  0.72137544296E+03  0.10153861466E+04  0.25500000920E-02 0. -1.
       -2    1    3    3    0  502  0.13199678452E+03  0.70228437671E+03 -0.52820221650E+03  0.88860794416E+03  0.25500000920E-02 0.  1.
</event>
<event>
 5   0  0.1680194E-06  0.2165437E+04  0.7818609E-02  0.8532953E-01
        2   -1    0    0  501    0  0.00000000000E+00  0.00000000000E+00  0.10762137298E+04  0.10762137298E+04  0.25500000920E-02 0. -1.
       -2   -1    0    0    0  501  0.00000000000E+00  0.00000000000E+00 -0.10892623776E+04  0.10892623776E+04  0.25500000920E-02 0.  1.
    10030    2    1    2    0    0  0.00000000000E+00  0.00000000000E+00 -0.13048647739E+02  0.21654761074E+04  0.21654367930E+04 0.  0.
        2    1    3    3  502    0  0.56743065442E+03 -0.60855516891E+03 -0.69932993360E+03  0.10869127367E+04  0.25500000920E-02 0. -1.
       -2    1    3    3    0  502 -0.56743065442E+03  0.60855516891E+03  0.68628128587E+03  0.10785633707E+04  0.25500000920E-02 0.  1.
</event>
<event>
 5   0  0.1184684E-06  0.3588326E+04  0.7818609E-02  0.8093171E-01
        2   -1    0    0  501    0  0.00000000000E+00  0.00000000000E+00  0.22190513681E+04  0.22190513681E+04  0.25500000920E-02 0. -1.
       -2   -1    0    0    0  501  0.00000000000E+00  0.00000000000E+00 -0.14506289705E+04  0.14506289705E+04  0.25500000920E-02 0.  1.
    10030    2    1    2    0    0  0.00000000000E+00  0.00000000000E+00  0.76842239760E+03  0.36696803386E+04  0.35883256272E+04 0.  0.
        4    1    3    3  502    0  0.96794479305E+03 -0.20540559452E+03  0.19147758303E+04  0.21553367890E+04  0.12699999809E+01 0. -1.
       -4    1    3    3    0  502 -0.96794479305E+03  0.20540559452E+03 -0.11463534327E+04  0.15143435496E+04  0.12699999809E+01 0.  1.
</event>
<event>
 5   0  0.1685793E-06  0.3480052E+04  0.7818609E-02  0.8118534E-01
        2   -1    0    0  501    0  0.00000000000E+00  0.00000000000E+00  0.23041950614E+04  0.23041950614E+04  0.25500000920E-02 0.  1.
       -2   -1    0    0    0  501  0.00000000000E+00  0.00000000000E+00 -0.13139908057E+04  0.13139908057E+04  0.25500000920E-02 0. -1.
    10030    2    1    2    0    0  0.00000000000E+00  0.00000000000E+00  0.99020425567E+03  0.36181858671E+04  0.34800523705E+04 0.  0.
        3    1    3    3  502    0  0.13369410314E+02  0.13021358697E+04  0.16950152322E+04  0.21374782366E+04  0.10100000352E+00 0.  1.
       -3    1    3    3    0  502 -0.13369410314E+02 -0.13021358697E+04 -0.70481097654E+03  0.14807076305E+04  0.10100000352E+00 0. -1.
</event>
<event>
 5   0  0.1724503E-06  0.3649670E+04  0.7818609E-02  0.8079208E-01
        2   -1    0    0  501    0  0.00000000000E+00  0.00000000000E+00  0.22375881528E+04  0.22375881528E+04  0.25500000920E-02 0.  1.
       -2   -1    0    0    0  501  0.00000000000E+00  0.00000000000E+00 -0.14882194982E+04  0.14882194982E+04  0.25500000920E-02 0. -1.
    10030    2    1    2    0    0  0.00000000000E+00  0.00000000000E+00  0.74936865463E+03  0.37258076510E+04  0.36496697483E+04 0.  0.
        1    1    3    3  502    0  0.84297036758E+02  0.14949090871E+04 -0.69022803717E+03  0.16487188700E+04  0.50400001928E-02 0. -1.
       -1    1    3    3    0  502 -0.84297036758E+02 -0.14949090871E+04  0.14395966918E+04  0.20770887810E+04  0.50400001928E-02 0.  1.
</event>
<event>
 5   0  0.1685793E-06  0.2403042E+04  0.7818609E-02  0.8438366E-01
       -2   -1    0    0    0  501  0.00000000000E+00  0.00000000000E+00  0.63183317778E+03  0.63183317778E+03  0.25500000920E-02 0. -1.
        2   -1    0    0  501    0  0.00000000000E+00  0.00000000000E+00 -0.22848640286E+04  0.22848640286E+04  0.25500000920E-02 0.  1.
    10030    2    1    2    0    0  0.00000000000E+00  0.00000000000E+00 -0.16530308508E+04  0.29166972064E+04  0.24030421552E+04 0.  0.
        3    1    3    3  502    0  0.98377712133E+03 -0.98752490898E+02  0.21167237193E+01  0.98872340401E+03  0.10100000352E+00 0. -1.
       -3    1    3    3    0  502 -0.98377712133E+03  0.98752490898E+02 -0.16551475745E+04  0.19279738024E+04  0.10100000352E+00 0.  1.
</event>
<event>
 5   0  0.5875011E-07  0.2818821E+04  0.7818609E-02  0.8297449E-01
       -1   -1    0    0    0  501  0.00000000000E+00  0.00000000000E+00  0.20582782606E+04  0.20582782606E+04  0.50400001928E-02 0. -1.
        1   -1    0    0  501    0  0.00000000000E+00  0.00000000000E+00 -0.96509709663E+03  0.96509709664E+03  0.50400001928E-02 0.  1.
    10030    2    1    2    0    0  0.00000000000E+00  0.00000000000E+00  0.10931811640E+04  0.30233753572E+04  0.28188212951E+04 0.  0.
        2    1    3    3  502    0  0.10742051035E+04 -0.29636093524E+03  0.14721682320E+04  0.18463547091E+04  0.25500000920E-02 0. -1.
       -2    1    3    3    0  502 -0.10742051035E+04  0.29636093524E+03 -0.37898706805E+03  0.11770206481E+04  0.25500000920E-02 0.  1.
</event>
<event>
 5   0  0.6186440E-07  0.3137296E+04  0.7818609E-02  0.8205576E-01
        1   -1    0    0  501    0  0.00000000000E+00  0.00000000000E+00  0.19154230852E+04  0.19154230852E+04  0.50400001928E-02 0. -1.
       -1   -1    0    0    0  501  0.00000000000E+00  0.00000000000E+00 -0.12846541691E+04  0.12846541691E+04  0.50400001928E-02 0.  1.
    10030    2    1    2    0    0  0.00000000000E+00  0.00000000000E+00  0.63076891606E+03  0.32000772543E+04  0.31372958114E+04 0.  0.
        3    1    3    3  502    0  0.75924287088E+03  0.96832871491E+03 -0.67699063714E+03  0.14044310485E+04  0.10100000352E+00 0.  1.
       -3    1    3    3    0  502 -0.75924287088E+03 -0.96832871491E+03  0.13077595532E+04  0.17956462058E+04  0.10100000352E+00 0. -1.
</event>
<event>
 5   0  0.1184684E-06  0.3660601E+04  0.7818609E-02  0.8076750E-01
        2   -1    0    0  501    0  0.00000000000E+00  0.00000000000E+00  0.23395116996E+04  0.23395116996E+04  0.25500000920E-02 0. -1.
       -2   -1    0    0    0  501  0.00000000000E+00  0.00000000000E+00 -0.14319229432E+04  0.14319229432E+04  0.25500000920E-02 0.  1.
    10030    2    1    2    0    0  0.00000000000E+00  0.00000000000E+00  0.90758875645E+03  0.37714346428E+04  0.36606013050E+04 0.  0.
        4    1    3    3  502    0  0.12187005802E+04 -0.14249752789E+03 -0.94543539408E+03  0.15489952701E+04  0.12699999809E+01 0.  1.
       -4    1    3    3    0  502 -0.12187005802E+04  0.14249752789E+03  0.18530241505E+04  0.22224393726E+04  0.12699999809E+01 0. -1.
</event>
<event>
 5   0  0.1680194E-06  0.3668382E+04  0.7818609E-02  0.8075005E-01
       -2   -1    0    0    0  501  0.00000000000E+00  0.00000000000E+00  0.16429564881E+04  0.16429564882E+04  0.25500000920E-02 0. -1.
        2   -1    0    0  501    0  0.00000000000E+00  0.00000000000E+00 -0.20476850518E+04  0.20476850518E+04  0.25500000920E-02 0.  1.
    10030    2    1    2    0    0  0.00000000000E+00  0.00000000000E+00 -0.40472856365E+03  0.36906415399E+04  0.36683824455E+04 0.  0.
        2    1    3    3  502    0 -0.15461961935E+04 -0.97050400523E+03 -0.23361239712E+02  0.18256906750E+04  0.25500000920E-02 0.  1.
       -2    1    3    3    0  502  0.15461961935E+04  0.97050400523E+03 -0.38136732393E+03  0.18649508650E+04  0.25500000920E-02 0. -1.
</event>
<event>
 5   0  0.6186440E-07  0.3673405E+04  0.7818609E-02  0.8073881E-01
       -1   -1    0    0    0  501  0.00000000000E+00  0.00000000000E+00  0.18986368043E+04  0.18986368043E+04  0.50400001928E-02 0.  1.
        1   -1    0    0  501    0  0.00000000000E+00  0.00000000000E+00 -0.17767887334E+04  0.17767887334E+04  0.50400001928E-02 0. -1.
    10030    2    1    2    0    0  0.00000000000E+00  0.00000000000E+00  0.12184807089E+03  0.36754255377E+04  0.36734052228E+04 0.  0.
        3    1    3    3  502    0  0.42812252228E+03 -0.14534899063E+04  0.10995482565E+04  0.18721453417E+04  0.10100000352E+00 0.  1.
       -3    1    3    3    0  502 -0.42812252228E+03  0.14534899063E+04 -0.97770018562E+03  0.18032801959E+04  0.10100000352E+00 0. -1.
</event>
<event>
 5   0  0.5679750E-07  0.2164083E+04  0.7818609E-02  0.8533528E-01
       -4   -1    0    0    0  501  0.00000000000E+00  0.00000000000E+00  0.81697764211E+03  0.81697862922E+03  0.12699999809E+01 0.  1.
        4   -1    0    0  501    0  0.00000000000E+00  0.00000000000E+00 -0.14331022556E+04  0.14331028183E+04  0.12699999809E+01 0. -1.
    10030    2    1    2    0    0  0.00000000000E+00  0.00000000000E+00 -0.61612461351E+03  0.22500814476E+04  0.21640834044E+04 0.  0.
        1    1    3    3  502    0  0.80031568965E+03  0.47745032053E+03 -0.87977705873E+03  0.12815895149E+04  0.50400001928E-02 0. -1.
       -1    1    3    3    0  502 -0.80031568965E+03 -0.47745032053E+03  0.26365244522E+03  0.96849193264E+03  0.50400001928E-02 0.  1.
</event>
<event>
 5   0  0.1151180E-06  0.3222299E+04  0.7818609E-02  0.8182953E-01
       -2   -1    0    0    0  501  0.00000000000E+00  0.00000000000E+00  0.21946023463E+04  0.21946023463E+04  0.25500000920E-02 0. -1.
        2   -1    0    0  501    0  0.00000000000E+00  0.00000000000E+00 -0.11828126938E+04  0.11828126938E+04  0.25500000920E-02 0.  1.
    10030    2    1    2    0    0  0.00000000000E+00  0.00000000000E+00  0.10117896525E+04  0.33774150401E+04  0.32222994976E+04 0.  0.
        5    1    3    3  502    0  0.59321937922E+03  0.10269483405E+03  0.20722656560E+04  0.21579533127E+04  0.46999998093E+01 0. -1.
       -5    1    3    3    0  502 -0.59321937922E+03 -0.10269483405E+03 -0.10604760034E+04  0.12194617274E+04  0.46999998093E+01 0.  1.
</event>
<event>
 5   0  0.1151180E-06  0.3769335E+04  0.7818609E-02  0.8052768E-01
        2   -1    0    0  501    0  0.00000000000E+00  0.00000000000E+00  0.19337626729E+04  0.19337626729E+04  0.25500000920E-02 0.  1.
       -2   -1    0    0    0  501  0.00000000000E+00  0.00000000000E+00 -0.18368185888E+04  0.18368185888E+04  0.25500000920E-02 0. -1.
    10030    2    1    2    0    0  0.00000000000E+00  0.00000000000E+00  0.96944084111E+02  0.37705812616E+04  0.37693348081E+04 0.  0.
        5    1    3    3  502    0 -0.99235790448E+03 -0.89816760473E+03  0.13757377966E+04  0.19194154922E+04  0.46999998093E+01 0.  1.
       -5    1    3    3    0  502  0.99235790448E+03  0.89816760473E+03 -0.12787937125E+04  0.18511657694E+04  0.46999998093E+01 0. -1.
</event>
<event>
 5   0  0.6261598E-07  0.3577801E+04  0.7818609E-02  0.8095596E-01
       -1   -1    0    0    0  501  0.00000000000E+00  0.00000000000E+00  0.25558039091E+04  0.25558039091E+04  0.50400001928E-02 0. -1.
        1   -1    0    0  501    0  0.00000000000E+00  0.00000000000E+00 -0.12521171121E+04  0.12521171121E+04  0.50400001928E-02 0.  1.
    10030    2    1    2    0    0  0.00000000000E+00  0.00000000000E+00  0.13036867970E+04  0.38079210212E+04  0.35778014533E+04 0.  0.
        1    1    3    3  502    0 -0.63975263901E+03  0.71238843793E+03 -0.95643517484E+03  0.13533473203E+04  0.50400001928E-02 0.  1.
       -1    1    3    3    0  502  0.63975263901E+03 -0.71238843793E+03  0.22601219718E+04  0.24545737009E+04  0.50400001928E-02 0. -1.
</event>
<event>
 5   0  0.5679750E-07  0.3729220E+04  0.7818609E-02  0.8061517E-01
        1   -1    0    0  501    0  0.00000000000E+00  0.00000000000E+00  0.23978482520E+04  0.23978482520E+04  0.50400001928E-02 0. -1.
       -1   -1    0    0    0  501  0.00000000000E+00  0.00000000000E+00 -0.14499542209E+04  0.14499542209E+04  0.50400001928E-02 0.  1.
    10030    2    1    2    0    0  0.00000000000E+00  0.00000000000E+00  0.94789403105E+03  0.38478024729E+04  0.37292198617E+04 0.  0.
        4    1    3    3  502    0 -0.14797636949E+04  0.32702982326E+03 -0.64692950270E+03  0.16477768333E+04  0.12699999809E+01 0.  1.
       -4    1    3    3    0  502  0.14797636949E+04 -0.32702982326E+03  0.15948235337E+04  0.22000256396E+04  0.12699999809E+01 0. -1.
</event>
<event>
 5   0  0.1184684E-06  0.2557147E+04  0.7818609E-02  0.8382905E-01
       -2   -1    0    0    0  501  0.00000000000E+00  0.00000000000E+00  0.97501258698E+03  0.97501258698E+03  0.25500000920E-02 0.  1.
        2   -1    0    0  501    0  0.00000000000E+00  0.00000000000E+00 -0.16766446921E+04  0.16766446921E+04  0.25500000920E-02 0. -1.
    10030    2    1    2    0    0  0.00000000000E+00  0.00000000000E+00 -0.70163210516E+03  0.26516572791E+04  0.25571465963E+04 0.  0.
        4    1    3    3  502    0  0.36224461266E+03  0.60926158691E+03  0.75262145050E+03  0.10338575827E+04  0.12699999809E+01 0.  1.
       -4    1    3    3    0  502 -0.36224461266E+03 -0.60926158691E+03 -0.14542535557E+04  0.16177996964E+04  0.12699999809E+01 0. -1.
</event>
<event>
 5   0  0.6287345E-07  0.2636412E+04  0.7818609E-02  0.8355937E-01
        1   -1    0    0  501    0  0.00000000000E+00  0.00000000000E+00  0.20143574495E+04  0.20143574495E+04  0.50400001928E-02 0.  1.
       -1   -1    0    0    0  501  0.00000000000E+00  0.00000000000E+00 -0.86264081329E+03  0.86264081331E+03  0.50400001928E-02 0. -1.
    10030    2    1    2    0    0  0.00000000000E+00  0.00000000000E+00  0.11517166362E+04  0.28769982628E+04  0.26364119166E+04 0.  0.
        5    1    3    3  502    0  0.11458699421E+04 -0.36531308582E+03 -0.12988178903E+02  0.12027727789E+04  0.46999998093E+01 0. -1.
       -5    1    3    3    0  502 -0.11458699421E+04  0.36531308582E+03  0.11647048151E+04  0.16742254840E+04  0.46999998093E+01 0.  1.
</event>
<event>
 5   0  0.1685793E-06  0.3244035E+04  0.7818609E-02  0.8177284E-01
        2   -1    0    0  501    0  0.00000000000E+00  0.00000000000E+00  0.11529903888E+04  0.11529903888E+04  0.25500000920E-02 0.  1.
       -2   -1    0    0    0  501  0.00000000000E+00  0.00000000000E+00 -0.22818407027E+04  0.22818407027E+04  0.25500000920E-02 0. -1.
    10030    2    1    2    0    0  0.00000000000E+00  0.00000000000E+00 -0.11288503138E+04  0.34348310915E+04  0.32440347711E+04 0.  0.
        3    1    3    3  502    0 -0.51820184202E+03 -0.11595753213E+04 -0.16326175190E+04  0.20684748121E+04  0.10100000352E+00 0. -1.
       -3    1    3    3    0  502  0.51820184202E+03  0.11595753213E+04  0.50376720519E+03  0.13663562794E+04  0.10100000352E+00 0.  1.
</event>
<event>
 5   0  0.1685793E-06  0.3552198E+04  0.7818609E-02  0.8101530E-01
        2   -1    0    0  501    0  0.00000000000E+00  0.00000000000E+00  0.13384955889E+04  0.13384955889E+04  0.25500000920E-02 0. -1.
       -2   -1    0    0    0  501  0.00000000000E+00  0.00000000000E+00 -0.23567715933E+04  0.23567715933E+04  0.25500000920E-02 0.  1.
    10030    2    1    2    0    0  0.00000000000E+00  0.00000000000E+00 -0.10182760044E+04  0.36952671822E+04  0.35521984075E+04 0.  0.
        3    1    3    3  502    0  0.87782145211E+03  0.10303653658E+04  0.68709137430E+03  0.15179979762E+04  0.10100000352E+00 0. -1.
       -3    1    3    3    0  502 -0.87782145211E+03 -0.10303653658E+04 -0.17053673787E+04  0.21772692060E+04  0.10100000352E+00 0.  1.
</event>
<event>
 5   0  0.1184684E-06  0.1959032E+04  0.7818609E-02  0.8626018E-01
       -2   -1    0    0    0  501  0.00000000000E+00  0.00000000000E+00  0.49277759735E+03  0.49277759735E+03  0.25500000920E-02 0.  1.
        2   -1    0    0  501    0  0.00000000000E+00  0.00000000000E+00 -0.19470273359E+04  0.19470273359E+04  0.25500000920E-02 0. -1.
    10030    2    1    2    0    0  0.00000000000E+00  0.00000000000E+00 -0.14542497386E+04  0.24398049333E+04  0.19590318554E+04 0.  0.
        4    1    3    3  502    0 -0.24430913319E+03 -0.13190597803E+03 -0.18969943833E+04  0.19172051123E+04  0.12699999809E+01 0. -1.
       -4    1    3    3    0  502  0.24430913319E+03  0.13190597803E+03  0.44274464468E+03  0.52259982099E+03  0.12699999809E+01 0.  1.
</event>
<event>
 5   0  0.1184684E-06  0.2864434E+04  0.7818609E-02  0.8283539E-01
        2   -1    0    0  501    0  0.00000000000E+00  0.00000000000E+00  0.24323413555E+04  0.24323413555E+04  0.25500000920E-02 0. -1.
       -2   -1    0    0    0  501  0.00000000000E+00  0.00000000000E+00 -0.84332158216E+03  0.84332158216E+03  0.25500000920E-02 0.  1.
    10030    2    1    2    0    0  0.00000000000E+00  0.00000000000E+00  0.15890197733E+04  0.32756629376E+04  0.28644342968E+04 0.  0.
        4    1    3    3  502    0 -0.56606157645E+03  0.86933318216E+03 -0.33471417267E+03  0.10900463661E+04  0.12699999809E+01 0.  1.
       -4    1    3    3    0  502  0.56606157645E+03 -0.86933318216E+03  0.19237339460E+04  0.21856165715E+04  0.12699999809E+01 0. -1.
</event>
<event>
 5   0  0.1151180E-06  0.3835831E+04  0.7818609E-02  0.8038509E-01
       -2   -1    0    0    0  501  0.00000000000E+00  0.00000000000E+00  0.28648098483E+04  0.28648098483E+04  0.25500000920E-02 0.  1.
        2   -1    0    0  501    0  0.00000000000E+00  0.00000000000E+00 -0.12839943395E+04  0.12839943395E+04  0.25500000920E-02 0. -1.
    10030    2    1    2    0    0  0.00000000000E+00  0.00000000000E+00  0.15808155088E+04  0.41488041877E+04  0.38358308768E+04 0.  0.
        5    1    3    3  502    0 -0.66931909472E+03 -0.19184319239E+03  0.27232783223E+04  0.28108822052E+04  0.46999998093E+01 0.  1.
       -5    1    3    3    0  502  0.66931909472E+03  0.19184319239E+03 -0.11424628135E+04  0.13379219825E+04  0.46999998093E+01 0. -1.
</event>
<event>
 5   0  0.6261598E-07  0.3375920E+04  0.7818609E-02  0.8143842E-01
        1   -1    0    0  501    0  0.00000000000E+00  0.00000000000E+00  0.16101590914E+04  0.16101590914E+04  0.50400001928E-02 0.  1.
       -1   -1    0    0    0  501  0.00000000000E+00  0.00000000000E+00 -0.17695197947E+04  0.17695197948E+04  0.50400001928E-02 0. -1.
    10030    2    1    2    0    0  0.00000000000E+00  0.00000000000E+00 -0.15936070334E+03  0.33796788862E+04  0.33759196584E+04 0.  0.
        1    1    3    3  502    0  0.16076165595E+04  0.24239667426E+03  0.37472070131E+03  0.16684132444E+04  0.50400001928E-02 0.  1.
       -1    1    3    3    0  502 -0.16076165595E+04 -0.24239667426E+03 -0.53408140466E+03  0.17112656418E+04  0.50400001928E-02 0. -1.
</event>
<event>
 5   0  0.6287345E-07  0.1952104E+04  0.7818609E-02  0.8629347E-01
       -1   -1    0    0    0  501  0.00000000000E+00  0.00000000000E+00  0.62624440625E+03  0.62624440627E+03  0.50400001928E-02 0. -1.
        1   -1    0    0  501    0  0.00000000000E+00  0.00000000000E+00 -0.15212558169E+04  0.15212558169E+04  0.50400001928E-02 0.  1.
    10030    2    1    2    0    0  0.00000000000E+00  0.00000000000E+00 -0.89501141060E+03  0.21475002231E+04  0.19521044499E+04 0.  0.
        5    1    3    3  502    0  0.28227005392E+01  0.58170671727E+03 -0.13097058993E+04  0.14330883801E+04  0.46999998093E+01 0.  1.
       -5    1    3    3    0  502 -0.28227005392E+01 -0.58170671727E+03  0.41469448867E+03  0.71441184305E+03  0.46999998093E+01 0. -1.
</event>
<event>
 5   0  0.1685793E-06  0.3551563E+04  0.7818609E-02  0.8101678E-01
       -2   -1    0    0    0  501  0.00000000000E+00  0.00000000000E+00  0.16861695459E+04  0.16861695459E+04  0.25500000920E-02 0. -1.
        2   -1    0    0  501    0  0.00000000000E+00  0.00000000000E+00 -0.18701560921E+04  0.18701560921E+04  0.25500000920E-02 0.  1.
    10030    2    1    2    0    0  0.00000000000E+00  0.00000000000E+00 -0.18398654622E+03  0.35563256380E+04  0.35515631762E+04 0.  0.
        3    1    3    3  502    0 -0.72184517503E+00  0.16562335860E+03  0.16784184769E+04  0.16865705475E+04  0.10100000352E+00 0. -1.
       -3    1    3    3    0  502  0.72184517503E+00 -0.16562335860E+03 -0.18624050231E+04  0.18697550905E+04  0.10100000352E+00 0.  1.
</event>
<event>
 5   0  0.1685793E-06  0.3714129E+04  0.7818609E-02  0.8064838E-01
       -2   -1    0    0    0  501  0.00000000000E+00  0.00000000000E+00  0.18200674061E+04  0.18200674061E+04  0.25500000920E-02 0.  1.
        2   -1    0    0  501    0  0.00000000000E+00  0.00000000000E+00 -0.18948133451E+04  0.18948133451E+04  0.25500000920E-02 0. -1.
    10030    2    1    2    0    0  0.00000000000E+00  0.00000000000E+00 -0.74745939074E+02  0.37148807512E+04  0.37141287054E+04 0.  0.
        3    1    3    3  502    0  0.60282016097E+03 -0.66233489251E+03 -0.16645423631E+04  0.18901801356E+04  0.10100000352E+00 0. -1.
       -3    1    3    3    0  502 -0.60282016097E+03  0.66233489251E+03  0.15897964240E+04  0.18247006156E+04  0.10100000352E+00 0.  1.
</event>
<event>
 5   0  0.5679750E-07  0.3944690E+04  0.7818609E-02  0.8015798E-01
       -4   -1    0    0    0  501  0.00000000000E+00  0.00000000000E+00  0.18700964939E+04  0.18700969251E+04  0.12699999809E+01 0.  1.
        4   -1    0    0  501    0  0.00000000000E+00  0.00000000000E+00 -0.20801826323E+04  0.20801830200E+04  0.12699999809E+01 0. -1.
    10030    2    1    2    0    0  0.00000000000E+00  0.00000000000E+00 -0.21008613838E+03  0.39502799451E+04  0.39446895263E+04 0.  0.
        4    1    3    3  502    0  0.95552340315E+03  0.11351276359E+04  0.11962609302E+04  0.19059332490E+04  0.12699999809E+01 0.  1.
       -4    1    3    3    0  502 -0.95552340315E+03 -0.11351276359E+04 -0.14063470685E+04  0.20443466961E+04  0.12699999809E+01 0. -1.
</event>
<event>
 5   0  0.5679750E-07  0.3689352E+04  0.7818609E-02  0.8070326E-01
        1   -1    0    0  501    0  0.00000000000E+00  0.00000000000E+00  0.17568085154E+04  0.17568085154E+04  0.50400001928E-02 0.  1.
       -1   -1    0    0    0  501  0.00000000000E+00  0.00000000000E+00 -0.19369377738E+04  0.19369377739E+04  0.50400001928E-02 0. -1.
    10030    2    1    2    0    0  0.00000000000E+00  0.00000000000E+00 -0.18012925846E+03  0.36937462892E+04  0.36893515825E+04 0.  0.
        4    1    3    3  502    0  0.38819779504E+03  0.12359090298E+03  0.17112046213E+04  0.17590324352E+04  0.12699999809E+01 0.  1.
       -4    1    3    3    0  502 -0.38819779504E+03 -0.12359090298E+03 -0.18913338797E+04  0.19347138540E+04  0.12699999809E+01 0. -1.
</event>
<event>
 5   0  0.1685793E-06  0.3689234E+04  0.7818609E-02  0.8070352E-01
       -2   -1    0    0    0  501  0.00000000000E+00  0.00000000000E+00  0.21403623280E+04  0.21403623280E+04  0.25500000920E-02 0. -1.
        2   -1    0    0  501    0  0.00000000000E+00  0.00000000000E+00 -0.15897363540E+04  0.15897363540E+04  0.25500000920E-02 0.  1.
    10030    2    1    2    0    0  0.00000000000E+00  0.00000000000E+00  0.55062597403E+03  0.37300986821E+04  0.36892339604E+04 0.  0.
        3    1    3    3  502    0 -0.80795249094E+03  0.85305016155E+03 -0.11624545003E+04  0.16528104190E+04  0.10100000352E+00 0.  1.
       -3    1    3    3    0  502  0.80795249094E+03 -0.85305016155E+03  0.17130804744E+04  0.20772882630E+04  0.10100000352E+00 0. -1.
</event>
<event>
 5   0  0.6287345E-07  0.2008955E+04  0.7818609E-02  0.8602445E-01
        1   -1    0    0  501    0  0.00000000000E+00  0.00000000000E+00  0.15518739330E+04  0.15518739330E+04  0.50400001928E-02 0. -1.
       -1   -1    0    0    0  501  0.00000000000E+00  0.00000000000E+00 -0.65016546805E+03  0.65016546807E+03  0.50400001928E-02 0.  1.
    10030    2    1    2    0    0  0.00000000000E+00  0.00000000000E+00  0.90170846494E+03  0.22020394011E+04  0.20089547949E+04 0.  0.
        5    1    3    3  502    0 -0.44128237693E+03 -0.80333624860E+03  0.90129289189E+03  0.12854688761E+04  0.46999998093E+01 0.  1.
       -5    1    3    3    0  502  0.44128237693E+03  0.80333624860E+03  0.41557305203E+00  0.91657052495E+03  0.46999998093E+01 0. -1.
</event>
<event>
 5   0  0.5875011E-07  0.2695122E+04  0.7818609E-02  0.8336590E-01
       -1   -1    0    0    0  501  0.00000000000E+00  0.00000000000E+00  0.12091005637E+04  0.12091005637E+04  0.50400001928E-02 0. -1.
        1   -1    0    0  501    0  0.00000000000E+00  0.00000000000E+00 -0.15018768686E+04  0.15018768686E+04  0.50400001928E-02 0.  1.
    10030    2    1    2    0    0  0.00000000000E+00  0.00000000000E+00 -0.29277630492E+03  0.27109774324E+04  0.26951216437E+04 0.  0.
        2    1    3    3  502    0 -0.59574447505E+03  0.10268094696E+04 -0.78784749302E+03  0.14247641344E+04  0.25500000920E-02 0.  1.
       -2    1    3    3    0  502  0.59574447505E+03 -0.10268094696E+04  0.49507118810E+03  0.12862132979E+04  0.25500000920E-02 0. -1.
</event>
<event>
 5   0  0.5679750E-07  0.3717800E+04  0.7818609E-02  0.8064028E-01
       -1   -1    0    0    0  501  0.00000000000E+00  0.00000000000E+00  0.14018652478E+04  0.14018652478E+04  0.50400001928E-02 0.  1.
        1   -1    0    0  501    0  0.00000000000E+00  0.00000000000E+00 -0.24649372291E+04  0.24649372291E+04  0.50400001928E-02 0. -1.
    10030    2    1    2    0    0  0.00000000000E+00  0.00000000000E+00 -0.10630719813E+04  0.38668024769E+04  0.37178003387E+04 0.  0.
        4    1    3    3  502    0  0.16666478398E+04  0.49855139693E+03  0.14988557112E+03  0.17460629469E+04  0.12699999809E+01 0.  1.
       -4    1    3    3    0  502 -0.16666478398E+04 -0.49855139693E+03 -0.12129575524E+04  0.21207395300E+04  0.12699999809E+01 0. -1.
</event>
<event>
 5   0  0.1184684E-06  0.3706832E+04  0.7818609E-02  0.8066449E-01
        2   -1    0    0  501    0  0.00000000000E+00  0.00000000000E+00  0.20684721139E+04  0.20684721139E+04  0.25500000920E-02 0. -1.
       -2   -1    0    0    0  501  0.00000000000E+00  0.00000000000E+00 -0.16607193679E+04  0.16607193679E+04  0.25500000920E-02 0.  1.
    10030    2    1    2    0    0  0.00000000000E+00  0.00000000000E+00  0.40775274597E+03  0.37291914818E+04  0.37068324492E+04 0.  0.
        4    1    3    3  502    0  0.11468236600E+04  0.13876007347E+04  0.64756924484E+03  0.19131094704E+04  0.12699999809E+01 0.  1.
       -4    1    3    3    0  502 -0.11468236600E+04 -0.13876007347E+04 -0.23981649887E+03  0.18160820114E+04  0.12699999809E+01 0. -1.
</event>
<event>
 5   0  0.5679750E-07  0.1880129E+04  0.7818609E-02  0.8664811E-01
       -1   -1    0    0    0  501  0.00000000000E+00  0.00000000000E+00  0.64368185374E+03  0.64368185376E+03  0.50400001928E-02 0.  1.
        1   -1    0    0  501    0  0.00000000000E+00  0.00000000000E+00 -0.13729157718E+04  0.13729157718E+04  0.50400001928E-02 0. -1.
    10030    2    1    2    0    0  0.00000000000E+00  0.00000000000E+00 -0.72923391804E+03  0.20165976255E+04  0.18801286861E+04 0.  0.
        4    1    3    3  502    0 -0.77889244620E+03 -0.52330239734E+03 -0.30393751913E+03  0.98635615791E+03  0.12699999809E+01 0. -1.
       -4    1    3    3    0  502  0.77889244620E+03  0.52330239734E+03 -0.42529639891E+03  0.10302414676E+04  0.12699999809E+01 0.  1.
</event>
<event>
 5   0  0.5679750E-07  0.3702328E+04  0.7818609E-02  0.8067446E-01
        1   -1    0    0  501    0  0.00000000000E+00  0.00000000000E+00  0.24219303060E+04  0.24219303060E+04  0.50400001928E-02 0. -1.
       -1   -1    0    0    0  501  0.00000000000E+00  0.00000000000E+00 -0.14149077829E+04  0.14149077829E+04  0.50400001928E-02 0.  1.
    10030    2    1    2    0    0  0.00000000000E+00  0.00000000000E+00  0.10070225231E+04  0.38368380889E+04  0.37023279377E+04 0.  0.
        4    1    3    3  502    0  0.14622609497E+04 -0.60931672531E+02  0.16782221678E+04  0.22267355054E+04  0.12699999809E+01 0. -1.
       -4    1    3    3    0  502 -0.14622609497E+04  0.60931672531E+02 -0.67119964464E+03  0.16101025835E+04  0.12699999809E+01 0.  1.
</event>
<event>
 5   0  0.5679750E-07  0.3705562E+04  0.7818609E-02  0.8066730E-01
        1   -1    0    0  501    0  0.00000000000E+00  0.00000000000E+00  0.10847287769E+04  0.10847287769E+04  0.50400001928E-02 0.  1.
       -1   -1    0    0    0  501  0.00000000000E+00  0.00000000000E+00 -0.31646600744E+04  0.31646600744E+04  0.50400001928E-02 0. -1.
    10030    2    1    2    0    0  0.00000000000E+00  0.00000000000E+00 -0.20799312975E+04  0.42493888514E+04  0.37055622256E+04 0.  0.
        4    1    3    3  502    0  0.11407634015E+04 -0.11268407422E+04  0.24536741165E+02  0.16036567154E+04  0.12699999809E+01 0. -1.
       -4    1    3    3    0  502 -0.11407634015E+04  0.11268407422E+04 -0.21044680387E+04  0.26457321359E+04  0.12699999809E+01 0.  1.
</event>
<event>
 5   0  0.6186440E-07  0.1849269E+04  0.7818609E-02  0.8680529E-01
        1   -1    0    0  501    0  0.00000000000E+00  0.00000000000E+00  0.53240067971E+03  0.53240067973E+03  0.50400001928E-02 0. -1.
       -1   -1    0    0    0  501  0.00000000000E+00  0.00000000000E+00 -0.16058372942E+04  0.16058372942E+04  0.50400001928E-02 0.  1.
    10030    2    1    2    0    0  0.00000000000E+00  0.00000000000E+00 -0.10734366145E+04  0.21382379739E+04  0.18492689009E+04 0.  0.
        3    1    3    3  502    0 -0.13495416895E+03  0.30440011982E+03 -0.15341079466E+04  0.15698277813E+04  0.10100000352E+00 0.  1.
       -3    1    3    3    0  502  0.13495416895E+03 -0.30440011982E+03  0.46067133216E+03  0.56841019267E+03  0.10100000352E+00 0. -1.
</event>
<event>
 5   0  0.6186440E-07  0.3636625E+04  0.7818609E-02  0.8082154E-01
       -1   -1    0    0    0  501  0.00000000000E+00  0.00000000000E+00  0.18153685866E+04  0.18153685866E+04  0.50400001928E-02 0. -1.
        1   -1    0    0  501    0  0.00000000000E+00  0.00000000000E+00 -0.18212608442E+04  0.18212608442E+04  0.50400001928E-02 0.  1.
    10030    2    1    2    0    0  0.00000000000E+00  0.00000000000E+00 -0.58922575911E+01  0.36366294308E+04  0.36366246574E+04 0.  0.
        3    1    3    3  502    0  0.14053028100E+04 -0.11389058730E+04 -0.18808723478E+03  0.18186146907E+04  0.10100000352E+00 0. -1.
       -3    1    3    3    0  502 -0.14053028100E+04  0.11389058730E+04  0.18219497719E+03  0.18180147401E+04  0.10100000352E+00 0.  1.
</event>
<event>
 5   0  0.1151180E-06  0.3717455E+04  0.7818609E-02  0.8064105E-01
       -2   -1    0    0    0  501  0.00000000000E+00  0.00000000000E+00  0.14306443500E+04  0.14306443500E+04  0.25500000920E-02 0.  1.
        2   -1    0    0  501    0  0.00000000000E+00  0.00000000000E+00 -0.24149030465E+04  0.24149030465E+04  0.25500000920E-02 0. -1.
    10030    2    1    2    0    0  0.00000000000E+00  0.00000000000E+00 -0.98425869656E+03  0.38455473965E+04  0.37174547203E+04 0.  0.
        5    1    3    3  502    0  0.64406491879E+03  0.13341817808E+04  0.66903879072E+03  0.16255754788E+04  0.46999998093E+01 0.  1.
       -5    1    3    3    0  502 -0.64406491879E+03 -0.13341817808E+04 -0.16532974873E+04  0.22199719177E+04  0.46999998093E+01 0. -1.
</event>
<event>
 5   0  0.1151180E-06  0.3037644E+04  0.7818609E-02  0.8233062E-01
        2   -1    0    0  501    0  0.00000000000E+00  0.00000000000E+00  0.22513569770E+04  0.22513569770E+04  0.25500000920E-02 0.  1.
       -2   -1    0    0    0  501  0.00000000000E+00  0.00000000000E+00 -0.10246354611E+04  0.10246354611E+04  0.25500000920E-02 0. -1.
    10030    2    1    2    0    0  0.00000000000E+00  0.00000000000E+00  0.12267215159E+04  0.32759924381E+04  0.30376439516E+04 0.  0.
        5    1    3    3  502    0  0.54528365510E+03  0.56370575330E+03 -0.78934847004E+03  0.11127405529E+04  0.46999998093E+01 0. -1.
       -5    1    3    3    0  502 -0.54528365510E+03 -0.56370575330E+03  0.20160699859E+04  0.21632518852E+04  0.46999998093E+01 0.  1.
</event>
<event>
 5   0  0.1151180E-06  0.3438641E+04  0.7818609E-02  0.8128487E-01
       -2   -1    0    0    0  501  0.00000000000E+00  0.00000000000E+00  0.14044824768E+04  0.14044824768E+04  0.25500000920E-02 0. -1.
        2   -1    0    0  501    0  0.00000000000E+00  0.00000000000E+00 -0.21047350102E+04  0.21047350102E+04  0.25500000920E-02 0.  1.
    10030    2    1    2    0    0  0.00000000000E+00  0.00000000000E+00 -0.70025253349E+03  0.35092174870E+04  0.34386412666E+04 0.  0.
        5    1    3    3  502    0  0.87011221888E+03 -0.10910045557E+04  0.67480505718E+03  0.15500871489E+04  0.46999998093E+01 0. -1.
       -5    1    3    3    0  502 -0.87011221888E+03  0.10910045557E+04 -0.13750575907E+04  0.19591303381E+04  0.46999998093E+01 0.  1.
</event>
<event>
 5   0  0.1685793E-06  0.2802710E+04  0.7818609E-02  0.8302427E-01
       -2   -1    0    0    0  501  0.00000000000E+00  0.00000000000E+00  0.62697636064E+03  0.62697636064E+03  0.25500000920E-02 0. -1.
        2   -1    0    0  501    0  0.00000000000E+00  0.00000000000E+00 -0.31321699329E+04  0.31321699329E+04  0.25500000920E-02 0.  1.
    10030    2    1    2    0    0  0.00000000000E+00  0.00000000000E+00 -0.25051935722E+04  0.37591462935E+04  0.28027104777E+04 0.  0.
        3    1    3    3  502    0  0.13953482985E+04  0.12046131179E+03 -0.11884308112E+04  0.18368112601E+04  0.10100000352E+00 0. -1.
       -3    1    3    3    0  502 -0.13953482985E+04 -0.12046131179E+03 -0.13167627610E+04  0.19223350334E+04  0.10100000352E+00 0.  1.
</event>
<event>
 5   0  0.5679750E-07  0.2088726E+04  0.7818609E-02  0.8566226E-01
       -1   -1    0    0    0  501  0.00000000000E+00  0.00000000000E+00  0.88632951938E+03  0.88632951939E+03  0.50400001928E-02 0. -1.
        1   -1    0    0  501    0  0.00000000000E+00  0.00000000000E+00 -0.12305743113E+04  0.12305743114E+04  0.50400001928E-02 0.  1.
    10030    2    1    2    0    0  0.00000000000E+00  0.00000000000E+00 -0.34424479197E+03  0.21169038307E+04  0.20887262511E+04 0.  0.
        4    1    3    3  502    0  0.10552735472E+03 -0.33580698975E+03 -0.11686418040E+04  0.12205030257E+04  0.12699999809E+01 0.  1.
       -4    1    3    3    0  502 -0.10552735472E+03  0.33580698975E+03  0.82439701199E+03  0.89640080502E+03  0.12699999809E+01 0. -1.
</event>
<event>
 5   0  0.6287345E-07  0.1946347E+04  0.7818609E-02  0.8632125E-01
        1   -1    0    0  501    0  0.00000000000E+00  0.00000000000E+00  0.13330557784E+04  0.13330557784E+04  0.50400001928E-02 0.  1.
       -1   -1    0    0    0  501  0.00000000000E+00  0.00000000000E+00 -0.71044758142E+03  0.71044758144E+03  0.50400001928E-02 0. -1.
    10030    2    1    2    0    0  0.00000000000E+00  0.00000000000E+00  0.62260819701E+03  0.20435033599E+04  0.19463465814E+04 0.  0.
        5    1    3    3  502    0  0.29515827050E+03 -0.72192821516E+03  0.92237540282E+03  0.12079309691E+04  0.46999998093E+01 0.  1.
       -5    1    3    3    0  502 -0.29515827050E+03  0.72192821516E+03 -0.29976720581E+03  0.83557239073E+03  0.46999998093E+01 0. -1.
</event>
<event>
 5   0  0.1685793E-06  0.2299041E+04  0.7818609E-02  0.8478299E-01
       -2   -1    0    0    0  501  0.00000000000E+00  0.00000000000E+00  0.61716211908E+03  0.61716211909E+03  0.25500000920E-02 0.  1.
        2   -1    0    0  501    0  0.00000000000E+00  0.00000000000E+00 -0.21410867178E+04  0.21410867178E+04  0.25500000920E-02 0. -1.
    10030    2    1    2    0    0  0.00000000000E+00  0.00000000000E+00 -0.15239245987E+04  0.27582488369E+04  0.22990412053E+04 0.  0.
        3    1    3    3  502    0 -0.10339560924E+04  0.53448059789E+02 -0.13612023361E+04  0.17102028260E+04  0.10100000352E+00 0.  1.
       -3    1    3    3    0  502  0.10339560924E+04 -0.53448059789E+02 -0.16272226263E+03  0.10480460109E+04  0.10100000352E+00 0. -1.
</event>
<event>
 5   0  0.5875011E-07  0.3114880E+04  0.7818609E-02  0.8211666E-01
       -1   -1    0    0    0  501  0.00000000000E+00  0.00000000000E+00  0.14609491140E+04  0.14609491140E+04  0.50400001928E-02 0. -1.
        1   -1    0    0  501    0  0.00000000000E+00  0.00000000000E+00 -0.16603039181E+04  0.16603039181E+04  0.50400001928E-02 0.  1.
    10030    2    1    2    0    0  0.00000000000E+00  0.00000000000E+00 -0.19935480408E+03  0.31212530320E+04  0.31148801184E+04 0.  0.
        2    1    3    3  502    0 -0.24199030823E+02  0.11271258202E+04  0.97705412291E+03  0.14918555449E+04  0.25500000920E-02 0. -1.
       -2    1    3    3    0  502  0.24199030823E+02 -0.11271258202E+04 -0.11764089270E+04  0.16293974872E+04  0.25500000920E-02 0.  1.
</event>
<event>
 5   0  0.1184684E-06  0.3628471E+04  0.7818609E-02  0.8084001E-01
        2   -1    0    0  501    0  0.00000000000E+00  0.00000000000E+00  0.13132233740E+04  0.13132233740E+04  0.25500000920E-02 0. -1.
       -2   -1    0    0    0  501  0.00000000000E+00  0.00000000000E+00 -0.25063908980E+04  0.25063908980E+04  0.25500000920E-02 0.  1.
    10030    2    1    2    0    0  0.00000000000E+00  0.00000000000E+00 -0.11931675240E+04  0.38196142721E+04  0.36284713651E+04 0.  0.
        4    1    3    3  502    0 -0.88041573445E+03 -0.15366020895E+04 -0.10112531722E+04  0.20393411775E+04  0.12699999809E+01 0. -1.
       -4    1    3    3    0  502  0.88041573445E+03  0.15366020895E+04 -0.18191435179E+03  0.17802730946E+04  0.12699999809E+01 0.  1.
</event>
<event>
 5   0  0.1724503E-06  0.3695875E+04  0.7818609E-02  0.8068877E-01
        2   -1    0    0  501    0  0.00000000000E+00  0.00000000000E+00  0.24456420123E+04  0.24456420123E+04  0.25500000920E-02 0.  1.
       -2   -1    0    0    0  501  0.00000000000E+00  0.00000000000E+00 -0.13963091074E+04  0.13963091074E+04  0.25500000920E-02 0. -1.
    10030    2    1    2    0    0  0.00000000000E+00  0.00000000000E+00  0.10493329049E+04  0.38419511197E+04  0.36958745732E+04 0.  0.
        1    1    3    3  502    0  0.11958692001E+04  0.65267116554E+03 -0.77319500631E+03  0.15664971471E+04  0.50400001928E-02 0. -1.
       -1    1    3    3    0  502 -0.11958692001E+04 -0.65267116554E+03  0.18225279112E+04  0.22754539726E+04  0.50400001928E-02 0.  1.
</event>
<event>
 5   0  0.6261598E-07  0.3658281E+04  0.7818609E-02  0.8077271E-01
        1   -1    0    0  501    0  0.00000000000E+00  0.00000000000E+00  0.19794163324E+04  0.19794163324E+04  0.50400001928E-02 0. -1.
       -1   -1    0    0    0  501  0.00000000000E+00  0.00000000000E+00 -0.16902734993E+04  0.16902734993E+04  0.50400001928E-02 0.  1.
    10030    2    1    2    0    0  0.00000000000E+00  0.00000000000E+00  0.28914283303E+03  0.36696898317E+04  0.36582810011E+04 0.  0.
        1    1    3    3  502    0  0.68875319448E+03 -0.13171071560E+04 -0.92486913461E+03  0.17505813718E+04  0.50400001928E-02 0.  1.
       -1    1    3    3    0  502 -0.68875319448E+03  0.13171071560E+04  0.12140119676E+04  0.19191084599E+04  0.50400001928E-02 0. -1.
</event>
<event>
 5   0  0.1685793E-06  0.3745575E+04  0.7818609E-02  0.8057936E-01
        2   -1    0    0  501    0  0.00000000000E+00  0.00000000000E+00  0.20008224583E+04  0.20008224583E+04  0.25500000920E-02 0. -1.
       -2   -1    0    0    0  501  0.00000000000E+00  0.00000000000E+00 -0.17529456855E+04  0.17529456855E+04  0.25500000920E-02 0.  1.
    10030    2    1    2    0    0  0.00000000000E+00  0.00000000000E+00  0.24787677280E+03  0.37537681437E+04  0.37455750403E+04 0.  0.
        3    1    3    3  502    0 -0.43636247957E+03  0.17975684881E+04  0.41727027330E+03  0.18962539846E+04  0.10100000352E+00 0.  1.
       -3    1    3    3    0  502  0.43636247957E+03 -0.17975684881E+04 -0.16939350051E+03  0.18575141591E+04  0.10100000352E+00 0. -1.
</event>
<event>
 5   0  0.5875011E-07  0.1930575E+04  0.7818609E-02  0.8639785E-01
       -1   -1    0    0    0  501  0.00000000000E+00  0.00000000000E+00  0.11868882340E+04  0.11868882340E+04  0.50400001928E-02 0.  1.
        1   -1    0    0  501    0  0.00000000000E+00  0.00000000000E+00 -0.78506103601E+03  0.78506103602E+03  0.50400001928E-02 0. -1.
    10030    2    1    2    0    0  0.00000000000E+00  0.00000000000E+00  0.40182719796E+03  0.19719492700E+04  0.19305747399E+04 0.  0.
        2    1    3    3  502    0  0.18801866945E+03  0.23711662847E+03  0.11371846429E+04  0.11767600552E+04  0.25500000920E-02 0.  1.
       -2    1    3    3    0  502 -0.18801866945E+03 -0.23711662847E+03 -0.73535744490E+03  0.79518921480E+03  0.25500000920E-02 0. -1.
</event>
<event>
 5   0  0.1680194E-06  0.2700557E+04  0.7818609E-02  0.8334824E-01
        2   -1    0    0  501    0  0.00000000000E+00  0.00000000000E+00  0.28578393201E+04  0.28578393201E+04  0.25500000920E-02 0. -1.
       -2   -1    0    0    0  501  0.00000000000E+00  0.00000000000E+00 -0.63798267506E+03  0.63798267507E+03  0.25500000920E-02 0.  1.
    10030    2    1    2    0    0  0.00000000000E+00  0.00000000000E+00  0.22198566450E+04  0.34958219951E+04  0.27005569606E+04 0.  0.
        2    1    3    3  502    0 -0.27127624549E+03 -0.70241500695E+03  0.25608307645E+04  0.26692380650E+04  0.25500000920E-02 0. -1.
       -2    1    3    3    0  502  0.27127624549E+03  0.70241500695E+03 -0.34097411949E+03  0.82658393012E+03  0.25500000920E-02 0.  1.
</event>
<event>
 5   0  0.5875011E-07  0.2312895E+04  0.7818609E-02  0.8472854E-01
        1   -1    0    0  501    0  0.00000000000E+00  0.00000000000E+00  0.14964605623E+04  0.14964605623E+04  0.50400001928E-02 0. -1.
       -1   -1    0    0    0  501  0.00000000000E+00  0.00000000000E+00 -0.89368968417E+03  0.89368968419E+03  0.50400001928E-02 0.  1.
    10030    2    1    2    0    0  0.00000000000E+00  0.00000000000E+00  0.60277087814E+03  0.23901502465E+04  0.23128954731E+04 0.  0.
        2    1    3    3  502    0  0.54338412356E+03 -0.89219806934E+02 -0.74951092737E+03  0.93005005775E+03  0.25500000920E-02 0.  1.
       -2    1    3    3    0  502 -0.54338412356E+03  0.89219806934E+02  0.13522818055E+04  0.14601001887E+04  0.25500000920E-02 0. -1.
</event>
<event>
 5   0  0.5875011E-07  0.2909149E+04  0.7818609E-02  0.8270161E-01
       -1   -1    0    0    0  501  0.00000000000E+00  0.00000000000E+00  0.99667192395E+03  0.99667192396E+03  0.50400001928E-02 0.  1.
        1   -1    0    0  501    0  0.00000000000E+00  0.00000000000E+00 -0.21228520510E+04  0.21228520510E+04  0.50400001928E-02 0. -1.
    10030    2    1    2    0    0  0.00000000000E+00  0.00000000000E+00 -0.11261801270E+04  0.31195239749E+04  0.29091490425E+04 0.  0.
        2    1    3    3  502    0 -0.29309031188E+03  0.74390541214E+02  0.96259635713E+03  0.10089735528E+04  0.25500000920E-02 0.  1.
       -2    1    3    3    0  502  0.29309031188E+03 -0.74390541214E+02 -0.20887764841E+04  0.21105504221E+04  0.25500000920E-02 0. -1.
</event>
<event>
 5   0  0.1151180E-06  0.3675708E+04  0.7818609E-02  0.8073367E-01
        2   -1    0    0  501    0  0.00000000000E+00  0.00000000000E+00  0.24918850301E+04  0.24918850301E+04  0.25500000920E-02 0.  1.
       -2   -1    0    0    0  501  0.00000000000E+00  0.00000000000E+00 -0.13554824986E+04  0.13554824986E+04  0.25500000920E-02 0. -1.
    10030    2    1    2    0    0  0.00000000000E+00  0.00000000000E+00  0.11364025315E+04  0.38473675286E+04  0.36757075763E+04 0.  0.
        5    1    3    3  502    0 -0.13468409959E+03 -0.17815099253E+04  0.10193368119E+04  0.20569363254E+04  0.46999998093E+01 0. -1.
       -5    1    3    3    0  502  0.13468409959E+03  0.17815099253E+04  0.11706571964E+03  0.17904312032E+04  0.46999998093E+01 0.  1.
</event>
<event>
 5   0  0.1680194E-06  0.3858580E+04  0.7818609E-02  0.8033699E-01
       -2   -1    0    0    0  501  0.00000000000E+00  0.00000000000E+00  0.13072160239E+04  0.13072160239E+04  0.25500000920E-02 0.  1.
        2   -1    0    0  501    0  0.00000000000E+00  0.00000000000E+00 -0.28473950198E+04  0.28473950198E+04  0.25500000920E-02 0. -1.
    10030    2    1    2    0    0  0.00000000000E+00  0.00000000000E+00 -0.15401789959E+04  0.41546110437E+04  0.38585802551E+04 0.  0.
        2    1    3    3  502    0 -0.24334948926E+03  0.92162167775E+03  0.10359636686E+04  0.14077734951E+04  0.25500000920E-02 0.  1.
       -2    1    3    3    0  502  0.24334948926E+03 -0.92162167775E+03 -0.25761426645E+04  0.27468375487E+04  0.25500000920E-02 0. -1.
</event>
<event>
 5   0  0.1184684E-06  0.2396294E+04  0.7818609E-02  0.8440892E-01
       -2   -1    0    0    0  501  0.00000000000E+00  0.00000000000E+00  0.26584773528E+04  0.26584773528E+04  0.25500000920E-02 0. -1.
        2   -1    0    0  501    0  0.00000000000E+00  0.00000000000E+00 -0.53999204257E+03  0.53999204258E+03  0.25500000920E-02 0.  1.
    10030    2    1    2    0    0  0.00000000000E+00  0.00000000000E+00  0.21184853103E+04  0.31984693954E+04  0.23962943191E+04 0.  0.
        4    1    3    3  502    0  0.48059456443E+03 -0.70452267776E+02  0.25211638171E+04  0.25675286294E+04  0.12699999809E+01 0. -1.
       -4    1    3    3    0  502 -0.48059456443E+03  0.70452267776E+02 -0.40267850684E+03  0.63094076597E+03  0.12699999809E+01 0.  1.
</event>
<event>
 5   0  0.2570667E-06  0.1839316E+04  0.7818609E-02  0.8685667E-01
       -2   -1    0    0    0  501  0.00000000000E+00  0.00000000000E+00  0.47891782792E+03  0.47891782792E+03  0.25500000920E-02 0.  1.
        2   -1    0    0  501    0  0.00000000000E+00  0.00000000000E+00 -0.17660035808E+04  0.17660035808E+04  0.25500000920E-02 0. -1.
    10030    2    1    2    0    0  0.00000000000E+00  0.00000000000E+00 -0.12870857529E+04  0.22449214087E+04  0.18393157413E+04 0.  0.
        5    1    3    3  502    0 -0.15194701483E+03 -0.67427705576E+02 -0.17474989614E+04  0.17553942865E+04  0.46999998093E+01 0. -1.
       -5    1    3    3    0  502  0.15194701483E+03  0.67427705576E+02  0.46041320856E+03  0.48952712224E+03  0.46999998093E+01 0.  1.
</event>
<event>
 5   0  0.1184684E-06  0.3120366E+04  0.7818609E-02  0.8210171E-01
        2   -1    0    0  501    0  0.00000000000E+00  0.00000000000E+00  0.14632276078E+04  0.14632276079E+04  0.25500000920E-02 0. -1.
       -2   -1    0    0    0  501  0.00000000000E+00  0.00000000000E+00 -0.16635629277E+04  0.16635629277E+04  0.25500000920E-02 0.  1.
    10030    2    1    2    0    0  0.00000000000E+00  0.00000000000E+00 -0.20033531986E+03  0.31267905356E+04  0.31203661344E+04 0.  0.
        4    1    3    3  502    0  0.20867695967E+03  0.80394911611E+03 -0.14236022934E+04  0.16481885079E+04  0.12699999809E+01 0.  1.
       -4    1    3    3    0  502 -0.20867695967E+03 -0.80394911611E+03  0.12232669736E+04  0.14786020277E+04  0.12699999809E+01 0. -1.
</event>
<event>
 5   0  0.5679750E-07  0.1949623E+04  0.7818609E-02  0.8630543E-01
        1   -1    0    0  501    0  0.00000000000E+00  0.00000000000E+00  0.84206545433E+03  0.84206545435E+03  0.50400001928E-02 0. -1.
       -1   -1    0    0    0  501  0.00000000000E+00  0.00000000000E+00 -0.11284835701E+04  0.11284835701E+04  0.50400001928E-02 0.  1.
    10030    2    1    2    0    0  0.00000000000E+00  0.00000000000E+00 -0.28641811572E+03  0.19705490244E+04  0.19496225585E+04 0.  0.
        4    1    3    3  502    0  0.73445985384E+03 -0.18738032990E+03  0.47632426486E+03  0.89522571630E+03  0.12699999809E+01 0. -1.
       -4    1    3    3    0  502 -0.73445985384E+03  0.18738032990E+03 -0.76274238058E+03  0.10753233081E+04  0.12699999809E+01 0.  1.
</event>
<event>
 5   0  0.1151180E-06  0.2424173E+04  0.7818609E-02  0.8430509E-01
       -2   -1    0    0    0  501  0.00000000000E+00  0.00000000000E+00  0.11442260827E+04  0.11442260827E+04  0.25500000920E-02 0. -1.
        2   -1    0    0  501    0  0.00000000000E+00  0.00000000000E+00 -0.12839711186E+04  0.12839711186E+04  0.25500000920E-02 0.  1.
    10030    2    1    2    0    0  0.00000000000E+00  0.00000000000E+00 -0.13974503589E+03  0.24281972013E+04  0.24241726369E+04 0.  0.
        5    1    3    3  502    0  0.83905367833E+03 -0.77427752381E+03 -0.47750562559E+03  0.12375582699E+04  0.46999998093E+01 0.  1.
       -5    1    3    3    0  502 -0.83905367833E+03  0.77427752381E+03  0.33776058971E+03  0.11906389314E+04  0.46999998093E+01 0. -1.
</event>
<event>
 5   0  0.6287345E-07  0.3343282E+04  0.7818609E-02  0.8151969E-01
        1   -1    0    0  501    0  0.00000000000E+00  0.00000000000E+00  0.23875583273E+04  0.23875583273E+04  0.50400001928E-02 0.  1.
       -1   -1    0    0    0  501  0.00000000000E+00  0.00000000000E+00 -0.11703940290E+04  0.11703940290E+04  0.50400001928E-02 0. -1.
    10030    2    1    2    0    0  0.00000000000E+00  0.00000000000E+00  0.12171642983E+04  0.35579523563E+04  0.33432822257E+04 0.  0.
        5    1    3    3  502    0  0.71024830663E+03  0.96933487090E+03  0.18452187305E+04  0.22020256589E+04  0.46999998093E+01 0.  1.
       -5    1    3    3    0  502 -0.71024830663E+03 -0.96933487090E+03 -0.62805443219E+03  0.13559266974E+04  0.46999998093E+01 0. -1.
</event>
<event>
 5   0  0.1184684E-06  0.3577512E+04  0.7818609E-02  0.8095662E-01
        2   -1    0    0  501    0  0.00000000000E+00  0.00000000000E+00  0.22508536542E+04  0.22508536542E+04  0.25500000920E-02 0.  1.
       -2   -1    0    0    0  501  0.00000000000E+00  0.00000000000E+00 -0.14215268343E+04  0.14215268344E+04  0.25500000920E-02 0. -1.
    10030    2    1    2    0    0  0.00000000000E+00  0.00000000000E+00  0.82932681980E+03  0.36723804885E+04  0.35775124707E+04 0.  0.
        4    1    3    3  502    0  0.12541141959E+04  0.12179005593E+04  0.25718689816E+02  0.17483555853E+04  0.12699999809E+01 0.  1.
       -4    1    3    3    0  502 -0.12541141959E+04 -0.12179005593E+04  0.80360812999E+03  0.19240249032E+04  0.12699999809E+01 0. -1.
</event>
<event>
 5   0  0.1184684E-06  0.3653587E+04  0.7818609E-02  0.8078326E-01
       -2   -1    0    0    0  501  0.00000000000E+00  0.00000000000E+00  0.14885565271E+04  0.14885565271E+04  0.25500000920E-02 0. -1.
        2   -1    0    0  501    0  0.00000000000E+00  0.00000000000E+00 -0.22418863858E+04  0.22418863858E+04  0.25500000920E-02 0.  1.
    10030    2    1    2    0    0  0.00000000000E+00  0.00000000000E+00 -0.75332985872E+03  0.37304429129E+04  0.36535870662E+04 0.  0.
        4    1    3    3  502    0 -0.22970919793E+03  0.14332959054E+04 -0.15090803320E+04  0.20939027029E+04  0.12699999809E+01 0.  1.
       -4    1    3    3    0  502  0.22970919793E+03 -0.14332959054E+04  0.75575047325E+03  0.16365402100E+04  0.12699999809E+01 0. -1.
</event>
<event>
 5   0  0.1151180E-06  0.2370680E+04  0.7818609E-02  0.8450563E-01
        2   -1    0    0  501    0  0.00000000000E+00  0.00000000000E+00  0.88297479415E+03  0.88297479415E+03  0.25500000920E-02 0.  1.
       -2   -1    0    0    0  501  0.00000000000E+00  0.00000000000E+00 -0.15912470467E+04  0.15912470467E+04  0.25500000920E-02 0. -1.
    10030    2    1    2    0    0  0.00000000000E+00  0.00000000000E+00 -0.70827225252E+03  0.24742218408E+04  0.23706800994E+04 0.  0.
        5    1    3    3  502    0 -0.25079850158E+03 -0.22117805335E+03 -0.15409885949E+04  0.15768600316E+04  0.46999998093E+01 0. -1.
       -5    1    3    3    0  502  0.25079850158E+03  0.22117805335E+03  0.83271634240E+03  0.89736180919E+03  0.46999998093E+01 0.  1.
</event>
<event>
 5   0  0.6287345E-07  0.2921411E+04  0.7818609E-02  0.8266535E-01
        1   -1    0    0  501    0  0.00000000000E+00  0.00000000000E+00  0.13532779553E+04  0.13532779553E+04  0.50400001928E-02 0. -1.
       -1   -1    0    0    0  501  0.00000000000E+00  0.00000000000E+00 -0.15766613999E+04  0.15766613999E+04  0.50400001928E-02 0.  1.
    10030    2    1    2    0    0  0.00000000000E+00  0.00000000000E+00 -0.22338344457E+03  0.29299393552E+04  0.29214113818E+04 0.  0.
        5    1    3    3  502    0  0.99215677610E+03 -0.31502246469E+03  0.91600670855E+03  0.13866162417E+04  0.46999998093E+01 0. -1.
       -5    1    3    3    0  502 -0.99215677610E+03  0.31502246469E+03 -0.11393901531E+04  0.15433231135E+04  0.46999998093E+01 0.  1.
</event>
<event>
 5   0  0.5679750E-07  0.3651244E+04  0.7818609E-02  0.8078854E-01
        1   -1    0    0  501    0  0.00000000000E+00  0.00000000000E+00  0.19690249988E+04  0.19690249988E+04  0.50400001928E-02 0.  1.
       -1   -1    0    0    0  501  0.00000000000E+00  0.00000000000E+00 -0.16926627795E+04  0.16926627795E+04  0.50400001928E-02 0. -1.
    10030    2    1    2    0    0  0.00000000000E+00  0.00000000000E+00  0.27636221928E+03  0.36616877783E+04  0.36512438031E+04 0.  0.
        4    1    3    3  502    0  0.21992240742E+03  0.30221514412E+03 -0.16538812584E+04  0.16955897760E+04  0.12699999809E+01 0. -1.
       -4    1    3    3    0  502 -0.21992240742E+03 -0.30221514412E+03  0.19302434777E+04  0.19660980023E+04  0.12699999809E+01 0.  1.
</event>
<event>
 5   0  0.6186440E-07  0.3722148E+04  0.7818609E-02  0.8063071E-01
        1   -1    0    0  501    0  0.00000000000E+00  0.00000000000E+00  0.27324688143E+04  0.27324688143E+04  0.50400001928E-02 0.  1.
       -1   -1    0    0    0  501  0.00000000000E+00  0.00000000000E+00 -0.12675704998E+04  0.12675704998E+04  0.50400001928E-02 0. -1.
    10030    2    1    2    0    0  0.00000000000E+00  0.00000000000E+00  0.14648983145E+04  0.40000393141E+04  0.37221482296E+04 0.  0.
        3    1    3    3  502    0  0.18141481913E+04  0.41151587406E+03  0.79245589446E+03  0.20219953831E+04  0.10100000352E+00 0. -1.
       -3    1    3    3    0  502 -0.18141481913E+04 -0.41151587406E+03  0.67244242000E+03  0.19780439310E+04  0.10100000352E+00 0.  1.
</event>
<event>
 5   0  0.5679750E-07  0.1943688E+04  0.7818609E-02  0.8633410E-01
        3   -1    0    0  501    0  0.00000000000E+00  0.00000000000E+00  0.49455519448E+03  0.49455520479E+03  0.10100000352E+00 0.  1.
       -3   -1    0    0    0  501  0.00000000000E+00  0.00000000000E+00 -0.19097587246E+04  0.19097587273E+04  0.10100000352E+00 0. -1.
    10030    2    1    2    0    0  0.00000000000E+00  0.00000000000E+00 -0.14152035301E+04  0.24043139321E+04  0.19436883629E+04 0.  0.
        1    1    3    3  502    0 -0.46841054517E+03  0.70773310663E+03 -0.12932937625E+04  0.15469012074E+04  0.50400001928E-02 0. -1.
       -1    1    3    3    0  502  0.46841054517E+03 -0.70773310663E+03 -0.12190976757E+03  0.85741272471E+03  0.50400001928E-02 0.  1.
</event>
<event>
 5   0  0.1184684E-06  0.2051076E+04  0.7818609E-02  0.8583106E-01
        2   -1    0    0  501    0  0.00000000000E+00  0.00000000000E+00  0.10342112779E+04  0.10342112779E+04  0.25500000920E-02 0. -1.
       -2   -1    0    0    0  501  0.00000000000E+00  0.00000000000E+00 -0.10169378296E+04  0.10169378296E+04  0.25500000920E-02 0.  1.
    10030    2    1    2    0    0  0.00000000000E+00  0.00000000000E+00  0.17273448296E+02  0.20511491075E+04  0.20510763733E+04 0.  0.
        4    1    3    3  502    0  0.90595933332E+03  0.46401717715E+03 -0.11647848353E+03  0.10245209146E+04  0.12699999809E+01 0. -1.
       -4    1    3    3    0  502 -0.90595933332E+03 -0.46401717715E+03  0.13375193183E+03  0.10266281929E+04  0.12699999809E+01 0.  1.
</event>
<event>
 5   0  0.1685793E-06  0.2942224E+04  0.7818609E-02  0.8260424E-01
       -2   -1    0    0    0  501  0.00000000000E+00  0.00000000000E+00  0.16226450664E+04  0.16226450664E+04  0.25500000920E-02 0. -1.
        2   -1    0    0  501    0  0.00000000000E+00  0.00000000000E+00 -0.13337301221E+04  0.13337301221E+04  0.25500000920E-02 0.  1.
    10030    2    1    2    0    0  0.00000000000E+00  0.00000000000E+00  0.28891494432E+03  0.29563751885E+04  0.29422240585E+04 0.  0.
        3    1    3    3  502    0 -0.13156024750E+04 -0.65749735172E+03  0.11177485042E+03  0.14749936499E+04  0.10100000352E+00 0.  1.
       -3    1    3    3    0  502  0.13156024750E+04  0.65749735172E+03  0.17714009390E+03  0.14813815386E+04  0.10100000352E+00 0. -1.
</event>
<event>
 5   0  0.2231191E-06  0.2034170E+04  0.7818609E-02  0.8590810E-01
       -2   -1    0    0    0  501  0.00000000000E+00  0.00000000000E+00  0.92693570466E+03  0.92693570466E+03  0.25500000920E-02 0. -1.
        2   -1    0    0  501    0  0.00000000000E+00  0.00000000000E+00 -0.11160013565E+04  0.11160013565E+04  0.25500000920E-02 0.  1.
    10030    2    1    2    0    0  0.00000000000E+00  0.00000000000E+00 -0.18906565180E+03  0.20429370611E+04  0.20341696131E+04 0.  0.
        1    1    3    3  502    0  0.39060249543E+03 -0.41611666592E+03 -0.94002719407E+03  0.10997156517E+04  0.50400001928E-02 0.  1.
       -1    1    3    3    0  502 -0.39060249543E+03  0.41611666592E+03  0.75096154227E+03  0.94322140937E+03  0.50400001928E-02 0. -1.
</event>
<event>
 5   0  0.1184684E-06  0.3918065E+04  0.7818609E-02  0.8021283E-01
       -2   -1    0    0    0  501  0.00000000000E+00  0.00000000000E+00  0.23310082537E+04  0.23310082537E+04  0.25500000920E-02 0. -1.
        2   -1    0    0  501    0  0.00000000000E+00  0.00000000000E+00 -0.16464154247E+04  0.16464154247E+04  0.25500000920E-02 0.  1.
    10030    2    1    2    0    0  0.00000000000E+00  0.00000000000E+00  0.68459282905E+03  0.39774236784E+04  0.39180647999E+04 0.  0.
        4    1    3    3  502    0 -0.31144929520E+03  0.13671458909E+03 -0.16162105565E+04  0.16516142765E+04  0.12699999809E+01 0.  1.
       -4    1    3    3    0  502  0.31144929520E+03 -0.13671458909E+03  0.23008033855E+04  0.23258094020E+04  0.12699999809E+01 0. -1.
</event>
<event>
 5   0  0.6287345E-07  0.2737320E+04  0.7818609E-02  0.8322997E-01
        1   -1    0    0  501    0  0.00000000000E+00  0.00000000000E+00  0.12853670067E+04  0.12853670067E+04  0.50400001928E-02 0. -1.
       -1   -1    0    0    0  501  0.00000000000E+00  0.00000000000E+00 -0.14573500532E+04  0.14573500532E+04  0.50400001928E-02 0.  1.
    10030    2    1    2    0    0  0.00000000000E+00  0.00000000000E+00 -0.17198304647E+03  0.27427170599E+04  0.27373196201E+04 0.  0.
        5    1    3    3  502    0  0.72670084482E+03 -0.36657162201E+03 -0.11884968901E+04  0.14404915202E+04  0.46999998093E+01 0.  1.
       -5    1    3    3    0  502 -0.72670084482E+03  0.36657162201E+03  0.10165138437E+04  0.13022255397E+04  0.46999998093E+01 0. -1.
</event>
<event>
 5   0  0.6186440E-07  0.3590886E+04  0.7818609E-02  0.8092583E-01
       -1   -1    0    0    0  501  0.00000000000E+00  0.00000000000E+00  0.13604305252E+04  0.13604305252E+04  0.50400001928E-02 0. -1.
        1   -1    0    0  501    0  0.00000000000E+00  0.00000000000E+00 -0.23695552558E+04  0.23695552558E+04  0.50400001928E-02 0.  1.
    10030    2    1    2    0    0  0.00000000000E+00  0.00000000000E+00 -0.10091247306E+04  0.37299857810E+04  0.35908858524E+04 0.  0.
        3    1    3    3  502    0 -0.11934747632E+04 -0.12382879770E+04 -0.10401681769E+04  0.20098977513E+04  0.10100000352E+00 0. -1.
       -3    1    3    3    0  502  0.11934747632E+04  0.12382879770E+04  0.31043446282E+02  0.17200880297E+04  0.10100000352E+00 0.  1.
</event>
<event>
 5   0  0.6186440E-07  0.2023483E+04  0.7818609E-02  0.8595720E-01
       -1   -1    0    0    0  501  0.00000000000E+00  0.00000000000E+00  0.78925415426E+03  0.78925415427E+03  0.50400001928E-02 0. -1.
        1   -1    0    0  501    0  0.00000000000E+00  0.00000000000E+00 -0.12969472533E+04  0.12969472533E+04  0.50400001928E-02 0.  1.
    10030    2    1    2    0    0  0.00000000000E+00  0.00000000000E+00 -0.50769309907E+03  0.20862014076E+04  0.20234831431E+04 0.  0.
        3    1    3    3  502    0 -0.90761859672E+03 -0.41627496608E+03 -0.42188495523E+03  0.10839941375E+04  0.10100000352E+00 0. -1.
       -3    1    3    3    0  502  0.90761859672E+03  0.41627496608E+03 -0.85808143842E+02  0.10022072701E+04  0.10100000352E+00 0.  1.
</event>
<event>
 5   0  0.1184684E-06  0.3203441E+04  0.7818609E-02  0.8187909E-01
       -2   -1    0    0    0  501  0.00000000000E+00  0.00000000000E+00  0.12989171239E+04  0.12989171239E+04  0.25500000920E-02 0. -1.
        2   -1    0    0  501    0  0.00000000000E+00  0.00000000000E+00 -0.19751127524E+04  0.19751127524E+04  0.25500000920E-02 0.  1.
    10030    2    1    2    0    0  0.00000000000E+00  0.00000000000E+00 -0.67619562859E+03  0.32740298763E+04  0.32034405103E+04 0.  0.
        4    1    3    3  502    0  0.15646311120E+04 -0.23760360895E+01 -0.68832955797E+03  0.17093493954E+04  0.12699999809E+01 0.  1.
       -4    1    3    3    0  502 -0.15646311120E+04  0.23760360895E+01  0.12133929378E+02  0.15646804809E+04  0.12699999809E+01 0. -1.
</event>
<event>
 5   0  0.5875011E-07  0.3139569E+04  0.7818609E-02  0.8204962E-01
        1   -1    0    0  501    0  0.00000000000E+00  0.00000000000E+00  0.13627615221E+04  0.13627615221E+04  0.50400001928E-02 0. -1.
       -1   -1    0    0    0  501  0.00000000000E+00  0.00000000000E+00 -0.18082577264E+04  0.18082577264E+04  0.50400001928E-02 0.  1.
    10030    2    1    2    0    0  0.00000000000E+00  0.00000000000E+00 -0.44549620429E+03  0.31710192485E+04  0.31395694301E+04 0.  0.
        2    1    3    3  502    0  0.14168115451E+04 -0.12174421220E+03  0.44877851046E+03  0.14911669118E+04  0.25500000920E-02 0. -1.
       -2    1    3    3    0  502 -0.14168115451E+04  0.12174421220E+03 -0.89427471475E+03  0.16798523367E+04  0.25500000920E-02 0.  1.
</event>
<event>
 5   0  0.1184684E-06  0.3649452E+04  0.7818609E-02  0.8079257E-01
        2   -1    0    0  501    0  0.00000000000E+00  0.00000000000E+00  0.26549655696E+04  0.26549655696E+04  0.25500000920E-02 0. -1.
       -2   -1    0    0    0  501  0.00000000000E+00  0.00000000000E+00 -0.12541126324E+04  0.12541126324E+04  0.25500000920E-02 0.  1.
    10030    2    1    2    0    0  0.00000000000E+00  0.00000000000E+00  0.14008529371E+04  0.39090782020E+04  0.36494524847E+04 0.  0.
        4    1    3    3  502    0  0.13383167362E+04  0.11623761602E+03  0.20231973034E+04  0.24285657931E+04  0.12699999809E+01 0. -1.
       -4    1    3    3    0  502 -0.13383167362E+04 -0.11623761602E+03 -0.62234436629E+03  0.14805124089E+04  0.12699999809E+01 0.  1.
</event>
<event>
 5   0  0.6261598E-07  0.3413925E+04  0.7818609E-02  0.8134497E-01
       -1   -1    0    0    0  501  0.00000000000E+00  0.00000000000E+00  0.12189519982E+04  0.12189519982E+04  0.50400001928E-02 0.  1.
        1   -1    0    0  501    0  0.00000000000E+00  0.00000000000E+00 -0.23903489537E+04  0.23903489537E+04  0.50400001928E-02 0. -1.
    10030    2    1    2    0    0  0.00000000000E+00  0.00000000000E+00 -0.11713969554E+04  0.36093009519E+04  0.34139247992E+04 0.  0.
        1    1    3    3  502    0  0.72282438731E+03  0.14519886740E+04 -0.23301805722E+02  0.16221248961E+04  0.50400001928E-02 0.  1.
       -1    1    3    3    0  502 -0.72282438731E+03 -0.14519886740E+04 -0.11480951497E+04  0.19871760559E+04  0.50400001928E-02 0. -1.
</event>
<event>
 5   0  0.5875011E-07  0.2236369E+04  0.7818609E-02  0.8503441E-01
        1   -1    0    0  501    0  0.00000000000E+00  0.00000000000E+00  0.19567850639E+04  0.19567850639E+04  0.50400001928E-02 0.  1.
       -1   -1    0    0    0  501  0.00000000000E+00  0.00000000000E+00 -0.63897481487E+03  0.63897481489E+03  0.50400001928E-02 0. -1.
    10030    2    1    2    0    0  0.00000000000E+00  0.00000000000E+00  0.13178102491E+04  0.25957598788E+04  0.22363688193E+04 0.  0.
        2    1    3    3  502    0 -0.66106286794E+03  0.43655314644E+03 -0.25706058082E+03  0.83286427901E+03  0.25500000920E-02 0. -1.
       -2    1    3    3    0  502  0.66106286794E+03 -0.43655314644E+03  0.15748708299E+04  0.17628955998E+04  0.25500000920E-02 0.  1.
</event>
<event>
 5   0  0.1151180E-06  0.3769935E+04  0.7818609E-02  0.8052638E-01
       -2   -1    0    0    0  501  0.00000000000E+00  0.00000000000E+00  0.15015462785E+04  0.15015462785E+04  0.25500000920E-02 0. -1.
        2   -1    0    0  501    0  0.00000000000E+00  0.00000000000E+00 -0.23662961109E+04  0.23662961109E+04  0.25500000920E-02 0.  1.
    10030    2    1    2    0    0  0.00000000000E+00  0.00000000000E+00 -0.86474983241E+03  0.38678423894E+04  0.37699353412E+04 0.  0.
        5    1    3    3  502    0 -0.42374376530E+03  0.67267609087E+03 -0.21858629678E+04  0.23259559123E+04  0.46999998093E+01 0.  1.
       -5    1    3    3    0  502  0.42374376530E+03 -0.67267609087E+03  0.13211131354E+04  0.15418864771E+04  0.46999998093E+01 0. -1.
</event>
<event>
 5   0  0.1184684E-06  0.2556083E+04  0.7818609E-02  0.8383274E-01
       -2   -1    0    0    0  501  0.00000000000E+00  0.00000000000E+00  0.91365989313E+03  0.91365989314E+03  0.25500000920E-02 0.  1.
        2   -1    0    0  501    0  0.00000000000E+00  0.00000000000E+00 -0.17877441801E+04  0.17877441801E+04  0.25500000920E-02 0. -1.
    10030    2    1    2    0    0  0.00000000000E+00  0.00000000000E+00 -0.87408428697E+03  0.27014040732E+04  0.25560830632E+04 0.  0.
        4    1    3    3  502    0 -0.86462782577E+03  0.73919086356E+03  0.17866352430E+03  0.11514802116E+04  0.12699999809E+01 0.  1.
       -4    1    3    3    0  502  0.86462782577E+03 -0.73919086356E+03 -0.10527478113E+04  0.15499238616E+04  0.12699999809E+01 0. -1.
</event>
<event>
 5   0  0.5679750E-07  0.2129858E+04  0.7818609E-02  0.8548204E-01
        1   -1    0    0  501    0  0.00000000000E+00  0.00000000000E+00  0.22106562740E+04  0.22106562740E+04  0.50400001928E-02 0. -1.
       -1   -1    0    0    0  501  0.00000000000E+00  0.00000000000E+00 -0.51300315842E+03  0.51300315844E+03  0.50400001928E-02 0.  1.
    10030    2    1    2    0    0  0.00000000000E+00  0.00000000000E+00  0.16976531156E+04  0.27236594325E+04  0.21298578833E+04 0.  0.
        4    1    3    3  502    0 -0.84881421753E+03  0.28542410817E+03  0.15857958475E+04  0.18211816440E+04  0.12699999809E+01 0. -1.
       -4    1    3    3    0  502  0.84881421753E+03 -0.28542410817E+03  0.11185726807E+03  0.90247778850E+03  0.12699999809E+01 0.  1.
</event>
<event>
 5   0  0.1724503E-06  0.2776807E+04  0.7818609E-02  0.8310505E-01
       -2   -1    0    0    0  501  0.00000000000E+00  0.00000000000E+00  0.94308554924E+03  0.94308554924E+03  0.25500000920E-02 0. -1.
        2   -1    0    0  501    0  0.00000000000E+00  0.00000000000E+00 -0.20439979033E+04  0.20439979033E+04  0.25500000920E-02 0.  1.
    10030    2    1    2    0    0  0.00000000000E+00  0.00000000000E+00 -0.11009123541E+04  0.29870834525E+04  0.27768074368E+04 0.  0.
        1    1    3    3  502    0 -0.70968664587E+02  0.47001028683E+03  0.85282749923E+03  0.97635084091E+03  0.50400001928E-02 0. -1.
       -1    1    3    3    0  502  0.70968664587E+02 -0.47001028683E+03 -0.19537398533E+04  0.20107326116E+04  0.50400001928E-02 0.  1.
</event>
<event>
 5   0  0.1680194E-06  0.3664827E+04  0.7818609E-02  0.8075802E-01
       -2   -1    0    0    0  501  0.00000000000E+00  0.00000000000E+00  0.18941735293E+04  0.18941735293E+04  0.25500000920E-02 0. -1.
        2   -1    0    0  501    0  0.00000000000E+00  0.00000000000E+00 -0.17726671273E+04  0.17726671273E+04  0.25500000920E-02 0.  1.
    10030    2    1    2    0    0  0.00000000000E+00  0.00000000000E+00  0.12150640205E+03  0.36668406566E+04  0.36648269529E+04 0.  0.
        2    1    3    3  502    0 -0.15345653516E+04 -0.40826677696E+03 -0.85417068351E+03  0.18031029189E+04  0.25500000920E-02 0.  1.
       -2    1    3    3    0  502  0.15345653516E+04  0.40826677696E+03  0.97567708556E+03  0.18637377377E+04  0.25500000920E-02 0. -1.
</event>
<event>
 5   0  0.1184684E-06  0.3018444E+04  0.7818609E-02  0.8238484E-01
        2   -1    0    0  501    0  0.00000000000E+00  0.00000000000E+00  0.15736131503E+04  0.15736131503E+04  0.25500000920E-02 0.  1.
       -2   -1    0    0    0  501  0.00000000000E+00  0.00000000000E+00 -0.14474658467E+04  0.14474658467E+04  0.25500000920E-02 0. -1.
    10030    2    1    2    0    0  0.00000000000E+00  0.00000000000E+00  0.12614730359E+03  0.30210789969E+04  0.30184441627E+04 0.  0.
        4    1    3    3  502    0 -0.78417125203E+03  0.12894367707E+04  0.76424703992E+02  0.15110969812E+04  0.12699999809E+01 0. -1.
       -4    1    3    3    0  502  0.78417125203E+03 -0.12894367707E+04  0.49722599595E+02  0.15099820158E+04  0.12699999809E+01 0.  1.
</event>
<event>
 5   0  0.5875011E-07  0.3705116E+04  0.7818609E-02  0.8066829E-01
       -1   -1    0    0    0  501  0.00000000000E+00  0.00000000000E+00  0.20309631117E+04  0.20309631117E+04  0.50400001928E-02 0. -1.
        1   -1    0    0  501    0  0.00000000000E+00  0.00000000000E+00 -0.16898240478E+04  0.16898240478E+04  0.50400001928E-02 0.  1.
    10030    2    1    2    0    0  0.00000000000E+00  0.00000000000E+00  0.34113906390E+03  0.37207871595E+04  0.37051155482E+04 0.  0.
        2    1    3    3  502    0 -0.92710230882E+03  0.10855551038E+04 -0.10151114212E+04  0.17516848380E+04  0.25500000920E-02 0.  1.
       -2    1    3    3    0  502  0.92710230882E+03 -0.10855551038E+04  0.13562504851E+04  0.19691023215E+04  0.25500000920E-02 0. -1.
</event>
<event>
 5   0  0.5679750E-07  0.2428566E+04  0.7818609E-02  0.8428886E-01
       -1   -1    0    0    0  501  0.00000000000E+00  0.00000000000E+00  0.69193154541E+03  0.69193154543E+03  0.50400001928E-02 0.  1.
        1   -1    0    0  501    0  0.00000000000E+00  0.00000000000E+00 -0.21309663154E+04  0.21309663154E+04  0.50400001928E-02 0. -1.
    10030    2    1    2    0    0  0.00000000000E+00  0.00000000000E+00 -0.14390347700E+04  0.28228978609E+04  0.24285656803E+04 0.  0.
        4    1    3    3  502    0 -0.10041756636E+04  0.44870673981E+03 -0.12140395452E+03  0.11065473487E+04  0.12699999809E+01 0.  1.
       -4    1    3    3    0  502  0.10041756636E+04 -0.44870673981E+03 -0.13176308155E+04  0.17163505122E+04  0.12699999809E+01 0. -1.
</event>
<event>
 5   0  0.1184684E-06  0.3439469E+04  0.7818609E-02  0.8128287E-01
       -2   -1    0    0    0  501  0.00000000000E+00  0.00000000000E+00  0.16419637967E+04  0.16419637967E+04  0.25500000920E-02 0. -1.
        2   -1    0    0  501    0  0.00000000000E+00  0.00000000000E+00 -0.18011889607E+04  0.18011889607E+04  0.25500000920E-02 0.  1.
    10030    2    1    2    0    0  0.00000000000E+00  0.00000000000E+00 -0.15922516404E+03  0.34431527574E+04  0.34394691826E+04 0.  0.
        4    1    3    3  502    0  0.17106377348E+04 -0.40001589241E+02 -0.25185458784E+03  0.17295415384E+04  0.12699999809E+01 0. -1.
       -4    1    3    3    0  502 -0.17106377348E+04  0.40001589241E+02  0.92629423798E+02  0.17136112190E+04  0.12699999809E+01 0.  1.
</event>
<event>
 5   0  0.1685793E-06  0.3750001E+04  0.7818609E-02  0.8056970E-01
        2   -1    0    0  501    0  0.00000000000E+00  0.00000000000E+00  0.19047936670E+04  0.19047936670E+04  0.25500000920E-02 0. -1.
       -2   -1    0    0    0  501  0.00000000000E+00  0.00000000000E+00 -0.18456737143E+04  0.18456737143E+04  0.25500000920E-02 0.  1.
    10030    2    1    2    0    0  0.00000000000E+00  0.00000000000E+00  0.59119952744E+02  0.37504673813E+04  0.37500013880E+04 0.  0.
        3    1    3    3  502    0 -0.42442415384E+03 -0.10036117572E+04 -0.14964917420E+04  0.18511779941E+04  0.10100000352E+00 0.  1.
       -3    1    3    3    0  502  0.42442415384E+03  0.10036117572E+04  0.15556116948E+04  0.18992893873E+04  0.10100000352E+00 0. -1.
</event>
<event>
 5   0  0.1151180E-06  0.2423291E+04  0.7818609E-02  0.8430835E-01
       -2   -1    0    0    0  501  0.00000000000E+00  0.00000000000E+00  0.66612132504E+03  0.66612132504E+03  0.25500000920E-02 0.  1.
        2   -1    0    0  501    0  0.00000000000E+00  0.00000000000E+00 -0.22039302170E+04  0.22039302170E+04  0.25500000920E-02 0. -1.
    10030    2    1    2    0    0  0.00000000000E+00  0.00000000000E+00 -0.15378088920E+04  0.28700515421E+04  0.24232910815E+04 0.  0.
        5    1    3    3  502    0 -0.20357581187E+03  0.11201289997E+04 -0.27781468702E+03  0.11718938422E+04  0.46999998093E+01 0.  1.
       -5    1    3    3    0  502  0.20357581187E+03 -0.11201289997E+04 -0.12599942050E+04  0.16981576999E+04  0.46999998093E+01 0. -1.
</event>
<event>
 5   0  0.6287345E-07  0.3238541E+04  0.7818609E-02  0.8178712E-01
        1   -1    0    0  501    0  0.00000000000E+00  0.00000000000E+00  0.18521514008E+04  0.18521514008E+04  0.50400001928E-02 0. -1.
       -1   -1    0    0    0  501  0.00000000000E+00  0.00000000000E+00 -0.14156710005E+04  0.14156710005E+04  0.50400001928E-02 0.  1.
    10030    2    1    2    0    0  0.00000000000E+00  0.00000000000E+00  0.43648040037E+03  0.32678224013E+04  0.32385410460E+04 0.  0.
        5    1    3    3  502    0 -0.70720987428E+03  0.21963034276E+03 -0.12347906847E+04  0.14398310382E+04  0.46999998093E+01 0.  1.
       -5    1    3    3    0  502  0.70720987428E+03 -0.21963034276E+03  0.16712710850E+04  0.18279913631E+04  0.46999998093E+01 0. -1.
</event>
<event>
 5   0  0.6261598E-07  0.3691476E+04  0.7818609E-02  0.8069853E-01
       -1   -1    0    0    0  501  0.00000000000E+00  0.00000000000E+00  0.21034514488E+04  0.21034514488E+04  0.50400001928E-02 0.  1.
        1   -1    0    0  501    0  0.00000000000E+00  0.00000000000E+00 -0.16195995673E+04  0.16195995673E+04  0.50400001928E-02 0. -1.
    10030    2    1    2    0    0  0.00000000000E+00  0.00000000000E+00  0.48385188151E+03  0.37230510161E+04  0.36914761580E+04 0.  0.
        1    1    3    3  502    0  0.11516519796E+04 -0.62218203207E+03  0.15543389535E+04  0.20320881737E+04  0.50400001928E-02 0.  1.
       -1    1    3    3    0  502 -0.11516519796E+04  0.62218203207E+03 -0.10704870720E+04  0.16909628424E+04  0.50400001928E-02 0. -1.
</event>
<event>
 5   0  0.1680194E-06  0.3725666E+04  0.7818609E-02  0.8062298E-01
       -2   -1    0    0    0  501  0.00000000000E+00  0.00000000000E+00  0.17781556014E+04  0.17781556014E+04  0.25500000920E-02 0.  1.
        2   -1    0    0  501    0  0.00000000000E+00  0.00000000000E+00 -0.19515429771E+04  0.19515429771E+04  0.25500000920E-02 0. -1.
    10030    2    1    2    0    0  0.00000000000E+00  0.00000000000E+00 -0.17338737566E+03  0.37296985785E+04  0.37256661558E+04 0.  0.
        2    1    3    3  502    0 -0.71364884241E+03  0.15872506475E+04 -0.75185831506E+03  0.18957716672E+04  0.25500000920E-02 0. -1.
       -2    1    3    3    0  502  0.71364884241E+03 -0.15872506475E+04  0.57847093940E+03  0.18339269113E+04  0.25500000920E-02 0.  1.
</event>
<event>
 5   0  0.1184684E-06  0.3607999E+04  0.7818609E-02  0.8088662E-01
        2   -1    0    0  501    0  0.00000000000E+00  0.00000000000E+00  0.25237300261E+04  0.25237300261E+04  0.25500000920E-02 0.  1.
       -2   -1    0    0    0  501  0.00000000000E+00  0.00000000000E+00 -0.12895251346E+04  0.12895251346E+04  0.25500000920E-02 0. -1.
    10030    2    1    2    0    0  0.00000000000E+00  0.00000000000E+00  0.12342048915E+04  0.38132551607E+04  0.36079985042E+04 0.  0.
        4    1    3    3  502    0 -0.12743936454E+03  0.16431924935E+04  0.13923791003E+04  0.21575549899E+04  0.12699999809E+01 0. -1.
       -4    1    3    3    0  502  0.12743936454E+03 -0.16431924935E+04 -0.15817420880E+03  0.16557001708E+04  0.12699999809E+01 0.  1.
</event>
<event>
 5   0  0.5679750E-07  0.3595240E+04  0.7818609E-02  0.8091583E-01
        1   -1    0    0  501    0  0.00000000000E+00  0.00000000000E+00  0.18765730061E+04  0.18765730061E+04  0.50400001928E-02 0. -1.
       -1   -1    0    0    0  501  0.00000000000E+00  0.00000000000E+00 -0.17219892231E+04  0.17219892231E+04  0.50400001928E-02 0.  1.
    10030    2    1    2    0    0  0.00000000000E+00  0.00000000000E+00  0.15458378294E+03  0.35985622292E+04  0.35952404609E+04 0.  0.
        4    1    3    3  502    0 -0.25865569298E+03 -0.74211162828E+03  0.16955121007E+04  0.18687951554E+04  0.12699999809E+01 0. -1.
       -4    1    3    3    0  502  0.25865569298E+03  0.74211162828E+03 -0.15409283178E+04  0.17297670738E+04  0.12699999809E+01 0.  1.
</event>
<event>
 5   0  0.5679750E-07  0.2836137E+04  0.7818609E-02  0.8292136E-01
        1   -1    0    0  501    0  0.00000000000E+00  0.00000000000E+00  0.12503169819E+04  0.12503169819E+04  0.50400001928E-02 0.  1.
       -1   -1    0    0    0  501  0.00000000000E+00  0.00000000000E+00 -0.16083266821E+04  0.16083266821E+04  0.50400001928E-02 0. -1.
    10030    2    1    2    0    0  0.00000000000E+00  0.00000000000E+00 -0.35800970017E+03  0.28586436640E+04  0.28361369241E+04 0.  0.
        4    1    3    3  502    0 -0.12829694084E+04  0.28018498721E+03  0.36040785422E+03  0.13617670742E+04  0.12699999809E+01 0. -1.
       -4    1    3    3    0  502  0.12829694084E+04 -0.28018498721E+03 -0.71841755439E+03  0.14968765899E+04  0.12699999809E+01 0.  1.
</event>
<event>
 5   0  0.1685793E-06  0.3184350E+04  0.7818609E-02  0.8192963E-01
        2   -1    0    0  501    0  0.00000000000E+00  0.00000000000E+00  0.26671193940E+04  0.26671193940E+04  0.25500000920E-02 0. -1.
       -2   -1    0    0    0  501  0.00000000000E+00  0.00000000000E+00 -0.95047148003E+03  0.95047148004E+03  0.25500000920E-02 0.  1.
    10030    2    1    2    0    0  0.00000000000E+00  0.00000000000E+00  0.17166479140E+04  0.36175908741E+04  0.31843498036E+04 0.  0.
        3    1    3    3  502    0  0.93150474005E+03 -0.20599877261E+03 -0.58981389585E+03  0.11216135774E+04  0.10100000352E+00 0.  1.
       -3    1    3    3    0  502 -0.93150474005E+03  0.20599877261E+03  0.23064618099E+04  0.24959772967E+04  0.10100000352E+00 0. -1.
</event>
<event>
 5   0  0.5875011E-07  0.2167026E+04  0.7818609E-02  0.8532279E-01
       -1   -1    0    0    0  501  0.00000000000E+00  0.00000000000E+00  0.69293090868E+03  0.69293090869E+03  0.50400001928E-02 0. -1.
        1   -1    0    0  501    0  0.00000000000E+00  0.00000000000E+00 -0.16942532160E+04  0.16942532160E+04  0.50400001928E-02 0.  1.
    10030    2    1    2    0    0  0.00000000000E+00  0.00000000000E+00 -0.10013223073E+04  0.23871841247E+04  0.21670259994E+04 0.  0.
        2    1    3    3  502    0  0.29129440946E+03  0.32201408747E+03 -0.15942150081E+04  0.16522914385E+04  0.25500000920E-02 0.  1.
       -2    1    3    3    0  502 -0.29129440946E+03 -0.32201408747E+03  0.59289270084E+03  0.73489268619E+03  0.25500000920E-02 0. -1.
</event>
<event>
 5   0  0.5679750E-07  0.1870726E+04  0.7818609E-02  0.8669567E-01
        1   -1    0    0  501    0  0.00000000000E+00  0.00000000000E+00  0.12490568612E+04  0.12490568613E+04  0.50400001928E-02 0.  1.
       -1   -1    0    0    0  501  0.00000000000E+00  0.00000000000E+00 -0.70045166136E+03  0.70045166138E+03  0.50400001928E-02 0. -1.
    10030    2    1    2    0    0  0.00000000000E+00  0.00000000000E+00  0.54860519988E+03  0.19495085226E+04  0.18707260127E+04 0.  0.
        4    1    3    3  502    0 -0.14241839061E+03 -0.72070327399E+03 -0.32904964266E+03  0.80496676165E+03  0.12699999809E+01 0. -1.
       -4    1    3    3    0  502  0.14241839061E+03  0.72070327399E+03  0.87765484254E+03  0.11445417610E+04  0.12699999809E+01 0.  1.
</event>
<event>
 5   0  0.6287345E-07  0.3691549E+04  0.7818609E-02  0.8069837E-01
       -1   -1    0    0    0  501  0.00000000000E+00  0.00000000000E+00  0.30812005480E+04  0.30812005480E+04  0.50400001928E-02 0.  1.
        1   -1    0    0  501    0  0.00000000000E+00  0.00000000000E+00 -0.11056998397E+04  0.11056998397E+04  0.50400001928E-02 0. -1.
    10030    2    1    2    0    0  0.00000000000E+00  0.00000000000E+00  0.19755007083E+04  0.41869003878E+04  0.36915487005E+04 0.  0.
        5    1    3    3  502    0 -0.20838712167E+03  0.70959646600E+03  0.29058011194E+04  0.29984420242E+04  0.46999998093E+01 0.  1.
       -5    1    3    3    0  502  0.20838712167E+03 -0.70959646600E+03 -0.93030041109E+03  0.11884583636E+04  0.46999998093E+01 0. -1.
</event>
<event>
 5   0  0.5679750E-07  0.2210540E+04  0.7818609E-02  0.8514054E-01
       -1   -1    0    0    0  501  0.00000000000E+00  0.00000000000E+00  0.13231367367E+04  0.13231367367E+04  0.50400001928E-02 0. -1.
        1   -1    0    0  501    0  0.00000000000E+00  0.00000000000E+00 -0.92327689954E+03  0.92327689955E+03  0.50400001928E-02 0.  1.
    10030    2    1    2    0    0  0.00000000000E+00  0.00000000000E+00  0.39985983713E+03  0.22464136362E+04  0.22105398290E+04 0.  0.
        4    1    3    3  502    0 -0.65957826828E+03  0.39514726106E+03 -0.60695497012E+03  0.97958195092E+03  0.12699999809E+01 0.  1.
       -4    1    3    3    0  502  0.65957826828E+03 -0.39514726106E+03  0.10068148073E+04  0.12668316853E+04  0.12699999809E+01 0. -1.
</event>
<event>
 5   0  0.6261598E-07  0.3587197E+04  0.7818609E-02  0.8093431E-01
       -1   -1    0    0    0  501  0.00000000000E+00  0.00000000000E+00  0.17047964661E+04  0.17047964661E+04  0.50400001928E-02 0.  1.
        1   -1    0    0  501    0  0.00000000000E+00  0.00000000000E+00 -0.18870258962E+04  0.18870258962E+04  0.50400001928E-02 0. -1.
    10030    2    1    2    0    0  0.00000000000E+00  0.00000000000E+00 -0.18222943008E+03  0.35918223623E+04  0.35871967213E+04 0.  0.
        1    1    3    3  502    0  0.56090990197E+03  0.10521024815E+04  0.12505592191E+04  0.17278419807E+04  0.50400001928E-02 0.  1.
       -1    1    3    3    0  502 -0.56090990197E+03 -0.10521024815E+04 -0.14327886492E+04  0.18639803816E+04  0.50400001928E-02 0. -1.
</event>
<event>
 5   0  0.1151180E-06  0.3169748E+04  0.7818609E-02  0.8196853E-01
       -2   -1    0    0    0  501  0.00000000000E+00  0.00000000000E+00  0.17175068542E+04  0.17175068542E+04  0.25500000920E-02 0. -1.
        2   -1    0    0  501    0  0.00000000000E+00  0.00000000000E+00 -0.14624834714E+04  0.14624834714E+04  0.25500000920E-02 0.  1.
    10030    2    1    2    0    0  0.00000000000E+00  0.00000000000E+00  0.25502338276E+03  0.31799903256E+04  0.31697478678E+04 0.  0.
        5    1    3    3  502    0 -0.79625360390E+03 -0.12881134192E+04  0.59651274340E+03  0.16276073007E+04  0.46999998093E+01 0. -1.
       -5    1    3    3    0  502  0.79625360390E+03  0.12881134192E+04 -0.34148936064E+03  0.15523830249E+04  0.46999998093E+01 0.  1.
</event>
<event>
 5   0  0.6287345E-07  0.2581280E+04  0.7818609E-02  0.8374588E-01
        1   -1    0    0  501    0  0.00000000000E+00  0.00000000000E+00  0.80475085075E+03  0.80475085076E+03  0.50400001928E-02 0.  1.
       -1   -1    0    0    0  501  0.00000000000E+00  0.00000000000E+00 -0.20698967365E+04  0.20698967365E+04  0.50400001928E-02 0. -1.
    10030    2    1    2    0    0  0.00000000000E+00  0.00000000000E+00 -0.12651458857E+04  0.28746475872E+04  0.25812796514E+04 0.  0.
        5    1    3    3  502    0 -0.53697172236E+03 -0.93039162204E+03  0.16410632323E+03  0.10867015121E+04  0.46999998093E+01 0.  1.
       -5    1    3    3    0  502  0.53697172236E+03  0.93039162204E+03 -0.14292522089E+04  0.17879460752E+04  0.46999998093E+01 0. -1.
</event>
<event>
 5   0  0.5875011E-07  0.2236287E+04  0.7818609E-02  0.8503475E-01
        1   -1    0    0  501    0  0.00000000000E+00  0.00000000000E+00  0.18183962877E+04  0.18183962877E+04  0.50400001928E-02 0.  1.
       -1   -1    0    0    0  501  0.00000000000E+00  0.00000000000E+00 -0.68755330466E+03  0.68755330468E+03  0.50400001928E-02 0. -1.
    10030    2    1    2    0    0  0.00000000000E+00  0.00000000000E+00  0.11308429830E+04  0.25059495924E+04  0.22362865441E+04 0.  0.
        2    1    3    3  502    0  0.29452141862E+03  0.73441340331E+03  0.14507110746E+04  0.16524734597E+04  0.25500000920E-02 0.  1.
       -2    1    3    3    0  502 -0.29452141862E+03 -0.73441340331E+03 -0.31986809161E+03  0.85347613266E+03  0.25500000920E-02 0. -1.
</event>
<event>
 5   0  0.5679750E-07  0.2008675E+04  0.7818609E-02  0.8602575E-01
       -1   -1    0    0    0  501  0.00000000000E+00  0.00000000000E+00  0.71270240252E+03  0.71270240254E+03  0.50400001928E-02 0.  1.
        1   -1    0    0  501    0  0.00000000000E+00  0.00000000000E+00 -0.14153087897E+04  0.14153087897E+04  0.50400001928E-02 0. -1.
    10030    2    1    2    0    0  0.00000000000E+00  0.00000000000E+00 -0.70260638721E+03  0.21280111923E+04  0.20086751602E+04 0.  0.
        4    1    3    3  502    0 -0.49614671054E+03  0.77331288448E+03 -0.78100867259E+03  0.12058816423E+04  0.12699999809E+01 0. -1.
       -4    1    3    3    0  502  0.49614671054E+03 -0.77331288448E+03  0.78402285377E+02  0.92212954998E+03  0.12699999809E+01 0.  1.
</event>
<event>
 5   0  0.5679750E-07  0.3666684E+04  0.7818609E-02  0.8075385E-01
        1   -1    0    0  501    0  0.00000000000E+00  0.00000000000E+00  0.16186642921E+04  0.16186642921E+04  0.50400001928E-02 0. -1.
       -1   -1    0    0    0  501  0.00000000000E+00  0.00000000000E+00 -0.20764916890E+04  0.20764916890E+04  0.50400001928E-02 0.  1.
    10030    2    1    2    0    0  0.00000000000E+00  0.00000000000E+00 -0.45782739695E+03  0.36951559811E+04  0.36666840332E+04 0.  0.
        4    1    3    3  502    0 -0.46106888304E+02 -0.73184136267E+03  0.14644385827E+04  0.16377727561E+04  0.12699999809E+01 0. -1.
       -4    1    3    3    0  502  0.46106888304E+02  0.73184136267E+03 -0.19222659796E+04  0.20573832250E+04  0.12699999809E+01 0.  1.
</event>
<event>
 5   0  0.1685793E-06  0.2236099E+04  0.7818609E-02  0.8503552E-01
       -2   -1    0    0    0  501  0.00000000000E+00  0.00000000000E+00  0.91854177056E+03  0.91854177056E+03  0.25500000920E-02 0.  1.
        2   -1    0    0  501    0  0.00000000000E+00  0.00000000000E+00 -0.13608900761E+04  0.13608900761E+04  0.25500000920E-02 0. -1.
    10030    2    1    2    0    0  0.00000000000E+00  0.00000000000E+00 -0.44234830551E+03  0.22794318466E+04  0.22360987277E+04 0.  0.
        3    1    3    3  502    0  0.52728581575E+03 -0.33107526838E+03 -0.11678216698E+04  0.13234230720E+04  0.10100000352E+00 0. -1.
       -3    1    3    3    0  502 -0.52728581575E+03  0.33107526838E+03  0.72547336425E+03  0.95600877468E+03  0.10100000352E+00 0.  1.
</event>
<event>
 5   0  0.6287345E-07  0.1860072E+04  0.7818609E-02  0.8674991E-01
       -1   -1    0    0    0  501  0.00000000000E+00  0.00000000000E+00  0.42548505061E+03  0.42548505064E+03  0.50400001928E-02 0. -1.
        1   -1    0    0  501    0  0.00000000000E+00  0.00000000000E+00 -0.20328955842E+04  0.20328955843E+04  0.50400001928E-02 0.  1.
    10030    2    1    2    0    0  0.00000000000E+00  0.00000000000E+00 -0.16074105336E+04  0.24583806349E+04  0.18600716982E+04 0.  0.
        5    1    3    3  502    0 -0.55065562736E+03  0.66560537140E+03 -0.34837029507E+03  0.93146985076E+03  0.46999998093E+01 0. -1.
       -5    1    3    3    0  502  0.55065562736E+03 -0.66560537140E+03 -0.12590402386E+04  0.15269107841E+04  0.46999998093E+01 0.  1.
</event>
<event>
 5   0  0.1184684E-06  0.3671644E+04  0.7818609E-02  0.8074275E-01
       -2   -1    0    0    0  501  0.00000000000E+00  0.00000000000E+00  0.19857071145E+04  0.19857071145E+04  0.25500000920E-02 0.  1.
        2   -1    0    0  501    0  0.00000000000E+00  0.00000000000E+00 -0.16972509637E+04  0.16972509637E+04  0.25500000920E-02 0. -1.
    10030    2    1    2    0    0  0.00000000000E+00  0.00000000000E+00  0.28845615080E+03  0.36829580781E+04  0.36716444891E+04 0.  0.
        4    1    3    3  502    0 -0.77493277230E+03 -0.44466419572E+03  0.17529137060E+04  0.19674743002E+04  0.12699999809E+01 0.  1.
       -4    1    3    3    0  502  0.77493277230E+03  0.44466419572E+03 -0.14644575552E+04  0.17154837779E+04  0.12699999809E+01 0. -1.
</event>
<event>
 5   0  0.6186440E-07  0.2455441E+04  0.7818609E-02  0.8419034E-01
       -1   -1    0    0    0  501  0.00000000000E+00  0.00000000000E+00  0.90130570011E+03  0.90130570012E+03  0.50400001928E-02 0.  1.
        1   -1    0    0  501    0  0.00000000000E+00  0.00000000000E+00 -0.16723485879E+04  0.16723485879E+04  0.50400001928E-02 0. -1.
    10030    2    1    2    0    0  0.00000000000E+00  0.00000000000E+00 -0.77104288780E+03  0.25736542880E+04  0.24554407465E+04 0.  0.
        3    1    3    3  502    0 -0.20781216675E+03  0.54953416655E+03 -0.15154394053E+04  0.16253400562E+04  0.10100000352E+00 0. -1.
       -3    1    3    3    0  502  0.20781216675E+03 -0.54953416655E+03  0.74439651752E+03  0.94831423186E+03  0.10100000352E+00 0.  1.
</event>
<event>
 5   0  0.1184684E-06  0.3685159E+04  0.7818609E-02  0.8071259E-01
        2   -1    0    0  501    0  0.00000000000E+00  0.00000000000E+00  0.24318951788E+04  0.24318951788E+04  0.25500000920E-02 0. -1.
       -2   -1    0    0    0  501  0.00000000000E+00  0.00000000000E+00 -0.13960715208E+04  0.13960715208E+04  0.25500000920E-02 0.  1.
    10030    2    1    2    0    0  0.00000000000E+00  0.00000000000E+00  0.10358236580E+04  0.38279666996E+04  0.36851592100E+04 0.  0.
        4    1    3    3  502    0  0.91686369068E+03  0.59425605212E+03  0.20590918045E+04  0.23310169358E+04  0.12699999809E+01 0. -1.
       -4    1    3    3    0  502 -0.91686369068E+03 -0.59425605212E+03 -0.10232681465E+04  0.14969497638E+04  0.12699999809E+01 0.  1.
</event>
<event>
 5   0  0.6261598E-07  0.3637083E+04  0.7818609E-02  0.8082050E-01
        1   -1    0    0  501    0  0.00000000000E+00  0.00000000000E+00  0.31796392277E+04  0.31796392277E+04  0.50400001928E-02 0. -1.
       -1   -1    0    0    0  501  0.00000000000E+00  0.00000000000E+00 -0.10400844879E+04  0.10400844879E+04  0.50400001928E-02 0.  1.
    10030    2    1    2    0    0  0.00000000000E+00  0.00000000000E+00  0.21395547398E+04  0.42197237155E+04  0.36370831377E+04 0.  0.
        1    1    3    3  502    0  0.13307101161E+04  0.95241621334E+03  0.14948103476E+03  0.16432378514E+04  0.50400001928E-02 0.  1.
       -1    1    3    3    0  502 -0.13307101161E+04 -0.95241621334E+03  0.19900737050E+04  0.25764858641E+04  0.50400001928E-02 0. -1.
</event>
<event>
 5   0  0.1680194E-06  0.3628513E+04  0.7818609E-02  0.8083992E-01
        2   -1    0    0  501    0  0.00000000000E+00  0.00000000000E+00  0.15738250158E+04  0.15738250158E+04  0.25500000920E-02 0.  1.
       -2   -1    0    0    0  501  0.00000000000E+00  0.00000000000E+00 -0.20914179241E+04  0.20914179241E+04  0.25500000920E-02 0. -1.
    10030    2    1    2    0    0  0.00000000000E+00  0.00000000000E+00 -0.51759290833E+03  0.36652429398E+04  0.36285125588E+04 0.  0.
        2    1    3    3  502    0 -0.74726278741E+03 -0.14454001518E+04 -0.10693798536E+04  0.19470892490E+04  0.25500000920E-02 0. -1.
       -2    1    3    3    0  502  0.74726278741E+03  0.14454001518E+04  0.55178694523E+03  0.17181536908E+04  0.25500000920E-02 0.  1.
</event>
<event>
 5   0  0.1184684E-06  0.3731602E+04  0.7818609E-02  0.8060994E-01
        2   -1    0    0  501    0  0.00000000000E+00  0.00000000000E+00  0.22579224344E+04  0.22579224344E+04  0.25500000920E-02 0.  1.
       -2   -1    0    0    0  501  0.00000000000E+00  0.00000000000E+00 -0.15417768926E+04  0.15417768926E+04  0.25500000920E-02 0. -1.
    10030    2    1    2    0    0  0.00000000000E+00  0.00000000000E+00  0.71614554184E+03  0.37996993271E+04  0.37316016051E+04 0.  0.
        4    1    3    3  502    0 -0.56808893858E+03  0.49665554593E+01  0.21677109139E+04  0.22409198843E+04  0.12699999809E+01 0.  1.
       -4    1    3    3    0  502  0.56808893858E+03 -0.49665554593E+01 -0.14515653721E+04  0.15587794427E+04  0.12699999809E+01 0. -1.
</event>
<event>
 5   0  0.6287345E-07  0.2336955E+04  0.7818609E-02  0.8463491E-01
        1   -1    0    0  501    0  0.00000000000E+00  0.00000000000E+00  0.86623881351E+03  0.86623881352E+03  0.50400001928E-02 0.  1.
       -1   -1    0    0    0  501  0.00000000000E+00  0.00000000000E+00 -0.15761696453E+04  0.15761696453E+04  0.50400001928E-02 0. -1.
    10030    2    1    2    0    0  0.00000000000E+00  0.00000000000E+00 -0.70993083183E+03  0.24424084589E+04  0.23369547052E+04 0.  0.
        5    1    3    3  502    0 -0.42479902756E+03  0.81353131712E+03  0.40087693754E+03  0.10015047812E+04  0.46999998093E+01 0.  1.
       -5    1    3    3    0  502  0.42479902756E+03 -0.81353131712E+03 -0.11108077694E+04  0.14409036776E+04  0.46999998093E+01 0. -1.
</event>
<event>
 5   0  0.5875011E-07  0.2286335E+04  0.7818609E-02  0.8483329E-01
       -1   -1    0    0    0  501  0.00000000000E+00  0.00000000000E+00  0.68581360814E+03  0.68581360816E+03  0.50400001928E-02 0. -1.
        1   -1    0    0  501    0  0.00000000000E+00  0.00000000000E+00 -0.19055205072E+04  0.19055205072E+04  0.50400001928E-02 0.  1.
    10030    2    1    2    0    0  0.00000000000E+00  0.00000000000E+00 -0.12197068991E+04  0.25913341154E+04  0.22863349662E+04 0.  0.
        2    1    3    3  502    0  0.82500366619E+03 -0.75850951915E+03 -0.86547029414E+03  0.14159825458E+04  0.25500000920E-02 0.  1.
       -2    1    3    3    0  502 -0.82500366619E+03  0.75850951915E+03 -0.35423660491E+03  0.11753515696E+04  0.25500000920E-02 0. -1.
</event>
<event>
 5   0  0.1184684E-06  0.3731705E+04  0.7818609E-02  0.8060972E-01
       -2   -1    0    0    0  501  0.00000000000E+00  0.00000000000E+00  0.28970294059E+04  0.28970294059E+04  0.25500000920E-02 0.  1.
        2   -1    0    0  501    0  0.00000000000E+00  0.00000000000E+00 -0.12017156068E+04  0.12017156068E+04  0.25500000920E-02 0. -1.
    10030    2    1    2    0    0  0.00000000000E+00  0.00000000000E+00  0.16953137992E+04  0.40987450127E+04  0.37317049457E+04 0.  0.
        4    1    3    3  502    0 -0.34937406387E+03 -0.11666664291E+04  0.24002814678E+04  0.26915656282E+04  0.12699999809E+01 0.  1.
       -4    1    3    3    0  502  0.34937406387E+03  0.11666664291E+04 -0.70496766865E+03  0.14071793845E+04  0.12699999809E+01 0. -1.
</event>
<event>
 5   0  0.1151180E-06  0.3640869E+04  0.7818609E-02  0.8081194E-01
        2   -1    0    0  501    0  0.00000000000E+00  0.00000000000E+00  0.27016147092E+04  0.27016147092E+04  0.25500000920E-02 0.  1.
       -2   -1    0    0    0  501  0.00000000000E+00  0.00000000000E+00 -0.12266671634E+04  0.12266671634E+04  0.25500000920E-02 0. -1.
    10030    2    1    2    0    0  0.00000000000E+00  0.00000000000E+00  0.14749475458E+04  0.39282818726E+04  0.36408691555E+04 0.  0.
        5    1    3    3  502    0 -0.16141261136E+04 -0.82980445095E+03  0.58495939270E+03  0.19068765347E+04  0.46999998093E+01 0.  1.
       -5    1    3    3    0  502  0.16141261136E+04  0.82980445095E+03  0.88998815308E+03  0.20214053379E+04  0.46999998093E+01 0. -1.
</event>
<event>
 5   0  0.1184684E-06  0.3665879E+04  0.7818609E-02  0.8075566E-01
        2   -1    0    0  501    0  0.00000000000E+00  0.00000000000E+00  0.22747980253E+04  0.22747980253E+04  0.25500000920E-02 0. -1.
       -2   -1    0    0    0  501  0.00000000000E+00  0.00000000000E+00 -0.14769075858E+04  0.14769075858E+04  0.25500000920E-02 0.  1.
    10030    2    1    2    0    0  0.00000000000E+00  0.00000000000E+00  0.79789043950E+03  0.37517056111E+04  0.36658785903E+04 0.  0.
        4    1    3    3  502    0 -0.14649228108E+04 -0.71703857109E+03  0.12549008811E+04  0.20578923656E+04  0.12699999809E+01 0. -1.
       -4    1    3    3    0  502  0.14649228108E+04  0.71703857109E+03 -0.45701044158E+03  0.16938132455E+04  0.12699999809E+01 0.  1.
</event>
<event>
 5   0  0.1685793E-06  0.3105686E+04  0.7818609E-02  0.8214179E-01
        2   -1    0    0  501    0  0.00000000000E+00  0.00000000000E+00  0.25563933902E+04  0.25563933902E+04  0.25500000920E-02 0. -1.
       -2   -1    0    0    0  501  0.00000000000E+00  0.00000000000E+00 -0.94325150303E+03  0.94325150303E+03  0.25500000920E-02 0.  1.
    10030    2    1    2    0    0  0.00000000000E+00  0.00000000000E+00  0.16131418872E+04  0.34996448933E+04  0.31056863381E+04 0.  0.
        3    1    3    3  502    0  0.10890422232E+04 -0.18692752926E+03 -0.42286762337E+03  0.11831195637E+04  0.10100000352E+00 0.  1.
       -3    1    3    3    0  502 -0.10890422232E+04  0.18692752926E+03  0.20360095106E+04  0.23165253295E+04  0.10100000352E+00 0. -1.
</event>
<event>
 5   0  0.1151180E-06  0.3722417E+04  0.7818609E-02  0.8063012E-01
       -2   -1    0    0    0  501  0.00000000000E+00  0.00000000000E+00  0.17142401855E+04  0.17142401856E+04  0.25500000920E-02 0. -1.
        2   -1    0    0  501    0  0.00000000000E+00  0.00000000000E+00 -0.20207770383E+04  0.20207770383E+04  0.25500000920E-02 0.  1.
    10030    2    1    2    0    0  0.00000000000E+00  0.00000000000E+00 -0.30653685277E+03  0.37350172239E+04  0.37224170670E+04 0.  0.
        5    1    3    3  502    0  0.82126183713E+03  0.15340981339E+04  0.50938131933E+03  0.18131242396E+04  0.46999998093E+01 0. -1.
       -5    1    3    3    0  502 -0.82126183713E+03 -0.15340981339E+04 -0.81591817210E+03  0.19218929843E+04  0.46999998093E+01 0.  1.
</event>
<event>
 5   0  0.5875011E-07  0.3730911E+04  0.7818609E-02  0.8061146E-01
        1   -1    0    0  501    0  0.00000000000E+00  0.00000000000E+00  0.19774448932E+04  0.19774448933E+04  0.50400001928E-02 0.  1.
       -1   -1    0    0    0  501  0.00000000000E+00  0.00000000000E+00 -0.17598082396E+04  0.17598082396E+04  0.50400001928E-02 0. -1.
    10030    2    1    2    0    0  0.00000000000E+00  0.00000000000E+00  0.21763665369E+03  0.37372531328E+04  0.37309107823E+04 0.  0.
        2    1    3    3  502    0  0.72995191057E+03 -0.33600368251E+03 -0.15775504657E+04  0.17704219097E+04  0.25500000920E-02 0. -1.
       -2    1    3    3    0  502 -0.72995191057E+03  0.33600368251E+03  0.17951871194E+04  0.19668312231E+04  0.25500000920E-02 0.  1.
</event>
<event>
 5   0  0.6261598E-07  0.3852204E+04  0.7818609E-02  0.8035044E-01
       -1   -1    0    0    0  501  0.00000000000E+00  0.00000000000E+00  0.25016842069E+04  0.25016842069E+04  0.50400001928E-02 0.  1.
        1   -1    0    0  501    0  0.00000000000E+00  0.00000000000E+00 -0.14829486591E+04  0.14829486592E+04  0.50400001928E-02 0. -1.
    10030    2    1    2    0    0  0.00000000000E+00  0.00000000000E+00  0.10187355478E+04  0.39846328661E+04  0.38522041692E+04 0.  0.
        1    1    3    3  502    0  0.71044212880E+03 -0.11761288085E+04  0.19055328945E+04  0.23492685254E+04  0.50400001928E-02 0.  1.
       -1    1    3    3    0  502 -0.71044212880E+03  0.11761288085E+04 -0.88679734673E+03  0.16353643406E+04  0.50400001928E-02 0. -1.
</event>
<event>
 5   0  0.6261598E-07  0.3591434E+04  0.7818609E-02  0.8092457E-01
       -1   -1    0    0    0  501  0.00000000000E+00  0.00000000000E+00  0.10479423149E+04  0.10479423149E+04  0.50400001928E-02 0. -1.
        1   -1    0    0  501    0  0.00000000000E+00  0.00000000000E+00 -0.30770769407E+04  0.30770769407E+04  0.50400001928E-02 0.  1.
    10030    2    1    2    0    0  0.00000000000E+00  0.00000000000E+00 -0.20291346257E+04  0.41250192556E+04  0.35914337708E+04 0.  0.
        1    1    3    3  502    0 -0.17566503843E+02 -0.15789776323E+04 -0.32474561088E+02  0.15794092385E+04  0.50400001928E-02 0. -1.
       -1    1    3    3    0  502  0.17566503843E+02  0.15789776323E+04 -0.19966600646E+04  0.25456100171E+04  0.50400001928E-02 0.  1.
</event>
<event>
 5   0  0.1724503E-06  0.2688467E+04  0.7818609E-02  0.8338757E-01
       -2   -1    0    0    0  501  0.00000000000E+00  0.00000000000E+00  0.10649539365E+04  0.10649539365E+04  0.25500000920E-02 0. -1.
        2   -1    0    0  501    0  0.00000000000E+00  0.00000000000E+00 -0.16967526233E+04  0.16967526233E+04  0.25500000920E-02 0.  1.
    10030    2    1    2    0    0  0.00000000000E+00  0.00000000000E+00 -0.63179868672E+03  0.27617065598E+04  0.26884667642E+04 0.  0.
        1    1    3    3  502    0 -0.53100259845E+02  0.64848424316E+02 -0.16940658285E+04  0.16961379622E+04  0.50400001928E-02 0.  1.
       -1    1    3    3    0  502  0.53100259845E+02 -0.64848424316E+02  0.10622671417E+04  0.10655685976E+04  0.50400001928E-02 0. -1.
</event>
<event>
 5   0  0.1685793E-06  0.3659205E+04  0.7818609E-02  0.8077063E-01
        2   -1    0    0  501    0  0.00000000000E+00  0.00000000000E+00  0.23576654155E+04  0.23576654155E+04  0.25500000920E-02 0. -1.
       -2   -1    0    0    0  501  0.00000000000E+00  0.00000000000E+00 -0.14198132797E+04  0.14198132797E+04  0.25500000920E-02 0.  1.
    10030    2    1    2    0    0  0.00000000000E+00  0.00000000000E+00  0.93785213572E+03  0.37774786952E+04  0.36592046491E+04 0.  0.
        3    1    3    3  502    0  0.71351488672E+03  0.14643793727E+04 -0.39102645562E+03  0.16752349507E+04  0.10100000352E+00 0.  1.
       -3    1    3    3    0  502 -0.71351488672E+03 -0.14643793727E+04  0.13288785913E+04  0.21022437445E+04  0.10100000352E+00 0. -1.
</event>
<event>
 5   0  0.1680194E-06  0.2170868E+04  0.7818609E-02  0.8530652E-01
       -2   -1    0    0    0  501  0.00000000000E+00  0.00000000000E+00  0.14090307342E+04  0.14090307342E+04  0.25500000920E-02 0.  1.
        2   -1    0    0  501    0  0.00000000000E+00  0.00000000000E+00 -0.83615425660E+03  0.83615425661E+03  0.25500000920E-02 0. -1.
    10030    2    1    2    0    0  0.00000000000E+00  0.00000000000E+00  0.57287647761E+03  0.22451849908E+04  0.21708680716E+04 0.  0.
        2    1    3    3  502    0  0.26271866267E+03  0.10333605238E+04  0.49664984720E+03  0.11762296283E+04  0.25500000920E-02 0.  1.
       -2    1    3    3    0  502 -0.26271866267E+03 -0.10333605238E+04  0.76226630411E+02  0.10689553625E+04  0.25500000920E-02 0. -1.
</event>
<event>
 5   0  0.5679750E-07  0.1844366E+04  0.7818609E-02  0.8683056E-01
       -1   -1    0    0    0  501  0.00000000000E+00  0.00000000000E+00  0.20229856095E+04  0.20229856095E+04  0.50400001928E-02 0. -1.
        1   -1    0    0  501    0  0.00000000000E+00  0.00000000000E+00 -0.42037918408E+03  0.42037918411E+03  0.50400001928E-02 0.  1.
    10030    2    1    2    0    0  0.00000000000E+00  0.00000000000E+00  0.16026064254E+04  0.24433647936E+04  0.18443655169E+04 0.  0.
        4    1    3    3  502    0 -0.39295371622E+03  0.34055120757E+02 -0.30299387763E+03  0.49737237270E+03  0.12699999809E+01 0.  1.
       -4    1    3    3    0  502  0.39295371622E+03 -0.34055120757E+02  0.19056003030E+04  0.19459924209E+04  0.12699999809E+01 0. -1.
</event>
<event>
 5   0  0.5679750E-07  0.3096173E+04  0.7818609E-02  0.8216789E-01
        3   -1    0    0  501    0  0.00000000000E+00  0.00000000000E+00  0.25027941437E+04  0.25027941457E+04  0.10100000352E+00 0. -1.
       -3   -1    0    0    0  501  0.00000000000E+00  0.00000000000E+00 -0.95755829997E+03  0.95755830529E+03  0.10100000352E+00 0.  1.
    10030    2    1    2    0    0  0.00000000000E+00  0.00000000000E+00  0.15452358437E+04  0.34603524510E+04  0.30961726813E+04 0.  0.
        4    1    3    3  502    0  0.13007286816E+04 -0.21691908363E+03 -0.13370487339E+03  0.13254537329E+04  0.12699999809E+01 0.  1.
       -4    1    3    3    0  502 -0.13007286816E+04  0.21691908363E+03  0.16789407171E+04  0.21348987181E+04  0.12699999809E+01 0. -1.
</event>
<event>
 5   0  0.1680194E-06  0.1900771E+04  0.7818609E-02  0.8654473E-01
       -2   -1    0    0    0  501  0.00000000000E+00  0.00000000000E+00  0.87301909691E+03  0.87301909692E+03  0.25500000920E-02 0. -1.
        2   -1    0    0  501    0  0.00000000000E+00  0.00000000000E+00 -0.10346077336E+04  0.10346077336E+04  0.25500000920E-02 0.  1.
    10030    2    1    2    0    0  0.00000000000E+00  0.00000000000E+00 -0.16158863668E+03  0.19076268305E+04  0.19007706955E+04 0.  0.
        2    1    3    3  502    0 -0.78901115737E+03  0.12484726622E+03 -0.59753681553E+03  0.99758492985E+03  0.25500000920E-02 0.  1.
       -2    1    3    3    0  502  0.78901115737E+03 -0.12484726622E+03  0.43594817885E+03  0.91004190067E+03  0.25500000920E-02 0. -1.
</event>
<event>
 5   0  0.5679750E-07  0.2538241E+04  0.7818609E-02  0.8389487E-01
       -1   -1    0    0    0  501  0.00000000000E+00  0.00000000000E+00  0.11612469627E+04  0.11612469627E+04  0.50400001928E-02 0. -1.
        1   -1    0    0  501    0  0.00000000000E+00  0.00000000000E+00 -0.13870149352E+04  0.13870149352E+04  0.50400001928E-02 0.  1.
    10030    2    1    2    0    0  0.00000000000E+00  0.00000000000E+00 -0.22576797252E+03  0.25482618980E+04  0.25382410294E+04 0.  0.
        4    1    3    3  502    0 -0.78441253458E+03 -0.56253847695E+03 -0.94009854412E+03  0.13474195516E+04  0.12699999809E+01 0.  1.
       -4    1    3    3    0  502  0.78441253458E+03  0.56253847695E+03  0.71433057159E+03  0.12008423464E+04  0.12699999809E+01 0. -1.
</event>
<event>
 5   0  0.6186440E-07  0.2519150E+04  0.7818609E-02  0.8396195E-01
        1   -1    0    0  501    0  0.00000000000E+00  0.00000000000E+00  0.25908584546E+04  0.25908584546E+04  0.50400001928E-02 0.  1.
       -1   -1    0    0    0  501  0.00000000000E+00  0.00000000000E+00 -0.61235633307E+03  0.61235633309E+03  0.50400001928E-02 0. -1.
    10030    2    1    2    0    0  0.00000000000E+00  0.00000000000E+00  0.19785021215E+04  0.32032147877E+04  0.25191495254E+04 0.  0.
        3    1    3    3  502    0  0.10808738460E+04 -0.13138597535E+03  0.18407213022E+03  0.11042794505E+04  0.10100000352E+00 0. -1.
       -3    1    3    3    0  502 -0.10808738460E+04  0.13138597535E+03  0.17944299913E+04  0.20989353371E+04  0.10100000352E+00 0.  1.
</event>
<event>
 5   0  0.1184684E-06  0.3687141E+04  0.7818609E-02  0.8070817E-01
       -2   -1    0    0    0  501  0.00000000000E+00  0.00000000000E+00  0.16807964997E+04  0.16807964997E+04  0.25500000920E-02 0.  1.
        2   -1    0    0  501    0  0.00000000000E+00  0.00000000000E+00 -0.20221085460E+04  0.20221085460E+04  0.25500000920E-02 0. -1.
    10030    2    1    2    0    0  0.00000000000E+00  0.00000000000E+00 -0.34131204628E+03  0.37029050458E+04  0.36871414219E+04 0.  0.
        4    1    3    3  502    0  0.14296613868E+03  0.78771219634E+03  0.14971128311E+04  0.16977273818E+04  0.12699999809E+01 0.  1.
       -4    1    3    3    0  502 -0.14296613868E+03 -0.78771219634E+03 -0.18384248774E+04  0.20051776639E+04  0.12699999809E+01 0. -1.
</event>
<event>
 5   0  0.5679750E-07  0.3696714E+04  0.7818609E-02  0.8068691E-01
       -1   -1    0    0    0  501  0.00000000000E+00  0.00000000000E+00  0.13706305408E+04  0.13706305408E+04  0.50400001928E-02 0. -1.
        1   -1    0    0  501    0  0.00000000000E+00  0.00000000000E+00 -0.24925921795E+04  0.24925921795E+04  0.50400001928E-02 0.  1.
    10030    2    1    2    0    0  0.00000000000E+00  0.00000000000E+00 -0.11219616387E+04  0.38632227204E+04  0.36967136579E+04 0.  0.
        4    1    3    3  502    0 -0.16395100915E+04 -0.74182553942E+03 -0.11992476046E+03  0.18035193462E+04  0.12699999809E+01 0. -1.
       -4    1    3    3    0  502  0.16395100915E+04  0.74182553942E+03 -0.10020368783E+04  0.20597033741E+04  0.12699999809E+01 0.  1.
</event>
<event>
 5   0  0.5679750E-07  0.3655752E+04  0.7818609E-02  0.8077839E-01
       -3   -1    0    0    0  501  0.00000000000E+00  0.00000000000E+00  0.16324278894E+04  0.16324278925E+04  0.10100000352E+00 0.  1.
        3   -1    0    0  501    0  0.00000000000E+00  0.00000000000E+00 -0.20467244106E+04  0.20467244131E+04  0.10100000352E+00 0. -1.
    10030    2    1    2    0    0  0.00000000000E+00  0.00000000000E+00 -0.41429652124E+03  0.36791523056E+04  0.36557516437E+04 0.  0.
        4    1    3    3  502    0  0.12944086580E+04  0.12074419234E+04  0.25153069250E+03  0.17879259142E+04  0.12699999809E+01 0.  1.
       -4    1    3    3    0  502 -0.12944086580E+04 -0.12074419234E+04 -0.66582721375E+03  0.18912263915E+04  0.12699999809E+01 0. -1.
</event>
<event>
 5   0  0.6287345E-07  0.1937137E+04  0.7818609E-02  0.8636589E-01
       -1   -1    0    0    0  501  0.00000000000E+00  0.00000000000E+00  0.17964346424E+04  0.17964346424E+04  0.50400001928E-02 0.  1.
        1   -1    0    0  501    0  0.00000000000E+00  0.00000000000E+00 -0.52221489337E+03  0.52221489339E+03  0.50400001928E-02 0. -1.
    10030    2    1    2    0    0  0.00000000000E+00  0.00000000000E+00  0.12742197490E+04  0.23186495358E+04  0.19371369856E+04 0.  0.
        5    1    3    3  502    0 -0.64997177836E+02 -0.52612945368E+03  0.16073500959E+04  0.16925227490E+04  0.46999998093E+01 0.  1.
       -5    1    3    3    0  502  0.64997177836E+02  0.52612945368E+03 -0.33313034685E+03  0.62612678680E+03  0.46999998093E+01 0. -1.
</event>
<event>
 5   0  0.5679750E-07  0.2496589E+04  0.7818609E-02  0.8404202E-01
       -1   -1    0    0    0  501  0.00000000000E+00  0.00000000000E+00  0.11206996624E+04  0.11206996624E+04  0.50400001928E-02 0.  1.
        1   -1    0    0  501    0  0.00000000000E+00  0.00000000000E+00 -0.13904166733E+04  0.13904166733E+04  0.50400001928E-02 0. -1.
    10030    2    1    2    0    0  0.00000000000E+00  0.00000000000E+00 -0.26971701096E+03  0.25111163357E+04  0.24965892705E+04 0.  0.
        4    1    3    3  502    0 -0.26640367643E+03 -0.76417399475E+03  0.82109541269E+03  0.11528799169E+04  0.12699999809E+01 0.  1.
       -4    1    3    3    0  502  0.26640367643E+03  0.76417399475E+03 -0.10908124236E+04  0.13582364189E+04  0.12699999809E+01 0. -1.
</event>
<event>
 5   0  0.1151180E-06  0.2137526E+04  0.7818609E-02  0.8544891E-01
        2   -1    0    0  501    0  0.00000000000E+00  0.00000000000E+00  0.12049692927E+04  0.12049692927E+04  0.25500000920E-02 0.  1.
       -2   -1    0    0    0  501  0.00000000000E+00  0.00000000000E+00 -0.94795283257E+03  0.94795283257E+03  0.25500000920E-02 0. -1.
    10030    2    1    2    0    0  0.00000000000E+00  0.00000000000E+00  0.25701646016E+03  0.21529221253E+04  0.21375257231E+04 0.  0.
        5    1    3    3  502    0  0.85914105567E+03  0.17733523991E+02 -0.51151682161E+03  0.10000546886E+04  0.46999998093E+01 0. -1.
       -5    1    3    3    0  502 -0.85914105567E+03 -0.17733523991E+02  0.76853328177E+03  0.11528674367E+04  0.46999998093E+01 0.  1.
</event>
<event>
 5   0  0.5875011E-07  0.3674750E+04  0.7818609E-02  0.8073581E-01
       -1   -1    0    0    0  501  0.00000000000E+00  0.00000000000E+00  0.16881469920E+04  0.16881469920E+04  0.50400001928E-02 0.  1.
        1   -1    0    0  501    0  0.00000000000E+00  0.00000000000E+00 -0.19997949219E+04  0.19997949219E+04  0.50400001928E-02 0. -1.
    10030    2    1    2    0    0  0.00000000000E+00  0.00000000000E+00 -0.31164792992E+03  0.36879419138E+04  0.36747504851E+04 0.  0.
        2    1    3    3  502    0 -0.10717406919E+04 -0.22227035557E+03 -0.16368978869E+04  0.19691284655E+04  0.25500000920E-02 0. -1.
       -2    1    3    3    0  502  0.10717406919E+04  0.22227035557E+03  0.13252499570E+04  0.17188134483E+04  0.25500000920E-02 0.  1.
</event>
<event>
 5   0  0.6287345E-07  0.3519746E+04  0.7818609E-02  0.8109126E-01
       -1   -1    0    0    0  501  0.00000000000E+00  0.00000000000E+00  0.14886777710E+04  0.14886777710E+04  0.50400001928E-02 0.  1.
        1   -1    0    0  501    0  0.00000000000E+00  0.00000000000E+00 -0.20804720226E+04  0.20804720226E+04  0.50400001928E-02 0. -1.
    10030    2    1    2    0    0  0.00000000000E+00  0.00000000000E+00 -0.59179425162E+03  0.35691497936E+04  0.35197457028E+04 0.  0.
        5    1    3    3  502    0 -0.68425995457E+03  0.11692976281E+02  0.13482124926E+04  0.15119680639E+04  0.46999998093E+01 0.  1.
       -5    1    3    3    0  502  0.68425995457E+03 -0.11692976281E+02 -0.19400067442E+04  0.20571817296E+04  0.46999998093E+01 0. -1.
</event>
<event>
 5   0  0.6287345E-07  0.3858681E+04  0.7818609E-02  0.8033678E-01
        1   -1    0    0  501    0  0.00000000000E+00  0.00000000000E+00  0.25530334549E+04  0.25530334549E+04  0.50400001928E-02 0. -1.
       -1   -1    0    0    0  501  0.00000000000E+00  0.00000000000E+00 -0.14580127590E+04  0.14580127590E+04  0.50400001928E-02 0.  1.
    10030    2    1    2    0    0  0.00000000000E+00  0.00000000000E+00  0.10950206960E+04  0.40110462139E+04  0.38586813039E+04 0.  0.
        5    1    3    3  502    0 -0.60204609076E+03 -0.67554649961E+03 -0.12237421260E+04  0.15219689384E+04  0.46999998093E+01 0.  1.
       -5    1    3    3    0  502  0.60204609076E+03  0.67554649961E+03  0.23187628220E+04  0.24890772754E+04  0.46999998093E+01 0. -1.
</event>
<event>
 5   0  0.6186440E-07  0.2659881E+04  0.7818609E-02  0.8348141E-01
        1   -1    0    0  501    0  0.00000000000E+00  0.00000000000E+00  0.11407075625E+04  0.11407075625E+04  0.50400001928E-02 0.  1.
       -1   -1    0    0    0  501  0.00000000000E+00  0.00000000000E+00 -0.15505658457E+04  0.15505658457E+04  0.50400001928E-02 0. -1.
    10030    2    1    2    0    0  0.00000000000E+00  0.00000000000E+00 -0.40985828322E+03  0.26912734081E+04  0.26598813404E+04 0.  0.
        3    1    3    3  502    0 -0.64956772729E+03  0.21078810780E+03  0.94975482559E+03  0.11697880567E+04  0.10100000352E+00 0.  1.
       -3    1    3    3    0  502  0.64956772729E+03 -0.21078810780E+03 -0.13596131088E+04  0.15214853514E+04  0.10100000352E+00 0. -1.
</event>
<event>
 5   0  0.2318289E-06  0.1940538E+04  0.7818609E-02  0.8634937E-01
       -2   -1    0    0    0  501  0.00000000000E+00  0.00000000000E+00  0.77390901479E+03  0.77390901479E+03  0.25500000920E-02 0.  1.
        2   -1    0    0  501    0  0.00000000000E+00  0.00000000000E+00 -0.12164498894E+04  0.12164498894E+04  0.25500000920E-02 0. -1.
    10030    2    1    2    0    0  0.00000000000E+00  0.00000000000E+00 -0.44254087465E+03  0.19903589042E+04  0.19405375910E+04 0.  0.
        1    1    3    3  502    0 -0.88826396138E+03  0.15922591931E+03 -0.58687073797E+03  0.10764678451E+04  0.50400001928E-02 0. -1.
       -1    1    3    3    0  502  0.88826396138E+03 -0.15922591931E+03  0.14432986331E+03  0.91389105912E+03  0.50400001928E-02 0.  1.
</event>
<event>
 5   0  0.1151180E-06  0.3680405E+04  0.7818609E-02  0.8072318E-01
       -2   -1    0    0    0  501  0.00000000000E+00  0.00000000000E+00  0.15525003612E+04  0.15525003612E+04  0.25500000920E-02 0.  1.
        2   -1    0    0  501    0  0.00000000000E+00  0.00000000000E+00 -0.21812199324E+04  0.21812199324E+04  0.25500000920E-02 0. -1.
    10030    2    1    2    0    0  0.00000000000E+00  0.00000000000E+00 -0.62871957121E+03  0.37337202937E+04  0.36804047240E+04 0.  0.
        5    1    3    3  502    0  0.10913771377E+04 -0.11207925537E+04  0.66872020552E+03  0.17013197255E+04  0.46999998093E+01 0.  1.
       -5    1    3    3    0  502 -0.10913771377E+04  0.11207925537E+04 -0.12974397767E+04  0.20324005681E+04  0.46999998093E+01 0. -1.
</event>
<event>
 5   0  0.1724503E-06  0.1878297E+04  0.7818609E-02  0.8665735E-01
       -2   -1    0    0    0  501  0.00000000000E+00  0.00000000000E+00  0.69048697754E+03  0.69048697754E+03  0.25500000920E-02 0. -1.
        2   -1    0    0  501    0  0.00000000000E+00  0.00000000000E+00 -0.12773596791E+04  0.12773596791E+04  0.25500000920E-02 0.  1.
    10030    2    1    2    0    0  0.00000000000E+00  0.00000000000E+00 -0.58687270152E+03  0.19678466566E+04  0.18782973396E+04 0.  0.
        1    1    3    3  502    0  0.22633471052E+03 -0.62092987533E+02 -0.12461402540E+04  0.12680490815E+04  0.50400001928E-02 0.  1.
       -1    1    3    3    0  502 -0.22633471052E+03  0.62092987533E+02  0.65926755253E+03  0.69979757511E+03  0.50400001928E-02 0. -1.
</event>
<event>
 5   0  0.6587244E-07  0.1941578E+04  0.7818609E-02  0.8634433E-01
        1   -1    0    0  501    0  0.00000000000E+00  0.00000000000E+00  0.10092439721E+04  0.10092439721E+04  0.50400001928E-02 0.  1.
       -1   -1    0    0    0  501  0.00000000000E+00  0.00000000000E+00 -0.93379889899E+03  0.93379889901E+03  0.50400001928E-02 0. -1.
    10030    2    1    2    0    0  0.00000000000E+00  0.00000000000E+00  0.75445073067E+02  0.19430428711E+04  0.19415776162E+04 0.  0.
        2    1    3    3  502    0 -0.70446190449E+03  0.30811393810E+03 -0.55537143879E+03  0.94849259816E+03  0.25500000920E-02 0. -1.
       -2    1    3    3    0  502  0.70446190449E+03 -0.30811393810E+03  0.63081651186E+03  0.99455027292E+03  0.25500000920E-02 0.  1.
</event>
<event>
 5   0  0.1724503E-06  0.2979842E+04  0.7818609E-02  0.8249511E-01
        2   -1    0    0  501    0  0.00000000000E+00  0.00000000000E+00  0.83410697948E+03  0.83410697948E+03  0.25500000920E-02 0. -1.
       -2   -1    0    0    0  501  0.00000000000E+00  0.00000000000E+00 -0.26613660195E+04  0.26613660195E+04  0.25500000920E-02 0.  1.
    10030    2    1    2    0    0  0.00000000000E+00  0.00000000000E+00 -0.18272590400E+04  0.34954729989E+04  0.29798415876E+04 0.  0.
        1    1    3    3  502    0 -0.81733182178E+03 -0.66358910370E+03  0.32306952141E+03  0.11012518881E+04  0.50400001928E-02 0. -1.
       -1    1    3    3    0  502  0.81733182178E+03  0.66358910370E+03 -0.21503285614E+04  0.23942211108E+04  0.50400001928E-02 0.  1.
</event>
<event>
 5   0  0.6261598E-07  0.3699588E+04  0.7818609E-02  0.8068053E-01
       -1   -1    0    0    0  501  0.00000000000E+00  0.00000000000E+00  0.15033854859E+04  0.15033854860E+04  0.50400001928E-02 0. -1.
        1   -1    0    0  501    0  0.00000000000E+00  0.00000000000E+00 -0.22760216241E+04  0.22760216241E+04  0.50400001928E-02 0.  1.
    10030    2    1    2    0    0  0.00000000000E+00  0.00000000000E+00 -0.77263613813E+03  0.37794071100E+04  0.36995880178E+04 0.  0.
        1    1    3    3  502    0  0.95594862916E+03 -0.93427896822E+03 -0.16925859004E+04  0.21567480155E+04  0.50400001928E-02 0.  1.
       -1    1    3    3    0  502 -0.95594862916E+03  0.93427896822E+03  0.91994976226E+03  0.16226590946E+04  0.50400001928E-02 0. -1.
</event>
<event>
 5   0  0.1184684E-06  0.3737318E+04  0.7818609E-02  0.8059742E-01
       -2   -1    0    0    0  501  0.00000000000E+00  0.00000000000E+00  0.29231714500E+04  0.29231714500E+04  0.25500000920E-02 0.  1.
        2   -1    0    0  501    0  0.00000000000E+00  0.00000000000E+00 -0.11945541128E+04  0.11945541128E+04  0.25500000920E-02 0. -1.
    10030    2    1    2    0    0  0.00000000000E+00  0.00000000000E+00  0.17286173372E+04  0.41177255628E+04  0.37373180105E+04 0.  0.
        4    1    3    3  502    0 -0.17514672293E+04  0.58793133794E+03  0.11731709172E+04  0.21885228643E+04  0.12699999809E+01 0.  1.
       -4    1    3    3    0  502  0.17514672293E+04 -0.58793133794E+03  0.55544642000E+03  0.19292026985E+04  0.12699999809E+01 0. -1.
</event>
<event>
 5   0  0.6287345E-07  0.3893633E+04  0.7818609E-02  0.8026355E-01
        1   -1    0    0  501    0  0.00000000000E+00  0.00000000000E+00  0.24241595210E+04  0.24241595211E+04  0.50400001928E-02 0.  1.
       -1   -1    0    0    0  501  0.00000000000E+00  0.00000000000E+00 -0.15634675740E+04  0.15634675740E+04  0.50400001928E-02 0. -1.
    10030    2    1    2    0    0  0.00000000000E+00  0.00000000000E+00  0.86069194708E+03  0.39876270950E+04  0.38936331647E+04 0.  0.
        5    1    3    3  502    0 -0.80349843102E+03  0.19336039529E+02 -0.13856167464E+04  0.16018550088E+04  0.46999998093E+01 0. -1.
       -5    1    3    3    0  502  0.80349843102E+03 -0.19336039529E+02  0.22463086935E+04  0.23857720863E+04  0.46999998093E+01 0.  1.
</event>
<event>
 5   0  0.1680194E-06  0.3528134E+04  0.7818609E-02  0.8107155E-01
       -2   -1    0    0    0  501  0.00000000000E+00  0.00000000000E+00  0.16125609488E+04  0.16125609488E+04  0.25500000920E-02 0.  1.
        2   -1    0    0  501    0  0.00000000000E+00  0.00000000000E+00 -0.19298072850E+04  0.19298072850E+04  0.25500000920E-02 0. -1.
    10030    2    1    2    0    0  0.00000000000E+00  0.00000000000E+00 -0.31724633622E+03  0.35423682338E+04  0.35281337087E+04 0.  0.
        2    1    3    3  502    0  0.10651373689E+04  0.12072430168E+04  0.56538152865E+03  0.17063439246E+04  0.25500000920E-02 0.  1.
       -2    1    3    3    0  502 -0.10651373689E+04 -0.12072430168E+04 -0.88262786487E+03  0.18360243092E+04  0.25500000920E-02 0. -1.
</event>
<event>
 5   0  0.1685793E-06  0.3750408E+04  0.7818609E-02  0.8056882E-01
       -2   -1    0    0    0  501  0.00000000000E+00  0.00000000000E+00  0.27134361904E+04  0.27134361904E+04  0.25500000920E-02 0.  1.
        2   -1    0    0  501    0  0.00000000000E+00  0.00000000000E+00 -0.12959180455E+04  0.12959180455E+04  0.25500000920E-02 0. -1.
    10030    2    1    2    0    0  0.00000000000E+00  0.00000000000E+00  0.14175181449E+04  0.40093542359E+04  0.37504084708E+04 0.  0.
        3    1    3    3  502    0  0.58350598549E+03 -0.88982427914E+03  0.23594292958E+04  0.25882760856E+04  0.10100000352E+00 0.  1.
       -3    1    3    3    0  502 -0.58350598549E+03  0.88982427914E+03 -0.94191115095E+03  0.14210781503E+04  0.10100000352E+00 0. -1.
</event>
<event>
 5   0  0.1680194E-06  0.2449536E+04  0.7818609E-02  0.8421187E-01
       -2   -1    0    0    0  501  0.00000000000E+00  0.00000000000E+00  0.57742649925E+03  0.57742649926E+03  0.25500000920E-02 0. -1.
        2   -1    0    0  501    0  0.00000000000E+00  0.00000000000E+00 -0.25978309090E+04  0.25978309090E+04  0.25500000920E-02 0.  1.
    10030    2    1    2    0    0  0.00000000000E+00  0.00000000000E+00 -0.20204044098E+04  0.31752574083E+04  0.24495357988E+04 0.  0.
        2    1    3    3  502    0 -0.18277413973E+03 -0.77124439666E+02  0.55646205340E+03  0.59076609773E+03  0.25500000920E-02 0. -1.
       -2    1    3    3    0  502  0.18277413973E+03  0.77124439666E+02 -0.25768664632E+04  0.25844913105E+04  0.25500000920E-02 0.  1.
</event>
<event>
 5   0  0.1685793E-06  0.3316644E+04  0.7818609E-02  0.8158673E-01
       -2   -1    0    0    0  501  0.00000000000E+00  0.00000000000E+00  0.15136212699E+04  0.15136212699E+04  0.25500000920E-02 0. -1.
        2   -1    0    0  501    0  0.00000000000E+00  0.00000000000E+00 -0.18168561426E+04  0.18168561426E+04  0.25500000920E-02 0.  1.
    10030    2    1    2    0    0  0.00000000000E+00  0.00000000000E+00 -0.30323487276E+03  0.33304774125E+04  0.33166441484E+04 0.  0.
        3    1    3    3  502    0  0.92592603093E+03  0.10267827971E+04 -0.10710838769E+04  0.17489547189E+04  0.10100000352E+00 0.  1.
       -3    1    3    3    0  502 -0.92592603093E+03 -0.10267827971E+04  0.76784900412E+03  0.15815226936E+04  0.10100000352E+00 0. -1.
</event>
<event>
 5   0  0.1685793E-06  0.3191819E+04  0.7818609E-02  0.8190981E-01
        2   -1    0    0  501    0  0.00000000000E+00  0.00000000000E+00  0.98702574440E+03  0.98702574440E+03  0.25500000920E-02 0.  1.
       -2   -1    0    0    0  501  0.00000000000E+00  0.00000000000E+00 -0.25804059766E+04  0.25804059766E+04  0.25500000920E-02 0. -1.
    10030    2    1    2    0    0  0.00000000000E+00  0.00000000000E+00 -0.15933802322E+04  0.35674317210E+04  0.31918189986E+04 0.  0.
        3    1    3    3  502    0  0.13114441407E+04  0.45342584893E+03 -0.16777780367E+04  0.21772505334E+04  0.10100000352E+00 0. -1.
       -3    1    3    3    0  502 -0.13114441407E+04 -0.45342584893E+03  0.84397804527E+02  0.13901811876E+04  0.10100000352E+00 0.  1.
</event>
<event>
 5   0  0.1680194E-06  0.3657510E+04  0.7818609E-02  0.8077444E-01
       -2   -1    0    0    0  501  0.00000000000E+00  0.00000000000E+00  0.15103630029E+04  0.15103630029E+04  0.25500000920E-02 0.  1.
        2   -1    0    0  501    0  0.00000000000E+00  0.00000000000E+00 -0.22142654262E+04  0.22142654262E+04  0.25500000920E-02 0. -1.
    10030    2    1    2    0    0  0.00000000000E+00  0.00000000000E+00 -0.70390242333E+03  0.37246284291E+04  0.36575098515E+04 0.  0.
        2    1    3    3  502    0  0.90626181634E+03 -0.13045541845E+04  0.57086378156E+03  0.16879151510E+04  0.25500000920E-02 0.  1.
       -2    1    3    3    0  502 -0.90626181634E+03  0.13045541845E+04 -0.12747662049E+04  0.20367132781E+04  0.25500000920E-02 0. -1.
</event>
<event>
 5   0  0.6287345E-07  0.3684754E+04  0.7818609E-02  0.8071349E-01
        1   -1    0    0  501    0  0.00000000000E+00  0.00000000000E+00  0.11227817535E+04  0.11227817535E+04  0.50400001928E-02 0. -1.
       -1   -1    0    0    0  501  0.00000000000E+00  0.00000000000E+00 -0.30231643188E+04  0.30231643188E+04  0.50400001928E-02 0.  1.
    10030    2    1    2    0    0  0.00000000000E+00  0.00000000000E+00 -0.19003825653E+04  0.41459460724E+04  0.36847543935E+04 0.  0.
        5    1    3    3  502    0 -0.10283040267E+04  0.11239405944E+04 -0.21160677542E+04  0.26073773148E+04  0.46999998093E+01 0.  1.
       -5    1    3    3    0  502  0.10283040267E+04 -0.11239405944E+04  0.21568518891E+03  0.15385687576E+04  0.46999998093E+01 0. -1.
</event>
<event>
 5   0  0.1151180E-06  0.3720720E+04  0.7818609E-02  0.8063385E-01
        2   -1    0    0  501    0  0.00000000000E+00  0.00000000000E+00  0.16986020817E+04  0.16986020817E+04  0.25500000920E-02 0. -1.
       -2   -1    0    0    0  501  0.00000000000E+00  0.00000000000E+00 -0.20375221497E+04  0.20375221497E+04  0.25500000920E-02 0.  1.
    10030    2    1    2    0    0  0.00000000000E+00  0.00000000000E+00 -0.33892006799E+03  0.37361242315E+04  0.37207200191E+04 0.  0.
        5    1    3    3  502    0 -0.16577147786E+04 -0.13020890195E+03 -0.10071468142E+04  0.19440523246E+04  0.46999998093E+01 0.  1.
       -5    1    3    3    0  502  0.16577147786E+04  0.13020890195E+03  0.66822674621E+03  0.17920719069E+04  0.46999998093E+01 0. -1.
</event>
<event>
 5   0  0.1685793E-06  0.3555628E+04  0.7818609E-02  0.8100732E-01
        2   -1    0    0  501    0  0.00000000000E+00  0.00000000000E+00  0.25475027287E+04  0.25475027287E+04  0.25500000920E-02 0.  1.
       -2   -1    0    0    0  501  0.00000000000E+00  0.00000000000E+00 -0.12406750633E+04  0.12406750633E+04  0.25500000920E-02 0. -1.
    10030    2    1    2    0    0  0.00000000000E+00  0.00000000000E+00  0.13068276655E+04  0.37881777920E+04  0.35556282759E+04 0.  0.
        3    1    3    3  502    0 -0.14182630313E+04 -0.45716980118E+03 -0.37961468576E+03  0.15377196015E+04  0.10100000352E+00 0. -1.
       -3    1    3    3    0  502  0.14182630313E+04  0.45716980118E+03  0.16864423512E+04  0.22504581905E+04  0.10100000352E+00 0.  1.
</event>
<event>
 5   0  0.5875011E-07  0.2617831E+04  0.7818609E-02  0.8362169E-01
       -1   -1    0    0    0  501  0.00000000000E+00  0.00000000000E+00  0.15606453390E+04  0.15606453390E+04  0.50400001928E-02 0.  1.
        1   -1    0    0  501    0  0.00000000000E+00  0.00000000000E+00 -0.10977896470E+04  0.10977896470E+04  0.50400001928E-02 0. -1.
    10030    2    1    2    0    0  0.00000000000E+00  0.00000000000E+00  0.46285569205E+03  0.26584349860E+04  0.26178313894E+04 0.  0.
        2    1    3    3  502    0  0.75700437068E+03 -0.41645768773E+03 -0.76706609274E+03  0.11553713747E+04  0.25500000920E-02 0. -1.
       -2    1    3    3    0  502 -0.75700437068E+03  0.41645768773E+03  0.12299217848E+04  0.15030636113E+04  0.25500000920E-02 0.  1.
</event>
<event>
 5   0  0.1724503E-06  0.2338849E+04  0.7818609E-02  0.8462759E-01
       -2   -1    0    0    0  501  0.00000000000E+00  0.00000000000E+00  0.11299990499E+04  0.11299990499E+04  0.25500000920E-02 0.  1.
        2   -1    0    0  501    0  0.00000000000E+00  0.00000000000E+00 -0.12102253193E+04  0.12102253193E+04  0.25500000920E-02 0. -1.
    10030    2    1    2    0    0  0.00000000000E+00  0.00000000000E+00 -0.80226269366E+02  0.23402243692E+04  0.23388488288E+04 0.  0.
        1    1    3    3  502    0 -0.29690141648E+03  0.93535996252E+03  0.59626779740E+03  0.11482961277E+04  0.50400001928E-02 0.  1.
       -1    1    3    3    0  502  0.29690141648E+03 -0.93535996252E+03 -0.67649406677E+03  0.11919282415E+04  0.50400001928E-02 0. -1.
</event>
<event>
 5   0  0.1680194E-06  0.3654870E+04  0.7818609E-02  0.8078037E-01
       -2   -1    0    0    0  501  0.00000000000E+00  0.00000000000E+00  0.14717577971E+04  0.14717577971E+04  0.25500000920E-02 0.  1.
        2   -1    0    0  501    0  0.00000000000E+00  0.00000000000E+00 -0.22690676597E+04  0.22690676597E+04  0.25500000920E-02 0. -1.
    10030    2    1    2    0    0  0.00000000000E+00  0.00000000000E+00 -0.79730986265E+03  0.37408254568E+04  0.36548696395E+04 0.  0.
        2    1    3    3  502    0 -0.32065400193E+03 -0.16473081519E+04 -0.11389033484E+04  0.20281873615E+04  0.25500000920E-02 0. -1.
       -2    1    3    3    0  502  0.32065400193E+03  0.16473081519E+04  0.34159348571E+03  0.17126380954E+04  0.25500000920E-02 0.  1.
</event>
<event>
 5   0  0.1151180E-06  0.3727667E+04  0.7818609E-02  0.8061858E-01
       -2   -1    0    0    0  501  0.00000000000E+00  0.00000000000E+00  0.17420764017E+04  0.17420764017E+04  0.25500000920E-02 0. -1.
        2   -1    0    0  501    0  0.00000000000E+00  0.00000000000E+00 -0.19941000166E+04  0.19941000166E+04  0.25500000920E-02 0.  1.
    10030    2    1    2    0    0  0.00000000000E+00  0.00000000000E+00 -0.25202361492E+03  0.37361764183E+04  0.37276666061E+04 0.  0.
        5    1    3    3  502    0 -0.70182344661E+03  0.26280020576E+03 -0.18364340124E+04  0.19834646633E+04  0.46999998093E+01 0.  1.
       -5    1    3    3    0  502  0.70182344661E+03 -0.26280020576E+03  0.15844103975E+04  0.17527117550E+04  0.46999998093E+01 0. -1.
</event>
<event>
 5   0  0.1151180E-06  0.1919239E+04  0.7818609E-02  0.8645339E-01
       -2   -1    0    0    0  501  0.00000000000E+00  0.00000000000E+00  0.55794217294E+03  0.55794217294E+03  0.25500000920E-02 0.  1.
        2   -1    0    0  501    0  0.00000000000E+00  0.00000000000E+00 -0.16504744977E+04  0.16504744977E+04  0.25500000920E-02 0. -1.
    10030    2    1    2    0    0  0.00000000000E+00  0.00000000000E+00 -0.10925323248E+04  0.22084166707E+04  0.19192387321E+04 0.  0.
        5    1    3    3  502    0  0.45858158661E+03  0.40492526626E+03  0.30444307366E+03  0.68335146003E+03  0.46999998093E+01 0.  1.
       -5    1    3    3    0  502 -0.45858158661E+03 -0.40492526626E+03 -0.13969753985E+04  0.15250652107E+04  0.46999998093E+01 0. -1.
</event>
<event>
 5   0  0.6261598E-07  0.3798166E+04  0.7818609E-02  0.8046549E-01
        1   -1    0    0  501    0  0.00000000000E+00  0.00000000000E+00  0.22040397410E+04  0.22040397410E+04  0.50400001928E-02 0.  1.
       -1   -1    0    0    0  501  0.00000000000E+00  0.00000000000E+00 -0.16363206148E+04  0.16363206148E+04  0.50400001928E-02 0. -1.
    10030    2    1    2    0    0  0.00000000000E+00  0.00000000000E+00  0.56771912621E+03  0.38403603559E+04  0.37981656963E+04 0.  0.
        1    1    3    3  502    0  0.12404983342E+04  0.10310244777E+04  0.12973260017E+04  0.20700005666E+04  0.50400001928E-02 0.  1.
       -1    1    3    3    0  502 -0.12404983342E+04 -0.10310244777E+04 -0.72960687551E+03  0.17703597893E+04  0.50400001928E-02 0. -1.
</event>
<event>
 5   0  0.6261598E-07  0.3060899E+04  0.7818609E-02  0.8226552E-01
       -1   -1    0    0    0  501  0.00000000000E+00  0.00000000000E+00  0.11727731676E+04  0.11727731676E+04  0.50400001928E-02 0.  1.
        1   -1    0    0  501    0  0.00000000000E+00  0.00000000000E+00 -0.19972108279E+04  0.19972108279E+04  0.50400001928E-02 0. -1.
    10030    2    1    2    0    0  0.00000000000E+00  0.00000000000E+00 -0.82443766036E+03  0.31699839955E+04  0.30608987366E+04 0.  0.
        1    1    3    3  502    0  0.43466900391E+03  0.14670873192E+04 -0.44485251131E+03  0.15934792443E+04  0.50400001928E-02 0. -1.
       -1    1    3    3    0  502 -0.43466900391E+03 -0.14670873192E+04 -0.37958514905E+03  0.15765047512E+04  0.50400001928E-02 0.  1.
</event>
<event>
 5   0  0.6582515E-07  0.2073004E+04  0.7818609E-02  0.8573230E-01
        1   -1    0    0  501    0  0.00000000000E+00  0.00000000000E+00  0.90685297427E+03  0.90685297428E+03  0.50400001928E-02 0. -1.
       -1   -1    0    0    0  501  0.00000000000E+00  0.00000000000E+00 -0.11846861177E+04  0.11846861177E+04  0.50400001928E-02 0.  1.
    10030    2    1    2    0    0  0.00000000000E+00  0.00000000000E+00 -0.27783314346E+03  0.20915390920E+04  0.20730037429E+04 0.  0.
        2    1    3    3  502    0 -0.63339225339E+03 -0.63869746085E+03 -0.65851246298E+03  0.11147909477E+04  0.25500000920E-02 0.  1.
       -2    1    3    3    0  502  0.63339225339E+03  0.63869746085E+03  0.38067931952E+03  0.97674814434E+03  0.25500000920E-02 0. -1.
</event>
<event>
 5   0  0.1184684E-06  0.3365980E+04  0.7818609E-02  0.8146307E-01
       -2   -1    0    0    0  501  0.00000000000E+00  0.00000000000E+00  0.13082001372E+04  0.13082001372E+04  0.25500000920E-02 0. -1.
        2   -1    0    0  501    0  0.00000000000E+00  0.00000000000E+00 -0.21651538038E+04  0.21651538038E+04  0.25500000920E-02 0.  1.
    10030    2    1    2    0    0  0.00000000000E+00  0.00000000000E+00 -0.85695366652E+03  0.34733539410E+04  0.33659795027E+04 0.  0.
        4    1    3    3  502    0  0.67153110175E+03 -0.97745596559E+03  0.80380294388E+03  0.14326461429E+04  0.12699999809E+01 0. -1.
       -4    1    3    3    0  502 -0.67153110175E+03  0.97745596559E+03 -0.16607566104E+04  0.20407077981E+04  0.12699999809E+01 0.  1.
</event>
<event>
 5   0  0.1680194E-06  0.2494096E+04  0.7818609E-02  0.8405092E-01
       -2   -1    0    0    0  501  0.00000000000E+00  0.00000000000E+00  0.11422058650E+04  0.11422058650E+04  0.25500000920E-02 0. -1.
        2   -1    0    0  501    0  0.00000000000E+00  0.00000000000E+00 -0.13615132077E+04  0.13615132077E+04  0.25500000920E-02 0.  1.
    10030    2    1    2    0    0  0.00000000000E+00  0.00000000000E+00 -0.21930734266E+03  0.25037190727E+04  0.24940957248E+04 0.  0.
        2    1    3    3  502    0  0.89406989658E+03 -0.86289858780E+03 -0.21576591763E+03  0.12611541872E+04  0.25500000920E-02 0.  1.
       -2    1    3    3    0  502 -0.89406989658E+03  0.86289858780E+03 -0.35414250274E+01  0.12425648854E+04  0.25500000920E-02 0. -1.
</event>
<event>
 5   0  0.1184684E-06  0.3674129E+04  0.7818609E-02  0.8073719E-01
       -2   -1    0    0    0  501  0.00000000000E+00  0.00000000000E+00  0.14397566106E+04  0.14397566106E+04  0.25500000920E-02 0.  1.
        2   -1    0    0  501    0  0.00000000000E+00  0.00000000000E+00 -0.23440113966E+04  0.23440113966E+04  0.25500000920E-02 0. -1.
    10030    2    1    2    0    0  0.00000000000E+00  0.00000000000E+00 -0.90425478600E+03  0.37837680071E+04  0.36741289599E+04 0.  0.
        4    1    3    3  502    0 -0.16126215356E+04  0.85764117145E+03 -0.24951371635E+03  0.18434628566E+04  0.12699999809E+01 0. -1.
       -4    1    3    3    0  502  0.16126215356E+04 -0.85764117145E+03 -0.65474106966E+03  0.19403051505E+04  0.12699999809E+01 0.  1.
</event>
<event>
 5   0  0.1724503E-06  0.3848355E+04  0.7818609E-02  0.8035857E-01
       -2   -1    0    0    0  501  0.00000000000E+00  0.00000000000E+00  0.21658502083E+04  0.21658502083E+04  0.25500000920E-02 0.  1.
        2   -1    0    0  501    0  0.00000000000E+00  0.00000000000E+00 -0.17094714253E+04  0.17094714253E+04  0.25500000920E-02 0. -1.
    10030    2    1    2    0    0  0.00000000000E+00  0.00000000000E+00  0.45637878303E+03  0.38753216336E+04  0.38483549954E+04 0.  0.
        1    1    3    3  502    0 -0.24230500465E+03  0.10032238249E+04  0.18635423867E+04  0.21302488083E+04  0.50400001928E-02 0.  1.
       -1    1    3    3    0  502  0.24230500465E+03 -0.10032238249E+04 -0.14071636037E+04  0.17450728253E+04  0.50400001928E-02 0. -1.
</event>
<event>
 5   0  0.1724503E-06  0.2297941E+04  0.7818609E-02  0.8478733E-01
        2   -1    0    0  501    0  0.00000000000E+00  0.00000000000E+00  0.15576642168E+04  0.15576642168E+04  0.25500000920E-02 0. -1.
       -2   -1    0    0    0  501  0.00000000000E+00  0.00000000000E+00 -0.84750831785E+03  0.84750831785E+03  0.25500000920E-02 0.  1.
    10030    2    1    2    0    0  0.00000000000E+00  0.00000000000E+00  0.71015589891E+03  0.24051725346E+04  0.22979411482E+04 0.  0.
        1    1    3    3  502    0 -0.88684083069E+03 -0.25456423419E+03 -0.36159565515E+03  0.99097983135E+03  0.50400001928E-02 0.  1.
       -1    1    3    3    0  502  0.88684083069E+03  0.25456423419E+03  0.10717515541E+04  0.14141927033E+04  0.50400001928E-02 0. -1.
</event>
<event>
 5   0  0.5679750E-07  0.3137968E+04  0.7818609E-02  0.8205394E-01
        1   -1    0    0  501    0  0.00000000000E+00  0.00000000000E+00  0.11654743482E+04  0.11654743482E+04  0.50400001928E-02 0.  1.
       -1   -1    0    0    0  501  0.00000000000E+00  0.00000000000E+00 -0.21121970472E+04  0.21121970472E+04  0.50400001928E-02 0. -1.
    10030    2    1    2    0    0  0.00000000000E+00  0.00000000000E+00 -0.94672269903E+03  0.32776713954E+04  0.31379684363E+04 0.  0.
        4    1    3    3  502    0 -0.10547095093E+04 -0.11008175432E+03  0.73448511154E+03  0.12899612915E+04  0.12699999809E+01 0.  1.
       -4    1    3    3    0  502  0.10547095093E+04  0.11008175432E+03 -0.16812078106E+04  0.19877101038E+04  0.12699999809E+01 0. -1.
</event>
<event>
 5   0  0.1680194E-06  0.3733144E+04  0.7818609E-02  0.8060656E-01
        2   -1    0    0  501    0  0.00000000000E+00  0.00000000000E+00  0.12178006684E+04  0.12178006684E+04  0.25500000920E-02 0.  1.
       -2   -1    0    0    0  501  0.00000000000E+00  0.00000000000E+00 -0.28609702951E+04  0.28609702951E+04  0.25500000920E-02 0. -1.
    10030    2    1    2    0    0  0.00000000000E+00  0.00000000000E+00 -0.16431696267E+04  0.40787709635E+04  0.37331442713E+04 0.  0.
        2    1    3    3  502    0  0.32257769420E+03  0.37840377211E+03 -0.27872771615E+04  0.28312823524E+04  0.25500000920E-02 0. -1.
       -2    1    3    3    0  502 -0.32257769420E+03 -0.37840377211E+03  0.11441075348E+04  0.12474886111E+04  0.25500000920E-02 0.  1.
</event>
<event>
 5   0  0.1151180E-06  0.2294051E+04  0.7818609E-02  0.8480270E-01
       -2   -1    0    0    0  501  0.00000000000E+00  0.00000000000E+00  0.93650923760E+03  0.93650923761E+03  0.25500000920E-02 0. -1.
        2   -1    0    0  501    0  0.00000000000E+00  0.00000000000E+00 -0.14048631011E+04  0.14048631011E+04  0.25500000920E-02 0.  1.
    10030    2    1    2    0    0  0.00000000000E+00  0.00000000000E+00 -0.46835386350E+03  0.23413723387E+04  0.22940508031E+04 0.  0.
        5    1    3    3  502    0 -0.54665173906E+03  0.53024960080E+03  0.64121751146E+03  0.99557759616E+03  0.46999998093E+01 0.  1.
       -5    1    3    3    0  502  0.54665173906E+03 -0.53024960080E+03 -0.11095713750E+04  0.13457947426E+04  0.46999998093E+01 0. -1.
</event>
<event>
 5   0  0.1680194E-06  0.2533037E+04  0.7818609E-02  0.8391310E-01
       -2   -1    0    0    0  501  0.00000000000E+00  0.00000000000E+00  0.90765276154E+03  0.90765276155E+03  0.25500000920E-02 0.  1.
        2   -1    0    0  501    0  0.00000000000E+00  0.00000000000E+00 -0.17672710963E+04  0.17672710963E+04  0.25500000920E-02 0. -1.
    10030    2    1    2    0    0  0.00000000000E+00  0.00000000000E+00 -0.85961833471E+03  0.26749238578E+04  0.25330365105E+04 0.  0.
        2    1    3    3  502    0  0.79659759518E+03  0.32297447219E+03  0.55244816999E+03  0.10218019470E+04  0.25500000920E-02 0.  1.
       -2    1    3    3    0  502 -0.79659759518E+03 -0.32297447219E+03 -0.14120665047E+04  0.16531219108E+04  0.25500000920E-02 0. -1.
</event>
<event>
 5   0  0.1184684E-06  0.3795468E+04  0.7818609E-02  0.8047128E-01
        2   -1    0    0  501    0  0.00000000000E+00  0.00000000000E+00  0.19634580549E+04  0.19634580549E+04  0.25500000920E-02 0. -1.
       -2   -1    0    0    0  501  0.00000000000E+00  0.00000000000E+00 -0.18342099281E+04  0.18342099281E+04  0.25500000920E-02 0.  1.
    10030    2    1    2    0    0  0.00000000000E+00  0.00000000000E+00  0.12924812684E+03  0.37976679830E+04  0.37954679594E+04 0.  0.
        4    1    3    3  502    0 -0.88592966230E+03 -0.13960513971E+04  0.99659392455E+03  0.19305522353E+04  0.12699999809E+01 0. -1.
       -4    1    3    3    0  502  0.88592966230E+03  0.13960513971E+04 -0.86734579771E+03  0.18671157478E+04  0.12699999809E+01 0.  1.
</event>
<event>
 5   0  0.5679750E-07  0.1819196E+04  0.7818609E-02  0.8696158E-01
        1   -1    0    0  501    0  0.00000000000E+00  0.00000000000E+00  0.10821827459E+04  0.10821827459E+04  0.50400001928E-02 0. -1.
       -1   -1    0    0    0  501  0.00000000000E+00  0.00000000000E+00 -0.76453656743E+03  0.76453656744E+03  0.50400001928E-02 0.  1.
    10030    2    1    2    0    0  0.00000000000E+00  0.00000000000E+00  0.31764617847E+03  0.18467193133E+04  0.18191957365E+04 0.  0.
        4    1    3    3  502    0 -0.80683169277E+02  0.88871386819E+03  0.33768348439E+03  0.95412465739E+03  0.12699999809E+01 0. -1.
       -4    1    3    3    0  502  0.80683169277E+02 -0.88871386819E+03 -0.20037305920E+02  0.89259465596E+03  0.12699999809E+01 0.  1.
</event>
<event>
 5   0  0.6261598E-07  0.2624190E+04  0.7818609E-02  0.8360031E-01
       -1   -1    0    0    0  501  0.00000000000E+00  0.00000000000E+00  0.11128478834E+04  0.11128478834E+04  0.50400001928E-02 0. -1.
        1   -1    0    0  501    0  0.00000000000E+00  0.00000000000E+00 -0.15470156886E+04  0.15470156886E+04  0.50400001928E-02 0.  1.
    10030    2    1    2    0    0  0.00000000000E+00  0.00000000000E+00 -0.43416780512E+03  0.26598635720E+04  0.26241898824E+04 0.  0.
        1    1    3    3  502    0 -0.10284905100E+04  0.81450742861E+03 -0.23679184174E+03  0.13331487001E+04  0.50400001928E-02 0. -1.
       -1    1    3    3    0  502  0.10284905100E+04 -0.81450742861E+03 -0.19737596338E+03  0.13267148719E+04  0.50400001928E-02 0.  1.
</event>
<event>
 5   0  0.1685793E-06  0.3771115E+04  0.7818609E-02  0.8052382E-01
       -2   -1    0    0    0  501  0.00000000000E+00  0.00000000000E+00  0.19730439647E+04  0.19730439647E+04  0.25500000920E-02 0.  1.
        2   -1    0    0  501    0  0.00000000000E+00  0.00000000000E+00 -0.18019505843E+04  0.18019505843E+04  0.25500000920E-02 0. -1.
    10030    2    1    2    0    0  0.00000000000E+00  0.00000000000E+00  0.17109338038E+03  0.37749945491E+04  0.37711153391E+04 0.  0.
        3    1    3    3  502    0  0.95978061430E+03 -0.86631537762E+02 -0.15368128601E+04  0.18139673724E+04  0.10100000352E+00 0. -1.
       -3    1    3    3    0  502 -0.95978061430E+03  0.86631537762E+02  0.17079062405E+04  0.19610271766E+04  0.10100000352E+00 0.  1.
</event>
<event>
 5   0  0.6186440E-07  0.3707934E+04  0.7818609E-02  0.8066206E-01
       -1   -1    0    0    0  501  0.00000000000E+00  0.00000000000E+00  0.22692126347E+04  0.22692126347E+04  0.50400001928E-02 0.  1.
        1   -1    0    0  501    0  0.00000000000E+00  0.00000000000E+00 -0.15147072332E+04  0.15147072332E+04  0.50400001928E-02 0. -1.
    10030    2    1    2    0    0  0.00000000000E+00  0.00000000000E+00  0.75450540150E+03  0.37839198680E+04  0.37079335440E+04 0.  0.
        3    1    3    3  502    0  0.10450732047E+04  0.56861541584E+03  0.18282526881E+04  0.21812861793E+04  0.10100000352E+00 0.  1.
       -3    1    3    3    0  502 -0.10450732047E+04 -0.56861541584E+03 -0.10737472866E+04  0.16026336887E+04  0.10100000352E+00 0. -1.
</event>
<event>
 5   0  0.5875011E-07  0.3254296E+04  0.7818609E-02  0.8174623E-01
       -1   -1    0    0    0  501  0.00000000000E+00  0.00000000000E+00  0.13811283786E+04  0.13811283786E+04  0.50400001928E-02 0. -1.
        1   -1    0    0  501    0  0.00000000000E+00  0.00000000000E+00 -0.19169912682E+04  0.19169912682E+04  0.50400001928E-02 0.  1.
    10030    2    1    2    0    0  0.00000000000E+00  0.00000000000E+00 -0.53586288960E+03  0.32981196468E+04  0.32542962631E+04 0.  0.
        2    1    3    3  502    0  0.97871451605E+03 -0.12010108465E+04 -0.77192273617E+03  0.17309459460E+04  0.25500000920E-02 0.  1.
       -2    1    3    3    0  502 -0.97871451605E+03  0.12010108465E+04  0.23605984657E+03  0.15671737008E+04  0.25500000920E-02 0. -1.
</event>
<event>
 5   0  0.6287345E-07  0.3695549E+04  0.7818609E-02  0.8068949E-01
        1   -1    0    0  501    0  0.00000000000E+00  0.00000000000E+00  0.21313164328E+04  0.21313164328E+04  0.50400001928E-02 0.  1.
       -1   -1    0    0    0  501  0.00000000000E+00  0.00000000000E+00 -0.16019536296E+04  0.16019536296E+04  0.50400001928E-02 0. -1.
    10030    2    1    2    0    0  0.00000000000E+00  0.00000000000E+00  0.52936280314E+03  0.37332700624E+04  0.36955487254E+04 0.  0.
        5    1    3    3  502    0  0.75531073734E+03  0.31968291414E+03  0.19373468176E+04  0.21038123151E+04  0.46999998093E+01 0.  1.
       -5    1    3    3    0  502 -0.75531073734E+03 -0.31968291414E+03 -0.14079840144E+04  0.16294577473E+04  0.46999998093E+01 0. -1.
</event>
<event>
 5   0  0.1184684E-06  0.3316367E+04  0.7818609E-02  0.8158743E-01
       -2   -1    0    0    0  501  0.00000000000E+00  0.00000000000E+00  0.16612380715E+04  0.16612380715E+04  0.25500000920E-02 0. -1.
        2   -1    0    0  501    0  0.00000000000E+00  0.00000000000E+00 -0.16551341739E+04  0.16551341740E+04  0.25500000920E-02 0.  1.
    10030    2    1    2    0    0  0.00000000000E+00  0.00000000000E+00  0.61038975689E+01  0.33163722455E+04  0.33163666282E+04 0.  0.
        4    1    3    3  502    0 -0.11956163858E+04 -0.46105906833E+03  0.10554302246E+04  0.16601230613E+04  0.12699999809E+01 0. -1.
       -4    1    3    3    0  502  0.11956163858E+04  0.46105906833E+03 -0.10493263271E+04  0.16562491842E+04  0.12699999809E+01 0.  1.
</event>
<event>
 5   0  0.1724503E-06  0.3692399E+04  0.7818609E-02  0.8069648E-01
       -2   -1    0    0    0  501  0.00000000000E+00  0.00000000000E+00  0.14276490511E+04  0.14276490511E+04  0.25500000920E-02 0. -1.
        2   -1    0    0  501    0  0.00000000000E+00  0.00000000000E+00 -0.23874580903E+04  0.23874580903E+04  0.25500000920E-02 0.  1.
    10030    2    1    2    0    0  0.00000000000E+00  0.00000000000E+00 -0.95980903919E+03  0.38151071414E+04  0.36923988285E+04 0.  0.
        1    1    3    3  502    0 -0.23904749605E+03 -0.18197192624E+04 -0.68637113736E+03  0.19594966797E+04  0.50400001928E-02 0.  1.
       -1    1    3    3    0  502  0.23904749605E+03  0.18197192624E+04 -0.27343790183E+03  0.18556104617E+04  0.50400001928E-02 0. -1.
</event>
<event>
 5   0  0.1151180E-06  0.3643307E+04  0.7818609E-02  0.8080643E-01
       -2   -1    0    0    0  501  0.00000000000E+00  0.00000000000E+00  0.27278549424E+04  0.27278549424E+04  0.25500000920E-02 0. -1.
        2   -1    0    0  501    0  0.00000000000E+00  0.00000000000E+00 -0.12164949878E+04  0.12164949878E+04  0.25500000920E-02 0.  1.
    10030    2    1    2    0    0  0.00000000000E+00  0.00000000000E+00  0.15113599545E+04  0.39443499302E+04  0.36433072146E+04 0.  0.
        5    1    3    3  502    0 -0.16228013561E+04  0.56270436519E+03  0.14126844351E+04  0.22239199282E+04  0.46999998093E+01 0. -1.
       -5    1    3    3    0  502  0.16228013561E+04 -0.56270436519E+03  0.98675519478E+02  0.17204300021E+04  0.46999998093E+01 0.  1.
</event>
<event>
 5   0  0.1680194E-06  0.3893620E+04  0.7818609E-02  0.8026357E-01
       -2   -1    0    0    0  501  0.00000000000E+00  0.00000000000E+00  0.15654215006E+04  0.15654215006E+04  0.25500000920E-02 0. -1.
        2   -1    0    0  501    0  0.00000000000E+00  0.00000000000E+00 -0.24211173693E+04  0.24211173693E+04  0.25500000920E-02 0.  1.
    10030    2    1    2    0    0  0.00000000000E+00  0.00000000000E+00 -0.85569586874E+03  0.39865388698E+04  0.38936200047E+04 0.  0.
        2    1    3    3  502    0 -0.19193806094E+04  0.27815110692E+03 -0.25445710246E+03  0.19560517322E+04  0.25500000920E-02 0.  1.
       -2    1    3    3    0  502  0.19193806094E+04 -0.27815110692E+03 -0.60123876628E+03  0.20304871376E+04  0.25500000920E-02 0. -1.
</event>
<event>
 5   0  0.6287345E-07  0.3509217E+04  0.7818609E-02  0.8111609E-01
       -1   -1    0    0    0  501  0.00000000000E+00  0.00000000000E+00  0.13159151020E+04  0.13159151020E+04  0.50400001928E-02 0.  1.
        1   -1    0    0  501    0  0.00000000000E+00  0.00000000000E+00 -0.23395510453E+04  0.23395510453E+04  0.50400001928E-02 0. -1.
    10030    2    1    2    0    0  0.00000000000E+00  0.00000000000E+00 -0.10236359433E+04  0.36554661473E+04  0.35092167516E+04 0.  0.
        5    1    3    3  502    0  0.91670841395E+03 -0.42244367857E+03 -0.20068370395E+04  0.22463815283E+04  0.46999998093E+01 0. -1.
       -5    1    3    3    0  502 -0.91670841395E+03  0.42244367857E+03  0.98320109620E+03  0.14090846189E+04  0.46999998093E+01 0.  1.
</event>
<event>
 5   0  0.1184684E-06  0.3226684E+04  0.7818609E-02  0.8181805E-01
       -2   -1    0    0    0  501  0.00000000000E+00  0.00000000000E+00  0.19297175855E+04  0.19297175855E+04  0.25500000920E-02 0. -1.
        2   -1    0    0  501    0  0.00000000000E+00  0.00000000000E+00 -0.13488360775E+04  0.13488360775E+04  0.25500000920E-02 0.  1.
    10030    2    1    2    0    0  0.00000000000E+00  0.00000000000E+00  0.58088150798E+03  0.32785536630E+04  0.32266841796E+04 0.  0.
        4    1    3    3  502    0  0.69616413535E+03 -0.89938501943E+03  0.14530959097E+04  0.18452715931E+04  0.12699999809E+01 0. -1.
       -4    1    3    3    0  502 -0.69616413535E+03  0.89938501943E+03 -0.87221440169E+03  0.14332820699E+04  0.12699999809E+01 0.  1.
</event>
<event>
 5   0  0.1685793E-06  0.3752606E+04  0.7818609E-02  0.8056403E-01
        2   -1    0    0  501    0  0.00000000000E+00  0.00000000000E+00  0.14980486778E+04  0.14980486778E+04  0.25500000920E-02 0. -1.
       -2   -1    0    0    0  501  0.00000000000E+00  0.00000000000E+00 -0.23500658795E+04  0.23500658795E+04  0.25500000920E-02 0.  1.
    10030    2    1    2    0    0  0.00000000000E+00  0.00000000000E+00 -0.85201720170E+03  0.38481145572E+04  0.37526060722E+04 0.  0.
        3    1    3    3  502    0  0.77074674274E+03 -0.60097251706E+03  0.12164091720E+04  0.15604069314E+04  0.10100000352E+00 0. -1.
       -3    1    3    3    0  502 -0.77074674274E+03  0.60097251706E+03 -0.20684263737E+04  0.22877076258E+04  0.10100000352E+00 0.  1.
</event>
<event>
 5   0  0.1680194E-06  0.3668910E+04  0.7818609E-02  0.8074887E-01
        2   -1    0    0  501    0  0.00000000000E+00  0.00000000000E+00  0.15061839355E+04  0.15061839355E+04  0.25500000920E-02 0. -1.
       -2   -1    0    0    0  501  0.00000000000E+00  0.00000000000E+00 -0.22342724057E+04  0.22342724057E+04  0.25500000920E-02 0.  1.
    10030    2    1    2    0    0  0.00000000000E+00  0.00000000000E+00 -0.72808847017E+03  0.37404563412E+04  0.36689100316E+04 0.  0.
        2    1    3    3  502    0  0.65077693694E+03  0.50733272684E+03  0.13062974736E+04  0.15450922972E+04  0.25500000920E-02 0. -1.
       -2    1    3    3    0  502 -0.65077693694E+03 -0.50733272684E+03 -0.20343859438E+04  0.21953640440E+04  0.25500000920E-02 0.  1.
</event>
<event>
 5   0  0.6186440E-07  0.2215746E+04  0.7818609E-02  0.8511903E-01
       -1   -1    0    0    0  501  0.00000000000E+00  0.00000000000E+00  0.69850524804E+03  0.69850524806E+03  0.50400001928E-02 0. -1.
        1   -1    0    0  501    0  0.00000000000E+00  0.00000000000E+00 -0.17571551835E+04  0.17571551835E+04  0.50400001928E-02 0.  1.
    10030    2    1    2    0    0  0.00000000000E+00  0.00000000000E+00 -0.10586499355E+04  0.24556604316E+04  0.22157455787E+04 0.  0.
        3    1    3    3  502    0 -0.33277304227E+03 -0.47835499393E+02  0.64060642346E+03  0.72346577848E+03  0.10100000352E+00 0. -1.
       -3    1    3    3    0  502  0.33277304227E+03  0.47835499393E+02 -0.16992563589E+04  0.17321946531E+04  0.10100000352E+00 0.  1.
</event>
<event>
 5   0  0.1184684E-06  0.3679408E+04  0.7818609E-02  0.8072541E-01
       -2   -1    0    0    0  501  0.00000000000E+00  0.00000000000E+00  0.20260639985E+04  0.20260639985E+04  0.25500000920E-02 0. -1.
        2   -1    0    0  501    0  0.00000000000E+00  0.00000000000E+00 -0.16704859471E+04  0.16704859471E+04  0.25500000920E-02 0.  1.
    10030    2    1    2    0    0  0.00000000000E+00  0.00000000000E+00  0.35557805135E+03  0.36965499456E+04  0.36794083423E+04 0.  0.
        4    1    3    3  502    0 -0.46135019542E+02 -0.15985103399E+04 -0.73592374964E+03  0.17603832324E+04  0.12699999809E+01 0. -1.
       -4    1    3    3    0  502  0.46135019542E+02  0.15985103399E+04  0.10915018010E+04  0.19361667132E+04  0.12699999809E+01 0.  1.
</event>
<event>
 5   0  0.6261598E-07  0.3569668E+04  0.7818609E-02  0.8097475E-01
        1   -1    0    0  501    0  0.00000000000E+00  0.00000000000E+00  0.23854187194E+04  0.23854187194E+04  0.50400001928E-02 0. -1.
       -1   -1    0    0    0  501  0.00000000000E+00  0.00000000000E+00 -0.13354604501E+04  0.13354604501E+04  0.50400001928E-02 0.  1.
    10030    2    1    2    0    0  0.00000000000E+00  0.00000000000E+00  0.10499582693E+04  0.37208791694E+04  0.35696679714E+04 0.  0.
        1    1    3    3  502    0  0.33793400381E+03  0.14786098643E+03  0.23452543447E+04  0.23740851298E+04  0.50400001928E-02 0. -1.
       -1    1    3    3    0  502 -0.33793400381E+03 -0.14786098643E+03 -0.12952960754E+04  0.13467940396E+04  0.50400001928E-02 0.  1.
</event>
<event>
 5   0  0.5679750E-07  0.2101574E+04  0.7818609E-02  0.8560550E-01
        1   -1    0    0  501    0  0.00000000000E+00  0.00000000000E+00  0.67661626966E+03  0.67661626968E+03  0.50400001928E-02 0. -1.
       -1   -1    0    0    0  501  0.00000000000E+00  0.00000000000E+00 -0.16318755442E+04  0.16318755442E+04  0.50400001928E-02 0.  1.
    10030    2    1    2    0    0  0.00000000000E+00  0.00000000000E+00 -0.95525927456E+03  0.23084918139E+04  0.21015742131E+04 0.  0.
        4    1    3    3  502    0 -0.11239137567E+03 -0.93716218621E+03  0.29624060341E+02  0.94434314867E+03  0.12699999809E+01 0. -1.
       -4    1    3    3    0  502  0.11239137567E+03  0.93716218621E+03 -0.98488333490E+03  0.13641486652E+04  0.12699999809E+01 0.  1.
</event>
<event>
 5   0  0.1685793E-06  0.1877425E+04  0.7818609E-02  0.8666176E-01
        2   -1    0    0  501    0  0.00000000000E+00  0.00000000000E+00  0.12630296246E+04  0.12630296246E+04  0.25500000920E-02 0.  1.
       -2   -1    0    0    0  501  0.00000000000E+00  0.00000000000E+00 -0.69767224813E+03  0.69767224813E+03  0.25500000920E-02 0. -1.
    10030    2    1    2    0    0  0.00000000000E+00  0.00000000000E+00  0.56535737643E+03  0.19607018727E+04  0.18774245312E+04 0.  0.
        3    1    3    3  502    0  0.41278450824E+03  0.54223154347E+03 -0.39153831753E+03  0.78594424820E+03  0.10100000352E+00 0. -1.
       -3    1    3    3    0  502 -0.41278450824E+03 -0.54223154347E+03  0.95689569396E+03  0.11747576245E+04  0.10100000352E+00 0.  1.
</event>
<event>
 5   0  0.6287345E-07  0.2560777E+04  0.7818609E-02  0.8381648E-01
       -1   -1    0    0    0  501  0.00000000000E+00  0.00000000000E+00  0.26115128621E+04  0.26115128621E+04  0.50400001928E-02 0.  1.
        1   -1    0    0  501    0  0.00000000000E+00  0.00000000000E+00 -0.62775646550E+03  0.62775646552E+03  0.50400001928E-02 0. -1.
    10030    2    1    2    0    0  0.00000000000E+00  0.00000000000E+00  0.19837563966E+04  0.32392693277E+04  0.25607765103E+04 0.  0.
        5    1    3    3  502    0 -0.71865731175E+03 -0.41836696676E+03  0.22234235201E+04  0.23738436112E+04  0.46999998093E+01 0.  1.
       -5    1    3    3    0  502  0.71865731175E+03  0.41836696676E+03 -0.23966712351E+03  0.86542571645E+03  0.46999998093E+01 0. -1.
</event>
<event>
 5   0  0.6261598E-07  0.3781047E+04  0.7818609E-02  0.8050234E-01
       -1   -1    0    0    0  501  0.00000000000E+00  0.00000000000E+00  0.22307187915E+04  0.22307187915E+04  0.50400001928E-02 0. -1.
        1   -1    0    0  501    0  0.00000000000E+00  0.00000000000E+00 -0.16022098823E+04  0.16022098823E+04  0.50400001928E-02 0.  1.
    10030    2    1    2    0    0  0.00000000000E+00  0.00000000000E+00  0.62850890922E+03  0.38329286738E+04  0.37810473112E+04 0.  0.
        1    1    3    3  502    0  0.60638873363E+03  0.36477904768E+03  0.20913947514E+04  0.22078729710E+04  0.50400001928E-02 0. -1.
       -1    1    3    3    0  502 -0.60638873363E+03 -0.36477904768E+03 -0.14628858422E+04  0.16250557028E+04  0.50400001928E-02 0.  1.
</event>
<event>
 5   0  0.5875011E-07  0.1944467E+04  0.7818609E-02  0.8633033E-01
        1   -1    0    0  501    0  0.00000000000E+00  0.00000000000E+00  0.13512110992E+04  0.13512110992E+04  0.50400001928E-02 0. -1.
       -1   -1    0    0    0  501  0.00000000000E+00  0.00000000000E+00 -0.69954896311E+03  0.69954896313E+03  0.50400001928E-02 0.  1.
    10030    2    1    2    0    0  0.00000000000E+00  0.00000000000E+00  0.65166213609E+03  0.20507600624E+04  0.19444673548E+04 0.  0.
        2    1    3    3  502    0 -0.51876204418E+03  0.57439092053E+03  0.94638182509E+03  0.12225700581E+04  0.25500000920E-02 0. -1.
       -2    1    3    3    0  502  0.51876204418E+03 -0.57439092053E+03 -0.29471968900E+03  0.82819000426E+03  0.25500000920E-02 0.  1.
</event>
<event>
 5   0  0.6186440E-07  0.2261278E+04  0.7818609E-02  0.8493347E-01
        1   -1    0    0  501    0  0.00000000000E+00  0.00000000000E+00  0.81875277509E+03  0.81875277511E+03  0.50400001928E-02 0. -1.
       -1   -1    0    0    0  501  0.00000000000E+00  0.00000000000E+00 -0.15613311327E+04  0.15613311327E+04  0.50400001928E-02 0.  1.
    10030    2    1    2    0    0  0.00000000000E+00  0.00000000000E+00 -0.74257835761E+03  0.23800839078E+04  0.22612776899E+04 0.  0.
        3    1    3    3  502    0 -0.15279865408E+03 -0.22319350089E+03  0.78419654447E+03  0.82953420550E+03  0.10100000352E+00 0. -1.
       -3    1    3    3    0  502  0.15279865408E+03  0.22319350089E+03 -0.15267749021E+04  0.15505497023E+04  0.10100000352E+00 0.  1.
</event>
<event>
 5   0  0.5875011E-07  0.3086906E+04  0.7818609E-02  0.8219341E-01
        1   -1    0    0  501    0  0.00000000000E+00  0.00000000000E+00  0.18650522249E+04  0.18650522249E+04  0.50400001928E-02 0.  1.
       -1   -1    0    0    0  501  0.00000000000E+00  0.00000000000E+00 -0.12773089467E+04  0.12773089467E+04  0.50400001928E-02 0. -1.
    10030    2    1    2    0    0  0.00000000000E+00  0.00000000000E+00  0.58774327824E+03  0.31423611716E+04  0.30869064728E+04 0.  0.
        2    1    3    3  502    0  0.14276729522E+04 -0.31254708052E+03 -0.21134256488E+03  0.14766859570E+04  0.25500000920E-02 0. -1.
       -2    1    3    3    0  502 -0.14276729522E+04  0.31254708052E+03  0.79908584312E+03  0.16656752146E+04  0.25500000920E-02 0.  1.
</event>
<event>
 5   0  0.1724503E-06  0.3792728E+04  0.7818609E-02  0.8047717E-01
        2   -1    0    0  501    0  0.00000000000E+00  0.00000000000E+00  0.27175597691E+04  0.27175597691E+04  0.25500000920E-02 0. -1.
       -2   -1    0    0    0  501  0.00000000000E+00  0.00000000000E+00 -0.13233184180E+04  0.13233184180E+04  0.25500000920E-02 0.  1.
    10030    2    1    2    0    0  0.00000000000E+00  0.00000000000E+00  0.13942413510E+04  0.40408781871E+04  0.37927282500E+04 0.  0.
        1    1    3    3  502    0 -0.17118749620E+04 -0.40113064484E+03 -0.59839521004E+02  0.17592619043E+04  0.50400001928E-02 0.  1.
       -1    1    3    3    0  502  0.17118749620E+04  0.40113064484E+03  0.14540808720E+04  0.22816162828E+04  0.50400001928E-02 0. -1.
</event>
<event>
 5   0  0.5875011E-07  0.3297588E+04  0.7818609E-02  0.8163509E-01
        1   -1    0    0  501    0  0.00000000000E+00  0.00000000000E+00  0.24049804925E+04  0.24049804925E+04  0.50400001928E-02 0.  1.
       -1   -1    0    0    0  501  0.00000000000E+00  0.00000000000E+00 -0.11303715018E+04  0.11303715018E+04  0.50400001928E-02 0. -1.
    10030    2    1    2    0    0  0.00000000000E+00  0.00000000000E+00  0.12746089908E+04  0.35353519943E+04  0.32975878524E+04 0.  0.
        2    1    3    3  502    0 -0.62043959913E+03  0.12544895927E+02 -0.10003890095E+04  0.11772344036E+04  0.25500000920E-02 0. -1.
       -2    1    3    3    0  502  0.62043959913E+03 -0.12544895927E+02  0.22749980003E+04  0.23581175908E+04  0.25500000920E-02 0.  1.
</event>
<event>
 5   0  0.1685793E-06  0.2147739E+04  0.7818609E-02  0.8540501E-01
        2   -1    0    0  501    0  0.00000000000E+00  0.00000000000E+00  0.93393403096E+03  0.93393403097E+03  0.25500000920E-02 0. -1.
       -2   -1    0    0    0  501  0.00000000000E+00  0.00000000000E+00 -0.12347723217E+04  0.12347723217E+04  0.25500000920E-02 0.  1.
    10030    2    1    2    0    0  0.00000000000E+00  0.00000000000E+00 -0.30083829072E+03  0.21687063526E+04  0.21477391757E+04 0.  0.
        3    1    3    3  502    0  0.97604630676E+03 -0.44431150309E+03 -0.20679226436E+03  0.10921731344E+04  0.10100000352E+00 0.  1.
       -3    1    3    3    0  502 -0.97604630676E+03  0.44431150309E+03 -0.94046026363E+02  0.10765332182E+04  0.10100000352E+00 0. -1.
</event>
<event>
 5   0  0.1184684E-06  0.3922505E+04  0.7818609E-02  0.8020365E-01
        2   -1    0    0  501    0  0.00000000000E+00  0.00000000000E+00  0.16413044355E+04  0.16413044355E+04  0.25500000920E-02 0.  1.
       -2   -1    0    0    0  501  0.00000000000E+00  0.00000000000E+00 -0.23435701673E+04  0.23435701673E+04  0.25500000920E-02 0. -1.
    10030    2    1    2    0    0  0.00000000000E+00  0.00000000000E+00 -0.70226573186E+03  0.39848746028E+04  0.39225053782E+04 0.  0.
        4    1    3    3  502    0  0.14386172982E+04  0.39429376271E+03 -0.16447307679E+04  0.22204117216E+04  0.12699999809E+01 0. -1.
       -4    1    3    3    0  502 -0.14386172982E+04 -0.39429376271E+03  0.94246503601E+03  0.17644628811E+04  0.12699999809E+01 0.  1.
</event>
<event>
 5   0  0.5875011E-07  0.3716712E+04  0.7818609E-02  0.8064268E-01
        1   -1    0    0  501    0  0.00000000000E+00  0.00000000000E+00  0.19834080782E+04  0.19834080782E+04  0.50400001928E-02 0.  1.
       -1   -1    0    0    0  501  0.00000000000E+00  0.00000000000E+00 -0.17411887957E+04  0.17411887957E+04  0.50400001928E-02 0. -1.
    10030    2    1    2    0    0  0.00000000000E+00  0.00000000000E+00  0.24221928253E+03  0.37245968740E+04  0.37167124845E+04 0.  0.
        2    1    3    3  502    0 -0.80064173472E+03  0.11685647071E+04  0.13265400883E+04  0.19406904101E+04  0.25500000920E-02 0.  1.
       -2    1    3    3    0  502  0.80064173472E+03 -0.11685647071E+04 -0.10843208058E+04  0.17839064639E+04  0.25500000920E-02 0. -1.
</event>
<event>
 5   0  0.5679750E-07  0.1917359E+04  0.7818609E-02  0.8646264E-01
       -1   -1    0    0    0  501  0.00000000000E+00  0.00000000000E+00  0.91829189152E+03  0.91829189154E+03  0.50400001928E-02 0. -1.
        1   -1    0    0  501    0  0.00000000000E+00  0.00000000000E+00 -0.10008430563E+04  0.10008430563E+04  0.50400001928E-02 0.  1.
    10030    2    1    2    0    0  0.00000000000E+00  0.00000000000E+00 -0.82551164753E+02  0.19191349478E+04  0.19173586658E+04 0.  0.
        4    1    3    3  502    0  0.31041904734E+03  0.83639927663E+03 -0.39251479083E+03  0.97467595068E+03  0.12699999809E+01 0.  1.
       -4    1    3    3    0  502 -0.31041904734E+03 -0.83639927663E+03  0.30996362608E+03  0.94445899715E+03  0.12699999809E+01 0. -1.
</event>
<event>
 5   0  0.1680194E-06  0.3621680E+04  0.7818609E-02  0.8085544E-01
        2   -1    0    0  501    0  0.00000000000E+00  0.00000000000E+00  0.20747220872E+04  0.20747220872E+04  0.25500000920E-02 0.  1.
       -2   -1    0    0    0  501  0.00000000000E+00  0.00000000000E+00 -0.15805207407E+04  0.15805207407E+04  0.25500000920E-02 0. -1.
    10030    2    1    2    0    0  0.00000000000E+00  0.00000000000E+00  0.49420134652E+03  0.36552428280E+04  0.36216798810E+04 0.  0.
        2    1    3    3  502    0  0.37495406274E+03 -0.15152605564E+04 -0.67930339727E+03  0.17023684115E+04  0.25500000920E-02 0. -1.
       -2    1    3    3    0  502 -0.37495406274E+03  0.15152605564E+04  0.11735047438E+04  0.19528744165E+04  0.25500000920E-02 0.  1.
</event>
<event>
 5   0  0.1685793E-06  0.2280817E+04  0.7818609E-02  0.8485523E-01
       -2   -1    0    0    0  501  0.00000000000E+00  0.00000000000E+00  0.19185145887E+04  0.19185145887E+04  0.25500000920E-02 0. -1.
        2   -1    0    0  501    0  0.00000000000E+00  0.00000000000E+00 -0.67788451412E+03  0.67788451412E+03  0.25500000920E-02 0.  1.
    10030    2    1    2    0    0  0.00000000000E+00  0.00000000000E+00  0.12406300746E+04  0.25963991028E+04  0.22808168097E+04 0.  0.
        3    1    3    3  502    0  0.48512977415E+03  0.65193661009E+03  0.15311191850E+04  0.17334065335E+04  0.10100000352E+00 0. -1.
       -3    1    3    3    0  502 -0.48512977415E+03 -0.65193661009E+03 -0.29048911041E+03  0.86299256938E+03  0.10100000352E+00 0.  1.
</event>
<event>
 5   0  0.5875011E-07  0.3760437E+04  0.7818609E-02  0.8054699E-01
       -1   -1    0    0    0  501  0.00000000000E+00  0.00000000000E+00  0.16312534899E+04  0.16312534899E+04  0.50400001928E-02 0.  1.
        1   -1    0    0  501    0  0.00000000000E+00  0.00000000000E+00 -0.21671808617E+04  0.21671808617E+04  0.50400001928E-02 0. -1.
    10030    2    1    2    0    0  0.00000000000E+00  0.00000000000E+00 -0.53592737175E+03  0.37984343516E+04  0.37604368597E+04 0.  0.
        2    1    3    3  502    0  0.13088259326E+04  0.41645178735E+03 -0.15649803709E+04  0.20822154005E+04  0.25500000920E-02 0. -1.
       -2    1    3    3    0  502 -0.13088259326E+04 -0.41645178735E+03  0.10290529992E+04  0.17162189511E+04  0.25500000920E-02 0.  1.
</event>
<event>
 5   0  0.1151180E-06  0.3696691E+04  0.7818609E-02  0.8068696E-01
        2   -1    0    0  501    0  0.00000000000E+00  0.00000000000E+00  0.24479402819E+04  0.24479402820E+04  0.25500000920E-02 0. -1.
       -2   -1    0    0    0  501  0.00000000000E+00  0.00000000000E+00 -0.13956142927E+04  0.13956142927E+04  0.25500000920E-02 0.  1.
    10030    2    1    2    0    0  0.00000000000E+00  0.00000000000E+00  0.10523259893E+04  0.38435545746E+04  0.36966906525E+04 0.  0.
        5    1    3    3  502    0  0.15566810013E+04 -0.61248757235E+03 -0.29117310920E+03  0.16979990093E+04  0.46999998093E+01 0.  1.
       -5    1    3    3    0  502 -0.15566810013E+04  0.61248757235E+03  0.13434990985E+04  0.21455555653E+04  0.46999998093E+01 0. -1.
</event>
<event>
 5   0  0.5679750E-07  0.3288700E+04  0.7818609E-02  0.8165777E-01
       -1   -1    0    0    0  501  0.00000000000E+00  0.00000000000E+00  0.90157937987E+03  0.90157937988E+03  0.50400001928E-02 0.  1.
        1   -1    0    0  501    0  0.00000000000E+00  0.00000000000E+00 -0.29990565032E+04  0.29990565032E+04  0.50400001928E-02 0. -1.
    10030    2    1    2    0    0  0.00000000000E+00  0.00000000000E+00 -0.20974771233E+04  0.39006358831E+04  0.32887003527E+04 0.  0.
        4    1    3    3  502    0 -0.53256726583E+03  0.13568640554E+04 -0.19513838297E+04  0.24356946485E+04  0.12699999809E+01 0. -1.
       -4    1    3    3    0  502  0.53256726583E+03 -0.13568640554E+04 -0.14609329369E+03  0.14649412346E+04  0.12699999809E+01 0.  1.
</event>
<event>
 5   0  0.1680194E-06  0.3631090E+04  0.7818609E-02  0.8083407E-01
       -2   -1    0    0    0  501  0.00000000000E+00  0.00000000000E+00  0.14678586169E+04  0.14678586169E+04  0.25500000920E-02 0.  1.
        2   -1    0    0  501    0  0.00000000000E+00  0.00000000000E+00 -0.22455860169E+04  0.22455860169E+04  0.25500000920E-02 0. -1.
    10030    2    1    2    0    0  0.00000000000E+00  0.00000000000E+00 -0.77772740002E+03  0.37134446338E+04  0.36310895251E+04 0.  0.
        2    1    3    3  502    0  0.13318460165E+04 -0.74685989521E+03  0.61554672058E+03  0.16463630462E+04  0.25500000920E-02 0.  1.
       -2    1    3    3    0  502 -0.13318460165E+04  0.74685989521E+03 -0.13932741206E+04  0.20670815876E+04  0.25500000920E-02 0. -1.
</event>
<event>
 5   0  0.6287345E-07  0.2782164E+04  0.7818609E-02  0.8308827E-01
        1   -1    0    0  501    0  0.00000000000E+00  0.00000000000E+00  0.19123917973E+04  0.19123917973E+04  0.50400001928E-02 0.  1.
       -1   -1    0    0    0  501  0.00000000000E+00  0.00000000000E+00 -0.10118788187E+04  0.10118788187E+04  0.50400001928E-02 0. -1.
    10030    2    1    2    0    0  0.00000000000E+00  0.00000000000E+00  0.90051297854E+03  0.29242706160E+04  0.27821637283E+04 0.  0.
        5    1    3    3  502    0  0.12848974469E+04 -0.22624078462E+03 -0.57034573200E+02  0.13059178283E+04  0.46999998093E+01 0. -1.
       -5    1    3    3    0  502 -0.12848974469E+04  0.22624078462E+03  0.95754755174E+03  0.16183527877E+04  0.46999998093E+01 0.  1.
</event>
<event>
 5   0  0.6186440E-07  0.2594557E+04  0.7818609E-02  0.8370052E-01
       -1   -1    0    0    0  501  0.00000000000E+00  0.00000000000E+00  0.19431483510E+04  0.19431483510E+04  0.50400001928E-02 0.  1.
        1   -1    0    0  501    0  0.00000000000E+00  0.00000000000E+00 -0.86608518306E+03  0.86608518308E+03  0.50400001928E-02 0. -1.
    10030    2    1    2    0    0  0.00000000000E+00  0.00000000000E+00  0.10770631680E+04  0.28092335341E+04  0.25945573768E+04 0.  0.
        3    1    3    3  502    0 -0.31719170174E+03  0.48626108037E+03  0.17946378283E+04  0.18862092564E+04  0.10100000352E+00 0.  1.
       -3    1    3    3    0  502  0.31719170174E+03 -0.48626108037E+03 -0.71757466033E+03  0.92302427773E+03  0.10100000352E+00 0. -1.
</event>
<event>
 5   0  0.5679750E-07  0.3825026E+04  0.7818609E-02  0.8040806E-01
        3   -1    0    0  501    0  0.00000000000E+00  0.00000000000E+00  0.15856345323E+04  0.15856345355E+04  0.10100000352E+00 0. -1.
       -3   -1    0    0    0  501  0.00000000000E+00  0.00000000000E+00 -0.23067773926E+04  0.23067773948E+04  0.10100000352E+00 0.  1.
    10030    2    1    2    0    0  0.00000000000E+00  0.00000000000E+00 -0.72114286028E+03  0.38924119303E+04  0.38250259620E+04 0.  0.
        1    1    3    3  502    0  0.23088038960E+02 -0.14120842875E+04  0.95179600722E+03  0.17030650991E+04  0.50400001928E-02 0. -1.
       -1    1    3    3    0  502 -0.23088038960E+02  0.14120842875E+04 -0.16729388675E+04  0.21893468311E+04  0.50400001928E-02 0.  1.
</event>
<event>
 5   0  0.6261598E-07  0.3598278E+04  0.7818609E-02  0.8090886E-01
        1   -1    0    0  501    0  0.00000000000E+00  0.00000000000E+00  0.17985187482E+04  0.17985187482E+04  0.50400001928E-02 0. -1.
       -1   -1    0    0    0  501  0.00000000000E+00  0.00000000000E+00 -0.17997598239E+04  0.17997598239E+04  0.50400001928E-02 0.  1.
    10030    2    1    2    0    0  0.00000000000E+00  0.00000000000E+00 -0.12410757143E+01  0.35982785722E+04  0.35982783581E+04 0.  0.
        1    1    3    3  502    0  0.58844631354E+03  0.33071512762E+03 -0.16683317110E+04  0.17997144933E+04  0.50400001928E-02 0.  1.
       -1    1    3    3    0  502 -0.58844631354E+03 -0.33071512762E+03  0.16670906353E+04  0.17985640789E+04  0.50400001928E-02 0. -1.
</event>
<event>
 5   0  0.1724503E-06  0.3779246E+04  0.7818609E-02  0.8050623E-01
        2   -1    0    0  501    0  0.00000000000E+00  0.00000000000E+00  0.12671529519E+04  0.12671529519E+04  0.25500000920E-02 0.  1.
       -2   -1    0    0    0  501  0.00000000000E+00  0.00000000000E+00 -0.28178727665E+04  0.28178727665E+04  0.25500000920E-02 0. -1.
    10030    2    1    2    0    0  0.00000000000E+00  0.00000000000E+00 -0.15507198146E+04  0.40850257184E+04  0.37792463768E+04 0.  0.
        1    1    3    3  502    0  0.13975494915E+04 -0.34656344677E+03 -0.20980622662E+04  0.25446249383E+04  0.50400001928E-02 0. -1.
       -1    1    3    3    0  502 -0.13975494915E+04  0.34656344677E+03  0.54734245161E+03  0.15404007801E+04  0.50400001928E-02 0.  1.
</event>
<event>
 5   0  0.1685793E-06  0.3671400E+04  0.7818609E-02  0.8074330E-01
       -2   -1    0    0    0  501  0.00000000000E+00  0.00000000000E+00  0.11991202114E+04  0.11991202114E+04  0.25500000920E-02 0.  1.
        2   -1    0    0  501    0  0.00000000000E+00  0.00000000000E+00 -0.28102228998E+04  0.28102228998E+04  0.25500000920E-02 0. -1.
    10030    2    1    2    0    0  0.00000000000E+00  0.00000000000E+00 -0.16111026884E+04  0.40093431112E+04  0.36714003202E+04 0.  0.
        3    1    3    3  502    0 -0.53921181639E+02  0.14974582005E+03  0.11915712719E+04  0.12021536552E+04  0.10100000352E+00 0.  1.
       -3    1    3    3    0  502  0.53921181639E+02 -0.14974582005E+03 -0.28026739602E+04  0.28071894560E+04  0.10100000352E+00 0. -1.
</event>
<event>
 5   0  0.5679750E-07  0.3655995E+04  0.7818609E-02  0.8077784E-01
       -1   -1    0    0    0  501  0.00000000000E+00  0.00000000000E+00  0.15263397791E+04  0.15263397791E+04  0.50400001928E-02 0. -1.
        1   -1    0    0  501    0  0.00000000000E+00  0.00000000000E+00 -0.21892735211E+04  0.21892735211E+04  0.50400001928E-02 0.  1.
    10030    2    1    2    0    0  0.00000000000E+00  0.00000000000E+00 -0.66293374203E+03  0.37156133003E+04  0.36559952203E+04 0.  0.
        4    1    3    3  502    0 -0.88942466655E+02  0.15247381308E+04 -0.13522542391E+04  0.20399338886E+04  0.12699999809E+01 0. -1.
       -4    1    3    3    0  502  0.88942466655E+02 -0.15247381308E+04  0.68932049709E+03  0.16756794116E+04  0.12699999809E+01 0.  1.
</event>
<event>
 5   0  0.6287345E-07  0.2383659E+04  0.7818609E-02  0.8445647E-01
        1   -1    0    0  501    0  0.00000000000E+00  0.00000000000E+00  0.10333949588E+04  0.10333949588E+04  0.50400001928E-02 0. -1.
       -1   -1    0    0    0  501  0.00000000000E+00  0.00000000000E+00 -0.13745541434E+04  0.13745541434E+04  0.50400001928E-02 0.  1.
    10030    2    1    2    0    0  0.00000000000E+00  0.00000000000E+00 -0.34115918458E+03  0.24079491022E+04  0.23836588031E+04 0.  0.
        5    1    3    3  502    0  0.10419408379E+04 -0.38766237271E+03 -0.60450591908E+03  0.12654534053E+04  0.46999998093E+01 0.  1.
       -5    1    3    3    0  502 -0.10419408379E+04  0.38766237271E+03  0.26334673449E+03  0.11424956969E+04  0.46999998093E+01 0. -1.
</event>
<event>
 5   0  0.1184684E-06  0.3677240E+04  0.7818609E-02  0.8073024E-01
        2   -1    0    0  501    0  0.00000000000E+00  0.00000000000E+00  0.28267332965E+04  0.28267332965E+04  0.25500000920E-02 0.  1.
       -2   -1    0    0    0  501  0.00000000000E+00  0.00000000000E+00 -0.11959120449E+04  0.11959120449E+04  0.25500000920E-02 0. -1.
    10030    2    1    2    0    0  0.00000000000E+00  0.00000000000E+00  0.16308212516E+04  0.40226453415E+04  0.36772404855E+04 0.  0.
        4    1    3    3  502    0 -0.32739871531E+03  0.15979878231E+04 -0.11267044137E+03  0.16350691860E+04  0.12699999809E+01 0. -1.
       -4    1    3    3    0  502  0.32739871531E+03 -0.15979878231E+04  0.17434916930E+04  0.23875761555E+04  0.12699999809E+01 0.  1.
</event>
<event>
 5   0  0.1151180E-06  0.2831261E+04  0.7818609E-02  0.8293628E-01
        2   -1    0    0  501    0  0.00000000000E+00  0.00000000000E+00  0.21031487336E+04  0.21031487336E+04  0.25500000920E-02 0. -1.
       -2   -1    0    0    0  501  0.00000000000E+00  0.00000000000E+00 -0.95286143340E+03  0.95286143340E+03  0.25500000920E-02 0.  1.
    10030    2    1    2    0    0  0.00000000000E+00  0.00000000000E+00  0.11502873002E+04  0.30560101670E+04  0.28312607206E+04 0.  0.
        5    1    3    3  502    0 -0.11328347261E+04 -0.26157629856E+03 -0.29658668286E+03  0.11998843390E+04  0.46999998093E+01 0.  1.
       -5    1    3    3    0  502  0.11328347261E+04  0.26157629856E+03  0.14468739831E+04  0.18561258280E+04  0.46999998093E+01 0. -1.
</event>
<event>
 5   0  0.5679750E-07  0.3984675E+04  0.7818609E-02  0.8007645E-01
        1   -1    0    0  501    0  0.00000000000E+00  0.00000000000E+00  0.23054355339E+04  0.23054355339E+04  0.50400001928E-02 0. -1.
       -1   -1    0    0    0  501  0.00000000000E+00  0.00000000000E+00 -0.17217611961E+04  0.17217611961E+04  0.50400001928E-02 0.  1.
    10030    2    1    2    0    0  0.00000000000E+00  0.00000000000E+00  0.58367433774E+03  0.40271967300E+04  0.39846753656E+04 0.  0.
        4    1    3    3  502    0 -0.15028182963E+04 -0.17471358696E+03  0.16019805957E+04  0.22034815886E+04  0.12699999809E+01 0. -1.
       -4    1    3    3    0  502  0.15028182963E+04  0.17471358696E+03 -0.10183062579E+04  0.18237151414E+04  0.12699999809E+01 0.  1.
</event>
<event>
 5   0  0.1151180E-06  0.3569942E+04  0.7818609E-02  0.8097412E-01
        2   -1    0    0  501    0  0.00000000000E+00  0.00000000000E+00  0.13895513109E+04  0.13895513109E+04  0.25500000920E-02 0. -1.
       -2   -1    0    0    0  501  0.00000000000E+00  0.00000000000E+00 -0.22929135431E+04  0.22929135431E+04  0.25500000920E-02 0.  1.
    10030    2    1    2    0    0  0.00000000000E+00  0.00000000000E+00 -0.90336223224E+03  0.36824648540E+04  0.35699417472E+04 0.  0.
        5    1    3    3  502    0 -0.37653509782E+02  0.72010554998E+03  0.12326135442E+04  0.14280504295E+04  0.46999998093E+01 0. -1.
       -5    1    3    3    0  502  0.37653509782E+02 -0.72010554998E+03 -0.21359757764E+04  0.22544144245E+04  0.46999998093E+01 0.  1.
</event>
<event>
 5   0  0.1724503E-06  0.3546221E+04  0.7818609E-02  0.8102923E-01
        2   -1    0    0  501    0  0.00000000000E+00  0.00000000000E+00  0.26806352028E+04  0.26806352028E+04  0.25500000920E-02 0. -1.
       -2   -1    0    0    0  501  0.00000000000E+00  0.00000000000E+00 -0.11728268153E+04  0.11728268153E+04  0.25500000920E-02 0.  1.
    10030    2    1    2    0    0  0.00000000000E+00  0.00000000000E+00  0.15078083875E+04  0.38534620181E+04  0.35462210015E+04 0.  0.
        1    1    3    3  502    0 -0.67907918067E+03  0.14357316256E+04  0.16105224737E+04  0.22619143380E+04  0.50400001928E-02 0. -1.
       -1    1    3    3    0  502  0.67907918067E+03 -0.14357316256E+04 -0.10271408613E+03  0.15915476800E+04  0.50400001928E-02 0.  1.
</event>
<event>
 5   0  0.5679750E-07  0.1919043E+04  0.7818609E-02  0.8645435E-01
        4   -1    0    0  501    0  0.00000000000E+00  0.00000000000E+00  0.96404900324E+03  0.96404983976E+03  0.12699999809E+01 0. -1.
       -4   -1    0    0    0  501  0.00000000000E+00  0.00000000000E+00 -0.95501337975E+03  0.95501422419E+03  0.12699999809E+01 0.  1.
    10030    2    1    2    0    0  0.00000000000E+00  0.00000000000E+00  0.90356234869E+01  0.19190640640E+04  0.19190427924E+04 0.  0.
        5    1    3    3  502    0  0.49222658338E+03 -0.81872307612E+03  0.94322676885E+02  0.95995486463E+03  0.46999998093E+01 0. -1.
       -5    1    3    3    0  502 -0.49222658338E+03  0.81872307612E+03 -0.85287053398E+02  0.95910919933E+03  0.46999998093E+01 0.  1.
</event>
<event>
 5   0  0.1151180E-06  0.3664309E+04  0.7818609E-02  0.8075918E-01
       -2   -1    0    0    0  501  0.00000000000E+00  0.00000000000E+00  0.14626060042E+04  0.14626060042E+04  0.25500000920E-02 0. -1.
        2   -1    0    0  501    0  0.00000000000E+00  0.00000000000E+00 -0.22950745926E+04  0.22950745926E+04  0.25500000920E-02 0.  1.
    10030    2    1    2    0    0  0.00000000000E+00  0.00000000000E+00 -0.83246858837E+03  0.37576805968E+04  0.36643088730E+04 0.  0.
        5    1    3    3  502    0 -0.10686072498E+04 -0.14839681632E+04 -0.53173111652E+03  0.19044272194E+04  0.46999998093E+01 0. -1.
       -5    1    3    3    0  502  0.10686072498E+04  0.14839681632E+04 -0.30073747185E+03  0.18532533774E+04  0.46999998093E+01 0.  1.
</event>
<event>
 5   0  0.1680194E-06  0.3769054E+04  0.7818609E-02  0.8052829E-01
       -2   -1    0    0    0  501  0.00000000000E+00  0.00000000000E+00  0.14822194279E+04  0.14822194279E+04  0.25500000920E-02 0.  1.
        2   -1    0    0  501    0  0.00000000000E+00  0.00000000000E+00 -0.23960302533E+04  0.23960302533E+04  0.25500000920E-02 0. -1.
    10030    2    1    2    0    0  0.00000000000E+00  0.00000000000E+00 -0.91381082531E+03  0.38782496812E+04  0.37690543065E+04 0.  0.
        2    1    3    3  502    0  0.18314080550E+04  0.35747340009E+02 -0.91257748854E+03  0.20464923672E+04  0.25500000920E-02 0.  1.
       -2    1    3    3    0  502 -0.18314080550E+04 -0.35747340009E+02 -0.12333367722E+01  0.18317573140E+04  0.25500000920E-02 0. -1.
</event>
<event>
 5   0  0.6287345E-07  0.3178685E+04  0.7818609E-02  0.8194469E-01
       -1   -1    0    0    0  501  0.00000000000E+00  0.00000000000E+00  0.10149063952E+04  0.10149063952E+04  0.50400001928E-02 0. -1.
        1   -1    0    0  501    0  0.00000000000E+00  0.00000000000E+00 -0.24889090292E+04  0.24889090293E+04  0.50400001928E-02 0.  1.
    10030    2    1    2    0    0  0.00000000000E+00  0.00000000000E+00 -0.14740026340E+04  0.35038154245E+04  0.31786850683E+04 0.  0.
        5    1    3    3  502    0  0.11021203046E+04  0.94609044228E+03 -0.14481511154E+04  0.20510777737E+04  0.46999998093E+01 0.  1.
       -5    1    3    3    0  502 -0.11021203046E+04 -0.94609044228E+03 -0.25851518656E+02  0.14527376507E+04  0.46999998093E+01 0. -1.
</event>
<event>
 5   0  0.6261598E-07  0.2585129E+04  0.7818609E-02  0.8373270E-01
       -1   -1    0    0    0  501  0.00000000000E+00  0.00000000000E+00  0.92525361539E+03  0.92525361541E+03  0.50400001928E-02 0. -1.
        1   -1    0    0  501    0  0.00000000000E+00  0.00000000000E+00 -0.18056920573E+04  0.18056920573E+04  0.50400001928E-02 0.  1.
    10030    2    1    2    0    0  0.00000000000E+00  0.00000000000E+00 -0.88043844193E+03  0.27309456727E+04  0.25851290911E+04 0.  0.
        1    1    3    3  502    0 -0.65026948490E+03 -0.61446298425E+03 -0.14257434350E+04  0.16831991874E+04  0.50400001928E-02 0.  1.
       -1    1    3    3    0  502  0.65026948490E+03  0.61446298425E+03  0.54530499308E+03  0.10477464853E+04  0.50400001928E-02 0. -1.
</event>
<event>
 5   0  0.1685793E-06  0.3609406E+04  0.7818609E-02  0.8088341E-01
        2   -1    0    0  501    0  0.00000000000E+00  0.00000000000E+00  0.13251778323E+04  0.13251778323E+04  0.25500000920E-02 0.  1.
       -2   -1    0    0    0  501  0.00000000000E+00  0.00000000000E+00 -0.24577472440E+04  0.24577472440E+04  0.25500000920E-02 0. -1.
    10030    2    1    2    0    0  0.00000000000E+00  0.00000000000E+00 -0.11325694117E+04  0.37829250763E+04  0.36094055828E+04 0.  0.
        3    1    3    3  502    0 -0.10618846502E+04  0.12763113103E+03 -0.20898052749E+04  0.23475891491E+04  0.10100000352E+00 0. -1.
       -3    1    3    3    0  502  0.10618846502E+04 -0.12763113103E+03  0.95723586317E+03  0.14353359272E+04  0.10100000352E+00 0.  1.
</event>
<event>
 5   0  0.6261598E-07  0.3225321E+04  0.7818609E-02  0.8182162E-01
        1   -1    0    0  501    0  0.00000000000E+00  0.00000000000E+00  0.18062053294E+04  0.18062053294E+04  0.50400001928E-02 0.  1.
       -1   -1    0    0    0  501  0.00000000000E+00  0.00000000000E+00 -0.14398548430E+04  0.14398548430E+04  0.50400001928E-02 0. -1.
    10030    2    1    2    0    0  0.00000000000E+00  0.00000000000E+00  0.36635048636E+03  0.32460601724E+04  0.32253207537E+04 0.  0.
        1    1    3    3  502    0 -0.40608100084E+03 -0.73511489461E+03  0.15687550653E+04  0.17794066827E+04  0.50400001928E-02 0.  1.
       -1    1    3    3    0  502  0.40608100084E+03  0.73511489461E+03 -0.12024045789E+04  0.14666534897E+04  0.50400001928E-02 0. -1.
</event>
<event>
 5   0  0.1680194E-06  0.3653737E+04  0.7818609E-02  0.8078292E-01
       -2   -1    0    0    0  501  0.00000000000E+00  0.00000000000E+00  0.17206017583E+04  0.17206017583E+04  0.25500000920E-02 0. -1.
        2   -1    0    0  501    0  0.00000000000E+00  0.00000000000E+00 -0.19396979883E+04  0.19396979883E+04  0.25500000920E-02 0.  1.
    10030    2    1    2    0    0  0.00000000000E+00  0.00000000000E+00 -0.21909622998E+03  0.36602997466E+04  0.36537365911E+04 0.  0.
        2    1    3    3  502    0  0.70910988933E+03  0.14817345097E+04  0.69130877452E+03  0.17822126175E+04  0.25500000920E-02 0. -1.
       -2    1    3    3    0  502 -0.70910988933E+03 -0.14817345097E+04 -0.91040500450E+03  0.18780871291E+04  0.25500000920E-02 0.  1.
</event>
<event>
 5   0  0.1680194E-06  0.1844147E+04  0.7818609E-02  0.8683168E-01
        2   -1    0    0  501    0  0.00000000000E+00  0.00000000000E+00  0.23849143353E+04  0.23849143353E+04  0.25500000920E-02 0.  1.
       -2   -1    0    0    0  501  0.00000000000E+00  0.00000000000E+00 -0.35649915857E+03  0.35649915858E+03  0.25500000920E-02 0. -1.
    10030    2    1    2    0    0  0.00000000000E+00  0.00000000000E+00  0.20284151767E+04  0.27414134939E+04  0.18441474494E+04 0.  0.
        2    1    3    3  502    0  0.14901684560E+03  0.80643267198E+03  0.16408193144E+04  0.18343466677E+04  0.25500000920E-02 0.  1.
       -2    1    3    3    0  502 -0.14901684560E+03 -0.80643267198E+03  0.38759586234E+03  0.90706682621E+03  0.25500000920E-02 0. -1.
</event>
<event>
 5   0  0.5679750E-07  0.2454130E+04  0.7818609E-02  0.8419512E-01
        1   -1    0    0  501    0  0.00000000000E+00  0.00000000000E+00  0.16214965823E+04  0.16214965823E+04  0.50400001928E-02 0. -1.
       -1   -1    0    0    0  501  0.00000000000E+00  0.00000000000E+00 -0.92857946238E+03  0.92857946239E+03  0.50400001928E-02 0.  1.
    10030    2    1    2    0    0  0.00000000000E+00  0.00000000000E+00  0.69291711992E+03  0.25500760447E+04  0.24541299270E+04 0.  0.
        4    1    3    3  502    0 -0.44918785858E+03  0.10537765185E+04  0.80350968781E+03  0.13992298290E+04  0.12699999809E+01 0. -1.
       -4    1    3    3    0  502  0.44918785858E+03 -0.10537765185E+04 -0.11059256789E+03  0.11508462157E+04  0.12699999809E+01 0.  1.
</event>
<event>
 5   0  0.1685793E-06  0.3749322E+04  0.7818609E-02  0.8057119E-01
        2   -1    0    0  501    0  0.00000000000E+00  0.00000000000E+00  0.14544865785E+04  0.14544865785E+04  0.25500000920E-02 0.  1.
       -2   -1    0    0    0  501  0.00000000000E+00  0.00000000000E+00 -0.24162157781E+04  0.24162157781E+04  0.25500000920E-02 0. -1.
    10030    2    1    2    0    0  0.00000000000E+00  0.00000000000E+00 -0.96172919964E+03  0.38707023566E+04  0.37493217627E+04 0.  0.
        3    1    3    3  502    0  0.15524267775E+04 -0.92705539159E+03 -0.99175187118E+03  0.20622881425E+04  0.10100000352E+00 0. -1.
       -3    1    3    3    0  502 -0.15524267775E+04  0.92705539159E+03  0.30022671540E+02  0.18084142141E+04  0.10100000352E+00 0.  1.
</event>
<event>
 5   0  0.1680194E-06  0.3272024E+04  0.7818609E-02  0.8170051E-01
        2   -1    0    0  501    0  0.00000000000E+00  0.00000000000E+00  0.17360139714E+04  0.17360139714E+04  0.25500000920E-02 0.  1.
       -2   -1    0    0    0  501  0.00000000000E+00  0.00000000000E+00 -0.15417705253E+04  0.15417705253E+04  0.25500000920E-02 0. -1.
    10030    2    1    2    0    0  0.00000000000E+00  0.00000000000E+00  0.19424344613E+03  0.32777844968E+04  0.32720239441E+04 0.  0.
        2    1    3    3  502    0  0.30902884784E+03 -0.73368295152E+02 -0.15105879956E+04  0.15436184205E+04  0.25500000920E-02 0. -1.
       -2    1    3    3    0  502 -0.30902884784E+03  0.73368295152E+02  0.17048314417E+04  0.17341660763E+04  0.25500000920E-02 0.  1.
</event>
<event>
 5   0  0.6261598E-07  0.1934455E+04  0.7818609E-02  0.8637894E-01
        1   -1    0    0  501    0  0.00000000000E+00  0.00000000000E+00  0.47687051556E+03  0.47687051559E+03  0.50400001928E-02 0. -1.
       -1   -1    0    0    0  501  0.00000000000E+00  0.00000000000E+00 -0.19618090088E+04  0.19618090088E+04  0.50400001928E-02 0.  1.
    10030    2    1    2    0    0  0.00000000000E+00  0.00000000000E+00 -0.14849384933E+04  0.24386795244E+04  0.19344548312E+04 0.  0.
        1    1    3    3  502    0  0.29267682651E+03 -0.56515031938E+03 -0.16606502395E+04  0.17784301578E+04  0.50400001928E-02 0.  1.
       -1    1    3    3    0  502 -0.29267682651E+03  0.56515031938E+03  0.17571174625E+03  0.66024936658E+03  0.50400001928E-02 0. -1.
</event>
<event>
 5   0  0.6261598E-07  0.2083921E+04  0.7818609E-02  0.8568360E-01
        1   -1    0    0  501    0  0.00000000000E+00  0.00000000000E+00  0.23319073874E+04  0.23319073874E+04  0.50400001928E-02 0.  1.
       -1   -1    0    0    0  501  0.00000000000E+00  0.00000000000E+00 -0.46557666160E+03  0.46557666163E+03  0.50400001928E-02 0. -1.
    10030    2    1    2    0    0  0.00000000000E+00  0.00000000000E+00  0.18663307258E+04  0.27974840490E+04  0.20839209741E+04 0.  0.
        1    1    3    3  502    0  0.76154127798E+03  0.36176430165E+03  0.17550724701E+04  0.19470741905E+04  0.50400001928E-02 0.  1.
       -1    1    3    3    0  502 -0.76154127798E+03 -0.36176430165E+03  0.11125825572E+03  0.85040985854E+03  0.50400001928E-02 0. -1.
</event>
<event>
 5   0  0.5875011E-07  0.2120035E+04  0.7818609E-02  0.8552469E-01
       -1   -1    0    0    0  501  0.00000000000E+00  0.00000000000E+00  0.74839259687E+03  0.74839259689E+03  0.50400001928E-02 0.  1.
        1   -1    0    0  501    0  0.00000000000E+00  0.00000000000E+00 -0.15013999845E+04  0.15013999845E+04  0.50400001928E-02 0. -1.
    10030    2    1    2    0    0  0.00000000000E+00  0.00000000000E+00 -0.75300738764E+03  0.22497925814E+04  0.21200345595E+04 0.  0.
        2    1    3    3  502    0 -0.33577344184E+03 -0.87939419740E+03  0.14072783073E+03  0.95177848316E+03  0.25500000920E-02 0.  1.
       -2    1    3    3    0  502  0.33577344184E+03  0.87939419740E+03 -0.89373521837E+03  0.12980140982E+04  0.25500000920E-02 0. -1.
</event>
<event>
 5   0  0.1685793E-06  0.2030334E+04  0.7818609E-02  0.8592568E-01
       -2   -1    0    0    0  501  0.00000000000E+00  0.00000000000E+00  0.10745249903E+04  0.10745249903E+04  0.25500000920E-02 0.  1.
        2   -1    0    0  501    0  0.00000000000E+00  0.00000000000E+00 -0.95908841165E+03  0.95908841165E+03  0.25500000920E-02 0. -1.
    10030    2    1    2    0    0  0.00000000000E+00  0.00000000000E+00  0.11543657864E+03  0.20336134019E+04  0.20303344219E+04 0.  0.
        3    1    3    3  502    0 -0.34965773085E+03  0.69941633499E+03  0.70615916292E+03  0.10536149733E+04  0.10100000352E+00 0.  1.
       -3    1    3    3    0  502  0.34965773085E+03 -0.69941633499E+03 -0.59072258427E+03  0.97999842865E+03  0.10100000352E+00 0. -1.
</event>
<event>
 5   0  0.1680194E-06  0.3157842E+04  0.7818609E-02  0.8200041E-01
        2   -1    0    0  501    0  0.00000000000E+00  0.00000000000E+00  0.29042101335E+04  0.29042101335E+04  0.25500000920E-02 0. -1.
       -2   -1    0    0    0  501  0.00000000000E+00  0.00000000000E+00 -0.85840602736E+03  0.85840602736E+03  0.25500000920E-02 0.  1.
    10030    2    1    2    0    0  0.00000000000E+00  0.00000000000E+00  0.20458041061E+04  0.37626161609E+04  0.31578419741E+04 0.  0.
        2    1    3    3  502    0 -0.12272943898E+04  0.70510544979E+03  0.18565933484E+04  0.23346014811E+04  0.25500000920E-02 0. -1.
       -2    1    3    3    0  502  0.12272943898E+04 -0.70510544979E+03  0.18921075778E+03  0.14280146797E+04  0.25500000920E-02 0.  1.
</event>
<event>
 5   0  0.1184684E-06  0.1946260E+04  0.7818609E-02  0.8632166E-01
        2   -1    0    0  501    0  0.00000000000E+00  0.00000000000E+00  0.12964358764E+04  0.12964358764E+04  0.25500000920E-02 0. -1.
       -2   -1    0    0    0  501  0.00000000000E+00  0.00000000000E+00 -0.73045031497E+03  0.73045031498E+03  0.25500000920E-02 0.  1.
    10030    2    1    2    0    0  0.00000000000E+00  0.00000000000E+00  0.56598556141E+03  0.20268861914E+04  0.19462599973E+04 0.  0.
        4    1    3    3  502    0 -0.78242460293E+03  0.49975692085E+03 -0.20695287215E+02  0.92864156003E+03  0.12699999809E+01 0.  1.
       -4    1    3    3    0  502  0.78242460293E+03 -0.49975692085E+03  0.58668084863E+03  0.10982446313E+04  0.12699999809E+01 0. -1.
</event>
<event>
 5   0  0.1151180E-06  0.3693061E+04  0.7818609E-02  0.8069501E-01
        2   -1    0    0  501    0  0.00000000000E+00  0.00000000000E+00  0.12029295656E+04  0.12029295656E+04  0.25500000920E-02 0. -1.
       -2   -1    0    0    0  501  0.00000000000E+00  0.00000000000E+00 -0.28344753806E+04  0.28344753806E+04  0.25500000920E-02 0.  1.
    10030    2    1    2    0    0  0.00000000000E+00  0.00000000000E+00 -0.16315458150E+04  0.40374049462E+04  0.36930606485E+04 0.  0.
        5    1    3    3  502    0 -0.61150281023E+03  0.77518881864E+03  0.89010288612E+03  0.13293451882E+04  0.46999998093E+01 0. -1.
       -5    1    3    3    0  502  0.61150281023E+03 -0.77518881864E+03 -0.25216487011E+04  0.27080597580E+04  0.46999998093E+01 0.  1.
</event>
<event>
 5   0  0.6287345E-07  0.3702118E+04  0.7818609E-02  0.8067493E-01
        1   -1    0    0  501    0  0.00000000000E+00  0.00000000000E+00  0.13285629379E+04  0.13285629380E+04  0.50400001928E-02 0.  1.
       -1   -1    0    0    0  501  0.00000000000E+00  0.00000000000E+00 -0.25790411768E+04  0.25790411768E+04  0.50400001928E-02 0. -1.
    10030    2    1    2    0    0  0.00000000000E+00  0.00000000000E+00 -0.12504782389E+04  0.39076041148E+04  0.37021175146E+04 0.  0.
        5    1    3    3  502    0  0.30437136526E+03 -0.13371164305E+04 -0.19375823229E+04  0.23737669693E+04  0.46999998093E+01 0. -1.
       -5    1    3    3    0  502 -0.30437136526E+03  0.13371164305E+04  0.68710408397E+03  0.15338371455E+04  0.46999998093E+01 0.  1.
</event>
<event>
 5   0  0.1724503E-06  0.3527887E+04  0.7818609E-02  0.8107213E-01
       -2   -1    0    0    0  501  0.00000000000E+00  0.00000000000E+00  0.15523112646E+04  0.15523112646E+04  0.25500000920E-02 0. -1.
        2   -1    0    0  501    0  0.00000000000E+00  0.00000000000E+00 -0.20044285600E+04  0.20044285600E+04  0.25500000920E-02 0.  1.
    10030    2    1    2    0    0  0.00000000000E+00  0.00000000000E+00 -0.45211729537E+03  0.35567398246E+04  0.35278872050E+04 0.  0.
        1    1    3    3  502    0 -0.23602049430E+03 -0.51181625053E+02 -0.19876818742E+04  0.20022997941E+04  0.50400001928E-02 0.  1.
       -1    1    3    3    0  502  0.23602049430E+03  0.51181625053E+02  0.15355645789E+04  0.15544400305E+04  0.50400001928E-02 0. -1.
</event>
<event>
 5   0  0.1680194E-06  0.3355713E+04  0.7818609E-02  0.8148862E-01
        2   -1    0    0  501    0  0.00000000000E+00  0.00000000000E+00  0.15160092943E+04  0.15160092943E+04  0.25500000920E-02 0. -1.
       -2   -1    0    0    0  501  0.00000000000E+00  0.00000000000E+00 -0.18569823859E+04  0.18569823859E+04  0.25500000920E-02 0.  1.
    10030    2    1    2    0    0  0.00000000000E+00  0.00000000000E+00 -0.34097309155E+03  0.33729916802E+04  0.33557130726E+04 0.  0.
        2    1    3    3  502    0  0.98505065092E+03  0.23723422561E+03  0.11737843110E+04  0.15506045503E+04  0.25500000920E-02 0. -1.
       -2    1    3    3    0  502 -0.98505065092E+03 -0.23723422561E+03 -0.15147574025E+04  0.18223871299E+04  0.25500000920E-02 0.  1.
</event>
<event>
 5   0  0.6383060E-07  0.2112956E+04  0.7818609E-02  0.8555557E-01
       -1   -1    0    0    0  501  0.00000000000E+00  0.00000000000E+00  0.95135672254E+03  0.95135672256E+03  0.50400001928E-02 0.  1.
        1   -1    0    0  501    0  0.00000000000E+00  0.00000000000E+00 -0.11732151138E+04  0.11732151138E+04  0.50400001928E-02 0. -1.
    10030    2    1    2    0    0  0.00000000000E+00  0.00000000000E+00 -0.22185839127E+03  0.21245718364E+04  0.21129563039E+04 0.  0.
        4    1    3    3  502    0 -0.66423694537E+02 -0.30805470788E+03  0.90299637380E+03  0.95640675146E+03  0.12699999809E+01 0.  1.
       -4    1    3    3    0  502  0.66423694537E+02  0.30805470788E+03 -0.11248547651E+04  0.11681650849E+04  0.12699999809E+01 0. -1.
</event>
<event>
 5   0  0.6261598E-07  0.2824716E+04  0.7818609E-02  0.8295636E-01
       -1   -1    0    0    0  501  0.00000000000E+00  0.00000000000E+00  0.15568476812E+04  0.15568476812E+04  0.50400001928E-02 0.  1.
        1   -1    0    0  501    0  0.00000000000E+00  0.00000000000E+00 -0.12812785304E+04  0.12812785305E+04  0.50400001928E-02 0. -1.
    10030    2    1    2    0    0  0.00000000000E+00  0.00000000000E+00  0.27556915078E+03  0.28381262117E+04  0.28247162754E+04 0.  0.
        1    1    3    3  502    0  0.13281908196E+04  0.34831725091E+03 -0.19445082672E+03  0.13868045589E+04  0.50400001928E-02 0. -1.
       -1    1    3    3    0  502 -0.13281908196E+04 -0.34831725091E+03  0.47001997750E+03  0.14513216528E+04  0.50400001928E-02 0.  1.
</event>
<event>
 5   0  0.5875011E-07  0.3108899E+04  0.7818609E-02  0.8213300E-01
        1   -1    0    0  501    0  0.00000000000E+00  0.00000000000E+00  0.11723737715E+04  0.11723737715E+04  0.50400001928E-02 0.  1.
       -1   -1    0    0    0  501  0.00000000000E+00  0.00000000000E+00 -0.20610433247E+04  0.20610433247E+04  0.50400001928E-02 0. -1.
    10030    2    1    2    0    0  0.00000000000E+00  0.00000000000E+00 -0.88866955325E+03  0.32334170962E+04  0.31088989278E+04 0.  0.
        2    1    3    3  502    0  0.97625541385E+03  0.12890600941E+03  0.80659410991E+03  0.12729043367E+04  0.25500000920E-02 0.  1.
       -2    1    3    3    0  502 -0.97625541385E+03 -0.12890600941E+03 -0.16952636632E+04  0.19605127595E+04  0.25500000920E-02 0. -1.
</event>
<event>
 5   0  0.6287345E-07  0.4286808E+04  0.7818609E-02  0.7949062E-01
       -1   -1    0    0    0  501  0.00000000000E+00  0.00000000000E+00  0.22390015812E+04  0.22390015812E+04  0.50400001928E-02 0. -1.
        1   -1    0    0  501    0  0.00000000000E+00  0.00000000000E+00 -0.20518878261E+04  0.20518878261E+04  0.50400001928E-02 0.  1.
    10030    2    1    2    0    0  0.00000000000E+00  0.00000000000E+00  0.18711375514E+03  0.42908894073E+04  0.42868077106E+04 0.  0.
        5    1    3    3  502    0  0.14967516833E+03 -0.79537946467E+03 -0.18930562508E+04  0.20588140294E+04  0.46999998093E+01 0.  1.
       -5    1    3    3    0  502 -0.14967516833E+03  0.79537946467E+03  0.20801700060E+04  0.22320753779E+04  0.46999998093E+01 0. -1.
</event>
<event>
 5   0  0.5679750E-07  0.1829417E+04  0.7818609E-02  0.8690810E-01
        1   -1    0    0  501    0  0.00000000000E+00  0.00000000000E+00  0.73163929184E+03  0.73163929186E+03  0.50400001928E-02 0. -1.
       -1   -1    0    0    0  501  0.00000000000E+00  0.00000000000E+00 -0.11435852102E+04  0.11435852102E+04  0.50400001928E-02 0.  1.
    10030    2    1    2    0    0  0.00000000000E+00  0.00000000000E+00 -0.41194591837E+03  0.18752245021E+04  0.18294172552E+04 0.  0.
        4    1    3    3  502    0  0.13500202445E+03  0.15733113662E+03  0.70723958639E+03  0.73699937491E+03  0.12699999809E+01 0. -1.
       -4    1    3    3    0  502 -0.13500202445E+03 -0.15733113662E+03 -0.11191855048E+04  0.11382251272E+04  0.12699999809E+01 0.  1.
</event>
<event>
 5   0  0.1685793E-06  0.3782318E+04  0.7818609E-02  0.8049960E-01
       -2   -1    0    0    0  501  0.00000000000E+00  0.00000000000E+00  0.21384887077E+04  0.21384887077E+04  0.25500000920E-02 0. -1.
        2   -1    0    0  501    0  0.00000000000E+00  0.00000000000E+00 -0.16724348181E+04  0.16724348181E+04  0.25500000920E-02 0.  1.
    10030    2    1    2    0    0  0.00000000000E+00  0.00000000000E+00  0.46605388961E+03  0.38109235258E+04  0.37823183224E+04 0.  0.
        3    1    3    3  502    0 -0.31549510058E+02 -0.65320713310E+03 -0.15548813926E+04  0.16868109217E+04  0.10100000352E+00 0.  1.
       -3    1    3    3    0  502  0.31549510058E+02  0.65320713310E+03  0.20209352822E+04  0.21241126042E+04  0.10100000352E+00 0. -1.
</event>
<event>
 5   0  0.6287345E-07  0.3566796E+04  0.7818609E-02  0.8098140E-01
        1   -1    0    0  501    0  0.00000000000E+00  0.00000000000E+00  0.16093516434E+04  0.16093516435E+04  0.50400001928E-02 0. -1.
       -1   -1    0    0    0  501  0.00000000000E+00  0.00000000000E+00 -0.19762673512E+04  0.19762673512E+04  0.50400001928E-02 0.  1.
    10030    2    1    2    0    0  0.00000000000E+00  0.00000000000E+00 -0.36691570779E+03  0.35856189947E+04  0.35667963831E+04 0.  0.
        5    1    3    3  502    0 -0.11769296104E+04  0.92121011555E+03 -0.11615753099E+04  0.18929000700E+04  0.46999998093E+01 0. -1.
       -5    1    3    3    0  502  0.11769296104E+04 -0.92121011555E+03  0.79465960206E+03  0.16927189246E+04  0.46999998093E+01 0.  1.
</event>
<event>
 5   0  0.1151180E-06  0.3705643E+04  0.7818609E-02  0.8066712E-01
       -2   -1    0    0    0  501  0.00000000000E+00  0.00000000000E+00  0.19241359021E+04  0.19241359021E+04  0.25500000920E-02 0. -1.
        2   -1    0    0  501    0  0.00000000000E+00  0.00000000000E+00 -0.17841504720E+04  0.17841504720E+04  0.25500000920E-02 0.  1.
    10030    2    1    2    0    0  0.00000000000E+00  0.00000000000E+00  0.13998543010E+03  0.37082863741E+04  0.37056432521E+04 0.  0.
        5    1    3    3  502    0  0.14743724075E+03  0.11746059722E+04  0.14963124511E+04  0.19079858414E+04  0.46999998093E+01 0. -1.
       -5    1    3    3    0  502 -0.14743724075E+03 -0.11746059722E+04 -0.13563270210E+04  0.18003005326E+04  0.46999998093E+01 0.  1.
</event>
<event>
 5   0  0.6287345E-07  0.2971423E+04  0.7818609E-02  0.8251938E-01
       -1   -1    0    0    0  501  0.00000000000E+00  0.00000000000E+00  0.16186232963E+04  0.16186232963E+04  0.50400001928E-02 0.  1.
        1   -1    0    0  501    0  0.00000000000E+00  0.00000000000E+00 -0.13637139568E+04  0.13637139569E+04  0.50400001928E-02 0. -1.
    10030    2    1    2    0    0  0.00000000000E+00  0.00000000000E+00  0.25490933943E+03  0.29823372531E+04  0.29714233492E+04 0.  0.
        5    1    3    3  502    0  0.10682504131E+04  0.92552371734E+02 -0.90471559141E+03  0.14029459284E+04  0.46999998093E+01 0. -1.
       -5    1    3    3    0  502 -0.10682504131E+04 -0.92552371734E+02  0.11596249308E+04  0.15793913248E+04  0.46999998093E+01 0.  1.
</event>
<event>
 5   0  0.1724503E-06  0.3805503E+04  0.7818609E-02  0.8044975E-01
        2   -1    0    0  501    0  0.00000000000E+00  0.00000000000E+00  0.18069189571E+04  0.18069189571E+04  0.25500000920E-02 0.  1.
       -2   -1    0    0    0  501  0.00000000000E+00  0.00000000000E+00 -0.20036671850E+04  0.20036671850E+04  0.25500000920E-02 0. -1.
    10030    2    1    2    0    0  0.00000000000E+00  0.00000000000E+00 -0.19674822786E+03  0.38105861421E+04  0.38055034991E+04 0.  0.
        1    1    3    3  502    0 -0.52013872668E+03  0.67660491242E+02 -0.19298445752E+04  0.19998555752E+04  0.50400001928E-02 0. -1.
       -1    1    3    3    0  502  0.52013872668E+03 -0.67660491242E+02  0.17330963473E+04  0.18107305670E+04  0.50400001928E-02 0.  1.
</event>
<event>
 5   0  0.1151180E-06  0.3684442E+04  0.7818609E-02  0.8071418E-01
        2   -1    0    0  501    0  0.00000000000E+00  0.00000000000E+00  0.28995103012E+04  0.28995103012E+04  0.25500000920E-02 0.  1.
       -2   -1    0    0    0  501  0.00000000000E+00  0.00000000000E+00 -0.11704660463E+04  0.11704660463E+04  0.25500000920E-02 0. -1.
    10030    2    1    2    0    0  0.00000000000E+00  0.00000000000E+00  0.17290442548E+04  0.40699763475E+04  0.36844420791E+04 0.  0.
        5    1    3    3  502    0  0.50883873740E+03 -0.48300294307E+03 -0.10171112096E+04  0.12356156386E+04  0.46999998093E+01 0. -1.
       -5    1    3    3    0  502 -0.50883873740E+03  0.48300294307E+03  0.27461554644E+04  0.28343607089E+04  0.46999998093E+01 0.  1.
</event>
<event>
 5   0  0.6261598E-07  0.3289841E+04  0.7818609E-02  0.8165485E-01
        1   -1    0    0  501    0  0.00000000000E+00  0.00000000000E+00  0.96823087824E+03  0.96823087826E+03  0.50400001928E-02 0. -1.
       -1   -1    0    0    0  501  0.00000000000E+00  0.00000000000E+00 -0.27945437953E+04  0.27945437953E+04  0.50400001928E-02 0.  1.
    10030    2    1    2    0    0  0.00000000000E+00  0.00000000000E+00 -0.18263129171E+04  0.37627746736E+04  0.32898410863E+04 0.  0.
        1    1    3    3  502    0  0.93288600955E+03  0.12731194572E+04 -0.14430674415E+04  0.21385867062E+04  0.50400001928E-02 0.  1.
       -1    1    3    3    0  502 -0.93288600955E+03 -0.12731194572E+04 -0.38324547559E+03  0.16241879674E+04  0.50400001928E-02 0. -1.
</event>
<event>
 5   0  0.1184684E-06  0.3117443E+04  0.7818609E-02  0.8210967E-01
       -2   -1    0    0    0  501  0.00000000000E+00  0.00000000000E+00  0.13236190310E+04  0.13236190310E+04  0.25500000920E-02 0.  1.
        2   -1    0    0  501    0  0.00000000000E+00  0.00000000000E+00 -0.18355831708E+04  0.18355831708E+04  0.25500000920E-02 0. -1.
    10030    2    1    2    0    0  0.00000000000E+00  0.00000000000E+00 -0.51196413980E+03  0.31592022018E+04  0.31174430662E+04 0.  0.
        4    1    3    3  502    0 -0.15581755291E+04 -0.11347294856E+02 -0.21580935854E+03  0.15730909169E+04  0.12699999809E+01 0.  1.
       -4    1    3    3    0  502  0.15581755291E+04  0.11347294856E+02 -0.29615478126E+03  0.15861112849E+04  0.12699999809E+01 0. -1.
</event>
<event>
 5   0  0.5875011E-07  0.3689264E+04  0.7818609E-02  0.8070345E-01
        1   -1    0    0  501    0  0.00000000000E+00  0.00000000000E+00  0.28542692607E+04  0.28542692607E+04  0.50400001928E-02 0.  1.
       -1   -1    0    0    0  501  0.00000000000E+00  0.00000000000E+00 -0.11921323809E+04  0.11921323809E+04  0.50400001928E-02 0. -1.
    10030    2    1    2    0    0  0.00000000000E+00  0.00000000000E+00  0.16621368798E+04  0.40464016416E+04  0.36892637800E+04 0.  0.
        2    1    3    3  502    0  0.60968845359E+03 -0.17378585254E+04  0.94502293041E+03  0.20700098077E+04  0.25500000920E-02 0.  1.
       -2    1    3    3    0  502 -0.60968845359E+03  0.17378585254E+04  0.71711394939E+03  0.19763918339E+04  0.25500000920E-02 0. -1.
</event>
<event>
 5   0  0.1680194E-06  0.3829377E+04  0.7818609E-02  0.8039880E-01
       -2   -1    0    0    0  501  0.00000000000E+00  0.00000000000E+00  0.18728073019E+04  0.18728073019E+04  0.25500000920E-02 0.  1.
        2   -1    0    0  501    0  0.00000000000E+00  0.00000000000E+00 -0.19575061286E+04  0.19575061286E+04  0.25500000920E-02 0. -1.
    10030    2    1    2    0    0  0.00000000000E+00  0.00000000000E+00 -0.84698826654E+02  0.38303134305E+04  0.38293768533E+04 0.  0.
        2    1    3    3  502    0  0.15659158180E+04 -0.10609592938E+04 -0.33958332633E+03  0.19217293794E+04  0.25500000920E-02 0. -1.
       -2    1    3    3    0  502 -0.15659158180E+04  0.10609592938E+04  0.25488449967E+03  0.19085840511E+04  0.25500000920E-02 0.  1.
</event>
<event>
 5   0  0.6261598E-07  0.3723968E+04  0.7818609E-02  0.8062671E-01
       -1   -1    0    0    0  501  0.00000000000E+00  0.00000000000E+00  0.21745391447E+04  0.21745391447E+04  0.50400001928E-02 0. -1.
        1   -1    0    0  501    0  0.00000000000E+00  0.00000000000E+00 -0.15943534588E+04  0.15943534588E+04  0.50400001928E-02 0.  1.
    10030    2    1    2    0    0  0.00000000000E+00  0.00000000000E+00  0.58018568586E+03  0.37688926035E+04  0.37239677800E+04 0.  0.
        1    1    3    3  502    0  0.31161207717E+03  0.17890826731E+04 -0.12604272899E+03  0.18203861314E+04  0.50400001928E-02 0.  1.
       -1    1    3    3    0  502 -0.31161207717E+03 -0.17890826731E+04  0.70622841485E+03  0.19485064721E+04  0.50400001928E-02 0. -1.
</event>
<event>
 5   0  0.1724503E-06  0.2949328E+04  0.7818609E-02  0.8258350E-01
        2   -1    0    0  501    0  0.00000000000E+00  0.00000000000E+00  0.19937879390E+04  0.19937879390E+04  0.25500000920E-02 0. -1.
       -2   -1    0    0    0  501  0.00000000000E+00  0.00000000000E+00 -0.10907046195E+04  0.10907046195E+04  0.25500000920E-02 0.  1.
    10030    2    1    2    0    0  0.00000000000E+00  0.00000000000E+00  0.90308331957E+03  0.30844925585E+04  0.29493278660E+04 0.  0.
        1    1    3    3  502    0  0.12874802968E+04  0.23631719825E+03  0.11617684120E+04  0.17501877545E+04  0.50400001928E-02 0. -1.
       -1    1    3    3    0  502 -0.12874802968E+04 -0.23631719825E+03 -0.25868509244E+03  0.13343048040E+04  0.50400001928E-02 0.  1.
</event>
<event>
 5   0  0.1151180E-06  0.2807742E+04  0.7818609E-02  0.8300869E-01
        2   -1    0    0  501    0  0.00000000000E+00  0.00000000000E+00  0.12393162382E+04  0.12393162382E+04  0.25500000920E-02 0.  1.
       -2   -1    0    0    0  501  0.00000000000E+00  0.00000000000E+00 -0.15902747020E+04  0.15902747020E+04  0.25500000920E-02 0. -1.
    10030    2    1    2    0    0  0.00000000000E+00  0.00000000000E+00 -0.35095846382E+03  0.28295909402E+04  0.28077416272E+04 0.  0.
        5    1    3    3  502    0  0.81730412920E+03 -0.94467464660E+03  0.47015816796E+03  0.13347160823E+04  0.46999998093E+01 0.  1.
       -5    1    3    3    0  502 -0.81730412920E+03  0.94467464660E+03 -0.82111663179E+03  0.14948748578E+04  0.46999998093E+01 0. -1.
</event>
<event>
 5   0  0.1680194E-06  0.3758809E+04  0.7818609E-02  0.8055053E-01
       -2   -1    0    0    0  501  0.00000000000E+00  0.00000000000E+00  0.12795050816E+04  0.12795050816E+04  0.25500000920E-02 0.  1.
        2   -1    0    0  501    0  0.00000000000E+00  0.00000000000E+00 -0.27605680276E+04  0.27605680276E+04  0.25500000920E-02 0. -1.
    10030    2    1    2    0    0  0.00000000000E+00  0.00000000000E+00 -0.14810629460E+04  0.40400731092E+04  0.37588087578E+04 0.  0.
        2    1    3    3  502    0  0.16448093462E+04  0.82885464117E+03 -0.33870816085E+03  0.18727308989E+04  0.25500000920E-02 0. -1.
       -2    1    3    3    0  502 -0.16448093462E+04 -0.82885464117E+03 -0.11423547852E+04  0.21673422103E+04  0.25500000920E-02 0.  1.
</event>
<event>
 5   0  0.1724503E-06  0.3478823E+04  0.7818609E-02  0.8118827E-01
        2   -1    0    0  501    0  0.00000000000E+00  0.00000000000E+00  0.23059721540E+04  0.23059721540E+04  0.25500000920E-02 0.  1.
       -2   -1    0    0    0  501  0.00000000000E+00  0.00000000000E+00 -0.13120503707E+04  0.13120503707E+04  0.25500000920E-02 0. -1.
    10030    2    1    2    0    0  0.00000000000E+00  0.00000000000E+00  0.99392178331E+03  0.36180225247E+04  0.34788225706E+04 0.  0.
        1    1    3    3  502    0 -0.15723785801E+04 -0.64239038675E+03  0.10711280863E+03  0.17019144990E+04  0.50400001928E-02 0.  1.
       -1    1    3    3    0  502  0.15723785801E+04  0.64239038675E+03  0.88680897468E+03  0.19161080256E+04  0.50400001928E-02 0. -1.
</event>
<event>
 5   0  0.6261598E-07  0.3748197E+04  0.7818609E-02  0.8057364E-01
        1   -1    0    0  501    0  0.00000000000E+00  0.00000000000E+00  0.21204430308E+04  0.21204430308E+04  0.50400001928E-02 0.  1.
       -1   -1    0    0    0  501  0.00000000000E+00  0.00000000000E+00 -0.16563731009E+04  0.16563731009E+04  0.50400001928E-02 0. -1.
    10030    2    1    2    0    0  0.00000000000E+00  0.00000000000E+00  0.46406992997E+03  0.37768161317E+04  0.37481967922E+04 0.  0.
        1    1    3    3  502    0 -0.14553411822E+04 -0.33918228893E+03 -0.90761023143E+03  0.17483760791E+04  0.50400001928E-02 0. -1.
       -1    1    3    3    0  502  0.14553411822E+04  0.33918228893E+03  0.13716801614E+04  0.20284400526E+04  0.50400001928E-02 0.  1.
</event>
<event>
 5   0  0.5875011E-07  0.2022747E+04  0.7818609E-02  0.8596059E-01
        1   -1    0    0  501    0  0.00000000000E+00  0.00000000000E+00  0.62156136943E+03  0.62156136945E+03  0.50400001928E-02 0. -1.
       -1   -1    0    0    0  501  0.00000000000E+00  0.00000000000E+00 -0.16456561950E+04  0.16456561950E+04  0.50400001928E-02 0.  1.
    10030    2    1    2    0    0  0.00000000000E+00  0.00000000000E+00 -0.10240948256E+04  0.22672175644E+04  0.20227469621E+04 0.  0.
        2    1    3    3  502    0  0.73102778726E+03  0.53506237689E+03 -0.80551152009E+01  0.90595709490E+03  0.25500000920E-02 0. -1.
       -2    1    3    3    0  502 -0.73102778726E+03 -0.53506237689E+03 -0.10160397104E+04  0.13612604695E+04  0.25500000920E-02 0.  1.
</event>
<event>
 5   0  0.1680194E-06  0.3617544E+04  0.7818609E-02  0.8086485E-01
        2   -1    0    0  501    0  0.00000000000E+00  0.00000000000E+00  0.29234265830E+04  0.29234265830E+04  0.25500000920E-02 0. -1.
       -2   -1    0    0    0  501  0.00000000000E+00  0.00000000000E+00 -0.11191168891E+04  0.11191168891E+04  0.25500000920E-02 0.  1.
    10030    2    1    2    0    0  0.00000000000E+00  0.00000000000E+00  0.18043096939E+04  0.40425434721E+04  0.36175439531E+04 0.  0.
        2    1    3    3  502    0 -0.26275218392E+03 -0.24556900525E+03  0.28830688335E+04  0.29054136960E+04  0.25500000920E-02 0. -1.
       -2    1    3    3    0  502  0.26275218392E+03  0.24556900525E+03 -0.10787591396E+04  0.11371297761E+04  0.25500000920E-02 0.  1.
</event>
<event>
 5   0  0.1184684E-06  0.3614857E+04  0.7818609E-02  0.8087097E-01
        2   -1    0    0  501    0  0.00000000000E+00  0.00000000000E+00  0.27449205098E+04  0.27449205098E+04  0.25500000920E-02 0. -1.
       -2   -1    0    0    0  501  0.00000000000E+00  0.00000000000E+00 -0.11901246538E+04  0.11901246538E+04  0.25500000920E-02 0.  1.
    10030    2    1    2    0    0  0.00000000000E+00  0.00000000000E+00  0.15547958560E+04  0.39350451635E+04  0.36148568831E+04 0.  0.
        4    1    3    3  502    0 -0.49756277302E+03  0.13616912609E+04 -0.39757017945E+03  0.15032749128E+04  0.12699999809E+01 0.  1.
       -4    1    3    3    0  502  0.49756277302E+03 -0.13616912609E+04  0.19523660355E+04  0.24317702507E+04  0.12699999809E+01 0. -1.
</event>
<event>
 5   0  0.1685793E-06  0.3624691E+04  0.7818609E-02  0.8084859E-01
       -2   -1    0    0    0  501  0.00000000000E+00  0.00000000000E+00  0.19681875082E+04  0.19681875082E+04  0.25500000920E-02 0.  1.
        2   -1    0    0  501    0  0.00000000000E+00  0.00000000000E+00 -0.16688431791E+04  0.16688431791E+04  0.25500000920E-02 0. -1.
    10030    2    1    2    0    0  0.00000000000E+00  0.00000000000E+00  0.29934432908E+03  0.36370306873E+04  0.36246910479E+04 0.  0.
        3    1    3    3  502    0 -0.79503743911E+02  0.13084784671E+04  0.14053955171E+04  0.19218671426E+04  0.10100000352E+00 0.  1.
       -3    1    3    3    0  502  0.79503743911E+02 -0.13084784671E+04 -0.11060511880E+04  0.17151635447E+04  0.10100000352E+00 0. -1.
</event>
<event>
 5   0  0.1685793E-06  0.3735221E+04  0.7818609E-02  0.8060201E-01
       -2   -1    0    0    0  501  0.00000000000E+00  0.00000000000E+00  0.16049036307E+04  0.16049036307E+04  0.25500000920E-02 0.  1.
        2   -1    0    0  501    0  0.00000000000E+00  0.00000000000E+00 -0.21733203907E+04  0.21733203907E+04  0.25500000920E-02 0. -1.
    10030    2    1    2    0    0  0.00000000000E+00  0.00000000000E+00 -0.56841675999E+03  0.37782240214E+04  0.37352214316E+04 0.  0.
        3    1    3    3  502    0  0.46090318475E+03 -0.13043012869E+04 -0.15533792352E+04  0.20800530405E+04  0.10100000352E+00 0. -1.
       -3    1    3    3    0  502 -0.46090318475E+03  0.13043012869E+04  0.98496247525E+03  0.16981709809E+04  0.10100000352E+00 0.  1.
</event>
<event>
 5   0  0.5875011E-07  0.3837273E+04  0.7818609E-02  0.8038203E-01
       -1   -1    0    0    0  501  0.00000000000E+00  0.00000000000E+00  0.16365902032E+04  0.16365902032E+04  0.50400001928E-02 0.  1.
        1   -1    0    0  501    0  0.00000000000E+00  0.00000000000E+00 -0.22492902779E+04  0.22492902779E+04  0.50400001928E-02 0. -1.
    10030    2    1    2    0    0  0.00000000000E+00  0.00000000000E+00 -0.61270007473E+03  0.38858804811E+04  0.38372732157E+04 0.  0.
        2    1    3    3  502    0 -0.40706468074E+03  0.18561445870E+04 -0.38056209581E+02  0.19006374345E+04  0.25500000920E-02 0. -1.
       -2    1    3    3    0  502  0.40706468074E+03 -0.18561445870E+04 -0.57464386515E+03  0.19852430466E+04  0.25500000920E-02 0.  1.
</event>
<event>
 5   0  0.6261598E-07  0.3718946E+04  0.7818609E-02  0.8063776E-01
        1   -1    0    0  501    0  0.00000000000E+00  0.00000000000E+00  0.22332110687E+04  0.22332110687E+04  0.50400001928E-02 0.  1.
       -1   -1    0    0    0  501  0.00000000000E+00  0.00000000000E+00 -0.15482813076E+04  0.15482813076E+04  0.50400001928E-02 0. -1.
    10030    2    1    2    0    0  0.00000000000E+00  0.00000000000E+00  0.68492976116E+03  0.37814923763E+04  0.37189455245E+04 0.  0.
        1    1    3    3  502    0  0.16622101921E+04 -0.71693040470E+03  0.77471082887E+03  0.19690375305E+04  0.50400001928E-02 0.  1.
       -1    1    3    3    0  502 -0.16622101921E+04  0.71693040470E+03 -0.89781067701E+02  0.18124548458E+04  0.50400001928E-02 0. -1.
</event>
<event>
 5   0  0.5679750E-07  0.2245197E+04  0.7818609E-02  0.8499848E-01
       -1   -1    0    0    0  501  0.00000000000E+00  0.00000000000E+00  0.71684453138E+03  0.71684453140E+03  0.50400001928E-02 0. -1.
        1   -1    0    0  501    0  0.00000000000E+00  0.00000000000E+00 -0.17580204400E+04  0.17580204400E+04  0.50400001928E-02 0.  1.
    10030    2    1    2    0    0  0.00000000000E+00  0.00000000000E+00 -0.10411759086E+04  0.24748649714E+04  0.22451969522E+04 0.  0.
        4    1    3    3  502    0 -0.57676711773E+03  0.38892543190E+03 -0.14917965925E+04  0.16460200442E+04  0.12699999809E+01 0.  1.
       -4    1    3    3    0  502  0.57676711773E+03 -0.38892543190E+03  0.45062068389E+03  0.82884492718E+03  0.12699999809E+01 0. -1.
</event>
<event>
 5   0  0.1184684E-06  0.3719701E+04  0.7818609E-02  0.8063610E-01
       -2   -1    0    0    0  501  0.00000000000E+00  0.00000000000E+00  0.23825797469E+04  0.23825797469E+04  0.25500000920E-02 0. -1.
        2   -1    0    0  501    0  0.00000000000E+00  0.00000000000E+00 -0.14518064114E+04  0.14518064114E+04  0.25500000920E-02 0.  1.
    10030    2    1    2    0    0  0.00000000000E+00  0.00000000000E+00  0.93077333547E+03  0.38343861582E+04  0.37197013601E+04 0.  0.
        4    1    3    3  502    0 -0.56933037246E+03 -0.12390141320E+04 -0.83842184819E+03  0.16007016901E+04  0.12699999809E+01 0.  1.
       -4    1    3    3    0  502  0.56933037246E+03  0.12390141320E+04  0.17691951837E+04  0.22336844681E+04  0.12699999809E+01 0. -1.
</event>
<event>
 5   0  0.1184684E-06  0.2841321E+04  0.7818609E-02  0.8290553E-01
        2   -1    0    0  501    0  0.00000000000E+00  0.00000000000E+00  0.13036102513E+04  0.13036102513E+04  0.25500000920E-02 0.  1.
       -2   -1    0    0    0  501  0.00000000000E+00  0.00000000000E+00 -0.15482209939E+04  0.15482209939E+04  0.25500000920E-02 0. -1.
    10030    2    1    2    0    0  0.00000000000E+00  0.00000000000E+00 -0.24461074253E+03  0.28518312452E+04  0.28413213538E+04 0.  0.
        4    1    3    3  502    0 -0.29994254672E+03 -0.71223957929E+03 -0.13187820410E+04  0.15285412766E+04  0.12699999809E+01 0. -1.
       -4    1    3    3    0  502  0.29994254672E+03  0.71223957929E+03  0.10741712985E+04  0.13232899686E+04  0.12699999809E+01 0.  1.
</event>
<event>
 5   0  0.6186440E-07  0.3643262E+04  0.7818609E-02  0.8080653E-01
       -1   -1    0    0    0  501  0.00000000000E+00  0.00000000000E+00  0.15514470781E+04  0.15514470781E+04  0.50400001928E-02 0. -1.
        1   -1    0    0  501    0  0.00000000000E+00  0.00000000000E+00 -0.21388668027E+04  0.21388668027E+04  0.50400001928E-02 0.  1.
    10030    2    1    2    0    0  0.00000000000E+00  0.00000000000E+00 -0.58741972460E+03  0.36903138809E+04  0.36432615342E+04 0.  0.
        3    1    3    3  502    0  0.24979689014E+03  0.14919864396E+04 -0.13216645974E+04  0.20087855387E+04  0.10100000352E+00 0.  1.
       -3    1    3    3    0  502 -0.24979689014E+03 -0.14919864396E+04  0.73424487280E+03  0.16815283422E+04  0.10100000352E+00 0. -1.
</event>
<event>
 5   0  0.1680194E-06  0.3658775E+04  0.7818609E-02  0.8077160E-01
        2   -1    0    0  501    0  0.00000000000E+00  0.00000000000E+00  0.23338364380E+04  0.23338364380E+04  0.25500000920E-02 0. -1.
       -2   -1    0    0    0  501  0.00000000000E+00  0.00000000000E+00 -0.14339731059E+04  0.14339731059E+04  0.25500000920E-02 0.  1.
    10030    2    1    2    0    0  0.00000000000E+00  0.00000000000E+00  0.89986333212E+03  0.37678095439E+04  0.36587750330E+04 0.  0.
        2    1    3    3  502    0 -0.14402253575E+04  0.47958436043E+03 -0.60147855804E+03  0.16327971996E+04  0.25500000920E-02 0.  1.
       -2    1    3    3    0  502  0.14402253575E+04 -0.47958436043E+03  0.15013418902E+04  0.21350123443E+04  0.25500000920E-02 0. -1.
</event>
<event>
 5   0  0.1151180E-06  0.2033759E+04  0.7818609E-02  0.8590998E-01
        2   -1    0    0  501    0  0.00000000000E+00  0.00000000000E+00  0.14854878184E+04  0.14854878184E+04  0.25500000920E-02 0.  1.
       -2   -1    0    0    0  501  0.00000000000E+00  0.00000000000E+00 -0.69609728297E+03  0.69609728298E+03  0.25500000920E-02 0. -1.
    10030    2    1    2    0    0  0.00000000000E+00  0.00000000000E+00  0.78939053546E+03  0.21815851014E+04  0.20337591148E+04 0.  0.
        5    1    3    3  502    0  0.52254229805E+03 -0.54773053305E+03 -0.33359677447E+03  0.82726542779E+03  0.46999998093E+01 0. -1.
       -5    1    3    3    0  502 -0.52254229805E+03  0.54773053305E+03  0.11229873099E+04  0.13543196736E+04  0.46999998093E+01 0.  1.
</event>
<event>
 5   0  0.6261598E-07  0.3491947E+04  0.7818609E-02  0.8115701E-01
       -1   -1    0    0    0  501  0.00000000000E+00  0.00000000000E+00  0.16093879833E+04  0.16093879833E+04  0.50400001928E-02 0.  1.
        1   -1    0    0  501    0  0.00000000000E+00  0.00000000000E+00 -0.18941508617E+04  0.18941508617E+04  0.50400001928E-02 0. -1.
    10030    2    1    2    0    0  0.00000000000E+00  0.00000000000E+00 -0.28476287838E+03  0.35035388450E+04  0.34919470989E+04 0.  0.
        1    1    3    3  502    0 -0.17409214395E+04 -0.92373073230E+02 -0.46758230148E+02  0.17439972980E+04  0.50400001928E-02 0.  1.
       -1    1    3    3    0  502  0.17409214395E+04  0.92373073230E+02 -0.23800464823E+03  0.17595415470E+04  0.50400001928E-02 0. -1.
</event>
<event>
 5   0  0.1685793E-06  0.3716154E+04  0.7818609E-02  0.8064391E-01
       -2   -1    0    0    0  501  0.00000000000E+00  0.00000000000E+00  0.17579068923E+04  0.17579068923E+04  0.25500000920E-02 0.  1.
        2   -1    0    0  501    0  0.00000000000E+00  0.00000000000E+00 -0.19639549712E+04  0.19639549712E+04  0.25500000920E-02 0. -1.
    10030    2    1    2    0    0  0.00000000000E+00  0.00000000000E+00 -0.20604807887E+03  0.37218618635E+04  0.37161539151E+04 0.  0.
        3    1    3    3  502    0 -0.13321111681E+04 -0.46888813224E+03  0.11063379069E+04  0.17939787678E+04  0.10100000352E+00 0.  1.
       -3    1    3    3    0  502  0.13321111681E+04  0.46888813224E+03 -0.13123859858E+04  0.19278830957E+04  0.10100000352E+00 0. -1.
</event>
<event>
 5   0  0.1803261E-06  0.2112066E+04  0.7818609E-02  0.8555947E-01
        2   -1    0    0  501    0  0.00000000000E+00  0.00000000000E+00  0.12561472542E+04  0.12561472542E+04  0.25500000920E-02 0.  1.
       -2   -1    0    0    0  501  0.00000000000E+00  0.00000000000E+00 -0.88779844650E+03  0.88779844651E+03  0.25500000920E-02 0. -1.
    10030    2    1    2    0    0  0.00000000000E+00  0.00000000000E+00  0.36834880769E+03  0.21439457007E+04  0.21120658899E+04 0.  0.
        1    1    3    3  502    0 -0.98178803523E+03 -0.23456093584E+03 -0.13079771304E+03  0.10178578587E+04  0.50400001928E-02 0.  1.
       -1    1    3    3    0  502  0.98178803523E+03  0.23456093584E+03  0.49914652073E+03  0.11260878420E+04  0.50400001928E-02 0. -1.
</event>
<event>
 5   0  0.5875011E-07  0.3762612E+04  0.7818609E-02  0.8054226E-01
       -1   -1    0    0    0  501  0.00000000000E+00  0.00000000000E+00  0.20711247682E+04  0.20711247682E+04  0.50400001928E-02 0.  1.
        1   -1    0    0  501    0  0.00000000000E+00  0.00000000000E+00 -0.17088839437E+04  0.17088839437E+04  0.50400001928E-02 0. -1.
    10030    2    1    2    0    0  0.00000000000E+00  0.00000000000E+00  0.36224082447E+03  0.37800087119E+04  0.37626117853E+04 0.  0.
        2    1    3    3  502    0 -0.10889222886E+04  0.15129300374E+04  0.43646643891E+03  0.19144743406E+04  0.25500000920E-02 0. -1.
       -2    1    3    3    0  502  0.10889222886E+04 -0.15129300374E+04 -0.74225614437E+02  0.18655343713E+04  0.25500000920E-02 0.  1.
</event>
<event>
 5   0  0.5875011E-07  0.3570193E+04  0.7818609E-02  0.8097354E-01
        1   -1    0    0  501    0  0.00000000000E+00  0.00000000000E+00  0.17532229861E+04  0.17532229861E+04  0.50400001928E-02 0.  1.
       -1   -1    0    0    0  501  0.00000000000E+00  0.00000000000E+00 -0.18175494747E+04  0.18175494747E+04  0.50400001928E-02 0. -1.
    10030    2    1    2    0    0  0.00000000000E+00  0.00000000000E+00 -0.64326488641E+02  0.35707724608E+04  0.35701930018E+04 0.  0.
        2    1    3    3  502    0 -0.33897195315E+03  0.76636574173E+03 -0.16086015055E+04  0.18137853343E+04  0.25500000920E-02 0. -1.
       -2    1    3    3    0  502  0.33897195315E+03 -0.76636574173E+03  0.15442750169E+04  0.17569871266E+04  0.25500000920E-02 0.  1.
</event>
<event>
 5   0  0.6261598E-07  0.3719340E+04  0.7818609E-02  0.8063689E-01
        1   -1    0    0  501    0  0.00000000000E+00  0.00000000000E+00  0.27757398173E+04  0.27757398173E+04  0.50400001928E-02 0.  1.
       -1   -1    0    0    0  501  0.00000000000E+00  0.00000000000E+00 -0.12459283289E+04  0.12459283289E+04  0.50400001928E-02 0. -1.
    10030    2    1    2    0    0  0.00000000000E+00  0.00000000000E+00  0.15298114884E+04  0.40216681462E+04  0.37193401953E+04 0.  0.
        1    1    3    3  502    0 -0.61822979451E+02  0.68051576824E+03 -0.11052644670E+04  0.12994357751E+04  0.50400001928E-02 0. -1.
       -1    1    3    3    0  502  0.61822979451E+02 -0.68051576824E+03  0.26350759554E+04  0.27222323711E+04  0.50400001928E-02 0.  1.
</event>
<event>
 5   0  0.1184684E-06  0.3804686E+04  0.7818609E-02  0.8045150E-01
       -2   -1    0    0    0  501  0.00000000000E+00  0.00000000000E+00  0.20208950806E+04  0.20208950806E+04  0.25500000920E-02 0.  1.
        2   -1    0    0  501    0  0.00000000000E+00  0.00000000000E+00 -0.17907451235E+04  0.17907451235E+04  0.25500000920E-02 0. -1.
    10030    2    1    2    0    0  0.00000000000E+00  0.00000000000E+00  0.23014995711E+03  0.38116402041E+04  0.38046855379E+04 0.  0.
        4    1    3    3  502    0 -0.13362874477E+04  0.31158989826E+03  0.14351154693E+04  0.19855252279E+04  0.12699999809E+01 0.  1.
       -4    1    3    3    0  502  0.13362874477E+04 -0.31158989826E+03 -0.12049655122E+04  0.18261149761E+04  0.12699999809E+01 0. -1.
</event>
<event>
 5   0  0.6186440E-07  0.3563547E+04  0.7818609E-02  0.8098893E-01
       -1   -1    0    0    0  501  0.00000000000E+00  0.00000000000E+00  0.15611731306E+04  0.15611731307E+04  0.50400001928E-02 0. -1.
        1   -1    0    0  501    0  0.00000000000E+00  0.00000000000E+00 -0.20335451897E+04  0.20335451897E+04  0.50400001928E-02 0.  1.
    10030    2    1    2    0    0  0.00000000000E+00  0.00000000000E+00 -0.47237205908E+03  0.35947183204E+04  0.35635466099E+04 0.  0.
        3    1    3    3  502    0 -0.67480290995E+03  0.13281256593E+04  0.74983002661E+03  0.16677894990E+04  0.10100000352E+00 0. -1.
       -3    1    3    3    0  502  0.67480290995E+03 -0.13281256593E+04 -0.12222020857E+04  0.19269288213E+04  0.10100000352E+00 0.  1.
</event>
<event>
 5   0  0.1724503E-06  0.3615208E+04  0.7818609E-02  0.8087017E-01
        2   -1    0    0  501    0  0.00000000000E+00  0.00000000000E+00  0.19238323525E+04  0.19238323525E+04  0.25500000920E-02 0. -1.
       -2   -1    0    0    0  501  0.00000000000E+00  0.00000000000E+00 -0.16983972254E+04  0.16983972254E+04  0.25500000920E-02 0.  1.
    10030    2    1    2    0    0  0.00000000000E+00  0.00000000000E+00  0.22543512703E+03  0.36222295779E+04  0.36152076176E+04 0.  0.
        1    1    3    3  502    0  0.67560524436E+03  0.15962759822E+04  0.62644347802E+03  0.18430873253E+04  0.50400001928E-02 0. -1.
       -1    1    3    3    0  502 -0.67560524436E+03 -0.15962759822E+04 -0.40100835099E+03  0.17791422526E+04  0.50400001928E-02 0.  1.
</event>
<event>
 5   0  0.1685793E-06  0.3690873E+04  0.7818609E-02  0.8069988E-01
       -2   -1    0    0    0  501  0.00000000000E+00  0.00000000000E+00  0.12039487173E+04  0.12039487173E+04  0.25500000920E-02 0.  1.
        2   -1    0    0  501    0  0.00000000000E+00  0.00000000000E+00 -0.28287213098E+04  0.28287213099E+04  0.25500000920E-02 0. -1.
    10030    2    1    2    0    0  0.00000000000E+00  0.00000000000E+00 -0.16247725926E+04  0.40326700271E+04  0.36908727382E+04 0.  0.
        3    1    3    3  502    0 -0.44330288590E+03 -0.17348836275E+04 -0.32461784630E+03  0.18198119150E+04  0.10100000352E+00 0.  1.
       -3    1    3    3    0  502  0.44330288590E+03  0.17348836275E+04 -0.13001547463E+04  0.22128581121E+04  0.10100000352E+00 0. -1.
</event>
<event>
 5   0  0.6287345E-07  0.2324147E+04  0.7818609E-02  0.8468461E-01
       -1   -1    0    0    0  501  0.00000000000E+00  0.00000000000E+00  0.11608771941E+04  0.11608771941E+04  0.50400001928E-02 0.  1.
        1   -1    0    0  501    0  0.00000000000E+00  0.00000000000E+00 -0.11632705576E+04  0.11632705576E+04  0.50400001928E-02 0. -1.
    10030    2    1    2    0    0  0.00000000000E+00  0.00000000000E+00 -0.23933634721E+01  0.23241477518E+04  0.23241465194E+04 0.  0.
        5    1    3    3  502    0  0.32427594706E+03 -0.60943020162E+03 -0.93598705242E+03  0.11630365054E+04  0.46999998093E+01 0. -1.
       -5    1    3    3    0  502 -0.32427594706E+03  0.60943020162E+03  0.93359368895E+03  0.11611112464E+04  0.46999998093E+01 0.  1.
</event>
<event>
 5   0  0.6287345E-07  0.3714349E+04  0.7818609E-02  0.8064789E-01
       -1   -1    0    0    0  501  0.00000000000E+00  0.00000000000E+00  0.28470769271E+04  0.28470769271E+04  0.50400001928E-02 0.  1.
        1   -1    0    0  501    0  0.00000000000E+00  0.00000000000E+00 -0.12114519535E+04  0.12114519535E+04  0.50400001928E-02 0. -1.
    10030    2    1    2    0    0  0.00000000000E+00  0.00000000000E+00  0.16356249736E+04  0.40585288806E+04  0.37143488824E+04 0.  0.
        5    1    3    3  502    0  0.57514350923E+03 -0.17656275920E+04  0.84955550728E+03  0.20420571735E+04  0.46999998093E+01 0.  1.
       -5    1    3    3    0  502 -0.57514350923E+03  0.17656275920E+04  0.78606946634E+03  0.20164717071E+04  0.46999998093E+01 0. -1.
</event>
<event>
 5   0  0.6287345E-07  0.3675796E+04  0.7818609E-02  0.8073347E-01
       -1   -1    0    0    0  501  0.00000000000E+00  0.00000000000E+00  0.13319164050E+04  0.13319164050E+04  0.50400001928E-02 0. -1.
        1   -1    0    0  501    0  0.00000000000E+00  0.00000000000E+00 -0.25360969098E+04  0.25360969098E+04  0.50400001928E-02 0.  1.
    10030    2    1    2    0    0  0.00000000000E+00  0.00000000000E+00 -0.12041805048E+04  0.38680133148E+04  0.36757960111E+04 0.  0.
        5    1    3    3  502    0 -0.16471107865E+04 -0.77363240078E+03 -0.87317758882E+03  0.20184009082E+04  0.46999998093E+01 0. -1.
       -5    1    3    3    0  502  0.16471107865E+04  0.77363240078E+03 -0.33100291600E+03  0.18496124067E+04  0.46999998093E+01 0.  1.
</event>
<event>
 5   0  0.6186440E-07  0.3720527E+04  0.7818609E-02  0.8063428E-01
        1   -1    0    0  501    0  0.00000000000E+00  0.00000000000E+00  0.13335524492E+04  0.13335524492E+04  0.50400001928E-02 0. -1.
       -1   -1    0    0    0  501  0.00000000000E+00  0.00000000000E+00 -0.25950089081E+04  0.25950089081E+04  0.50400001928E-02 0.  1.
    10030    2    1    2    0    0  0.00000000000E+00  0.00000000000E+00 -0.12614564589E+04  0.39285613573E+04  0.37205271051E+04 0.  0.
        3    1    3    3  502    0 -0.72770955728E+03  0.14372451386E+04 -0.16129824064E+04  0.22796813465E+04  0.10100000352E+00 0.  1.
       -3    1    3    3    0  502  0.72770955728E+03 -0.14372451386E+04  0.35152594745E+03  0.16488800108E+04  0.10100000352E+00 0. -1.
</event>
<event>
 5   0  0.1685793E-06  0.3661929E+04  0.7818609E-02  0.8076452E-01
        2   -1    0    0  501    0  0.00000000000E+00  0.00000000000E+00  0.20264561912E+04  0.20264561912E+04  0.25500000920E-02 0.  1.
       -2   -1    0    0    0  501  0.00000000000E+00  0.00000000000E+00 -0.16543317933E+04  0.16543317933E+04  0.25500000920E-02 0. -1.
    10030    2    1    2    0    0  0.00000000000E+00  0.00000000000E+00  0.37212439786E+03  0.36807879845E+04  0.36619289479E+04 0.  0.
        3    1    3    3  502    0  0.91665518348E+03  0.30044080376E+03 -0.13782010564E+04  0.16822483657E+04  0.10100000352E+00 0. -1.
       -3    1    3    3    0  502 -0.91665518348E+03 -0.30044080376E+03  0.17503254542E+04  0.19985396188E+04  0.10100000352E+00 0.  1.
</event>
<event>
 5   0  0.6287345E-07  0.3076106E+04  0.7818609E-02  0.8222326E-01
       -1   -1    0    0    0  501  0.00000000000E+00  0.00000000000E+00  0.12883618451E+04  0.12883618451E+04  0.50400001928E-02 0. -1.
        1   -1    0    0  501    0  0.00000000000E+00  0.00000000000E+00 -0.18361359152E+04  0.18361359152E+04  0.50400001928E-02 0.  1.
    10030    2    1    2    0    0  0.00000000000E+00  0.00000000000E+00 -0.54777407004E+03  0.31244977603E+04  0.30761062762E+04 0.  0.
        5    1    3    3  502    0  0.80782212707E+03 -0.13075230630E+04 -0.21472805911E+03  0.15518773723E+04  0.46999998093E+01 0.  1.
       -5    1    3    3    0  502 -0.80782212707E+03  0.13075230630E+04 -0.33304601093E+03  0.15726203880E+04  0.46999998093E+01 0. -1.
</event>
<event>
 5   0  0.1680194E-06  0.3696773E+04  0.7818609E-02  0.8068677E-01
        2   -1    0    0  501    0  0.00000000000E+00  0.00000000000E+00  0.20651382085E+04  0.20651382086E+04  0.25500000920E-02 0. -1.
       -2   -1    0    0    0  501  0.00000000000E+00  0.00000000000E+00 -0.16543845920E+04  0.16543845920E+04  0.25500000920E-02 0.  1.
    10030    2    1    2    0    0  0.00000000000E+00  0.00000000000E+00  0.41075361654E+03  0.37195228006E+04  0.36967730970E+04 0.  0.
        2    1    3    3  502    0  0.18294451662E+03 -0.16101324641E+04 -0.68921659525E+03  0.17609698360E+04  0.25500000920E-02 0.  1.
       -2    1    3    3    0  502 -0.18294451662E+03  0.16101324641E+04  0.10999702118E+04  0.19585529646E+04  0.25500000920E-02 0. -1.
</event>
<event>
 5   0  0.1184684E-06  0.1938479E+04  0.7818609E-02  0.8635937E-01
        2   -1    0    0  501    0  0.00000000000E+00  0.00000000000E+00  0.21872955878E+04  0.21872955878E+04  0.25500000920E-02 0.  1.
       -2   -1    0    0    0  501  0.00000000000E+00  0.00000000000E+00 -0.42949155420E+03  0.42949155421E+03  0.25500000920E-02 0. -1.
    10030    2    1    2    0    0  0.00000000000E+00  0.00000000000E+00  0.17578040336E+04  0.26167871420E+04  0.19384787660E+04 0.  0.
        4    1    3    3  502    0  0.12666695504E+03  0.52937589123E+03 -0.20367827207E+03  0.58117966510E+03  0.12699999809E+01 0. -1.
       -4    1    3    3    0  502 -0.12666695504E+03 -0.52937589123E+03  0.19614823057E+04  0.20356074769E+04  0.12699999809E+01 0.  1.
</event>
<event>
 5   0  0.5679750E-07  0.2236896E+04  0.7818609E-02  0.8503226E-01
        1   -1    0    0  501    0  0.00000000000E+00  0.00000000000E+00  0.14973526205E+04  0.14973526205E+04  0.50400001928E-02 0.  1.
       -1   -1    0    0    0  501  0.00000000000E+00  0.00000000000E+00 -0.83542498891E+03  0.83542498893E+03  0.50400001928E-02 0. -1.
    10030    2    1    2    0    0  0.00000000000E+00  0.00000000000E+00  0.66192763157E+03  0.23327776094E+04  0.22368958817E+04 0.  0.
        4    1    3    3  502    0  0.76322658923E+02 -0.28953502037E+03 -0.79284877241E+03  0.84750602659E+03  0.12699999809E+01 0. -1.
       -4    1    3    3    0  502 -0.76322658923E+02  0.28953502037E+03  0.14547764040E+04  0.14852715828E+04  0.12699999809E+01 0.  1.
</event>
<event>
 5   0  0.1184684E-06  0.3507318E+04  0.7818609E-02  0.8112058E-01
        2   -1    0    0  501    0  0.00000000000E+00  0.00000000000E+00  0.23381180326E+04  0.23381180326E+04  0.25500000920E-02 0. -1.
       -2   -1    0    0    0  501  0.00000000000E+00  0.00000000000E+00 -0.13152970891E+04  0.13152970891E+04  0.25500000920E-02 0.  1.
    10030    2    1    2    0    0  0.00000000000E+00  0.00000000000E+00  0.10228209435E+04  0.36534151216E+04  0.35073179737E+04 0.  0.
        4    1    3    3  502    0  0.36853538116E+02  0.17132683495E+04  0.12351236682E+03  0.17181104558E+04  0.12699999809E+01 0.  1.
       -4    1    3    3    0  502 -0.36853538116E+02 -0.17132683495E+04  0.89930857670E+03  0.19353046658E+04  0.12699999809E+01 0. -1.
</event>
<event>
 5   0  0.1184684E-06  0.3661336E+04  0.7818609E-02  0.8076585E-01
        2   -1    0    0  501    0  0.00000000000E+00  0.00000000000E+00  0.12707143051E+04  0.12707143051E+04  0.25500000920E-02 0. -1.
       -2   -1    0    0    0  501  0.00000000000E+00  0.00000000000E+00 -0.26373714574E+04  0.26373714574E+04  0.25500000920E-02 0.  1.
    10030    2    1    2    0    0  0.00000000000E+00  0.00000000000E+00 -0.13666571524E+04  0.39080857625E+04  0.36613361707E+04 0.  0.
        4    1    3    3  502    0  0.66288405304E+03 -0.16943125089E+04 -0.90007482140E+03  0.20298390189E+04  0.12699999809E+01 0.  1.
       -4    1    3    3    0  502 -0.66288405304E+03  0.16943125089E+04 -0.46658233096E+03  0.18782467436E+04  0.12699999809E+01 0. -1.
</event>
<event>
 5   0  0.1685793E-06  0.3687118E+04  0.7818609E-02  0.8070823E-01
        2   -1    0    0  501    0  0.00000000000E+00  0.00000000000E+00  0.28973061042E+04  0.28973061042E+04  0.25500000920E-02 0.  1.
       -2   -1    0    0    0  501  0.00000000000E+00  0.00000000000E+00 -0.11730586112E+04  0.11730586112E+04  0.25500000920E-02 0. -1.
    10030    2    1    2    0    0  0.00000000000E+00  0.00000000000E+00  0.17242474930E+04  0.40703647155E+04  0.36871180480E+04 0.  0.
        3    1    3    3  502    0 -0.17899725804E+04  0.62833583915E+02  0.37996516380E+03  0.18309351255E+04  0.10100000352E+00 0. -1.
       -3    1    3    3    0  502  0.17899725804E+04 -0.62833583915E+02  0.13442823292E+04  0.22394295900E+04  0.10100000352E+00 0.  1.
</event>
<event>
 5   0  0.6287345E-07  0.2172154E+04  0.7818609E-02  0.8530108E-01
       -1   -1    0    0    0  501  0.00000000000E+00  0.00000000000E+00  0.10277431511E+04  0.10277431511E+04  0.50400001928E-02 0.  1.
        1   -1    0    0  501    0  0.00000000000E+00  0.00000000000E+00 -0.11477217974E+04  0.11477217974E+04  0.50400001928E-02 0. -1.
    10030    2    1    2    0    0  0.00000000000E+00  0.00000000000E+00 -0.11997864632E+03  0.21754649485E+04  0.21721539694E+04 0.  0.
        5    1    3    3  502    0 -0.34940401310E+03 -0.51009536971E+03  0.83426625083E+03  0.10384135582E+04  0.46999998093E+01 0.  1.
       -5    1    3    3    0  502  0.34940401310E+03  0.51009536971E+03 -0.95424489715E+03  0.11370513904E+04  0.46999998093E+01 0. -1.
</event>
<event>
 5   0  0.5875011E-07  0.3658340E+04  0.7818609E-02  0.8077257E-01
        1   -1    0    0  501    0  0.00000000000E+00  0.00000000000E+00  0.12364109883E+04  0.12364109883E+04  0.50400001928E-02 0.  1.
       -1   -1    0    0    0  501  0.00000000000E+00  0.00000000000E+00 -0.27061093116E+04  0.27061093116E+04  0.50400001928E-02 0. -1.
    10030    2    1    2    0    0  0.00000000000E+00  0.00000000000E+00 -0.14696983234E+04  0.39425202999E+04  0.36583402184E+04 0.  0.
        2    1    3    3  502    0 -0.13889869265E+04  0.47370694771E+03  0.44183748056E+03  0.15326132303E+04  0.25500000920E-02 0.  1.
       -2    1    3    3    0  502  0.13889869265E+04 -0.47370694771E+03 -0.19115358039E+04  0.24099070696E+04  0.25500000920E-02 0. -1.
</event>
<event>
 5   0  0.1151180E-06  0.2584668E+04  0.7818609E-02  0.8373428E-01
       -2   -1    0    0    0  501  0.00000000000E+00  0.00000000000E+00  0.10304691473E+04  0.10304691473E+04  0.25500000920E-02 0. -1.
        2   -1    0    0  501    0  0.00000000000E+00  0.00000000000E+00 -0.16207438510E+04  0.16207438510E+04  0.25500000920E-02 0.  1.
    10030    2    1    2    0    0  0.00000000000E+00  0.00000000000E+00 -0.59027470370E+03  0.26512129983E+04  0.25846675099E+04 0.  0.
        5    1    3    3  502    0  0.32756616766E+03  0.10290345657E+04 -0.10232674365E+04  0.14877197546E+04  0.46999998093E+01 0.  1.
       -5    1    3    3    0  502 -0.32756616766E+03 -0.10290345657E+04  0.43299273278E+03  0.11634932437E+04  0.46999998093E+01 0. -1.
</event>
<event>
 5   0  0.1724503E-06  0.3567401E+04  0.7818609E-02  0.8098000E-01
       -2   -1    0    0    0  501  0.00000000000E+00  0.00000000000E+00  0.12748049278E+04  0.12748049278E+04  0.25500000920E-02 0. -1.
        2   -1    0    0  501    0  0.00000000000E+00  0.00000000000E+00 -0.24957446892E+04  0.24957446892E+04  0.25500000920E-02 0.  1.
    10030    2    1    2    0    0  0.00000000000E+00  0.00000000000E+00 -0.12209397614E+04  0.37705496171E+04  0.35674010868E+04 0.  0.
        1    1    3    3  502    0  0.26330435630E+03  0.11853187688E+04  0.77056556110E+03  0.14380824218E+04  0.50400001928E-02 0. -1.
       -1    1    3    3    0  502 -0.26330435630E+03 -0.11853187688E+04 -0.19915053225E+04  0.23324671953E+04  0.50400001928E-02 0.  1.
</event>
<event>
 5   0  0.1184684E-06  0.3698650E+04  0.7818609E-02  0.8068261E-01
        2   -1    0    0  501    0  0.00000000000E+00  0.00000000000E+00  0.23015083035E+04  0.23015083036E+04  0.25500000920E-02 0. -1.
       -2   -1    0    0    0  501  0.00000000000E+00  0.00000000000E+00 -0.14859829619E+04  0.14859829619E+04  0.25500000920E-02 0.  1.
    10030    2    1    2    0    0  0.00000000000E+00  0.00000000000E+00  0.81552534167E+03  0.37874912654E+04  0.36986495512E+04 0.  0.
        4    1    3    3  502    0  0.16543374559E+04  0.82647519621E+03  0.41834753351E+03  0.18960247730E+04  0.12699999809E+01 0. -1.
       -4    1    3    3    0  502 -0.16543374559E+04 -0.82647519621E+03  0.39717780816E+03  0.18914664925E+04  0.12699999809E+01 0.  1.
</event>
<event>
 5   0  0.1184684E-06  0.3036576E+04  0.7818609E-02  0.8233363E-01
        2   -1    0    0  501    0  0.00000000000E+00  0.00000000000E+00  0.21458387518E+04  0.21458387518E+04  0.25500000920E-02 0.  1.
       -2   -1    0    0    0  501  0.00000000000E+00  0.00000000000E+00 -0.10742645996E+04  0.10742645996E+04  0.25500000920E-02 0. -1.
    10030    2    1    2    0    0  0.00000000000E+00  0.00000000000E+00  0.10715741521E+04  0.32201033514E+04  0.30365761031E+04 0.  0.
        4    1    3    3  502    0 -0.68030535503E+03  0.13132244585E+04  0.89978670215E+03  0.17311821327E+04  0.12699999809E+01 0.  1.
       -4    1    3    3    0  502  0.68030535503E+03 -0.13132244585E+04  0.17178744999E+03  0.14889212186E+04  0.12699999809E+01 0. -1.
</event>
<event>
 5   0  0.6261598E-07  0.3613963E+04  0.7818609E-02  0.8087301E-01
       -1   -1    0    0    0  501  0.00000000000E+00  0.00000000000E+00  0.31295797478E+04  0.31295797478E+04  0.50400001928E-02 0.  1.
        1   -1    0    0  501    0  0.00000000000E+00  0.00000000000E+00 -0.10433289962E+04  0.10433289962E+04  0.50400001928E-02 0. -1.
    10030    2    1    2    0    0  0.00000000000E+00  0.00000000000E+00  0.20862507516E+04  0.41729087440E+04  0.36139625326E+04 0.  0.
        1    1    3    3  502    0 -0.12755036353E+04 -0.10100613728E+04  0.19508754075E+04  0.25402850935E+04  0.50400001928E-02 0.  1.
       -1    1    3    3    0  502  0.12755036353E+04  0.10100613728E+04  0.13537534411E+03  0.16326236505E+04  0.50400001928E-02 0. -1.
</event>
<event>
 5   0  0.5679750E-07  0.3692058E+04  0.7818609E-02  0.8069724E-01
       -1   -1    0    0    0  501  0.00000000000E+00  0.00000000000E+00  0.15144753205E+04  0.15144753205E+04  0.50400001928E-02 0.  1.
        1   -1    0    0  501    0  0.00000000000E+00  0.00000000000E+00 -0.22501678293E+04  0.22501678293E+04  0.50400001928E-02 0. -1.
    10030    2    1    2    0    0  0.00000000000E+00  0.00000000000E+00 -0.73569250882E+03  0.37646431498E+04  0.36920583118E+04 0.  0.
        4    1    3    3  502    0 -0.83992296243E+03 -0.89169226611E+02 -0.20415798099E+04  0.22094052292E+04  0.12699999809E+01 0. -1.
       -4    1    3    3    0  502  0.83992296243E+03  0.89169226611E+02  0.13058873010E+04  0.15552379206E+04  0.12699999809E+01 0.  1.
</event>
<event>
 5   0  0.5679750E-07  0.2121287E+04  0.7818609E-02  0.8551924E-01
       -4   -1    0    0    0  501  0.00000000000E+00  0.00000000000E+00  0.11093623858E+04  0.11093631128E+04  0.12699999809E+01 0.  1.
        4   -1    0    0  501    0  0.00000000000E+00  0.00000000000E+00 -0.10140627276E+04  0.10140635229E+04  0.12699999809E+01 0. -1.
    10030    2    1    2    0    0  0.00000000000E+00  0.00000000000E+00  0.95299658225E+02  0.21234266357E+04  0.21212870273E+04 0.  0.
        1    1    3    3  502    0  0.81297312699E+03  0.14649585907E+03 -0.61828678424E+03  0.10318259977E+04  0.50400001928E-02 0. -1.
       -1    1    3    3    0  502 -0.81297312699E+03 -0.14649585907E+03  0.71358644247E+03  0.10916006380E+04  0.50400001928E-02 0.  1.
</event>
<event>
 5   0  0.1184684E-06  0.3589216E+04  0.7818609E-02  0.8092966E-01
       -2   -1    0    0    0  501  0.00000000000E+00  0.00000000000E+00  0.14208707672E+04  0.14208707672E+04  0.25500000920E-02 0. -1.
        2   -1    0    0  501    0  0.00000000000E+00  0.00000000000E+00 -0.22666507241E+04  0.22666507241E+04  0.25500000920E-02 0.  1.
    10030    2    1    2    0    0  0.00000000000E+00  0.00000000000E+00 -0.84577995686E+03  0.36875214913E+04  0.35892159329E+04 0.  0.
        4    1    3    3  502    0  0.13789454631E+04  0.42556334041E+02  0.75628895214E+03  0.15733010595E+04  0.12699999809E+01 0. -1.
       -4    1    3    3    0  502 -0.13789454631E+04 -0.42556334041E+02 -0.16020689090E+04  0.21142204317E+04  0.12699999809E+01 0.  1.
</event>
<event>
 5   0  0.1184684E-06  0.2034109E+04  0.7818609E-02  0.8590838E-01
        2   -1    0    0  501    0  0.00000000000E+00  0.00000000000E+00  0.22961243320E+04  0.22961243320E+04  0.25500000920E-02 0. -1.
       -2   -1    0    0    0  501  0.00000000000E+00  0.00000000000E+00 -0.45049814759E+03  0.45049814760E+03  0.25500000920E-02 0.  1.
    10030    2    1    2    0    0  0.00000000000E+00  0.00000000000E+00  0.18456261844E+04  0.27466224796E+04  0.20341089039E+04 0.  0.
        4    1    3    3  502    0  0.72181909385E+03  0.67628944622E+03  0.60325522434E+03  0.11585804667E+04  0.12699999809E+01 0. -1.
       -4    1    3    3    0  502 -0.72181909385E+03 -0.67628944622E+03  0.12423709601E+04  0.15880420129E+04  0.12699999809E+01 0.  1.
</event>
<event>
 5   0  0.6186440E-07  0.3660111E+04  0.7818609E-02  0.8076860E-01
        1   -1    0    0  501    0  0.00000000000E+00  0.00000000000E+00  0.25675420189E+04  0.25675420189E+04  0.50400001928E-02 0.  1.
       -1   -1    0    0    0  501  0.00000000000E+00  0.00000000000E+00 -0.13044007401E+04  0.13044007401E+04  0.50400001928E-02 0. -1.
    10030    2    1    2    0    0  0.00000000000E+00  0.00000000000E+00  0.12631412788E+04  0.38719427590E+04  0.36601113150E+04 0.  0.
        3    1    3    3  502    0  0.14952120050E+04 -0.40536819848E+03  0.16621833954E+04  0.22721874848E+04  0.10100000352E+00 0.  1.
       -3    1    3    3    0  502 -0.14952120050E+04  0.40536819848E+03 -0.39904211659E+03  0.15997552741E+04  0.10100000352E+00 0. -1.
</event>
<event>
 5   0  0.5679750E-07  0.3864838E+04  0.7818609E-02  0.8032382E-01
       -3   -1    0    0    0  501  0.00000000000E+00  0.00000000000E+00  0.13322496423E+04  0.13322496461E+04  0.10100000352E+00 0.  1.
        3   -1    0    0  501    0  0.00000000000E+00  0.00000000000E+00 -0.28029608462E+04  0.28029608480E+04  0.10100000352E+00 0. -1.
    10030    2    1    2    0    0  0.00000000000E+00  0.00000000000E+00 -0.14707112040E+04  0.41352104941E+04  0.38648382094E+04 0.  0.
        5    1    3    3  502    0 -0.12063422661E+04 -0.62537983308E+03 -0.22054701825E+04  0.25904598848E+04  0.46999998093E+01 0. -1.
       -5    1    3    3    0  502  0.12063422661E+04  0.62537983308E+03  0.73475897855E+03  0.15447506094E+04  0.46999998093E+01 0.  1.
</event>
<event>
 5   0  0.1184684E-06  0.3751240E+04  0.7818609E-02  0.8056700E-01
       -2   -1    0    0    0  501  0.00000000000E+00  0.00000000000E+00  0.16803417486E+04  0.16803417486E+04  0.25500000920E-02 0.  1.
        2   -1    0    0  501    0  0.00000000000E+00  0.00000000000E+00 -0.20935925446E+04  0.20935925446E+04  0.25500000920E-02 0. -1.
    10030    2    1    2    0    0  0.00000000000E+00  0.00000000000E+00 -0.41325079595E+03  0.37739342932E+04  0.37512403054E+04 0.  0.
        4    1    3    3  502    0  0.54042537965E+02 -0.81206858764E+03 -0.19066926789E+04  0.20731267621E+04  0.12699999809E+01 0. -1.
       -4    1    3    3    0  502 -0.54042537965E+02  0.81206858764E+03  0.14934418830E+04  0.17008075311E+04  0.12699999809E+01 0.  1.
</event>
<event>
 5   0  0.6261598E-07  0.3739893E+04  0.7818609E-02  0.8059178E-01
        1   -1    0    0  501    0  0.00000000000E+00  0.00000000000E+00  0.17263844721E+04  0.17263844721E+04  0.50400001928E-02 0.  1.
       -1   -1    0    0    0  501  0.00000000000E+00  0.00000000000E+00 -0.20254464188E+04  0.20254464189E+04  0.50400001928E-02 0. -1.
    10030    2    1    2    0    0  0.00000000000E+00  0.00000000000E+00 -0.29906194676E+03  0.37518308909E+04  0.37398926437E+04 0.  0.
        1    1    3    3  502    0 -0.86666718892E+03 -0.11637098100E+04 -0.13328583796E+04  0.19702395790E+04  0.50400001928E-02 0. -1.
       -1    1    3    3    0  502  0.86666718892E+03  0.11637098100E+04  0.10337964329E+04  0.17815913120E+04  0.50400001928E-02 0.  1.
</event>
<event>
 5   0  0.6186440E-07  0.3739373E+04  0.7818609E-02  0.8059292E-01
       -1   -1    0    0    0  501  0.00000000000E+00  0.00000000000E+00  0.27806152492E+04  0.27806152492E+04  0.50400001928E-02 0. -1.
        1   -1    0    0  501    0  0.00000000000E+00  0.00000000000E+00 -0.12571780750E+04  0.12571780750E+04  0.50400001928E-02 0.  1.
    10030    2    1    2    0    0  0.00000000000E+00  0.00000000000E+00  0.15234371742E+04  0.40377933242E+04  0.37393734910E+04 0.  0.
        3    1    3    3  502    0 -0.15852720559E+04 -0.58940369542E+03 -0.98909731289E+02  0.16941863394E+04  0.10100000352E+00 0.  1.
       -3    1    3    3    0  502  0.15852720559E+04  0.58940369542E+03  0.16223469055E+04  0.23436069848E+04  0.10100000352E+00 0. -1.
</event>
<event>
 5   0  0.6186440E-07  0.3725632E+04  0.7818609E-02  0.8062305E-01
       -1   -1    0    0    0  501  0.00000000000E+00  0.00000000000E+00  0.19718468196E+04  0.19718468196E+04  0.50400001928E-02 0.  1.
        1   -1    0    0  501    0  0.00000000000E+00  0.00000000000E+00 -0.17598143366E+04  0.17598143366E+04  0.50400001928E-02 0. -1.
    10030    2    1    2    0    0  0.00000000000E+00  0.00000000000E+00  0.21203248297E+03  0.37316611561E+04  0.37256324578E+04 0.  0.
        3    1    3    3  502    0  0.14424299407E+04  0.13997902750E+03  0.12783314842E+04  0.19324413719E+04  0.10100000352E+00 0.  1.
       -3    1    3    3    0  502 -0.14424299407E+04 -0.13997902750E+03 -0.10662990012E+04  0.17992197843E+04  0.10100000352E+00 0. -1.
</event>
<event>
 5   0  0.1151180E-06  0.3445825E+04  0.7818609E-02  0.8126750E-01
        2   -1    0    0  501    0  0.00000000000E+00  0.00000000000E+00  0.20636317031E+04  0.20636317031E+04  0.25500000920E-02 0. -1.
       -2   -1    0    0    0  501  0.00000000000E+00  0.00000000000E+00 -0.14384482185E+04  0.14384482185E+04  0.25500000920E-02 0.  1.
    10030    2    1    2    0    0  0.00000000000E+00  0.00000000000E+00  0.62518348456E+03  0.35020799216E+04  0.34458249212E+04 0.  0.
        5    1    3    3  502    0 -0.42587940511E+03  0.15773836056E+04  0.86822813252E+03  0.18502309280E+04  0.46999998093E+01 0.  1.
       -5    1    3    3    0  502  0.42587940511E+03 -0.15773836056E+04 -0.24304464796E+03  0.16518489936E+04  0.46999998093E+01 0. -1.
</event>
<event>
 5   0  0.5679750E-07  0.3721480E+04  0.7818609E-02  0.8063218E-01
       -3   -1    0    0    0  501  0.00000000000E+00  0.00000000000E+00  0.27298708280E+04  0.27298708299E+04  0.10100000352E+00 0.  1.
        3   -1    0    0  501    0  0.00000000000E+00  0.00000000000E+00 -0.12683212358E+04  0.12683212399E+04  0.10100000352E+00 0. -1.
    10030    2    1    2    0    0  0.00000000000E+00  0.00000000000E+00  0.14615495922E+04  0.39981920697E+04  0.37214798959E+04 0.  0.
        5    1    3    3  502    0 -0.50380630952E+03  0.42228545192E+03 -0.11394015817E+04  0.13154481574E+04  0.46999998093E+01 0. -1.
       -5    1    3    3    0  502  0.50380630952E+03 -0.42228545192E+03  0.26009511738E+04  0.26827439123E+04  0.46999998093E+01 0.  1.
</event>
<event>
 5   0  0.1151180E-06  0.2913253E+04  0.7818609E-02  0.8268945E-01
       -2   -1    0    0    0  501  0.00000000000E+00  0.00000000000E+00  0.13877824119E+04  0.13877824119E+04  0.25500000920E-02 0.  1.
        2   -1    0    0  501    0  0.00000000000E+00  0.00000000000E+00 -0.15288853462E+04  0.15288853463E+04  0.25500000920E-02 0. -1.
    10030    2    1    2    0    0  0.00000000000E+00  0.00000000000E+00 -0.14110293431E+03  0.29166677582E+04  0.29132526107E+04 0.  0.
        5    1    3    3  502    0  0.23294048327E+03 -0.11197830474E+04  0.83248304266E+03  0.14146467575E+04  0.46999998093E+01 0.  1.
       -5    1    3    3    0  502 -0.23294048327E+03  0.11197830474E+04 -0.97358597697E+03  0.15020210007E+04  0.46999998093E+01 0. -1.
</event>
<event>
 5   0  0.1680194E-06  0.3761708E+04  0.7818609E-02  0.8054423E-01
       -2   -1    0    0    0  501  0.00000000000E+00  0.00000000000E+00  0.12840177935E+04  0.12840177935E+04  0.25500000920E-02 0.  1.
        2   -1    0    0  501    0  0.00000000000E+00  0.00000000000E+00 -0.27551111316E+04  0.27551111317E+04  0.25500000920E-02 0. -1.
    10030    2    1    2    0    0  0.00000000000E+00  0.00000000000E+00 -0.14710933381E+04  0.40391289252E+04  0.37617079717E+04 0.  0.
        2    1    3    3  502    0  0.18267747102E+04 -0.43181783106E+03 -0.86277222603E+03  0.20659013517E+04  0.25500000920E-02 0.  1.
       -2    1    3    3    0  502 -0.18267747102E+04  0.43181783106E+03 -0.60832111211E+03  0.19732275734E+04  0.25500000920E-02 0. -1.
</event>
<event>
 5   0  0.5679750E-07  0.3659491E+04  0.7818609E-02  0.8076999E-01
        1   -1    0    0  501    0  0.00000000000E+00  0.00000000000E+00  0.16871132877E+04  0.16871132877E+04  0.50400001928E-02 0.  1.
       -1   -1    0    0    0  501  0.00000000000E+00  0.00000000000E+00 -0.19844359180E+04  0.19844359180E+04  0.50400001928E-02 0. -1.
    10030    2    1    2    0    0  0.00000000000E+00  0.00000000000E+00 -0.29732263027E+03  0.36715492057E+04  0.36594907874E+04 0.  0.
        4    1    3    3  502    0  0.57332474198E+03  0.11851650998E+04 -0.14235367747E+04  0.19390142174E+04  0.12699999809E+01 0. -1.
       -4    1    3    3    0  502 -0.57332474198E+03 -0.11851650998E+04  0.11262141444E+04  0.17325349883E+04  0.12699999809E+01 0.  1.
</event>
<event>
 5   0  0.1151180E-06  0.3748579E+04  0.7818609E-02  0.8057281E-01
        2   -1    0    0  501    0  0.00000000000E+00  0.00000000000E+00  0.35467541108E+04  0.35467541108E+04  0.25500000920E-02 0.  1.
       -2   -1    0    0    0  501  0.00000000000E+00  0.00000000000E+00 -0.99047202557E+03  0.99047202557E+03  0.25500000920E-02 0. -1.
    10030    2    1    2    0    0  0.00000000000E+00  0.00000000000E+00  0.25562820852E+04  0.45372261363E+04  0.37485787858E+04 0.  0.
        5    1    3    3  502    0 -0.20128490956E+03 -0.30687993565E+03 -0.94654909126E+03  0.10152182927E+04  0.46999998093E+01 0. -1.
       -5    1    3    3    0  502  0.20128490956E+03  0.30687993565E+03  0.35028311765E+04  0.35220078436E+04  0.46999998093E+01 0.  1.
</event>
<event>
 5   0  0.6186440E-07  0.3638011E+04  0.7818609E-02  0.8081840E-01
        1   -1    0    0  501    0  0.00000000000E+00  0.00000000000E+00  0.28016409563E+04  0.28016409563E+04  0.50400001928E-02 0.  1.
       -1   -1    0    0    0  501  0.00000000000E+00  0.00000000000E+00 -0.11810151185E+04  0.11810151185E+04  0.50400001928E-02 0. -1.
    10030    2    1    2    0    0  0.00000000000E+00  0.00000000000E+00  0.16206258378E+04  0.39826560749E+04  0.36380106246E+04 0.  0.
        3    1    3    3  502    0  0.29547338972E+03 -0.52324375761E+03  0.26898455716E+04  0.27561490822E+04  0.10100000352E+00 0.  1.
       -3    1    3    3    0  502 -0.29547338972E+03  0.52324375761E+03 -0.10692197338E+04  0.12265069927E+04  0.10100000352E+00 0. -1.
</event>
<event>
 5   0  0.1724503E-06  0.3096942E+04  0.7818609E-02  0.8216578E-01
       -2   -1    0    0    0  501  0.00000000000E+00  0.00000000000E+00  0.11072909803E+04  0.11072909804E+04  0.25500000920E-02 0. -1.
        2   -1    0    0  501    0  0.00000000000E+00  0.00000000000E+00 -0.21654314916E+04  0.21654314916E+04  0.25500000920E-02 0.  1.
    10030    2    1    2    0    0  0.00000000000E+00  0.00000000000E+00 -0.10581405113E+04  0.32727224720E+04  0.30969422076E+04 0.  0.
        1    1    3    3  502    0  0.53293013718E+03  0.74041386208E+03  0.79316137822E+03  0.12088557359E+04  0.50400001928E-02 0. -1.
       -1    1    3    3    0  502 -0.53293013718E+03 -0.74041386208E+03 -0.18513018895E+04  0.20638667361E+04  0.50400001928E-02 0.  1.
</event>
<event>
 5   0  0.1685793E-06  0.2825729E+04  0.7818609E-02  0.8295325E-01
       -2   -1    0    0    0  501  0.00000000000E+00  0.00000000000E+00  0.12996420239E+04  0.12996420239E+04  0.25500000920E-02 0.  1.
        2   -1    0    0  501    0  0.00000000000E+00  0.00000000000E+00 -0.15359507370E+04  0.15359507370E+04  0.25500000920E-02 0. -1.
    10030    2    1    2    0    0  0.00000000000E+00  0.00000000000E+00 -0.23630871316E+03  0.28355927609E+04  0.28257290205E+04 0.  0.
        3    1    3    3  502    0 -0.97244078126E+03  0.95221907403E+03  0.26241064106E+03  0.13860813803E+04  0.10100000352E+00 0.  1.
       -3    1    3    3    0  502  0.97244078126E+03 -0.95221907403E+03 -0.49871935422E+03  0.14495113806E+04  0.10100000352E+00 0. -1.
</event>
<event>
 5   0  0.5875011E-07  0.3440822E+04  0.7818609E-02  0.8127959E-01
        1   -1    0    0  501    0  0.00000000000E+00  0.00000000000E+00  0.12822153064E+04  0.12822153064E+04  0.50400001928E-02 0. -1.
       -1   -1    0    0    0  501  0.00000000000E+00  0.00000000000E+00 -0.23083592909E+04  0.23083592909E+04  0.50400001928E-02 0.  1.
    10030    2    1    2    0    0  0.00000000000E+00  0.00000000000E+00 -0.10261439845E+04  0.35905745973E+04  0.34408217713E+04 0.  0.
        2    1    3    3  502    0 -0.13997981401E+04  0.99277539400E+03 -0.63991813586E+03  0.18315384344E+04  0.25500000920E-02 0. -1.
       -2    1    3    3    0  502  0.13997981401E+04 -0.99277539400E+03 -0.38622584865E+03  0.17590361629E+04  0.25500000920E-02 0.  1.
</event>
<event>
 5   0  0.1685793E-06  0.3289764E+04  0.7818609E-02  0.8165505E-01
        2   -1    0    0  501    0  0.00000000000E+00  0.00000000000E+00  0.23060124270E+04  0.23060124270E+04  0.25500000920E-02 0. -1.
       -2   -1    0    0    0  501  0.00000000000E+00  0.00000000000E+00 -0.11732968528E+04  0.11732968528E+04  0.25500000920E-02 0.  1.
    10030    2    1    2    0    0  0.00000000000E+00  0.00000000000E+00  0.11327155742E+04  0.34793092799E+04  0.32897642002E+04 0.  0.
        3    1    3    3  502    0 -0.60992538406E+03 -0.76226536809E+03 -0.83376829913E+03  0.12838329534E+04  0.10100000352E+00 0.  1.
       -3    1    3    3    0  502  0.60992538406E+03  0.76226536809E+03  0.19664838734E+04  0.21954763264E+04  0.10100000352E+00 0. -1.
</event>
<event>
 5   0  0.1680194E-06  0.3796243E+04  0.7818609E-02  0.8046962E-01
        2   -1    0    0  501    0  0.00000000000E+00  0.00000000000E+00  0.17404924826E+04  0.17404924826E+04  0.25500000920E-02 0.  1.
       -2   -1    0    0    0  501  0.00000000000E+00  0.00000000000E+00 -0.20700257990E+04  0.20700257990E+04  0.25500000920E-02 0. -1.
    10030    2    1    2    0    0  0.00000000000E+00  0.00000000000E+00 -0.32953331643E+03  0.38105182816E+04  0.37962425328E+04 0.  0.
        2    1    3    3  502    0 -0.61801665578E+02 -0.13341340165E+04 -0.15185903962E+04  0.20223377095E+04  0.25500000920E-02 0. -1.
       -2    1    3    3    0  502  0.61801665578E+02  0.13341340165E+04  0.11890570797E+04  0.17881805722E+04  0.25500000920E-02 0.  1.
</event>
<event>
 5   0  0.1184684E-06  0.3688737E+04  0.7818609E-02  0.8070462E-01
        2   -1    0    0  501    0  0.00000000000E+00  0.00000000000E+00  0.21357755409E+04  0.21357755409E+04  0.25500000920E-02 0.  1.
       -2   -1    0    0    0  501  0.00000000000E+00  0.00000000000E+00 -0.15927211970E+04  0.15927211970E+04  0.25500000920E-02 0. -1.
    10030    2    1    2    0    0  0.00000000000E+00  0.00000000000E+00  0.54305434389E+03  0.37284967379E+04  0.36887368982E+04 0.  0.
        4    1    3    3  502    0 -0.15493763673E+04  0.91309415057E+03  0.68506453590E+03  0.19244799523E+04  0.12699999809E+01 0.  1.
       -4    1    3    3    0  502  0.15493763673E+04 -0.91309415057E+03 -0.14201019201E+03  0.18040167857E+04  0.12699999809E+01 0. -1.
</event>
<event>
 5   0  0.1685793E-06  0.2596546E+04  0.7818609E-02  0.8369375E-01
       -2   -1    0    0    0  501  0.00000000000E+00  0.00000000000E+00  0.12435992703E+04  0.12435992703E+04  0.25500000920E-02 0.  1.
        2   -1    0    0  501    0  0.00000000000E+00  0.00000000000E+00 -0.13553502031E+04  0.13553502031E+04  0.25500000920E-02 0. -1.
    10030    2    1    2    0    0  0.00000000000E+00  0.00000000000E+00 -0.11175093273E+03  0.25989494734E+04  0.25965458005E+04 0.  0.
        3    1    3    3  502    0  0.41568336023E+03 -0.11534918943E+04 -0.48309174831E+03  0.13178443966E+04  0.10100000352E+00 0. -1.
       -3    1    3    3    0  502 -0.41568336023E+03  0.11534918943E+04  0.37134081558E+03  0.12811050768E+04  0.10100000352E+00 0.  1.
</event>
<event>
 5   0  0.1184684E-06  0.2050894E+04  0.7818609E-02  0.8583189E-01
        2   -1    0    0  501    0  0.00000000000E+00  0.00000000000E+00  0.18086850363E+04  0.18086850363E+04  0.25500000920E-02 0.  1.
       -2   -1    0    0    0  501  0.00000000000E+00  0.00000000000E+00 -0.58138470200E+03  0.58138470201E+03  0.25500000920E-02 0. -1.
    10030    2    1    2    0    0  0.00000000000E+00  0.00000000000E+00  0.12273003343E+04  0.23900697383E+04  0.20508942546E+04 0.  0.
        4    1    3    3  502    0 -0.87853542658E+03 -0.26365906770E+03  0.79352539970E+02  0.92067314408E+03  0.12699999809E+01 0. -1.
       -4    1    3    3    0  502  0.87853542658E+03  0.26365906770E+03  0.11479477943E+04  0.14693965942E+04  0.12699999809E+01 0.  1.
</event>
<event>
 5   0  0.1184684E-06  0.3656542E+04  0.7818609E-02  0.8077662E-01
        2   -1    0    0  501    0  0.00000000000E+00  0.00000000000E+00  0.19712048469E+04  0.19712048470E+04  0.25500000920E-02 0. -1.
       -2   -1    0    0    0  501  0.00000000000E+00  0.00000000000E+00 -0.16957010460E+04  0.16957010460E+04  0.25500000920E-02 0.  1.
    10030    2    1    2    0    0  0.00000000000E+00  0.00000000000E+00  0.27550380098E+03  0.36669058929E+04  0.36565416015E+04 0.  0.
        4    1    3    3  502    0 -0.93427356394E+03 -0.65880548251E+03  0.15685688648E+04  0.19409537997E+04  0.12699999809E+01 0. -1.
       -4    1    3    3    0  502  0.93427356394E+03  0.65880548251E+03 -0.12930650638E+04  0.17259520932E+04  0.12699999809E+01 0.  1.
</event>
<event>
 5   0  0.5679750E-07  0.2162362E+04  0.7818609E-02  0.8534259E-01
        1   -1    0    0  501    0  0.00000000000E+00  0.00000000000E+00  0.14995802830E+04  0.14995802830E+04  0.50400001928E-02 0. -1.
       -1   -1    0    0    0  501  0.00000000000E+00  0.00000000000E+00 -0.77951962741E+03  0.77951962743E+03  0.50400001928E-02 0.  1.
    10030    2    1    2    0    0  0.00000000000E+00  0.00000000000E+00  0.72006065559E+03  0.22790999104E+04  0.21623619156E+04 0.  0.
        4    1    3    3  502    0  0.45306538602E+03 -0.94022856870E+03  0.65749478543E+03  0.12335311148E+04  0.12699999809E+01 0. -1.
       -4    1    3    3    0  502 -0.45306538602E+03  0.94022856870E+03  0.62565870159E+02  0.10455687956E+04  0.12699999809E+01 0.  1.
</event>
<event>
 5   0  0.1151180E-06  0.4013192E+04  0.7818609E-02  0.8001891E-01
       -2   -1    0    0    0  501  0.00000000000E+00  0.00000000000E+00  0.27857469084E+04  0.27857469084E+04  0.25500000920E-02 0. -1.
        2   -1    0    0  501    0  0.00000000000E+00  0.00000000000E+00 -0.14453670995E+04  0.14453670995E+04  0.25500000920E-02 0.  1.
    10030    2    1    2    0    0  0.00000000000E+00  0.00000000000E+00  0.13403798089E+04  0.42311140080E+04  0.40131917119E+04 0.  0.
        5    1    3    3  502    0  0.80870288735E+03 -0.10963279212E+04  0.22234410102E+04  0.26076133316E+04  0.46999998093E+01 0. -1.
       -5    1    3    3    0  502 -0.80870288735E+03  0.10963279212E+04 -0.88306120137E+03  0.16235006764E+04  0.46999998093E+01 0.  1.
</event>
<event>
 5   0  0.1184684E-06  0.3578280E+04  0.7818609E-02  0.8095485E-01
        2   -1    0    0  501    0  0.00000000000E+00  0.00000000000E+00  0.19177063321E+04  0.19177063321E+04  0.25500000920E-02 0. -1.
       -2   -1    0    0    0  501  0.00000000000E+00  0.00000000000E+00 -0.16691926974E+04  0.16691926974E+04  0.25500000920E-02 0.  1.
    10030    2    1    2    0    0  0.00000000000E+00  0.00000000000E+00  0.24851363474E+03  0.35868990295E+04  0.35782797014E+04 0.  0.
        4    1    3    3  502    0  0.98430770203E+03 -0.71091791048E+03  0.14414821824E+04  0.18847117612E+04  0.12699999809E+01 0. -1.
       -4    1    3    3    0  502 -0.98430770203E+03  0.71091791048E+03 -0.11929685477E+04  0.17021872683E+04  0.12699999809E+01 0.  1.
</event>
<event>
 5   0  0.6261598E-07  0.3689854E+04  0.7818609E-02  0.8070214E-01
       -1   -1    0    0    0  501  0.00000000000E+00  0.00000000000E+00  0.13301256530E+04  0.13301256530E+04  0.50400001928E-02 0.  1.
        1   -1    0    0  501    0  0.00000000000E+00  0.00000000000E+00 -0.25589724815E+04  0.25589724815E+04  0.50400001928E-02 0. -1.
    10030    2    1    2    0    0  0.00000000000E+00  0.00000000000E+00 -0.12288468285E+04  0.38890981345E+04  0.36898536248E+04 0.  0.
        1    1    3    3  502    0 -0.38119046858E+03 -0.12686808122E+04 -0.19678560004E+04  0.23721961164E+04  0.50400001928E-02 0. -1.
       -1    1    3    3    0  502  0.38119046858E+03  0.12686808122E+04  0.73900917190E+03  0.15169020181E+04  0.50400001928E-02 0.  1.
</event>
<event>
 5   0  0.1685793E-06  0.3694367E+04  0.7818609E-02  0.8069211E-01
       -2   -1    0    0    0  501  0.00000000000E+00  0.00000000000E+00  0.21280480254E+04  0.21280480254E+04  0.25500000920E-02 0.  1.
        2   -1    0    0  501    0  0.00000000000E+00  0.00000000000E+00 -0.16033883228E+04  0.16033883228E+04  0.25500000920E-02 0. -1.
    10030    2    1    2    0    0  0.00000000000E+00  0.00000000000E+00  0.52465970255E+03  0.37314363482E+04  0.36943672554E+04 0.  0.
        3    1    3    3  502    0 -0.57601100935E+02  0.83671340648E+03  0.19246506266E+04  0.20994492745E+04  0.10100000352E+00 0.  1.
       -3    1    3    3    0  502  0.57601100935E+02 -0.83671340648E+03 -0.13999909240E+04  0.16319870738E+04  0.10100000352E+00 0. -1.
</event>
<event>
 5   0  0.6261598E-07  0.3439381E+04  0.7818609E-02  0.8128308E-01
        1   -1    0    0  501    0  0.00000000000E+00  0.00000000000E+00  0.24190979868E+04  0.24190979868E+04  0.50400001928E-02 0.  1.
       -1   -1    0    0    0  501  0.00000000000E+00  0.00000000000E+00 -0.12224947817E+04  0.12224947817E+04  0.50400001928E-02 0. -1.
    10030    2    1    2    0    0  0.00000000000E+00  0.00000000000E+00  0.11966032052E+04  0.36415927685E+04  0.34393805636E+04 0.  0.
        1    1    3    3  502    0 -0.13124344961E+04 -0.10267372309E+04  0.14826962815E+03  0.16729188655E+04  0.50400001928E-02 0. -1.
       -1    1    3    3    0  502  0.13124344961E+04  0.10267372309E+04  0.10483335770E+04  0.19686739030E+04  0.50400001928E-02 0.  1.
</event>
<event>
 5   0  0.1680194E-06  0.2205016E+04  0.7818609E-02  0.8516343E-01
        2   -1    0    0  501    0  0.00000000000E+00  0.00000000000E+00  0.91631307857E+03  0.91631307858E+03  0.25500000920E-02 0.  1.
       -2   -1    0    0    0  501  0.00000000000E+00  0.00000000000E+00 -0.13265378192E+04  0.13265378192E+04  0.25500000920E-02 0. -1.
    10030    2    1    2    0    0  0.00000000000E+00  0.00000000000E+00 -0.41022474060E+03  0.22428508978E+04  0.22050160570E+04 0.  0.
        2    1    3    3  502    0  0.58159965748E+03  0.53134694037E+03 -0.98966819631E+03  0.12649232670E+04  0.25500000920E-02 0. -1.
       -2    1    3    3    0  502 -0.58159965748E+03 -0.53134694037E+03  0.57944345570E+03  0.97792763075E+03  0.25500000920E-02 0.  1.
</event>
<event>
 5   0  0.5875011E-07  0.3670466E+04  0.7818609E-02  0.8074539E-01
        1   -1    0    0  501    0  0.00000000000E+00  0.00000000000E+00  0.17692857995E+04  0.17692857995E+04  0.50400001928E-02 0.  1.
       -1   -1    0    0    0  501  0.00000000000E+00  0.00000000000E+00 -0.19036378372E+04  0.19036378372E+04  0.50400001928E-02 0. -1.
    10030    2    1    2    0    0  0.00000000000E+00  0.00000000000E+00 -0.13435203768E+03  0.36729236367E+04  0.36704655796E+04 0.  0.
        2    1    3    3  502    0  0.34396357717E+03  0.47559797554E+02  0.17361147474E+04  0.17704991649E+04  0.25500000920E-02 0.  1.
       -2    1    3    3    0  502 -0.34396357717E+03 -0.47559797554E+02 -0.18704667851E+04  0.19024244718E+04  0.25500000920E-02 0. -1.
</event>
<event>
 5   0  0.6186440E-07  0.2035107E+04  0.7818609E-02  0.8590381E-01
       -1   -1    0    0    0  501  0.00000000000E+00  0.00000000000E+00  0.12455665674E+04  0.12455665674E+04  0.50400001928E-02 0. -1.
        1   -1    0    0  501    0  0.00000000000E+00  0.00000000000E+00 -0.83128045284E+03  0.83128045285E+03  0.50400001928E-02 0.  1.
    10030    2    1    2    0    0  0.00000000000E+00  0.00000000000E+00  0.41428611459E+03  0.20768470203E+04  0.20351070146E+04 0.  0.
        3    1    3    3  502    0  0.38307239605E+03  0.58096750271E+01 -0.75486660097E+03  0.84652336554E+03  0.10100000352E+00 0.  1.
       -3    1    3    3    0  502 -0.38307239605E+03 -0.58096750271E+01  0.11691527156E+04  0.12303236548E+04  0.10100000352E+00 0. -1.
</event>
<event>
 5   0  0.5679750E-07  0.3473029E+04  0.7818609E-02  0.8120212E-01
        1   -1    0    0  501    0  0.00000000000E+00  0.00000000000E+00  0.22002061875E+04  0.22002061875E+04  0.50400001928E-02 0.  1.
       -1   -1    0    0    0  501  0.00000000000E+00  0.00000000000E+00 -0.13705454068E+04  0.13705454068E+04  0.50400001928E-02 0. -1.
    10030    2    1    2    0    0  0.00000000000E+00  0.00000000000E+00  0.82966078070E+03  0.35707515943E+04  0.34730289284E+04 0.  0.
        4    1    3    3  502    0  0.11298938352E+04 -0.10478953293E+04  0.12378133802E+04  0.19765951222E+04  0.12699999809E+01 0.  1.
       -4    1    3    3    0  502 -0.11298938352E+04  0.10478953293E+04 -0.40815259953E+03  0.15941564721E+04  0.12699999809E+01 0. -1.
</event>
<event>
 5   0  0.1151180E-06  0.3605646E+04  0.7818609E-02  0.8089200E-01
       -2   -1    0    0    0  501  0.00000000000E+00  0.00000000000E+00  0.12899879929E+04  0.12899879929E+04  0.25500000920E-02 0. -1.
        2   -1    0    0  501    0  0.00000000000E+00  0.00000000000E+00 -0.25195352898E+04  0.25195352898E+04  0.25500000920E-02 0.  1.
    10030    2    1    2    0    0  0.00000000000E+00  0.00000000000E+00 -0.12295472969E+04  0.38095232827E+04  0.36056457239E+04 0.  0.
        5    1    3    3  502    0 -0.98573182558E+03 -0.29375313294E+03  0.94955025127E+03  0.13998663882E+04  0.46999998093E+01 0. -1.
       -5    1    3    3    0  502  0.98573182558E+03  0.29375313294E+03 -0.21790975481E+04  0.24096568945E+04  0.46999998093E+01 0.  1.
</event>
<event>
 5   0  0.1724503E-06  0.3358958E+04  0.7818609E-02  0.8148054E-01
        2   -1    0    0  501    0  0.00000000000E+00  0.00000000000E+00  0.17528650815E+04  0.17528650815E+04  0.25500000920E-02 0.  1.
       -2   -1    0    0    0  501  0.00000000000E+00  0.00000000000E+00 -0.16091650973E+04  0.16091650973E+04  0.25500000920E-02 0. -1.
    10030    2    1    2    0    0  0.00000000000E+00  0.00000000000E+00  0.14369998422E+03  0.33620301788E+04  0.33589577607E+04 0.  0.
        1    1    3    3  502    0 -0.15741245800E+04 -0.45395278638E+03 -0.29822863495E+03  0.16651971788E+04  0.50400001928E-02 0. -1.
       -1    1    3    3    0  502  0.15741245800E+04  0.45395278638E+03  0.44192861917E+03  0.16968330000E+04  0.50400001928E-02 0.  1.
</event>
<event>
 5   0  0.1267075E-06  0.1967764E+04  0.7818609E-02  0.8621842E-01
        2   -1    0    0  501    0  0.00000000000E+00  0.00000000000E+00  0.23328166552E+04  0.23328166552E+04  0.25500000920E-02 0. -1.
       -2   -1    0    0    0  501  0.00000000000E+00  0.00000000000E+00 -0.41495909117E+03  0.41495909117E+03  0.25500000920E-02 0.  1.
    10030    2    1    2    0    0  0.00000000000E+00  0.00000000000E+00  0.19178575640E+04  0.27477757463E+04  0.19677636841E+04 0.  0.
        4    1    3    3  502    0 -0.98065531655E+03 -0.72436997567E+02  0.91282875166E+03  0.13417115604E+04  0.12699999809E+01 0.  1.
       -4    1    3    3    0  502  0.98065531655E+03  0.72436997567E+02  0.10050288123E+04  0.14060641859E+04  0.12699999809E+01 0. -1.
</event>
<event>
 5   0  0.1151180E-06  0.3734634E+04  0.7818609E-02  0.8060330E-01
       -2   -1    0    0    0  501  0.00000000000E+00  0.00000000000E+00  0.16039063127E+04  0.16039063127E+04  0.25500000920E-02 0. -1.
        2   -1    0    0  501    0  0.00000000000E+00  0.00000000000E+00 -0.21739880750E+04  0.21739880750E+04  0.25500000920E-02 0.  1.
    10030    2    1    2    0    0  0.00000000000E+00  0.00000000000E+00 -0.57008176229E+03  0.37778943877E+04  0.37346342242E+04 0.  0.
        5    1    3    3  502    0  0.13976787151E+04  0.10032343447E+04 -0.10193043053E+04  0.19997470585E+04  0.46999998093E+01 0.  1.
       -5    1    3    3    0  502 -0.13976787151E+04 -0.10032343447E+04  0.44922254301E+03  0.17781473292E+04  0.46999998093E+01 0. -1.
</event>
<event>
 5   0  0.5875011E-07  0.1988132E+04  0.7818609E-02  0.8612190E-01
        1   -1    0    0  501    0  0.00000000000E+00  0.00000000000E+00  0.75829378659E+03  0.75829378660E+03  0.50400001928E-02 0.  1.
       -1   -1    0    0    0  501  0.00000000000E+00  0.00000000000E+00 -0.13031450371E+04  0.13031450371E+04  0.50400001928E-02 0. -1.
    10030    2    1    2    0    0  0.00000000000E+00  0.00000000000E+00 -0.54485125050E+03  0.20614388237E+04  0.19881315698E+04 0.  0.
        2    1    3    3  502    0 -0.80490491147E+03  0.57556125460E+03 -0.37092365161E+03  0.10567530599E+04  0.25500000920E-02 0. -1.
       -2    1    3    3    0  502  0.80490491147E+03 -0.57556125460E+03 -0.17392759889E+03  0.10046857638E+04  0.25500000920E-02 0.  1.
</event>
<event>
 5   0  0.6261598E-07  0.3664132E+04  0.7818609E-02  0.8075957E-01
        1   -1    0    0  501    0  0.00000000000E+00  0.00000000000E+00  0.23424350524E+04  0.23424350524E+04  0.50400001928E-02 0.  1.
       -1   -1    0    0    0  501  0.00000000000E+00  0.00000000000E+00 -0.14328959138E+04  0.14328959138E+04  0.50400001928E-02 0. -1.
    10030    2    1    2    0    0  0.00000000000E+00  0.00000000000E+00  0.90953913854E+03  0.37753309662E+04  0.36641318836E+04 0.  0.
        1    1    3    3  502    0  0.76622249421E+03 -0.16520279528E+04  0.66128263732E+03  0.19374178677E+04  0.50400001928E-02 0.  1.
       -1    1    3    3    0  502 -0.76622249421E+03  0.16520279528E+04  0.24825650122E+03  0.18379130986E+04  0.50400001928E-02 0. -1.
</event>
<event>
 5   0  0.5875011E-07  0.3189994E+04  0.7818609E-02  0.8191465E-01
        1   -1    0    0  501    0  0.00000000000E+00  0.00000000000E+00  0.17375574157E+04  0.17375574157E+04  0.50400001928E-02 0.  1.
       -1   -1    0    0    0  501  0.00000000000E+00  0.00000000000E+00 -0.14641335227E+04  0.14641335227E+04  0.50400001928E-02 0. -1.
    10030    2    1    2    0    0  0.00000000000E+00  0.00000000000E+00  0.27342389293E+03  0.32016909384E+04  0.31899943949E+04 0.  0.
        2    1    3    3  502    0  0.86598711683E+03 -0.64622634297E+03  0.13142459994E+04  0.17014066886E+04  0.25500000920E-02 0.  1.
       -2    1    3    3    0  502 -0.86598711683E+03  0.64622634297E+03 -0.10408221065E+04  0.15002842498E+04  0.25500000920E-02 0. -1.
</event>
<event>
 5   0  0.1680194E-06  0.3712026E+04  0.7818609E-02  0.8065302E-01
       -2   -1    0    0    0  501  0.00000000000E+00  0.00000000000E+00  0.26753604056E+04  0.26753604056E+04  0.25500000920E-02 0.  1.
        2   -1    0    0  501    0  0.00000000000E+00  0.00000000000E+00 -0.12875963527E+04  0.12875963527E+04  0.25500000920E-02 0. -1.
    10030    2    1    2    0    0  0.00000000000E+00  0.00000000000E+00  0.13877640529E+04  0.39629567583E+04  0.37120260239E+04 0.  0.
        2    1    3    3  502    0  0.11991789143E+04 -0.14042630738E+04  0.89303854249E+03  0.20512198048E+04  0.25500000920E-02 0.  1.
       -2    1    3    3    0  502 -0.11991789143E+04  0.14042630738E+04  0.49472551043E+03  0.19117369536E+04  0.25500000920E-02 0. -1.
</event>
<event>
 5   0  0.1184684E-06  0.3117490E+04  0.7818609E-02  0.8210954E-01
       -2   -1    0    0    0  501  0.00000000000E+00  0.00000000000E+00  0.19089393478E+04  0.19089393478E+04  0.25500000920E-02 0. -1.
        2   -1    0    0  501    0  0.00000000000E+00  0.00000000000E+00 -0.12727935212E+04  0.12727935212E+04  0.25500000920E-02 0.  1.
    10030    2    1    2    0    0  0.00000000000E+00  0.00000000000E+00  0.63614582659E+03  0.31817328690E+04  0.31174897813E+04 0.  0.
        4    1    3    3  502    0 -0.71668062531E+03 -0.13781621095E+04  0.45005169598E+03  0.16172538640E+04  0.12699999809E+01 0.  1.
       -4    1    3    3    0  502  0.71668062531E+03  0.13781621095E+04  0.18609413061E+03  0.15644790050E+04  0.12699999809E+01 0. -1.
</event>
<event>
 5   0  0.6287345E-07  0.3665835E+04  0.7818609E-02  0.8075576E-01
        1   -1    0    0  501    0  0.00000000000E+00  0.00000000000E+00  0.97609431766E+03  0.97609431767E+03  0.50400001928E-02 0. -1.
       -1   -1    0    0    0  501  0.00000000000E+00  0.00000000000E+00 -0.34418669177E+04  0.34418669177E+04  0.50400001928E-02 0.  1.
    10030    2    1    2    0    0  0.00000000000E+00  0.00000000000E+00 -0.24657726001E+04  0.44179612354E+04  0.36658350975E+04 0.  0.
        5    1    3    3  502    0  0.18020536923E+04  0.20879930587E+03 -0.15484710589E+04  0.23851162173E+04  0.46999998093E+01 0.  1.
       -5    1    3    3    0  502 -0.18020536923E+04 -0.20879930587E+03 -0.91730154120E+03  0.20328450181E+04  0.46999998093E+01 0. -1.
</event>
<event>
 5   0  0.5679750E-07  0.3920166E+04  0.7818609E-02  0.8020848E-01
        1   -1    0    0  501    0  0.00000000000E+00  0.00000000000E+00  0.15553908919E+04  0.15553908919E+04  0.50400001928E-02 0.  1.
       -1   -1    0    0    0  501  0.00000000000E+00  0.00000000000E+00 -0.24700711440E+04  0.24700711440E+04  0.50400001928E-02 0. -1.
    10030    2    1    2    0    0  0.00000000000E+00  0.00000000000E+00 -0.91468025204E+03  0.40254620359E+04  0.39201664045E+04 0.  0.
        4    1    3    3  502    0  0.14162101987E+04  0.28974810656E+03  0.90196779985E+03  0.17038640841E+04  0.12699999809E+01 0.  1.
       -4    1    3    3    0  502 -0.14162101987E+04 -0.28974810656E+03 -0.18166480519E+04  0.23215979518E+04  0.12699999809E+01 0. -1.
</event>
<event>
 5   0  0.1680194E-06  0.3640726E+04  0.7818609E-02  0.8081226E-01
        2   -1    0    0  501    0  0.00000000000E+00  0.00000000000E+00  0.14045581987E+04  0.14045581987E+04  0.25500000920E-02 0. -1.
       -2   -1    0    0    0  501  0.00000000000E+00  0.00000000000E+00 -0.23592620770E+04  0.23592620770E+04  0.25500000920E-02 0.  1.
    10030    2    1    2    0    0  0.00000000000E+00  0.00000000000E+00 -0.95470387838E+03  0.37638202757E+04  0.36407256931E+04 0.  0.
        2    1    3    3  502    0 -0.10808007129E+03 -0.11921375216E+04  0.94045708540E+03  0.15222787858E+04  0.25500000920E-02 0. -1.
       -2    1    3    3    0  502  0.10808007129E+03  0.11921375216E+04 -0.18951609638E+04  0.22415414899E+04  0.25500000920E-02 0.  1.
</event>
<event>
 5   0  0.5679750E-07  0.2998014E+04  0.7818609E-02  0.8244298E-01
       -1   -1    0    0    0  501  0.00000000000E+00  0.00000000000E+00  0.18021425982E+04  0.18021425982E+04  0.50400001928E-02 0. -1.
        1   -1    0    0  501    0  0.00000000000E+00  0.00000000000E+00 -0.12468613670E+04  0.12468613670E+04  0.50400001928E-02 0.  1.
    10030    2    1    2    0    0  0.00000000000E+00  0.00000000000E+00  0.55528123123E+03  0.30490039652E+04  0.29980139983E+04 0.  0.
        4    1    3    3  502    0  0.89568137237E+03 -0.12003517793E+04  0.21387774191E+03  0.15128895586E+04  0.12699999809E+01 0.  1.
       -4    1    3    3    0  502 -0.89568137237E+03  0.12003517793E+04  0.34140348932E+03  0.15361144067E+04  0.12699999809E+01 0. -1.
</event>
<event>
 5   0  0.5679750E-07  0.3604163E+04  0.7818609E-02  0.8089539E-01
       -3   -1    0    0    0  501  0.00000000000E+00  0.00000000000E+00  0.19857455371E+04  0.19857455397E+04  0.10100000352E+00 0. -1.
        3   -1    0    0  501    0  0.00000000000E+00  0.00000000000E+00 -0.16354046241E+04  0.16354046273E+04  0.10100000352E+00 0.  1.
    10030    2    1    2    0    0  0.00000000000E+00  0.00000000000E+00  0.35034091298E+03  0.36211501669E+04  0.36041628399E+04 0.  0.
        5    1    3    3  502    0  0.37789139905E+03  0.25893264779E+03 -0.15759232057E+04  0.16411593664E+04  0.46999998093E+01 0.  1.
       -5    1    3    3    0  502 -0.37789139905E+03 -0.25893264779E+03  0.19262641187E+04  0.19799908006E+04  0.46999998093E+01 0. -1.
</event>
<event>
 5   0  0.1184684E-06  0.3562092E+04  0.7818609E-02  0.8099231E-01
        2   -1    0    0  501    0  0.00000000000E+00  0.00000000000E+00  0.10112124373E+04  0.10112124373E+04  0.25500000920E-02 0.  1.
       -2   -1    0    0    0  501  0.00000000000E+00  0.00000000000E+00 -0.31369511075E+04  0.31369511075E+04  0.25500000920E-02 0. -1.
    10030    2    1    2    0    0  0.00000000000E+00  0.00000000000E+00 -0.21257386702E+04  0.41481635448E+04  0.35620915065E+04 0.  0.
        4    1    3    3  502    0 -0.61185015781E+03  0.12814397623E+04 -0.23147659003E+04  0.27156198678E+04  0.12699999809E+01 0. -1.
       -4    1    3    3    0  502  0.61185015781E+03 -0.12814397623E+04  0.18902723017E+03  0.14325436770E+04  0.12699999809E+01 0.  1.
</event>
<event>
 5   0  0.6261598E-07  0.3699429E+04  0.7818609E-02  0.8068088E-01
       -1   -1    0    0    0  501  0.00000000000E+00  0.00000000000E+00  0.12766870175E+04  0.12766870176E+04  0.50400001928E-02 0.  1.
        1   -1    0    0  501    0  0.00000000000E+00  0.00000000000E+00 -0.26799396225E+04  0.26799396225E+04  0.50400001928E-02 0. -1.
    10030    2    1    2    0    0  0.00000000000E+00  0.00000000000E+00 -0.14032526050E+04  0.39566266401E+04  0.36994292121E+04 0.  0.
        1    1    3    3  502    0  0.10648871721E+04  0.14038922923E+04 -0.99886592538E+02  0.17649010140E+04  0.50400001928E-02 0.  1.
       -1    1    3    3    0  502 -0.10648871721E+04 -0.14038922923E+04 -0.13033660124E+04  0.21917256261E+04  0.50400001928E-02 0. -1.
</event>
<event>
 5   0  0.1151180E-06  0.3206009E+04  0.7818609E-02  0.8187232E-01
       -2   -1    0    0    0  501  0.00000000000E+00  0.00000000000E+00  0.15766062041E+04  0.15766062041E+04  0.25500000920E-02 0.  1.
        2   -1    0    0  501    0  0.00000000000E+00  0.00000000000E+00 -0.16298443725E+04  0.16298443725E+04  0.25500000920E-02 0. -1.
    10030    2    1    2    0    0  0.00000000000E+00  0.00000000000E+00 -0.53238168367E+02  0.32064505766E+04  0.32060085773E+04 0.  0.
        5    1    3    3  502    0  0.10167616509E+04  0.39249941509E+03  0.11490176071E+04  0.15837056535E+04  0.46999998093E+01 0.  1.
       -5    1    3    3    0  502 -0.10167616509E+04 -0.39249941509E+03 -0.12022557754E+04  0.16227449230E+04  0.46999998093E+01 0. -1.
</event>
<event>
 5   0  0.1724503E-06  0.1838258E+04  0.7818609E-02  0.8686215E-01
       -2   -1    0    0    0  501  0.00000000000E+00  0.00000000000E+00  0.67217668752E+03  0.67217668752E+03  0.25500000920E-02 0. -1.
        2   -1    0    0  501    0  0.00000000000E+00  0.00000000000E+00 -0.12568100903E+04  0.12568100903E+04  0.25500000920E-02 0.  1.
    10030    2    1    2    0    0  0.00000000000E+00  0.00000000000E+00 -0.58463340275E+03  0.19289867778E+04  0.18382583532E+04 0.  0.
        1    1    3    3  502    0  0.94311124837E+02  0.86459882818E+03  0.19631019563E+02  0.86994890592E+03  0.50400001928E-02 0. -1.
       -1    1    3    3    0  502 -0.94311124837E+02 -0.86459882818E+03 -0.60426442231E+03  0.10590378719E+04  0.50400001928E-02 0.  1.
</event>
<event>
 5   0  0.1151180E-06  0.3757536E+04  0.7818609E-02  0.8055329E-01
       -2   -1    0    0    0  501  0.00000000000E+00  0.00000000000E+00  0.17489320949E+04  0.17489320949E+04  0.25500000920E-02 0.  1.
        2   -1    0    0  501    0  0.00000000000E+00  0.00000000000E+00 -0.20182426937E+04  0.20182426937E+04  0.25500000920E-02 0. -1.
    10030    2    1    2    0    0  0.00000000000E+00  0.00000000000E+00 -0.26931059883E+03  0.37671747886E+04  0.37575361195E+04 0.  0.
        5    1    3    3  502    0  0.84051958427E+03  0.54316545063E+03  0.14594691567E+04  0.17696254371E+04  0.46999998093E+01 0.  1.
       -5    1    3    3    0  502 -0.84051958427E+03 -0.54316545063E+03 -0.17287797556E+04  0.19975493515E+04  0.46999998093E+01 0. -1.
</event>
<event>
 5   0  0.1680194E-06  0.3870684E+04  0.7818609E-02  0.8031154E-01
       -2   -1    0    0    0  501  0.00000000000E+00  0.00000000000E+00  0.11843335067E+04  0.11843335067E+04  0.25500000920E-02 0.  1.
        2   -1    0    0  501    0  0.00000000000E+00  0.00000000000E+00 -0.31625795371E+04  0.31625795371E+04  0.25500000920E-02 0. -1.
    10030    2    1    2    0    0  0.00000000000E+00  0.00000000000E+00 -0.19782460304E+04  0.43469130438E+04  0.38706841326E+04 0.  0.
        2    1    3    3  502    0  0.98785610856E+03  0.41561662618E+03  0.82065448782E+03  0.13498409757E+04  0.25500000920E-02 0.  1.
       -2    1    3    3    0  502 -0.98785610856E+03 -0.41561662618E+03 -0.27989005182E+04  0.29970720682E+04  0.25500000920E-02 0. -1.
</event>
<event>
 5   0  0.5679750E-07  0.3831996E+04  0.7818609E-02  0.8039323E-01
        3   -1    0    0  501    0  0.00000000000E+00  0.00000000000E+00  0.31131065982E+04  0.31131065998E+04  0.10100000352E+00 0. -1.
       -3   -1    0    0    0  501  0.00000000000E+00  0.00000000000E+00 -0.11792236990E+04  0.11792237033E+04  0.10100000352E+00 0.  1.
    10030    2    1    2    0    0  0.00000000000E+00  0.00000000000E+00  0.19338828992E+04  0.42923303031E+04  0.38319963939E+04 0.  0.
        3    1    3    3  502    0  0.47201349447E+03  0.18544194590E+04  0.10754310857E+04  0.21950444868E+04  0.10100000352E+00 0.  1.
       -3    1    3    3    0  502 -0.47201349447E+03 -0.18544194590E+04  0.85845181351E+03  0.20972858163E+04  0.10100000352E+00 0. -1.
</event>
<event>
 5   0  0.1184684E-06  0.2380802E+04  0.7818609E-02  0.8446726E-01
        2   -1    0    0  501    0  0.00000000000E+00  0.00000000000E+00  0.13523891204E+04  0.13523891204E+04  0.25500000920E-02 0.  1.
       -2   -1    0    0    0  501  0.00000000000E+00  0.00000000000E+00 -0.10478156516E+04  0.10478156516E+04  0.25500000920E-02 0. -1.
    10030    2    1    2    0    0  0.00000000000E+00  0.00000000000E+00  0.30457346879E+03  0.24002047720E+04  0.23808019551E+04 0.  0.
        4    1    3    3  502    0  0.21818211800E+03  0.93820153603E+03 -0.55286141931E+03  0.11106227625E+04  0.12699999809E+01 0. -1.
       -4    1    3    3    0  502 -0.21818211800E+03 -0.93820153603E+03  0.85743488810E+03  0.12895820094E+04  0.12699999809E+01 0.  1.
</event>
<event>
 5   0  0.6287345E-07  0.3697736E+04  0.7818609E-02  0.8068464E-01
       -1   -1    0    0    0  501  0.00000000000E+00  0.00000000000E+00  0.20693953335E+04  0.20693953335E+04  0.50400001928E-02 0. -1.
        1   -1    0    0  501    0  0.00000000000E+00  0.00000000000E+00 -0.16518410303E+04  0.16518410304E+04  0.50400001928E-02 0.  1.
    10030    2    1    2    0    0  0.00000000000E+00  0.00000000000E+00  0.41755430320E+03  0.37212363639E+04  0.36977355882E+04 0.  0.
        5    1    3    3  502    0 -0.52452881495E+02  0.17556628091E+04 -0.37211473916E+03  0.17954371816E+04  0.46999998093E+01 0.  1.
       -5    1    3    3    0  502  0.52452881495E+02 -0.17556628091E+04  0.78966904236E+03  0.19257991823E+04  0.46999998093E+01 0. -1.
</event>
<event>
 5   0  0.1151180E-06  0.3867656E+04  0.7818609E-02  0.8031790E-01
       -2   -1    0    0    0  501  0.00000000000E+00  0.00000000000E+00  0.20178948755E+04  0.20178948755E+04  0.25500000920E-02 0. -1.
        2   -1    0    0  501    0  0.00000000000E+00  0.00000000000E+00 -0.18532630081E+04  0.18532630081E+04  0.25500000920E-02 0.  1.
    10030    2    1    2    0    0  0.00000000000E+00  0.00000000000E+00  0.16463186743E+03  0.38711578836E+04  0.38676555829E+04 0.  0.
        5    1    3    3  502    0  0.12542653411E+04  0.11586446879E+03  0.15509761498E+04  0.19980378446E+04  0.46999998093E+01 0. -1.
       -5    1    3    3    0  502 -0.12542653411E+04 -0.11586446879E+03 -0.13863442824E+04  0.18731200390E+04  0.46999998093E+01 0.  1.
</event>
<event>
 5   0  0.5875011E-07  0.3759740E+04  0.7818609E-02  0.8054850E-01
        1   -1    0    0  501    0  0.00000000000E+00  0.00000000000E+00  0.11212324384E+04  0.11212324384E+04  0.50400001928E-02 0. -1.
       -1   -1    0    0    0  501  0.00000000000E+00  0.00000000000E+00 -0.31518094152E+04  0.31518094152E+04  0.50400001928E-02 0.  1.
    10030    2    1    2    0    0  0.00000000000E+00  0.00000000000E+00 -0.20305769768E+04  0.42730418536E+04  0.37597398612E+04 0.  0.
        2    1    3    3  502    0  0.35576981128E+03  0.88826954436E+03 -0.28543251233E+04  0.30104429660E+04  0.25500000920E-02 0.  1.
       -2    1    3    3    0  502 -0.35576981128E+03 -0.88826954436E+03  0.82374814652E+03  0.12625988876E+04  0.25500000920E-02 0. -1.
</event>
<event>
 5   0  0.1151180E-06  0.3713312E+04  0.7818609E-02  0.8065018E-01
       -2   -1    0    0    0  501  0.00000000000E+00  0.00000000000E+00  0.12919301845E+04  0.12919301845E+04  0.25500000920E-02 0.  1.
        2   -1    0    0  501    0  0.00000000000E+00  0.00000000000E+00 -0.26682334006E+04  0.26682334006E+04  0.25500000920E-02 0. -1.
    10030    2    1    2    0    0  0.00000000000E+00  0.00000000000E+00 -0.13763032161E+04  0.39601635851E+04  0.37133118746E+04 0.  0.
        5    1    3    3  502    0 -0.12453904109E+04 -0.11945102907E+04  0.42441583457E+02  0.17261736553E+04  0.46999998093E+01 0. -1.
       -5    1    3    3    0  502  0.12453904109E+04  0.11945102907E+04 -0.14187447996E+04  0.22339899298E+04  0.46999998093E+01 0.  1.
</event>
<event>
 5   0  0.6261598E-07  0.3589053E+04  0.7818609E-02  0.8093004E-01
       -1   -1    0    0    0  501  0.00000000000E+00  0.00000000000E+00  0.12712424549E+04  0.12712424549E+04  0.50400001928E-02 0.  1.
        1   -1    0    0  501    0  0.00000000000E+00  0.00000000000E+00 -0.25332106929E+04  0.25332106929E+04  0.50400001928E-02 0. -1.
    10030    2    1    2    0    0  0.00000000000E+00  0.00000000000E+00 -0.12619682380E+04  0.38044531478E+04  0.35890527887E+04 0.  0.
        1    1    3    3  502    0  0.15373103683E+04  0.40350921893E+03 -0.15141638760E+04  0.21951845257E+04  0.50400001928E-02 0.  1.
       -1    1    3    3    0  502 -0.15373103683E+04 -0.40350921893E+03  0.25219563797E+03  0.16092686221E+04  0.50400001928E-02 0. -1.
</event>
<event>
 5   0  0.5679750E-07  0.3726429E+04  0.7818609E-02  0.8062130E-01
        1   -1    0    0  501    0  0.00000000000E+00  0.00000000000E+00  0.21850202380E+04  0.21850202380E+04  0.50400001928E-02 0.  1.
       -1   -1    0    0    0  501  0.00000000000E+00  0.00000000000E+00 -0.15888033897E+04  0.15888033897E+04  0.50400001928E-02 0. -1.
    10030    2    1    2    0    0  0.00000000000E+00  0.00000000000E+00  0.59621684829E+03  0.37738236277E+04  0.37264286177E+04 0.  0.
        4    1    3    3  502    0 -0.17656447858E+03 -0.14011249213E+04 -0.93276758127E+03  0.16924488275E+04  0.12699999809E+01 0. -1.
       -4    1    3    3    0  502  0.17656447858E+03  0.14011249213E+04  0.15289844296E+04  0.20813748002E+04  0.12699999809E+01 0.  1.
</event>
<event>
 5   0  0.1685793E-06  0.3707479E+04  0.7818609E-02  0.8066306E-01
        2   -1    0    0  501    0  0.00000000000E+00  0.00000000000E+00  0.17547573876E+04  0.17547573876E+04  0.25500000920E-02 0.  1.
       -2   -1    0    0    0  501  0.00000000000E+00  0.00000000000E+00 -0.19583048348E+04  0.19583048348E+04  0.25500000920E-02 0. -1.
    10030    2    1    2    0    0  0.00000000000E+00  0.00000000000E+00 -0.20354744719E+03  0.37130622223E+04  0.37074788608E+04 0.  0.
        3    1    3    3  502    0 -0.16105848165E+04 -0.44920532147E+03  0.69979463995E+03  0.18125896999E+04  0.10100000352E+00 0.  1.
       -3    1    3    3    0  502  0.16105848165E+04  0.44920532147E+03 -0.90334208714E+03  0.19004725224E+04  0.10100000352E+00 0. -1.
</event>
<event>
 5   0  0.1151180E-06  0.3669123E+04  0.7818609E-02  0.8074839E-01
       -2   -1    0    0    0  501  0.00000000000E+00  0.00000000000E+00  0.17501297833E+04  0.17501297833E+04  0.25500000920E-02 0.  1.
        2   -1    0    0  501    0  0.00000000000E+00  0.00000000000E+00 -0.19230665702E+04  0.19230665702E+04  0.25500000920E-02 0. -1.
    10030    2    1    2    0    0  0.00000000000E+00  0.00000000000E+00 -0.17293678692E+03  0.36731963535E+04  0.36691230995E+04 0.  0.
        5    1    3    3  502    0  0.11299168176E+04 -0.10481216672E+04  0.90978607605E+03  0.17896937833E+04  0.46999998093E+01 0.  1.
       -5    1    3    3    0  502 -0.11299168176E+04  0.10481216672E+04 -0.10827228630E+04  0.18835025702E+04  0.46999998093E+01 0. -1.
</event>
<event>
 5   0  0.6186440E-07  0.2002311E+04  0.7818609E-02  0.8605541E-01
        1   -1    0    0  501    0  0.00000000000E+00  0.00000000000E+00  0.12831149311E+04  0.12831149311E+04  0.50400001928E-02 0.  1.
       -1   -1    0    0    0  501  0.00000000000E+00  0.00000000000E+00 -0.78115547182E+03  0.78115547183E+03  0.50400001928E-02 0. -1.
    10030    2    1    2    0    0  0.00000000000E+00  0.00000000000E+00  0.50195945924E+03  0.20642704029E+04  0.20023109143E+04 0.  0.
        3    1    3    3  502    0 -0.90252923568E+03  0.14577458651E+03  0.67165413230E+03  0.11344287263E+04  0.10100000352E+00 0.  1.
       -3    1    3    3    0  502  0.90252923568E+03 -0.14577458651E+03 -0.16969467306E+03  0.92984167663E+03  0.10100000352E+00 0. -1.
</event>
<event>
 5   0  0.1151180E-06  0.1889914E+04  0.7818609E-02  0.8659893E-01
       -2   -1    0    0    0  501  0.00000000000E+00  0.00000000000E+00  0.16464891308E+04  0.16464891308E+04  0.25500000920E-02 0. -1.
        2   -1    0    0  501    0  0.00000000000E+00  0.00000000000E+00 -0.54233218457E+03  0.54233218457E+03  0.25500000920E-02 0.  1.
    10030    2    1    2    0    0  0.00000000000E+00  0.00000000000E+00  0.11041569462E+04  0.21888213153E+04  0.18899143337E+04 0.  0.
        5    1    3    3  502    0 -0.85956198631E+03  0.51983191191E+02  0.10147736918E+03  0.86710368868E+03  0.46999998093E+01 0.  1.
       -5    1    3    3    0  502  0.85956198631E+03 -0.51983191191E+02  0.10026795770E+04  0.13217176267E+04  0.46999998093E+01 0. -1.
</event>
<event>
 5   0  0.1184684E-06  0.3910960E+04  0.7818609E-02  0.8022754E-01
       -2   -1    0    0    0  501  0.00000000000E+00  0.00000000000E+00  0.15213151646E+04  0.15213151646E+04  0.25500000920E-02 0.  1.
        2   -1    0    0  501    0  0.00000000000E+00  0.00000000000E+00 -0.25135502831E+04  0.25135502831E+04  0.25500000920E-02 0. -1.
    10030    2    1    2    0    0  0.00000000000E+00  0.00000000000E+00 -0.99223511858E+03  0.40348654477E+04  0.39109600676E+04 0.  0.
        4    1    3    3  502    0  0.76496312603E+03 -0.11466164874E+04  0.93491166160E+03  0.16655207538E+04  0.12699999809E+01 0.  1.
       -4    1    3    3    0  502 -0.76496312603E+03  0.11466164874E+04 -0.19271467802E+04  0.23693446939E+04  0.12699999809E+01 0. -1.
</event>
<event>
 5   0  0.1151180E-06  0.3461313E+04  0.7818609E-02  0.8123020E-01
       -2   -1    0    0    0  501  0.00000000000E+00  0.00000000000E+00  0.10266322037E+04  0.10266322037E+04  0.25500000920E-02 0. -1.
        2   -1    0    0  501    0  0.00000000000E+00  0.00000000000E+00 -0.29174730092E+04  0.29174730092E+04  0.25500000920E-02 0.  1.
    10030    2    1    2    0    0  0.00000000000E+00  0.00000000000E+00 -0.18908408054E+04  0.39441052129E+04  0.34613128982E+04 0.  0.
        5    1    3    3  502    0 -0.12838461917E+04  0.11106509277E+04 -0.13290439239E+04  0.21559652986E+04  0.46999998093E+01 0.  1.
       -5    1    3    3    0  502  0.12838461917E+04 -0.11106509277E+04 -0.56179688155E+03  0.17881399143E+04  0.46999998093E+01 0. -1.
</event>
<event>
 5   0  0.5679750E-07  0.1942282E+04  0.7818609E-02  0.8634092E-01
       -1   -1    0    0    0  501  0.00000000000E+00  0.00000000000E+00  0.11150561722E+04  0.11150561723E+04  0.50400001928E-02 0.  1.
        1   -1    0    0  501    0  0.00000000000E+00  0.00000000000E+00 -0.84579990266E+03  0.84579990268E+03  0.50400001928E-02 0. -1.
    10030    2    1    2    0    0  0.00000000000E+00  0.00000000000E+00  0.26925626958E+03  0.19608560749E+04  0.19422815470E+04 0.  0.
        4    1    3    3  502    0 -0.51109442031E+03  0.44936729918E+03  0.83404807153E+03  0.10764693561E+04  0.12699999809E+01 0.  1.
       -4    1    3    3    0  502  0.51109442031E+03 -0.44936729918E+03 -0.56479180195E+03  0.88438671886E+03  0.12699999809E+01 0. -1.
</event>
<event>
 5   0  0.1680194E-06  0.3659243E+04  0.7818609E-02  0.8077055E-01
       -2   -1    0    0    0  501  0.00000000000E+00  0.00000000000E+00  0.14164719930E+04  0.14164719930E+04  0.25500000920E-02 0. -1.
        2   -1    0    0  501    0  0.00000000000E+00  0.00000000000E+00 -0.23632763074E+04  0.23632763074E+04  0.25500000920E-02 0.  1.
    10030    2    1    2    0    0  0.00000000000E+00  0.00000000000E+00 -0.94680431440E+03  0.37797483004E+04  0.36592429278E+04 0.  0.
        2    1    3    3  502    0 -0.98484177923E+03  0.15390336456E+04 -0.37553597971E+03  0.18653592588E+04  0.25500000920E-02 0.  1.
       -2    1    3    3    0  502  0.98484177923E+03 -0.15390336456E+04 -0.57126833469E+03  0.19143890416E+04  0.25500000920E-02 0. -1.
</event>
<event>
 5   0  0.6287345E-07  0.3556351E+04  0.7818609E-02  0.8100564E-01
        1   -1    0    0  501    0  0.00000000000E+00  0.00000000000E+00  0.13425194250E+04  0.13425194250E+04  0.50400001928E-02 0.  1.
       -1   -1    0    0    0  501  0.00000000000E+00  0.00000000000E+00 -0.23552045768E+04  0.23552045768E+04  0.50400001928E-02 0. -1.
    10030    2    1    2    0    0  0.00000000000E+00  0.00000000000E+00 -0.10126851518E+04  0.36977240018E+04  0.35563508793E+04 0.  0.
        5    1    3    3  502    0 -0.54816490717E+03 -0.12005634657E+04  0.73268640074E+03  0.15095326603E+04  0.46999998093E+01 0.  1.
       -5    1    3    3    0  502  0.54816490717E+03  0.12005634657E+04 -0.17453715525E+04  0.21881913415E+04  0.46999998093E+01 0. -1.
</event>
<event>
 5   0  0.1151180E-06  0.3567297E+04  0.7818609E-02  0.8098024E-01
       -2   -1    0    0    0  501  0.00000000000E+00  0.00000000000E+00  0.10846773909E+04  0.10846773910E+04  0.25500000920E-02 0.  1.
        2   -1    0    0  501    0  0.00000000000E+00  0.00000000000E+00 -0.29330395627E+04  0.29330395627E+04  0.25500000920E-02 0. -1.
    10030    2    1    2    0    0  0.00000000000E+00  0.00000000000E+00 -0.18483621717E+04  0.40177169536E+04  0.35672968480E+04 0.  0.
        5    1    3    3  502    0 -0.32501407722E+03 -0.81081490644E+03 -0.26756296540E+04  0.28146173982E+04  0.46999998093E+01 0. -1.
       -5    1    3    3    0  502  0.32501407722E+03  0.81081490644E+03  0.82726748231E+03  0.12030995554E+04  0.46999998093E+01 0.  1.
</event>
<event>
 5   0  0.1184684E-06  0.3683683E+04  0.7818609E-02  0.8071588E-01
       -2   -1    0    0    0  501  0.00000000000E+00  0.00000000000E+00  0.17533976051E+04  0.17533976051E+04  0.25500000920E-02 0.  1.
        2   -1    0    0  501    0  0.00000000000E+00  0.00000000000E+00 -0.19347465708E+04  0.19347465708E+04  0.25500000920E-02 0. -1.
    10030    2    1    2    0    0  0.00000000000E+00  0.00000000000E+00 -0.18134896566E+03  0.36881441759E+04  0.36836829417E+04 0.  0.
        4    1    3    3  502    0  0.17987819822E+04 -0.39535844290E+03 -0.69353785085E+02  0.18430237324E+04  0.12699999809E+01 0.  1.
       -4    1    3    3    0  502 -0.17987819822E+04  0.39535844290E+03 -0.11199518057E+03  0.18451204435E+04  0.12699999809E+01 0. -1.
</event>
<event>
 5   0  0.5679750E-07  0.3613595E+04  0.7818609E-02  0.8087385E-01
        1   -1    0    0  501    0  0.00000000000E+00  0.00000000000E+00  0.17954883832E+04  0.17954883833E+04  0.50400001928E-02 0.  1.
       -1   -1    0    0    0  501  0.00000000000E+00  0.00000000000E+00 -0.18181781450E+04  0.18181781450E+04  0.50400001928E-02 0. -1.
    10030    2    1    2    0    0  0.00000000000E+00  0.00000000000E+00 -0.22689761729E+02  0.36136665282E+04  0.36135952944E+04 0.  0.
        4    1    3    3  502    0  0.15549093022E+04 -0.75107320016E+03  0.52032548617E+03  0.18034949721E+04  0.12699999809E+01 0.  1.
       -4    1    3    3    0  502 -0.15549093022E+04  0.75107320016E+03 -0.54301524790E+03  0.18101715561E+04  0.12699999809E+01 0. -1.
</event>
<event>
 5   0  0.6261598E-07  0.3698601E+04  0.7818609E-02  0.8068272E-01
        1   -1    0    0  501    0  0.00000000000E+00  0.00000000000E+00  0.24121693529E+04  0.24121693529E+04  0.50400001928E-02 0. -1.
       -1   -1    0    0    0  501  0.00000000000E+00  0.00000000000E+00 -0.14177743202E+04  0.14177743202E+04  0.50400001928E-02 0.  1.
    10030    2    1    2    0    0  0.00000000000E+00  0.00000000000E+00  0.99439503267E+03  0.38299436731E+04  0.36986006892E+04 0.  0.
        1    1    3    3  502    0  0.73797941467E+03  0.13455922763E+04 -0.57127757376E+03  0.16375561843E+04  0.50400001928E-02 0. -1.
       -1    1    3    3    0  502 -0.73797941467E+03 -0.13455922763E+04  0.15656726064E+04  0.21923874888E+04  0.50400001928E-02 0.  1.
</event>
<event>
 5   0  0.1184684E-06  0.3501008E+04  0.7818609E-02  0.8113551E-01
        2   -1    0    0  501    0  0.00000000000E+00  0.00000000000E+00  0.14499850420E+04  0.14499850420E+04  0.25500000920E-02 0. -1.
       -2   -1    0    0    0  501  0.00000000000E+00  0.00000000000E+00 -0.21133069004E+04  0.21133069004E+04  0.25500000920E-02 0.  1.
    10030    2    1    2    0    0  0.00000000000E+00  0.00000000000E+00 -0.66332185842E+03  0.35632919424E+04  0.35010075091E+04 0.  0.
        4    1    3    3  502    0  0.56634996924E+03  0.56325421589E+03  0.12536940174E+04  0.14865254460E+04  0.12699999809E+01 0. -1.
       -4    1    3    3    0  502 -0.56634996924E+03 -0.56325421589E+03 -0.19170158758E+04  0.20767664964E+04  0.12699999809E+01 0.  1.
</event>
<event>
 5   0  0.1724503E-06  0.3740594E+04  0.7818609E-02  0.8059025E-01
       -2   -1    0    0    0  501  0.00000000000E+00  0.00000000000E+00  0.16104737838E+04  0.16104737838E+04  0.25500000920E-02 0. -1.
        2   -1    0    0  501    0  0.00000000000E+00  0.00000000000E+00 -0.21720389562E+04  0.21720389562E+04  0.25500000920E-02 0.  1.
    10030    2    1    2    0    0  0.00000000000E+00  0.00000000000E+00 -0.56156517243E+03  0.37825127400E+04  0.37405944962E+04 0.  0.
        1    1    3    3  502    0 -0.70720258125E+03  0.16275630489E+04  0.31652699548E+03  0.18025776843E+04  0.50400001928E-02 0. -1.
       -1    1    3    3    0  502  0.70720258125E+03 -0.16275630489E+04 -0.87809216791E+03  0.19799350556E+04  0.50400001928E-02 0.  1.
</event>
<event>
 5   0  0.1151180E-06  0.2186823E+04  0.7818609E-02  0.8523933E-01
        2   -1    0    0  501    0  0.00000000000E+00  0.00000000000E+00  0.10535450969E+04  0.10535450969E+04  0.25500000920E-02 0. -1.
       -2   -1    0    0    0  501  0.00000000000E+00  0.00000000000E+00 -0.11347861295E+04  0.11347861295E+04  0.25500000920E-02 0.  1.
    10030    2    1    2    0    0  0.00000000000E+00  0.00000000000E+00 -0.81241032587E+02  0.21883312263E+04  0.21868226839E+04 0.  0.
        5    1    3    3  502    0 -0.75451843614E+03  0.44144102496E+02 -0.83127916242E+03  0.11235185393E+04  0.46999998093E+01 0.  1.
       -5    1    3    3    0  502  0.75451843614E+03 -0.44144102496E+02  0.75003812983E+03  0.10648126870E+04  0.46999998093E+01 0. -1.
</event>
<event>
 5   0  0.8097086E-07  0.2000515E+04  0.7818609E-02  0.8606380E-01
        1   -1    0    0  501    0  0.00000000000E+00  0.00000000000E+00  0.17452144676E+04  0.17452144676E+04  0.50400001928E-02 0. -1.
       -1   -1    0    0    0  501  0.00000000000E+00  0.00000000000E+00 -0.57329084410E+03  0.57329084413E+03  0.50400001928E-02 0.  1.
    10030    2    1    2    0    0  0.00000000000E+00  0.00000000000E+00  0.11719236235E+04  0.23185053118E+04  0.20005154089E+04 0.  0.
        2    1    3    3  502    0 -0.46407773066E+03 -0.46457642186E+03 -0.28850417307E+03  0.71724058009E+03  0.25500000920E-02 0.  1.
       -2    1    3    3    0  502  0.46407773066E+03  0.46457642186E+03  0.14604277966E+04  0.16012647317E+04  0.25500000920E-02 0. -1.
</event>
<event>
 5   0  0.6186440E-07  0.2637192E+04  0.7818609E-02  0.8355676E-01
       -1   -1    0    0    0  501  0.00000000000E+00  0.00000000000E+00  0.67967897972E+03  0.67967897974E+03  0.50400001928E-02 0.  1.
        1   -1    0    0  501    0  0.00000000000E+00  0.00000000000E+00 -0.25581131593E+04  0.25581131593E+04  0.50400001928E-02 0. -1.
    10030    2    1    2    0    0  0.00000000000E+00  0.00000000000E+00 -0.18784341796E+04  0.32377921391E+04  0.26371922510E+04 0.  0.
        3    1    3    3  502    0 -0.68720970437E+03 -0.49488070206E+03  0.30167234161E+03  0.89898292473E+03  0.10100000352E+00 0.  1.
       -3    1    3    3    0  502  0.68720970437E+03  0.49488070206E+03 -0.21801065212E+04  0.23388092143E+04  0.10100000352E+00 0. -1.
</event>
<event>
 5   0  0.1680194E-06  0.3544124E+04  0.7818609E-02  0.8103412E-01
       -2   -1    0    0    0  501  0.00000000000E+00  0.00000000000E+00  0.13253046422E+04  0.13253046422E+04  0.25500000920E-02 0.  1.
        2   -1    0    0  501    0  0.00000000000E+00  0.00000000000E+00 -0.23694205365E+04  0.23694205365E+04  0.25500000920E-02 0. -1.
    10030    2    1    2    0    0  0.00000000000E+00  0.00000000000E+00 -0.10441158943E+04  0.36947251787E+04  0.35441241718E+04 0.  0.
        2    1    3    3  502    0  0.72977034516E+03  0.14159643472E+04  0.28725806112E+03  0.16186528297E+04  0.25500000920E-02 0.  1.
       -2    1    3    3    0  502 -0.72977034516E+03 -0.14159643472E+04 -0.13313739554E+04  0.20760723491E+04  0.25500000920E-02 0. -1.
</event>
<event>
 5   0  0.5875011E-07  0.2178816E+04  0.7818609E-02  0.8527298E-01
        1   -1    0    0  501    0  0.00000000000E+00  0.00000000000E+00  0.14884231475E+04  0.14884231475E+04  0.50400001928E-02 0.  1.
       -1   -1    0    0    0  501  0.00000000000E+00  0.00000000000E+00 -0.79736029353E+03  0.79736029354E+03  0.50400001928E-02 0. -1.
    10030    2    1    2    0    0  0.00000000000E+00  0.00000000000E+00  0.69106285397E+03  0.22857834410E+04  0.21788157497E+04 0.  0.
        2    1    3    3  502    0 -0.64829382510E+03 -0.78293808175E+03 -0.65537709291E+02  0.10186128385E+04  0.25500000920E-02 0. -1.
       -2    1    3    3    0  502  0.64829382510E+03  0.78293808175E+03  0.75660056326E+03  0.12671706025E+04  0.25500000920E-02 0.  1.
</event>
<event>
 5   0  0.1151180E-06  0.3664342E+04  0.7818609E-02  0.8075910E-01
        2   -1    0    0  501    0  0.00000000000E+00  0.00000000000E+00  0.20031782023E+04  0.20031782023E+04  0.25500000920E-02 0.  1.
       -2   -1    0    0    0  501  0.00000000000E+00  0.00000000000E+00 -0.16757620890E+04  0.16757620890E+04  0.25500000920E-02 0. -1.
    10030    2    1    2    0    0  0.00000000000E+00  0.00000000000E+00  0.32741611338E+03  0.36789402913E+04  0.36643417357E+04 0.  0.
        5    1    3    3  502    0  0.97420608977E+03  0.18645423742E+03 -0.13828787291E+04  0.17018279459E+04  0.46999998093E+01 0. -1.
       -5    1    3    3    0  502 -0.97420608977E+03 -0.18645423742E+03  0.17102948425E+04  0.19771123454E+04  0.46999998093E+01 0.  1.
</event>
<event>
 5   0  0.6186440E-07  0.3725147E+04  0.7818609E-02  0.8062412E-01
        1   -1    0    0  501    0  0.00000000000E+00  0.00000000000E+00  0.18433430511E+04  0.18433430511E+04  0.50400001928E-02 0.  1.
       -1   -1    0    0    0  501  0.00000000000E+00  0.00000000000E+00 -0.18820046104E+04  0.18820046104E+04  0.50400001928E-02 0. -1.
    10030    2    1    2    0    0  0.00000000000E+00  0.00000000000E+00 -0.38661559325E+02  0.37253476616E+04  0.37251470418E+04 0.  0.
        3    1    3    3  502    0  0.92961500901E+03  0.11911054002E+04 -0.11085468962E+04  0.18739776868E+04  0.10100000352E+00 0. -1.
       -3    1    3    3    0  502 -0.92961500901E+03 -0.11911054002E+04  0.10698853369E+04  0.18513699748E+04  0.10100000352E+00 0.  1.
</event>
<event>
 5   0  0.5679750E-07  0.3761798E+04  0.7818609E-02  0.8054403E-01
       -1   -1    0    0    0  501  0.00000000000E+00  0.00000000000E+00  0.17398621135E+04  0.17398621135E+04  0.50400001928E-02 0.  1.
        1   -1    0    0  501    0  0.00000000000E+00  0.00000000000E+00 -0.20333685538E+04  0.20333685538E+04  0.50400001928E-02 0. -1.
    10030    2    1    2    0    0  0.00000000000E+00  0.00000000000E+00 -0.29350644031E+03  0.37732306673E+04  0.37617979263E+04 0.  0.
        4    1    3    3  502    0 -0.39112877598E+02  0.14503815295E+04 -0.13473215106E+04  0.19800033495E+04  0.12699999809E+01 0. -1.
       -4    1    3    3    0  502  0.39112877598E+02 -0.14503815295E+04  0.10538150702E+04  0.17932273178E+04  0.12699999809E+01 0.  1.
</event>
<event>
 5   0  0.1680194E-06  0.2854474E+04  0.7818609E-02  0.8286553E-01
        2   -1    0    0  501    0  0.00000000000E+00  0.00000000000E+00  0.15158975017E+04  0.15158975017E+04  0.25500000920E-02 0. -1.
       -2   -1    0    0    0  501  0.00000000000E+00  0.00000000000E+00 -0.13437616381E+04  0.13437616381E+04  0.25500000920E-02 0.  1.
    10030    2    1    2    0    0  0.00000000000E+00  0.00000000000E+00  0.17213586365E+03  0.28596591398E+04  0.28544736188E+04 0.  0.
        2    1    3    3  502    0  0.63048165596E+03 -0.12608675744E+04 -0.13729618219E+03  0.14163842700E+04  0.25500000920E-02 0.  1.
       -2    1    3    3    0  502 -0.63048165596E+03  0.12608675744E+04  0.30943204584E+03  0.14432748698E+04  0.25500000920E-02 0. -1.
</event>
<event>
 5   0  0.6186440E-07  0.3713774E+04  0.7818609E-02  0.8064916E-01
       -1   -1    0    0    0  501  0.00000000000E+00  0.00000000000E+00  0.25478765260E+04  0.25478765260E+04  0.50400001928E-02 0.  1.
        1   -1    0    0  501    0  0.00000000000E+00  0.00000000000E+00 -0.13532954480E+04  0.13532954480E+04  0.50400001928E-02 0. -1.
    10030    2    1    2    0    0  0.00000000000E+00  0.00000000000E+00  0.11945810780E+04  0.39011719740E+04  0.37137742014E+04 0.  0.
        3    1    3    3  502    0  0.51493069356E+02  0.93574407202E+03 -0.10866470195E+04  0.14349460825E+04  0.10100000352E+00 0. -1.
       -3    1    3    3    0  502 -0.51493069356E+02 -0.93574407202E+03  0.22812280976E+04  0.24662258915E+04  0.10100000352E+00 0.  1.
</event>
<event>
 5   0  0.1184684E-06  0.3659997E+04  0.7818609E-02  0.8076885E-01
       -2   -1    0    0    0  501  0.00000000000E+00  0.00000000000E+00  0.12798291494E+04  0.12798291494E+04  0.25500000920E-02 0.  1.
        2   -1    0    0  501    0  0.00000000000E+00  0.00000000000E+00 -0.26166733357E+04  0.26166733357E+04  0.25500000920E-02 0. -1.
    10030    2    1    2    0    0  0.00000000000E+00  0.00000000000E+00 -0.13368441863E+04  0.38965024852E+04  0.36599971637E+04 0.  0.
        4    1    3    3  502    0 -0.54610914228E+03  0.10124754072E+04 -0.21836077797E+04  0.24680936356E+04  0.12699999809E+01 0. -1.
       -4    1    3    3    0  502  0.54610914228E+03 -0.10124754072E+04  0.84676359343E+03  0.14284088496E+04  0.12699999809E+01 0.  1.
</event>
<event>
 5   0  0.5679750E-07  0.3452831E+04  0.7818609E-02  0.8125060E-01
       -1   -1    0    0    0  501  0.00000000000E+00  0.00000000000E+00  0.13277843514E+04  0.13277843514E+04  0.50400001928E-02 0. -1.
        1   -1    0    0  501    0  0.00000000000E+00  0.00000000000E+00 -0.22447254523E+04  0.22447254523E+04  0.50400001928E-02 0.  1.
    10030    2    1    2    0    0  0.00000000000E+00  0.00000000000E+00 -0.91694110089E+03  0.35725098038E+04  0.34528314925E+04 0.  0.
        4    1    3    3  502    0 -0.13127696522E+03  0.15267614227E+04  0.36424795771E+03  0.15750911946E+04  0.12699999809E+01 0. -1.
       -4    1    3    3    0  502  0.13127696522E+03 -0.15267614227E+04 -0.12811890586E+04  0.19974186092E+04  0.12699999809E+01 0.  1.
</event>
<event>
 5   0  0.1151180E-06  0.3691042E+04  0.7818609E-02  0.8069950E-01
       -2   -1    0    0    0  501  0.00000000000E+00  0.00000000000E+00  0.24805784127E+04  0.24805784127E+04  0.25500000920E-02 0.  1.
        2   -1    0    0  501    0  0.00000000000E+00  0.00000000000E+00 -0.13730461567E+04  0.13730461567E+04  0.25500000920E-02 0. -1.
    10030    2    1    2    0    0  0.00000000000E+00  0.00000000000E+00  0.11075322561E+04  0.38536245694E+04  0.36910424847E+04 0.  0.
        5    1    3    3  502    0 -0.18038672906E+04  0.34302463465E+03  0.74719260070E+03  0.19824030808E+04  0.46999998093E+01 0.  1.
       -5    1    3    3    0  502  0.18038672906E+04 -0.34302463465E+03  0.36033965538E+03  0.18712214886E+04  0.46999998093E+01 0. -1.
</event>
<event>
 5   0  0.1184684E-06  0.3558524E+04  0.7818609E-02  0.8100059E-01
        2   -1    0    0  501    0  0.00000000000E+00  0.00000000000E+00  0.11706776505E+04  0.11706776505E+04  0.25500000920E-02 0.  1.
       -2   -1    0    0    0  501  0.00000000000E+00  0.00000000000E+00 -0.27042223739E+04  0.27042223739E+04  0.25500000920E-02 0. -1.
    10030    2    1    2    0    0  0.00000000000E+00  0.00000000000E+00 -0.15335447235E+04  0.38749000244E+04  0.35585236798E+04 0.  0.
        4    1    3    3  502    0  0.10845090349E+04  0.76602577261E+03 -0.20564790691E+04  0.24478690948E+04  0.12699999809E+01 0.  1.
       -4    1    3    3    0  502 -0.10845090349E+04 -0.76602577261E+03  0.52293434561E+03  0.14270309295E+04  0.12699999809E+01 0. -1.
</event>
<event>
 5   0  0.1680194E-06  0.3826282E+04  0.7818609E-02  0.8040538E-01
       -2   -1    0    0    0  501  0.00000000000E+00  0.00000000000E+00  0.18389696194E+04  0.18389696194E+04  0.25500000920E-02 0. -1.
        2   -1    0    0  501    0  0.00000000000E+00  0.00000000000E+00 -0.19903044052E+04  0.19903044052E+04  0.25500000920E-02 0.  1.
    10030    2    1    2    0    0  0.00000000000E+00  0.00000000000E+00 -0.15133478587E+03  0.38292740246E+04  0.38262824436E+04 0.  0.
        2    1    3    3  502    0 -0.97141520291E+03 -0.97632448208E+03 -0.14045807164E+04  0.19671563180E+04  0.25500000920E-02 0.  1.
       -2    1    3    3    0  502  0.97141520291E+03  0.97632448208E+03  0.12532459305E+04  0.18621177066E+04  0.25500000920E-02 0. -1.
</event>
<event>
 5   0  0.1184684E-06  0.1984294E+04  0.7818609E-02  0.8613999E-01
        2   -1    0    0  501    0  0.00000000000E+00  0.00000000000E+00  0.28619742346E+04  0.28619742346E+04  0.25500000920E-02 0.  1.
       -2   -1    0    0    0  501  0.00000000000E+00  0.00000000000E+00 -0.34394279734E+03  0.34394279735E+03  0.25500000920E-02 0. -1.
    10030    2    1    2    0    0  0.00000000000E+00  0.00000000000E+00  0.25180314373E+04  0.32059170320E+04  0.19842937527E+04 0.  0.
        4    1    3    3  502    0  0.93832451217E+03 -0.21410849478E+03  0.86972045429E+03  0.12971933623E+04  0.12699999809E+01 0. -1.
       -4    1    3    3    0  502 -0.93832451217E+03  0.21410849478E+03  0.16483109830E+04  0.19087236697E+04  0.12699999809E+01 0.  1.
</event>
<event>
 5   0  0.1151180E-06  0.3658308E+04  0.7818609E-02  0.8077265E-01
        2   -1    0    0  501    0  0.00000000000E+00  0.00000000000E+00  0.15047458844E+04  0.15047458844E+04  0.25500000920E-02 0.  1.
       -2   -1    0    0    0  501  0.00000000000E+00  0.00000000000E+00 -0.22235007255E+04  0.22235007255E+04  0.25500000920E-02 0. -1.
    10030    2    1    2    0    0  0.00000000000E+00  0.00000000000E+00 -0.71875484104E+03  0.37282466099E+04  0.36583075681E+04 0.  0.
        5    1    3    3  502    0  0.47143662968E+03  0.14125347279E+04 -0.14418871940E+04  0.20728163506E+04  0.46999998093E+01 0. -1.
       -5    1    3    3    0  502 -0.47143662968E+03 -0.14125347279E+04  0.72313235293E+03  0.16554302593E+04  0.46999998093E+01 0.  1.
</event>
<event>
 5   0  0.1184684E-06  0.3516085E+04  0.7818609E-02  0.8109989E-01
        2   -1    0    0  501    0  0.00000000000E+00  0.00000000000E+00  0.27711140224E+04  0.27711140224E+04  0.25500000920E-02 0.  1.
       -2   -1    0    0    0  501  0.00000000000E+00  0.00000000000E+00 -0.11153322847E+04  0.11153322847E+04  0.25500000920E-02 0. -1.
    10030    2    1    2    0    0  0.00000000000E+00  0.00000000000E+00  0.16557817377E+04  0.38864463072E+04  0.35160847168E+04 0.  0.
        4    1    3    3  502    0 -0.54614913223E+03  0.23621795604E+02  0.26747819514E+04  0.27300727031E+04  0.12699999809E+01 0.  1.
       -4    1    3    3    0  502  0.54614913223E+03 -0.23621795604E+02 -0.10190002137E+04  0.11563736041E+04  0.12699999809E+01 0. -1.
</event>
<event>
 5   0  0.5875011E-07  0.3705025E+04  0.7818609E-02  0.8066849E-01
        1   -1    0    0  501    0  0.00000000000E+00  0.00000000000E+00  0.18813005652E+04  0.18813005652E+04  0.50400001928E-02 0.  1.
       -1   -1    0    0    0  501  0.00000000000E+00  0.00000000000E+00 -0.18241651293E+04  0.18241651293E+04  0.50400001928E-02 0. -1.
    10030    2    1    2    0    0  0.00000000000E+00  0.00000000000E+00  0.57135435859E+02  0.37054656945E+04  0.37050251761E+04 0.  0.
        2    1    3    3  502    0  0.13163059119E+04 -0.12735875554E+04  0.30629908602E+03  0.18570152517E+04  0.25500000920E-02 0. -1.
       -2    1    3    3    0  502 -0.13163059119E+04  0.12735875554E+04 -0.24916365016E+03  0.18484504428E+04  0.25500000920E-02 0.  1.
</event>
<event>
 5   0  0.1151180E-06  0.3718027E+04  0.7818609E-02  0.8063978E-01
       -2   -1    0    0    0  501  0.00000000000E+00  0.00000000000E+00  0.24733041324E+04  0.24733041324E+04  0.25500000920E-02 0. -1.
        2   -1    0    0  501    0  0.00000000000E+00  0.00000000000E+00 -0.13972935379E+04  0.13972935379E+04  0.25500000920E-02 0.  1.
    10030    2    1    2    0    0  0.00000000000E+00  0.00000000000E+00  0.10760105944E+04  0.38705976703E+04  0.37180273703E+04 0.  0.
        5    1    3    3  502    0  0.32775950743E+03 -0.15736356217E+04  0.15102199072E+04  0.22055705889E+04  0.46999998093E+01 0. -1.
       -5    1    3    3    0  502 -0.32775950743E+03  0.15736356217E+04 -0.43420931271E+03  0.16650270814E+04  0.46999998093E+01 0.  1.
</event>
<event>
 5   0  0.5679750E-07  0.2989350E+04  0.7818609E-02  0.8246778E-01
       -1   -1    0    0    0  501  0.00000000000E+00  0.00000000000E+00  0.12877203554E+04  0.12877203554E+04  0.50400001928E-02 0. -1.
        1   -1    0    0  501    0  0.00000000000E+00  0.00000000000E+00 -0.17348905727E+04  0.17348905727E+04  0.50400001928E-02 0.  1.
    10030    2    1    2    0    0  0.00000000000E+00  0.00000000000E+00 -0.44717021735E+03  0.30226109281E+04  0.29893503674E+04 0.  0.
        4    1    3    3  502    0 -0.31021562683E+03  0.11918466404E+04  0.63278587087E+03  0.13846124803E+04  0.12699999809E+01 0. -1.
       -4    1    3    3    0  502  0.31021562683E+03 -0.11918466404E+04 -0.10799560882E+04  0.16379984477E+04  0.12699999809E+01 0.  1.
</event>
<event>
 5   0  0.1184684E-06  0.3831841E+04  0.7818609E-02  0.8039356E-01
        2   -1    0    0  501    0  0.00000000000E+00  0.00000000000E+00  0.28112705875E+04  0.28112705875E+04  0.25500000920E-02 0. -1.
       -2   -1    0    0    0  501  0.00000000000E+00  0.00000000000E+00 -0.13057268796E+04  0.13057268796E+04  0.25500000920E-02 0.  1.
    10030    2    1    2    0    0  0.00000000000E+00  0.00000000000E+00  0.15055437078E+04  0.41169974671E+04  0.38318411095E+04 0.  0.
        4    1    3    3  502    0  0.64246782939E+03  0.13358497912E+04  0.20569795548E+04  0.25354341005E+04  0.12699999809E+01 0. -1.
       -4    1    3    3    0  502 -0.64246782939E+03 -0.13358497912E+04 -0.55143584694E+03  0.15815633666E+04  0.12699999809E+01 0.  1.
</event>
<event>
 5   0  0.6261598E-07  0.3761711E+04  0.7818609E-02  0.8054422E-01
        1   -1    0    0  501    0  0.00000000000E+00  0.00000000000E+00  0.15538555752E+04  0.15538555753E+04  0.50400001928E-02 0.  1.
       -1   -1    0    0    0  501  0.00000000000E+00  0.00000000000E+00 -0.22766701903E+04  0.22766701903E+04  0.50400001928E-02 0. -1.
    10030    2    1    2    0    0  0.00000000000E+00  0.00000000000E+00 -0.72281461506E+03  0.38305257656E+04  0.37617106046E+04 0.  0.
        1    1    3    3  502    0 -0.32084029239E+03 -0.58446673938E+03  0.14294804129E+04  0.15773249867E+04  0.50400001928E-02 0.  1.
       -1    1    3    3    0  502  0.32084029239E+03  0.58446673938E+03 -0.21522950280E+04  0.22532007789E+04  0.50400001928E-02 0. -1.
</event>
<event>
 5   0  0.6186440E-07  0.3767397E+04  0.7818609E-02  0.8053188E-01
       -1   -1    0    0    0  501  0.00000000000E+00  0.00000000000E+00  0.13659740358E+04  0.13659740358E+04  0.50400001928E-02 0.  1.
        1   -1    0    0  501    0  0.00000000000E+00  0.00000000000E+00 -0.25976478947E+04  0.25976478947E+04  0.50400001928E-02 0. -1.
    10030    2    1    2    0    0  0.00000000000E+00  0.00000000000E+00 -0.12316738589E+04  0.39636219305E+04  0.37673967555E+04 0.  0.
        3    1    3    3  502    0  0.33411329404E+03 -0.10311995637E+03  0.13315308259E+04  0.13766770751E+04  0.10100000352E+00 0.  1.
       -3    1    3    3    0  502 -0.33411329404E+03  0.10311995637E+03 -0.25632046848E+04  0.25869448554E+04  0.10100000352E+00 0. -1.
</event>
<event>
 5   0  0.6261598E-07  0.3753425E+04  0.7818609E-02  0.8056224E-01
       -1   -1    0    0    0  501  0.00000000000E+00  0.00000000000E+00  0.19149387769E+04  0.19149387769E+04  0.50400001928E-02 0.  1.
        1   -1    0    0  501    0  0.00000000000E+00  0.00000000000E+00 -0.18392492884E+04  0.18392492884E+04  0.50400001928E-02 0. -1.
    10030    2    1    2    0    0  0.00000000000E+00  0.00000000000E+00  0.75689488505E+02  0.37541880653E+04  0.37534249868E+04 0.  0.
        1    1    3    3  502    0 -0.25313494363E+03 -0.94748139144E+03  0.16382486339E+04  0.19093603309E+04  0.50400001928E-02 0.  1.
       -1    1    3    3    0  502  0.25313494363E+03  0.94748139144E+03 -0.15625591454E+04  0.18448277344E+04  0.50400001928E-02 0. -1.
</event>
<event>
 5   0  0.1680194E-06  0.3389103E+04  0.7818609E-02  0.8140586E-01
       -2   -1    0    0    0  501  0.00000000000E+00  0.00000000000E+00  0.16321683991E+04  0.16321683991E+04  0.25500000920E-02 0. -1.
        2   -1    0    0  501    0  0.00000000000E+00  0.00000000000E+00 -0.17593189056E+04  0.17593189056E+04  0.25500000920E-02 0.  1.
    10030    2    1    2    0    0  0.00000000000E+00  0.00000000000E+00 -0.12715050654E+03  0.33914873047E+04  0.33891029620E+04 0.  0.
        2    1    3    3  502    0 -0.10676396435E+04  0.36967190226E+03  0.12002435806E+04  0.16483617251E+04  0.25500000920E-02 0. -1.
       -2    1    3    3    0  502  0.10676396435E+04 -0.36967190226E+03 -0.13273940872E+04  0.17431255797E+04  0.25500000920E-02 0.  1.
</event>
<event>
 5   0  0.1680194E-06  0.3568527E+04  0.7818609E-02  0.8097739E-01
        2   -1    0    0  501    0  0.00000000000E+00  0.00000000000E+00  0.21716808759E+04  0.21716808759E+04  0.25500000920E-02 0.  1.
       -2   -1    0    0    0  501  0.00000000000E+00  0.00000000000E+00 -0.14659592923E+04  0.14659592923E+04  0.25500000920E-02 0. -1.
    10030    2    1    2    0    0  0.00000000000E+00  0.00000000000E+00  0.70572158363E+03  0.36376401682E+04  0.35685267324E+04 0.  0.
        2    1    3    3  502    0  0.10190644562E+04 -0.12615345149E+04  0.11113373858E+04  0.19659685865E+04  0.25500000920E-02 0.  1.
       -2    1    3    3    0  502 -0.10190644562E+04  0.12615345149E+04 -0.40561580216E+03  0.16716715817E+04  0.25500000920E-02 0. -1.
</event>
<event>
 5   0  0.6287345E-07  0.1931942E+04  0.7818609E-02  0.8639118E-01
       -1   -1    0    0    0  501  0.00000000000E+00  0.00000000000E+00  0.46178073997E+03  0.46178074000E+03  0.50400001928E-02 0. -1.
        1   -1    0    0  501    0  0.00000000000E+00  0.00000000000E+00 -0.20206568538E+04  0.20206568538E+04  0.50400001928E-02 0.  1.
    10030    2    1    2    0    0  0.00000000000E+00  0.00000000000E+00 -0.15588761138E+04  0.24824375938E+04  0.19319424600E+04 0.  0.
        5    1    3    3  502    0 -0.69354096895E+03  0.40340208694E+03 -0.88255293225E+02  0.80718238716E+03  0.46999998093E+01 0. -1.
       -5    1    3    3    0  502  0.69354096895E+03 -0.40340208694E+03 -0.14706208206E+04  0.16752552066E+04  0.46999998093E+01 0.  1.
</event>
<event>
 5   0  0.1184684E-06  0.3731226E+04  0.7818609E-02  0.8061077E-01
       -2   -1    0    0    0  501  0.00000000000E+00  0.00000000000E+00  0.19048997631E+04  0.19048997631E+04  0.25500000920E-02 0. -1.
        2   -1    0    0  501    0  0.00000000000E+00  0.00000000000E+00 -0.18271360898E+04  0.18271360898E+04  0.25500000920E-02 0.  1.
    10030    2    1    2    0    0  0.00000000000E+00  0.00000000000E+00  0.77763673329E+02  0.37320358529E+04  0.37312255920E+04 0.  0.
        4    1    3    3  502    0  0.19091229708E+01 -0.18180289855E+04 -0.37986938779E+03  0.18572924922E+04  0.12699999809E+01 0.  1.
       -4    1    3    3    0  502 -0.19091229708E+01  0.18180289855E+04  0.45763306112E+03  0.18747433607E+04  0.12699999809E+01 0. -1.
</event>
<event>
 5   0  0.6287345E-07  0.3539097E+04  0.7818609E-02  0.8104586E-01
        1   -1    0    0  501    0  0.00000000000E+00  0.00000000000E+00  0.18275911003E+04  0.18275911003E+04  0.50400001928E-02 0. -1.
       -1   -1    0    0    0  501  0.00000000000E+00  0.00000000000E+00 -0.17133495161E+04  0.17133495161E+04  0.50400001928E-02 0.  1.
    10030    2    1    2    0    0  0.00000000000E+00  0.00000000000E+00  0.11424158415E+03  0.35409406164E+04  0.35390972450E+04 0.  0.
        5    1    3    3  502    0  0.11147959224E+04  0.13741946490E+04  0.47147872674E+02  0.17701485513E+04  0.46999998093E+01 0. -1.
       -5    1    3    3    0  502 -0.11147959224E+04 -0.13741946490E+04  0.67093711473E+02  0.17707920651E+04  0.46999998093E+01 0.  1.
</event>
<event>
 5   0  0.6287345E-07  0.2062264E+04  0.7818609E-02  0.8578051E-01
        1   -1    0    0  501    0  0.00000000000E+00  0.00000000000E+00  0.16888816333E+04  0.16888816333E+04  0.50400001928E-02 0.  1.
       -1   -1    0    0    0  501  0.00000000000E+00  0.00000000000E+00 -0.62954882989E+03  0.62954882991E+03  0.50400001928E-02 0. -1.
    10030    2    1    2    0    0  0.00000000000E+00  0.00000000000E+00  0.10593328034E+04  0.23184304632E+04  0.20622642470E+04 0.  0.
        5    1    3    3  502    0  0.86126121314E+02  0.58340322968E+03  0.14805659687E+04  0.15936984391E+04  0.46999998093E+01 0.  1.
       -5    1    3    3    0  502 -0.86126121314E+02 -0.58340322968E+03 -0.42123316532E+03  0.72473202408E+03  0.46999998093E+01 0. -1.
</event>
<event>
 5   0  0.6261598E-07  0.3521186E+04  0.7818609E-02  0.8108787E-01
        1   -1    0    0  501    0  0.00000000000E+00  0.00000000000E+00  0.20252137440E+04  0.20252137440E+04  0.50400001928E-02 0.  1.
       -1   -1    0    0    0  501  0.00000000000E+00  0.00000000000E+00 -0.15305488385E+04  0.15305488385E+04  0.50400001928E-02 0. -1.
    10030    2    1    2    0    0  0.00000000000E+00  0.00000000000E+00  0.49466490551E+03  0.35557625826E+04  0.35211864726E+04 0.  0.
        1    1    3    3  502    0 -0.72942126590E+02 -0.16539976876E+04 -0.35743022924E+03  0.16937488814E+04  0.50400001928E-02 0.  1.
       -1    1    3    3    0  502  0.72942126590E+02  0.16539976876E+04  0.85209513475E+03  0.18620137011E+04  0.50400001928E-02 0. -1.
</event>
<event>
 5   0  0.5679750E-07  0.3779089E+04  0.7818609E-02  0.8050657E-01
       -3   -1    0    0    0  501  0.00000000000E+00  0.00000000000E+00  0.10853738842E+04  0.10853738889E+04  0.10100000352E+00 0.  1.
        3   -1    0    0  501    0  0.00000000000E+00  0.00000000000E+00 -0.32895386192E+04  0.32895386207E+04  0.10100000352E+00 0. -1.
    10030    2    1    2    0    0  0.00000000000E+00  0.00000000000E+00 -0.22041647350E+04  0.43749125096E+04  0.37790894786E+04 0.  0.
        5    1    3    3  502    0 -0.10797955140E+04 -0.11715487253E+04  0.73884833725E+02  0.15949814502E+04  0.46999998093E+01 0.  1.
       -5    1    3    3    0  502  0.10797955140E+04  0.11715487253E+04 -0.22780495687E+04  0.27799310594E+04  0.46999998093E+01 0. -1.
</event>
<event>
 5   0  0.5875011E-07  0.3658028E+04  0.7818609E-02  0.8077328E-01
       -1   -1    0    0    0  501  0.00000000000E+00  0.00000000000E+00  0.18471481142E+04  0.18471481142E+04  0.50400001928E-02 0.  1.
        1   -1    0    0  501    0  0.00000000000E+00  0.00000000000E+00 -0.18110576600E+04  0.18110576600E+04  0.50400001928E-02 0. -1.
    10030    2    1    2    0    0  0.00000000000E+00  0.00000000000E+00  0.36090454188E+02  0.36582057742E+04  0.36580277426E+04 0.  0.
        2    1    3    3  502    0 -0.54871388186E+03 -0.15011210799E+04  0.90738054119E+03  0.18378767280E+04  0.25500000920E-02 0.  1.
       -2    1    3    3    0  502  0.54871388186E+03  0.15011210799E+04 -0.87129008700E+03  0.18203290462E+04  0.25500000920E-02 0. -1.
</event>
<event>
 5   0  0.1151180E-06  0.3730827E+04  0.7818609E-02  0.8061164E-01
        2   -1    0    0  501    0  0.00000000000E+00  0.00000000000E+00  0.22707117092E+04  0.22707117092E+04  0.25500000920E-02 0.  1.
       -2   -1    0    0    0  501  0.00000000000E+00  0.00000000000E+00 -0.15324568609E+04  0.15324568610E+04  0.25500000920E-02 0. -1.
    10030    2    1    2    0    0  0.00000000000E+00  0.00000000000E+00  0.73825484824E+03  0.38031685701E+04  0.37308271136E+04 0.  0.
        5    1    3    3  502    0  0.32401611886E+03 -0.17671611396E+04 -0.14250156780E+03  0.18022690491E+04  0.46999998093E+01 0. -1.
       -5    1    3    3    0  502 -0.32401611886E+03  0.17671611396E+04  0.88075641604E+03  0.20008995210E+04  0.46999998093E+01 0.  1.
</event>
<event>
 5   0  0.6261598E-07  0.2198815E+04  0.7818609E-02  0.8518921E-01
        1   -1    0    0  501    0  0.00000000000E+00  0.00000000000E+00  0.78590500623E+03  0.78590500625E+03  0.50400001928E-02 0.  1.
       -1   -1    0    0    0  501  0.00000000000E+00  0.00000000000E+00 -0.15379688046E+04  0.15379688046E+04  0.50400001928E-02 0. -1.
    10030    2    1    2    0    0  0.00000000000E+00  0.00000000000E+00 -0.75206379840E+03  0.23238738109E+04  0.21988154839E+04 0.  0.
        1    1    3    3  502    0  0.10013852677E+04 -0.12457080577E+03  0.85142572853E+02  0.10126892899E+04  0.50400001928E-02 0.  1.
       -1    1    3    3    0  502 -0.10013852677E+04  0.12457080577E+03 -0.83720637125E+03  0.13111845210E+04  0.50400001928E-02 0. -1.
</event>
<event>
 5   0  0.1151180E-06  0.3709611E+04  0.7818609E-02  0.8065835E-01
       -2   -1    0    0    0  501  0.00000000000E+00  0.00000000000E+00  0.16679079895E+04  0.16679079895E+04  0.25500000920E-02 0.  1.
        2   -1    0    0  501    0  0.00000000000E+00  0.00000000000E+00 -0.20626454761E+04  0.20626454761E+04  0.25500000920E-02 0. -1.
    10030    2    1    2    0    0  0.00000000000E+00  0.00000000000E+00 -0.39473748661E+03  0.37305534655E+04  0.37096106906E+04 0.  0.
        5    1    3    3  502    0  0.18246956234E+04 -0.26417315907E+03 -0.40094479535E+03  0.18868175309E+04  0.46999998093E+01 0. -1.
       -5    1    3    3    0  502 -0.18246956234E+04  0.26417315907E+03  0.62073087422E+01  0.18437359346E+04  0.46999998093E+01 0.  1.
</event>
<event>
 5   0  0.1685793E-06  0.3183586E+04  0.7818609E-02  0.8193166E-01
        2   -1    0    0  501    0  0.00000000000E+00  0.00000000000E+00  0.21612536653E+04  0.21612536653E+04  0.25500000920E-02 0.  1.
       -2   -1    0    0    0  501  0.00000000000E+00  0.00000000000E+00 -0.11723773256E+04  0.11723773256E+04  0.25500000920E-02 0. -1.
    10030    2    1    2    0    0  0.00000000000E+00  0.00000000000E+00  0.98887633963E+03  0.33336309909E+04  0.31835858978E+04 0.  0.
        3    1    3    3  502    0 -0.24648593246E+03  0.25249169255E+03 -0.11309090761E+04  0.11846783185E+04  0.10100000352E+00 0. -1.
       -3    1    3    3    0  502  0.24648593246E+03 -0.25249169255E+03  0.21197854157E+04  0.21489526725E+04  0.10100000352E+00 0.  1.
</event>
<event>
 5   0  0.6261598E-07  0.3649361E+04  0.7818609E-02  0.8079278E-01
       -1   -1    0    0    0  501  0.00000000000E+00  0.00000000000E+00  0.14669585978E+04  0.14669585978E+04  0.50400001928E-02 0.  1.
        1   -1    0    0  501    0  0.00000000000E+00  0.00000000000E+00 -0.22696342996E+04  0.22696342996E+04  0.50400001928E-02 0. -1.
    10030    2    1    2    0    0  0.00000000000E+00  0.00000000000E+00 -0.80267570180E+03  0.37365928974E+04  0.36493613412E+04 0.  0.
        1    1    3    3  502    0 -0.16599269967E+04 -0.22471181917E+03  0.33956529196E+03  0.17091394395E+04  0.50400001928E-02 0.  1.
       -1    1    3    3    0  502  0.16599269967E+04  0.22471181917E+03 -0.11422409938E+04  0.20274534579E+04  0.50400001928E-02 0. -1.
</event>
<event>
 5   0  0.6261598E-07  0.2968149E+04  0.7818609E-02  0.8252885E-01
       -1   -1    0    0    0  501  0.00000000000E+00  0.00000000000E+00  0.13763739423E+04  0.13763739424E+04  0.50400001928E-02 0.  1.
        1   -1    0    0  501    0  0.00000000000E+00  0.00000000000E+00 -0.16002020380E+04  0.16002020380E+04  0.50400001928E-02 0. -1.
    10030    2    1    2    0    0  0.00000000000E+00  0.00000000000E+00 -0.22382809562E+03  0.29765759803E+04  0.29681485054E+04 0.  0.
        1    1    3    3  502    0 -0.12238256176E+04 -0.46274858972E+03 -0.81432476558E+03  0.15411068177E+04  0.50400001928E-02 0. -1.
       -1    1    3    3    0  502  0.12238256176E+04  0.46274858972E+03  0.59049666996E+03  0.14354691626E+04  0.50400001928E-02 0.  1.
</event>
<event>
 5   0  0.6261598E-07  0.2503061E+04  0.7818609E-02  0.8401896E-01
        1   -1    0    0  501    0  0.00000000000E+00  0.00000000000E+00  0.16469140722E+04  0.16469140722E+04  0.50400001928E-02 0.  1.
       -1   -1    0    0    0  501  0.00000000000E+00  0.00000000000E+00 -0.95106888225E+03  0.95106888227E+03  0.50400001928E-02 0. -1.
    10030    2    1    2    0    0  0.00000000000E+00  0.00000000000E+00  0.69584518995E+03  0.25979829545E+04  0.25030611066E+04 0.  0.
        1    1    3    3  502    0 -0.44552250778E+03 -0.44139878943E+03 -0.77620310009E+03  0.99790502998E+03  0.50400001928E-02 0. -1.
       -1    1    3    3    0  502  0.44552250778E+03  0.44139878943E+03  0.14720482900E+04  0.16000779245E+04  0.50400001928E-02 0.  1.
</event>
<event>
 5   0  0.1151180E-06  0.1859547E+04  0.7818609E-02  0.8675258E-01
       -2   -1    0    0    0  501  0.00000000000E+00  0.00000000000E+00  0.61647930563E+03  0.61647930563E+03  0.25500000920E-02 0.  1.
        2   -1    0    0  501    0  0.00000000000E+00  0.00000000000E+00 -0.14022838772E+04  0.14022838772E+04  0.25500000920E-02 0. -1.
    10030    2    1    2    0    0  0.00000000000E+00  0.00000000000E+00 -0.78580457161E+03  0.20187631829E+04  0.18595472470E+04 0.  0.
        5    1    3    3  502    0  0.29556726665E+02  0.71627106632E+03  0.24985405183E+03  0.75918836777E+03  0.46999998093E+01 0.  1.
       -5    1    3    3    0  502 -0.29556726665E+02 -0.71627106632E+03 -0.10356586234E+04  0.12595748151E+04  0.46999998093E+01 0. -1.
</event>
<event>
 5   0  0.5875011E-07  0.2168290E+04  0.7818609E-02  0.8531743E-01
       -1   -1    0    0    0  501  0.00000000000E+00  0.00000000000E+00  0.11487270648E+04  0.11487270648E+04  0.50400001928E-02 0. -1.
        1   -1    0    0  501    0  0.00000000000E+00  0.00000000000E+00 -0.10231941152E+04  0.10231941152E+04  0.50400001928E-02 0.  1.
    10030    2    1    2    0    0  0.00000000000E+00  0.00000000000E+00  0.12553294957E+03  0.21719211800E+04  0.21682903612E+04 0.  0.
        2    1    3    3  502    0  0.37145238818E+03  0.45072688640E+03  0.97766285620E+03  0.11388398760E+04  0.25500000920E-02 0. -1.
       -2    1    3    3    0  502 -0.37145238818E+03 -0.45072688640E+03 -0.85212990662E+03  0.10330813040E+04  0.25500000920E-02 0.  1.
</event>
<event>
 5   0  0.5875011E-07  0.3660452E+04  0.7818609E-02  0.8076783E-01
       -1   -1    0    0    0  501  0.00000000000E+00  0.00000000000E+00  0.29681796401E+04  0.29681796401E+04  0.50400001928E-02 0.  1.
        1   -1    0    0  501    0  0.00000000000E+00  0.00000000000E+00 -0.11285459589E+04  0.11285459589E+04  0.50400001928E-02 0. -1.
    10030    2    1    2    0    0  0.00000000000E+00  0.00000000000E+00  0.18396336813E+04  0.40967255990E+04  0.36604519602E+04 0.  0.
        2    1    3    3  502    0 -0.88706836072E+03 -0.14912820573E+04  0.15713662553E+04  0.23409409133E+04  0.25500000920E-02 0. -1.
       -2    1    3    3    0  502  0.88706836072E+03  0.14912820573E+04  0.26826742591E+03  0.17557846858E+04  0.25500000920E-02 0.  1.
</event>
<event>
 5   0  0.1685793E-06  0.3504919E+04  0.7818609E-02  0.8112625E-01
        2   -1    0    0  501    0  0.00000000000E+00  0.00000000000E+00  0.17445072549E+04  0.17445072549E+04  0.25500000920E-02 0.  1.
       -2   -1    0    0    0  501  0.00000000000E+00  0.00000000000E+00 -0.17604478069E+04  0.17604478069E+04  0.25500000920E-02 0. -1.
    10030    2    1    2    0    0  0.00000000000E+00  0.00000000000E+00 -0.15940552043E+02  0.35049550618E+04  0.35049188127E+04 0.  0.
        3    1    3    3  502    0  0.89715361798E+03 -0.11679482141E+04 -0.95778340283E+03  0.17567972854E+04  0.10100000352E+00 0. -1.
       -3    1    3    3    0  502 -0.89715361798E+03  0.11679482141E+04  0.94184285079E+03  0.17481577763E+04  0.10100000352E+00 0.  1.
</event>
<event>
 5   0  0.1184684E-06  0.3567420E+04  0.7818609E-02  0.8097996E-01
        2   -1    0    0  501    0  0.00000000000E+00  0.00000000000E+00  0.17680196592E+04  0.17680196592E+04  0.25500000920E-02 0. -1.
       -2   -1    0    0    0  501  0.00000000000E+00  0.00000000000E+00 -0.17995390829E+04  0.17995390829E+04  0.25500000920E-02 0.  1.
    10030    2    1    2    0    0  0.00000000000E+00  0.00000000000E+00 -0.31519423783E+02  0.35675587421E+04  0.35674195021E+04 0.  0.
        4    1    3    3  502    0  0.15039589776E+04 -0.33648802819E+03  0.88232993955E+03  0.17758447383E+04  0.12699999809E+01 0. -1.
       -4    1    3    3    0  502 -0.15039589776E+04  0.33648802819E+03 -0.91384936334E+03  0.17917140038E+04  0.12699999809E+01 0.  1.
</event>
<event>
 5   0  0.1184684E-06  0.3764262E+04  0.7818609E-02  0.8053868E-01
        2   -1    0    0  501    0  0.00000000000E+00  0.00000000000E+00  0.22867526420E+04  0.22867526420E+04  0.25500000920E-02 0.  1.
       -2   -1    0    0    0  501  0.00000000000E+00  0.00000000000E+00 -0.15491037120E+04  0.15491037120E+04  0.25500000920E-02 0. -1.
    10030    2    1    2    0    0  0.00000000000E+00  0.00000000000E+00  0.73764892995E+03  0.38358563540E+04  0.37642619495E+04 0.  0.
        4    1    3    3  502    0 -0.80831480783E+02  0.62022606064E+03  0.21777495066E+04  0.22657909482E+04  0.12699999809E+01 0.  1.
       -4    1    3    3    0  502  0.80831480783E+02 -0.62022606064E+03 -0.14401005767E+04  0.15700654058E+04  0.12699999809E+01 0. -1.
</event>
<event>
 5   0  0.6186440E-07  0.3455446E+04  0.7818609E-02  0.8124430E-01
        1   -1    0    0  501    0  0.00000000000E+00  0.00000000000E+00  0.23935059883E+04  0.23935059883E+04  0.50400001928E-02 0.  1.
       -1   -1    0    0    0  501  0.00000000000E+00  0.00000000000E+00 -0.12471359660E+04  0.12471359660E+04  0.50400001928E-02 0. -1.
    10030    2    1    2    0    0  0.00000000000E+00  0.00000000000E+00  0.11463700223E+04  0.36406419543E+04  0.34554463693E+04 0.  0.
        3    1    3    3  502    0 -0.83203328967E+03  0.54230661622E+03  0.20626913407E+04  0.22893386464E+04  0.10100000352E+00 0.  1.
       -3    1    3    3    0  502  0.83203328967E+03 -0.54230661622E+03 -0.91632131836E+03  0.13513033078E+04  0.10100000352E+00 0. -1.
</event>
<event>
 5   0  0.6261598E-07  0.3749227E+04  0.7818609E-02  0.8057139E-01
        1   -1    0    0  501    0  0.00000000000E+00  0.00000000000E+00  0.23996044904E+04  0.23996044904E+04  0.50400001928E-02 0.  1.
       -1   -1    0    0    0  501  0.00000000000E+00  0.00000000000E+00 -0.14644815606E+04  0.14644815606E+04  0.50400001928E-02 0. -1.
    10030    2    1    2    0    0  0.00000000000E+00  0.00000000000E+00  0.93512292985E+03  0.38640860510E+04  0.37492274025E+04 0.  0.
        1    1    3    3  502    0 -0.12565541301E+04  0.13813787440E+04  0.29808223521E+03  0.18910284332E+04  0.50400001928E-02 0.  1.
       -1    1    3    3    0  502  0.12565541301E+04 -0.13813787440E+04  0.63704069464E+03  0.19730576177E+04  0.50400001928E-02 0. -1.
</event>
<event>
 5   0  0.1184684E-06  0.1920355E+04  0.7818609E-02  0.8644790E-01
       -2   -1    0    0    0  501  0.00000000000E+00  0.00000000000E+00  0.60047428938E+03  0.60047428939E+03  0.25500000920E-02 0. -1.
        2   -1    0    0  501    0  0.00000000000E+00  0.00000000000E+00 -0.15353548881E+04  0.15353548881E+04  0.25500000920E-02 0.  1.
    10030    2    1    2    0    0  0.00000000000E+00  0.00000000000E+00 -0.93488059867E+03  0.21358291774E+04  0.19203553165E+04 0.  0.
        4    1    3    3  502    0 -0.89813795160E+03 -0.10112646828E+03 -0.10693964306E+03  0.91011869712E+03  0.12699999809E+01 0. -1.
       -4    1    3    3    0  502  0.89813795160E+03  0.10112646828E+03 -0.82794095561E+03  0.12257104803E+04  0.12699999809E+01 0.  1.
</event>
<event>
 5   0  0.6287345E-07  0.3469801E+04  0.7818609E-02  0.8120984E-01
        1   -1    0    0  501    0  0.00000000000E+00  0.00000000000E+00  0.12472408686E+04  0.12472408686E+04  0.50400001928E-02 0. -1.
       -1   -1    0    0    0  501  0.00000000000E+00  0.00000000000E+00 -0.24132298487E+04  0.24132298488E+04  0.50400001928E-02 0.  1.
    10030    2    1    2    0    0  0.00000000000E+00  0.00000000000E+00 -0.11659889802E+04  0.36604707173E+04  0.34698005087E+04 0.  0.
        5    1    3    3  502    0 -0.15192744745E+04  0.30501479656E+03 -0.14060106078E+04  0.20923950091E+04  0.46999998093E+01 0.  1.
       -5    1    3    3    0  502  0.15192744745E+04 -0.30501479656E+03  0.24002162759E+03  0.15680757082E+04  0.46999998093E+01 0. -1.
</event>
<event>
 5   0  0.1151180E-06  0.3088312E+04  0.7818609E-02  0.8218953E-01
       -2   -1    0    0    0  501  0.00000000000E+00  0.00000000000E+00  0.82231189880E+03  0.82231189880E+03  0.25500000920E-02 0.  1.
        2   -1    0    0  501    0  0.00000000000E+00  0.00000000000E+00 -0.28996521150E+04  0.28996521150E+04  0.25500000920E-02 0. -1.
    10030    2    1    2    0    0  0.00000000000E+00  0.00000000000E+00 -0.20773402162E+04  0.37219640138E+04  0.30883124431E+04 0.  0.
        5    1    3    3  502    0 -0.61066278546E+03 -0.95155173069E+03  0.22879405963E+03  0.11535720807E+04  0.46999998093E+01 0.  1.
       -5    1    3    3    0  502  0.61066278546E+03  0.95155173069E+03 -0.23061342758E+04  0.25683919331E+04  0.46999998093E+01 0. -1.
</event>
<event>
 5   0  0.6186440E-07  0.4632428E+04  0.7818609E-02  0.7887854E-01
       -1   -1    0    0    0  501  0.00000000000E+00  0.00000000000E+00  0.28287485341E+04  0.28287485341E+04  0.50400001928E-02 0.  1.
        1   -1    0    0  501    0  0.00000000000E+00  0.00000000000E+00 -0.18965445946E+04  0.18965445946E+04  0.50400001928E-02 0. -1.
    10030    2    1    2    0    0  0.00000000000E+00  0.00000000000E+00  0.93220393950E+03  0.47252931288E+04  0.46324281935E+04 0.  0.
        3    1    3    3  502    0 -0.21676792728E+04 -0.58686055863E+03  0.10445763729E+04  0.24767677634E+04  0.10100000352E+00 0. -1.
       -3    1    3    3    0  502  0.21676792728E+04  0.58686055863E+03 -0.11237243335E+03  0.22485253654E+04  0.10100000352E+00 0.  1.
</event>
<event>
 5   0  0.6261598E-07  0.3738181E+04  0.7818609E-02  0.8059553E-01
        1   -1    0    0  501    0  0.00000000000E+00  0.00000000000E+00  0.22188247827E+04  0.22188247827E+04  0.50400001928E-02 0. -1.
       -1   -1    0    0    0  501  0.00000000000E+00  0.00000000000E+00 -0.15744820253E+04  0.15744820253E+04  0.50400001928E-02 0.  1.
    10030    2    1    2    0    0  0.00000000000E+00  0.00000000000E+00  0.64434275744E+03  0.37933068080E+04  0.37381812357E+04 0.  0.
        1    1    3    3  502    0  0.11882070389E+03  0.12923822878E+04 -0.10427022197E+04  0.16648117781E+04  0.50400001928E-02 0.  1.
       -1    1    3    3    0  502 -0.11882070389E+03 -0.12923822878E+04  0.16870449771E+04  0.21284950299E+04  0.50400001928E-02 0. -1.
</event>
<event>
 5   0  0.1680194E-06  0.2811361E+04  0.7818609E-02  0.8299750E-01
       -2   -1    0    0    0  501  0.00000000000E+00  0.00000000000E+00  0.25375736730E+04  0.25375736730E+04  0.25500000920E-02 0. -1.
        2   -1    0    0  501    0  0.00000000000E+00  0.00000000000E+00 -0.77867203791E+03  0.77867203792E+03  0.25500000920E-02 0.  1.
    10030    2    1    2    0    0  0.00000000000E+00  0.00000000000E+00  0.17589016351E+04  0.33162457109E+04  0.28113609966E+04 0.  0.
        2    1    3    3  502    0  0.92152752452E+03  0.10417306999E+04  0.63908741202E+03  0.15306366485E+04  0.25500000920E-02 0.  1.
       -2    1    3    3    0  502 -0.92152752452E+03 -0.10417306999E+04  0.11198142231E+04  0.17856090624E+04  0.25500000920E-02 0. -1.
</event>
<event>
 5   0  0.1685793E-06  0.2272094E+04  0.7818609E-02  0.8489006E-01
        2   -1    0    0  501    0  0.00000000000E+00  0.00000000000E+00  0.20296868406E+04  0.20296868406E+04  0.25500000920E-02 0.  1.
       -2   -1    0    0    0  501  0.00000000000E+00  0.00000000000E+00 -0.63586292081E+03  0.63586292082E+03  0.25500000920E-02 0. -1.
    10030    2    1    2    0    0  0.00000000000E+00  0.00000000000E+00  0.13938239198E+04  0.26655497614E+04  0.22720938386E+04 0.  0.
        3    1    3    3  502    0 -0.33582390709E+03 -0.25787502399E+03 -0.53983583454E+03  0.68607577062E+03  0.10100000352E+00 0. -1.
       -3    1    3    3    0  502  0.33582390709E+03  0.25787502399E+03  0.19336597543E+04  0.19794739908E+04  0.10100000352E+00 0.  1.
</event>
<event>
 5   0  0.1184684E-06  0.3694345E+04  0.7818609E-02  0.8069216E-01
       -2   -1    0    0    0  501  0.00000000000E+00  0.00000000000E+00  0.24288983354E+04  0.24288983354E+04  0.25500000920E-02 0.  1.
        2   -1    0    0  501    0  0.00000000000E+00  0.00000000000E+00 -0.14047714273E+04  0.14047714273E+04  0.25500000920E-02 0. -1.
    10030    2    1    2    0    0  0.00000000000E+00  0.00000000000E+00  0.10241269081E+04  0.38336697627E+04  0.36943453988E+04 0.  0.
        4    1    3    3  502    0 -0.69496473648E+03 -0.17070092798E+04  0.63995373316E+03  0.19509995028E+04  0.12699999809E+01 0.  1.
       -4    1    3    3    0  502  0.69496473648E+03  0.17070092798E+04  0.38417317490E+03  0.18826702599E+04  0.12699999809E+01 0. -1.
</event>
<event>
 5   0  0.1184684E-06  0.3678814E+04  0.7818609E-02  0.8072673E-01
       -2   -1    0    0    0  501  0.00000000000E+00  0.00000000000E+00  0.26478687128E+04  0.26478687128E+04  0.25500000920E-02 0. -1.
        2   -1    0    0  501    0  0.00000000000E+00  0.00000000000E+00 -0.12777890365E+04  0.12777890365E+04  0.25500000920E-02 0.  1.
    10030    2    1    2    0    0  0.00000000000E+00  0.00000000000E+00  0.13700796764E+04  0.39256577493E+04  0.36788137279E+04 0.  0.
        4    1    3    3  502    0 -0.18318111019E+03 -0.18296224821E+04  0.63339564873E+03  0.19448047220E+04  0.12699999809E+01 0.  1.
       -4    1    3    3    0  502  0.18318111019E+03  0.18296224821E+04  0.73668402763E+03  0.19808530272E+04  0.12699999809E+01 0. -1.
</event>
<event>
 5   0  0.1151180E-06  0.2216744E+04  0.7818609E-02  0.8511491E-01
       -2   -1    0    0    0  501  0.00000000000E+00  0.00000000000E+00  0.13383849805E+04  0.13383849805E+04  0.25500000920E-02 0. -1.
        2   -1    0    0  501    0  0.00000000000E+00  0.00000000000E+00 -0.91788904288E+03  0.91788904288E+03  0.25500000920E-02 0.  1.
    10030    2    1    2    0    0  0.00000000000E+00  0.00000000000E+00  0.42049593763E+03  0.22562740234E+04  0.22167443775E+04 0.  0.
        5    1    3    3  502    0 -0.10969572476E+04  0.15536056981E+03  0.17782543308E+03  0.11220945078E+04  0.46999998093E+01 0.  1.
       -5    1    3    3    0  502  0.10969572476E+04 -0.15536056981E+03  0.24267050455E+03  0.11341795156E+04  0.46999998093E+01 0. -1.
</event>
<event>
 5   0  0.1724503E-06  0.2431473E+04  0.7818609E-02  0.8427814E-01
       -2   -1    0    0    0  501  0.00000000000E+00  0.00000000000E+00  0.97224900359E+03  0.97224900360E+03  0.25500000920E-02 0.  1.
        2   -1    0    0  501    0  0.00000000000E+00  0.00000000000E+00 -0.15202023257E+04  0.15202023257E+04  0.25500000920E-02 0. -1.
    10030    2    1    2    0    0  0.00000000000E+00  0.00000000000E+00 -0.54795332210E+03  0.24924513293E+04  0.24314729663E+04 0.  0.
        1    1    3    3  502    0  0.19552047662E+03  0.10622733660E+04 -0.84596899669E+03  0.13719754022E+04  0.50400001928E-02 0. -1.
       -1    1    3    3    0  502 -0.19552047662E+03 -0.10622733660E+04  0.29801567460E+03  0.11204759271E+04  0.50400001928E-02 0.  1.
</event>
<event>
 5   0  0.5875011E-07  0.3084734E+04  0.7818609E-02  0.8219940E-01
        1   -1    0    0  501    0  0.00000000000E+00  0.00000000000E+00  0.14596165025E+04  0.14596165025E+04  0.50400001928E-02 0.  1.
       -1   -1    0    0    0  501  0.00000000000E+00  0.00000000000E+00 -0.16298088128E+04  0.16298088128E+04  0.50400001928E-02 0. -1.
    10030    2    1    2    0    0  0.00000000000E+00  0.00000000000E+00 -0.17019231029E+03  0.30894253153E+04  0.30847339198E+04 0.  0.
        2    1    3    3  502    0 -0.50566024219E+03  0.14389490294E+04 -0.31485570930E+03  0.15573698043E+04  0.25500000920E-02 0. -1.
       -2    1    3    3    0  502  0.50566024219E+03 -0.14389490294E+04  0.14466339901E+03  0.15320555110E+04  0.25500000920E-02 0.  1.
</event>
<event>
 5   0  0.1151180E-06  0.2848525E+04  0.7818609E-02  0.8288360E-01
       -2   -1    0    0    0  501  0.00000000000E+00  0.00000000000E+00  0.11111273549E+04  0.11111273549E+04  0.25500000920E-02 0.  1.
        2   -1    0    0  501    0  0.00000000000E+00  0.00000000000E+00 -0.18256445100E+04  0.18256445100E+04  0.25500000920E-02 0. -1.
    10030    2    1    2    0    0  0.00000000000E+00  0.00000000000E+00 -0.71451715509E+03  0.29367718649E+04  0.28485249203E+04 0.  0.
        5    1    3    3  502    0 -0.11366927257E+04 -0.39441343657E+03  0.42850038771E+03  0.12772106263E+04  0.46999998093E+01 0. -1.
       -5    1    3    3    0  502  0.11366927257E+04  0.39441343657E+03 -0.11430175428E+04  0.16595612386E+04  0.46999998093E+01 0.  1.
</event>
<event>
 5   0  0.6186440E-07  0.3672619E+04  0.7818609E-02  0.8074057E-01
       -1   -1    0    0    0  501  0.00000000000E+00  0.00000000000E+00  0.16243866996E+04  0.16243866996E+04  0.50400001928E-02 0.  1.
        1   -1    0    0  501    0  0.00000000000E+00  0.00000000000E+00 -0.20758807891E+04  0.20758807891E+04  0.50400001928E-02 0. -1.
    10030    2    1    2    0    0  0.00000000000E+00  0.00000000000E+00 -0.45149408949E+03  0.37002674888E+04  0.36726193072E+04 0.  0.
        3    1    3    3  502    0 -0.82519470685E+02  0.10237713046E+04  0.13079200286E+04  0.16630008895E+04  0.10100000352E+00 0.  1.
       -3    1    3    3    0  502  0.82519470685E+02 -0.10237713046E+04 -0.17594141181E+04  0.20372665992E+04  0.10100000352E+00 0. -1.
</event>
<event>
 5   0  0.6186440E-07  0.3740766E+04  0.7818609E-02  0.8058987E-01
       -1   -1    0    0    0  501  0.00000000000E+00  0.00000000000E+00  0.33154253918E+04  0.33154253918E+04  0.50400001928E-02 0. -1.
        1   -1    0    0  501    0  0.00000000000E+00  0.00000000000E+00 -0.10551688198E+04  0.10551688198E+04  0.50400001928E-02 0.  1.
    10030    2    1    2    0    0  0.00000000000E+00  0.00000000000E+00  0.22602565720E+04  0.43705942116E+04  0.37407664978E+04 0.  0.
        3    1    3    3  502    0  0.62895229125E+03  0.16377000419E+04  0.18879403867E+04  0.25772002883E+04  0.10100000352E+00 0. -1.
       -3    1    3    3    0  502 -0.62895229125E+03 -0.16377000419E+04  0.37231618529E+03  0.17933939233E+04  0.10100000352E+00 0.  1.
</event>
<event>
 5   0  0.6186440E-07  0.3716456E+04  0.7818609E-02  0.8064325E-01
       -1   -1    0    0    0  501  0.00000000000E+00  0.00000000000E+00  0.19188971263E+04  0.19188971263E+04  0.50400001928E-02 0. -1.
        1   -1    0    0  501    0  0.00000000000E+00  0.00000000000E+00 -0.17994772890E+04  0.17994772890E+04  0.50400001928E-02 0.  1.
    10030    2    1    2    0    0  0.00000000000E+00  0.00000000000E+00  0.11941983734E+03  0.37183744154E+04  0.37164562684E+04 0.  0.
        3    1    3    3  502    0 -0.17828758435E+04  0.38666075333E+03  0.41324619018E+03  0.18705414285E+04  0.10100000352E+00 0. -1.
       -3    1    3    3    0  502  0.17828758435E+04 -0.38666075333E+03 -0.29382635284E+03  0.18478329869E+04  0.10100000352E+00 0.  1.
</event>
<event>
 5   0  0.5679750E-07  0.3643261E+04  0.7818609E-02  0.8080654E-01
       -3   -1    0    0    0  501  0.00000000000E+00  0.00000000000E+00  0.15927705496E+04  0.15927705528E+04  0.10100000352E+00 0.  1.
        3   -1    0    0  501    0  0.00000000000E+00  0.00000000000E+00 -0.20833741117E+04  0.20833741142E+04  0.10100000352E+00 0. -1.
    10030    2    1    2    0    0  0.00000000000E+00  0.00000000000E+00 -0.49060356207E+03  0.36761446670E+04  0.36432605943E+04 0.  0.
        4    1    3    3  502    0  0.12523016752E+04  0.84915739509E+02  0.10867903146E+04  0.16602966510E+04  0.12699999809E+01 0.  1.
       -4    1    3    3    0  502 -0.12523016752E+04 -0.84915739509E+02 -0.15773938767E+04  0.20158480160E+04  0.12699999809E+01 0. -1.
</event>
<event>
 5   0  0.5679750E-07  0.2939793E+04  0.7818609E-02  0.8261135E-01
        1   -1    0    0  501    0  0.00000000000E+00  0.00000000000E+00  0.19929862792E+04  0.19929862793E+04  0.50400001928E-02 0.  1.
       -1   -1    0    0    0  501  0.00000000000E+00  0.00000000000E+00 -0.10840998525E+04  0.10840998525E+04  0.50400001928E-02 0. -1.
    10030    2    1    2    0    0  0.00000000000E+00  0.00000000000E+00  0.90888642679E+03  0.30770861317E+04  0.29397932793E+04 0.  0.
        4    1    3    3  502    0 -0.79877536723E+03 -0.97226315965E+03  0.12496999949E+04  0.17734399987E+04  0.12699999809E+01 0.  1.
       -4    1    3    3    0  502  0.79877536723E+03  0.97226315965E+03 -0.34081356815E+03  0.13036461330E+04  0.12699999809E+01 0. -1.
</event>
<event>
 5   0  0.1724503E-06  0.1869469E+04  0.7818609E-02  0.8670204E-01
        2   -1    0    0  501    0  0.00000000000E+00  0.00000000000E+00  0.17367392225E+04  0.17367392225E+04  0.25500000920E-02 0.  1.
       -2   -1    0    0    0  501  0.00000000000E+00  0.00000000000E+00 -0.50308580602E+03  0.50308580603E+03  0.25500000920E-02 0. -1.
    10030    2    1    2    0    0  0.00000000000E+00  0.00000000000E+00  0.12336534165E+04  0.22398250286E+04  0.18694692847E+04 0.  0.
        1    1    3    3  502    0 -0.14139720319E+03 -0.27451326011E+03  0.16738658711E+04  0.17021097654E+04  0.50400001928E-02 0.  1.
       -1    1    3    3    0  502  0.14139720319E+03  0.27451326011E+03 -0.44021245458E+03  0.53771526316E+03  0.50400001928E-02 0. -1.
</event>
<event>
 5   0  0.1151180E-06  0.3723517E+04  0.7818609E-02  0.8062770E-01
       -2   -1    0    0    0  501  0.00000000000E+00  0.00000000000E+00  0.18673392997E+04  0.18673392997E+04  0.25500000920E-02 0. -1.
        2   -1    0    0  501    0  0.00000000000E+00  0.00000000000E+00 -0.18561942274E+04  0.18561942274E+04  0.25500000920E-02 0.  1.
    10030    2    1    2    0    0  0.00000000000E+00  0.00000000000E+00  0.11145072355E+02  0.37235335271E+04  0.37235168477E+04 0.  0.
        5    1    3    3  502    0 -0.14544049251E+04 -0.95814311922E+03  0.66344356688E+03  0.18637358663E+04  0.46999998093E+01 0. -1.
       -5    1    3    3    0  502  0.14544049251E+04  0.95814311922E+03 -0.65229849453E+03  0.18597976608E+04  0.46999998093E+01 0.  1.
</event>
<event>
 5   0  0.5875011E-07  0.2594025E+04  0.7818609E-02  0.8370233E-01
       -1   -1    0    0    0  501  0.00000000000E+00  0.00000000000E+00  0.56358688967E+03  0.56358688970E+03  0.50400001928E-02 0.  1.
        1   -1    0    0  501    0  0.00000000000E+00  0.00000000000E+00 -0.29848846805E+04  0.29848846805E+04  0.50400001928E-02 0. -1.
    10030    2    1    2    0    0  0.00000000000E+00  0.00000000000E+00 -0.24212977909E+04  0.35484715702E+04  0.25940253454E+04 0.  0.
        2    1    3    3  502    0  0.78186769993E+03 -0.24413398090E+03  0.16501435940E+03  0.83555265522E+03  0.25500000920E-02 0.  1.
       -2    1    3    3    0  502 -0.78186769993E+03  0.24413398090E+03 -0.25863121503E+04  0.27129189150E+04  0.25500000920E-02 0. -1.
</event>
<event>
 5   0  0.1680194E-06  0.3887574E+04  0.7818609E-02  0.8027618E-01
       -2   -1    0    0    0  501  0.00000000000E+00  0.00000000000E+00  0.25331468387E+04  0.25331468387E+04  0.25500000920E-02 0.  1.
        2   -1    0    0  501    0  0.00000000000E+00  0.00000000000E+00 -0.14915473807E+04  0.14915473807E+04  0.25500000920E-02 0. -1.
    10030    2    1    2    0    0  0.00000000000E+00  0.00000000000E+00  0.10415994580E+04  0.40246942195E+04  0.38875743246E+04 0.  0.
        2    1    3    3  502    0 -0.19194608690E+03  0.91505233211E+03 -0.12434631347E+04  0.15557521133E+04  0.25500000920E-02 0. -1.
       -2    1    3    3    0  502  0.19194608690E+03 -0.91505233211E+03  0.22850625927E+04  0.24689421061E+04  0.25500000920E-02 0.  1.
</event>
<event>
 5   0  0.1680194E-06  0.3731053E+04  0.7818609E-02  0.8061115E-01
       -2   -1    0    0    0  501  0.00000000000E+00  0.00000000000E+00  0.14692190030E+04  0.14692190030E+04  0.25500000920E-02 0.  1.
        2   -1    0    0  501    0  0.00000000000E+00  0.00000000000E+00 -0.23687345576E+04  0.23687345576E+04  0.25500000920E-02 0. -1.
    10030    2    1    2    0    0  0.00000000000E+00  0.00000000000E+00 -0.89951555461E+03  0.38379535606E+04  0.37310533768E+04 0.  0.
        2    1    3    3  502    0  0.39235911976E+03 -0.88044130138E+02  0.14241088018E+04  0.14797916499E+04  0.25500000920E-02 0.  1.
       -2    1    3    3    0  502 -0.39235911976E+03  0.88044130138E+02 -0.23236243564E+04  0.23581619108E+04  0.25500000920E-02 0. -1.
</event>
<event>
 5   0  0.5679750E-07  0.3414855E+04  0.7818609E-02  0.8134270E-01
       -1   -1    0    0    0  501  0.00000000000E+00  0.00000000000E+00  0.13239330927E+04  0.13239330927E+04  0.50400001928E-02 0. -1.
        1   -1    0    0  501    0  0.00000000000E+00  0.00000000000E+00 -0.22020061055E+04  0.22020061055E+04  0.50400001928E-02 0.  1.
    10030    2    1    2    0    0  0.00000000000E+00  0.00000000000E+00 -0.87807301275E+03  0.35259391982E+04  0.34148550502E+04 0.  0.
        4    1    3    3  502    0  0.64700358308E+03 -0.23941038183E+03 -0.20516932379E+04  0.21645733351E+04  0.12699999809E+01 0.  1.
       -4    1    3    3    0  502 -0.64700358308E+03  0.23941038183E+03  0.11736202252E+04  0.13613658631E+04  0.12699999809E+01 0. -1.
</event>
<event>
 5   0  0.1685793E-06  0.3620265E+04  0.7818609E-02  0.8085865E-01
        2   -1    0    0  501    0  0.00000000000E+00  0.00000000000E+00  0.25357021748E+04  0.25357021748E+04  0.25500000920E-02 0.  1.
       -2   -1    0    0    0  501  0.00000000000E+00  0.00000000000E+00 -0.12921786540E+04  0.12921786540E+04  0.25500000920E-02 0. -1.
    10030    2    1    2    0    0  0.00000000000E+00  0.00000000000E+00  0.12435235209E+04  0.38278808288E+04  0.36202653069E+04 0.  0.
        3    1    3    3  502    0  0.10652737616E+04  0.83592747528E+03 -0.64837582215E+03  0.15013241316E+04  0.10100000352E+00 0. -1.
       -3    1    3    3    0  502 -0.10652737616E+04 -0.83592747528E+03  0.18918993430E+04  0.23265566972E+04  0.10100000352E+00 0.  1.
</event>
<event>
 5   0  0.6287345E-07  0.2534235E+04  0.7818609E-02  0.8390890E-01
       -1   -1    0    0    0  501  0.00000000000E+00  0.00000000000E+00  0.88912895421E+03  0.88912895423E+03  0.50400001928E-02 0.  1.
        1   -1    0    0  501    0  0.00000000000E+00  0.00000000000E+00 -0.18057974934E+04  0.18057974934E+04  0.50400001928E-02 0. -1.
    10030    2    1    2    0    0  0.00000000000E+00  0.00000000000E+00 -0.91666853920E+03  0.26949264476E+04  0.25342350616E+04 0.  0.
        5    1    3    3  502    0 -0.16972180381E+03  0.73089485109E+03 -0.15441318726E+04  0.17167929707E+04  0.46999998093E+01 0. -1.
       -5    1    3    3    0  502  0.16972180381E+03 -0.73089485109E+03  0.62746333342E+03  0.97813347700E+03  0.46999998093E+01 0.  1.
</event>
<event>
 5   0  0.5679750E-07  0.3841214E+04  0.7818609E-02  0.8037368E-01
       -3   -1    0    0    0  501  0.00000000000E+00  0.00000000000E+00  0.16587268910E+04  0.16587268941E+04  0.10100000352E+00 0. -1.
        3   -1    0    0  501    0  0.00000000000E+00  0.00000000000E+00 -0.22238328596E+04  0.22238328619E+04  0.10100000352E+00 0.  1.
    10030    2    1    2    0    0  0.00000000000E+00  0.00000000000E+00 -0.56510596862E+03  0.38825597560E+04  0.38412140663E+04 0.  0.
        5    1    3    3  502    0 -0.75336387707E+03  0.16156023141E+04  0.43997080148E+03  0.18361166534E+04  0.46999998093E+01 0. -1.
       -5    1    3    3    0  502  0.75336387707E+03 -0.16156023141E+04 -0.10050767701E+04  0.20464431027E+04  0.46999998093E+01 0.  1.
</event>
<event>
 5   0  0.6261598E-07  0.3759537E+04  0.7818609E-02  0.8054894E-01
       -1   -1    0    0    0  501  0.00000000000E+00  0.00000000000E+00  0.23732048091E+04  0.23732048091E+04  0.50400001928E-02 0.  1.
        1   -1    0    0  501    0  0.00000000000E+00  0.00000000000E+00 -0.14889274303E+04  0.14889274303E+04  0.50400001928E-02 0. -1.
    10030    2    1    2    0    0  0.00000000000E+00  0.00000000000E+00  0.88427737883E+03  0.38621322394E+04  0.37595370662E+04 0.  0.
        1    1    3    3  502    0  0.13482397078E+04  0.11401994300E+03 -0.89837698504E+03  0.16241404078E+04  0.50400001928E-02 0. -1.
       -1    1    3    3    0  502 -0.13482397078E+04 -0.11401994300E+03  0.17826543639E+04  0.22379918316E+04  0.50400001928E-02 0.  1.
</event>
<event>
 5   0  0.1184684E-06  0.2939369E+04  0.7818609E-02  0.8261259E-01
       -2   -1    0    0    0  501  0.00000000000E+00  0.00000000000E+00  0.80348171371E+03  0.80348171371E+03  0.25500000920E-02 0.  1.
        2   -1    0    0  501    0  0.00000000000E+00  0.00000000000E+00 -0.26882666272E+04  0.26882666272E+04  0.25500000920E-02 0. -1.
    10030    2    1    2    0    0  0.00000000000E+00  0.00000000000E+00 -0.18847849135E+04  0.34917483409E+04  0.29393693722E+04 0.  0.
        4    1    3    3  502    0  0.10369289236E+04 -0.10375057385E+04 -0.10508240739E+04  0.18044036681E+04  0.12699999809E+01 0. -1.
       -4    1    3    3    0  502 -0.10369289236E+04  0.10375057385E+04 -0.83396083954E+03  0.16873446728E+04  0.12699999809E+01 0.  1.
</event>
<event>
 5   0  0.6287345E-07  0.2089659E+04  0.7818609E-02  0.8565813E-01
        1   -1    0    0  501    0  0.00000000000E+00  0.00000000000E+00  0.63523667093E+03  0.63523667095E+03  0.50400001928E-02 0. -1.
       -1   -1    0    0    0  501  0.00000000000E+00  0.00000000000E+00 -0.17185223423E+04  0.17185223423E+04  0.50400001928E-02 0.  1.
    10030    2    1    2    0    0  0.00000000000E+00  0.00000000000E+00 -0.10832856714E+04  0.23537590133E+04  0.20896587393E+04 0.  0.
        5    1    3    3  502    0  0.76170120945E+02  0.10238761575E+04 -0.32345531944E+03  0.10764616607E+04  0.46999998093E+01 0. -1.
       -5    1    3    3    0  502 -0.76170120945E+02 -0.10238761575E+04 -0.75983035194E+03  0.12772973526E+04  0.46999998093E+01 0.  1.
</event>
<event>
 5   0  0.1151180E-06  0.3649366E+04  0.7818609E-02  0.8079277E-01
       -2   -1    0    0    0  501  0.00000000000E+00  0.00000000000E+00  0.17702392414E+04  0.17702392414E+04  0.25500000920E-02 0.  1.
        2   -1    0    0  501    0  0.00000000000E+00  0.00000000000E+00 -0.18808009895E+04  0.18808009895E+04  0.25500000920E-02 0. -1.
    10030    2    1    2    0    0  0.00000000000E+00  0.00000000000E+00 -0.11056174810E+03  0.36510402309E+04  0.36493658171E+04 0.  0.
        5    1    3    3  502    0  0.16005415478E+04 -0.23521066248E+03 -0.89969913261E+03  0.18510910084E+04  0.46999998093E+01 0. -1.
       -5    1    3    3    0  502 -0.16005415478E+04  0.23521066248E+03  0.78913738450E+03  0.17999492225E+04  0.46999998093E+01 0.  1.
</event>
<event>
 5   0  0.6287345E-07  0.3157001E+04  0.7818609E-02  0.8200266E-01
       -1   -1    0    0    0  501  0.00000000000E+00  0.00000000000E+00  0.16892003439E+04  0.16892003440E+04  0.50400001928E-02 0. -1.
        1   -1    0    0  501    0  0.00000000000E+00  0.00000000000E+00 -0.14750554069E+04  0.14750554069E+04  0.50400001928E-02 0.  1.
    10030    2    1    2    0    0  0.00000000000E+00  0.00000000000E+00  0.21414493705E+03  0.31642557509E+04  0.31570011724E+04 0.  0.
        5    1    3    3  502    0  0.13524590219E+04  0.30428505461E+02  0.92231151015E+03  0.16373001899E+04  0.46999998093E+01 0. -1.
       -5    1    3    3    0  502 -0.13524590219E+04 -0.30428505461E+02 -0.70816657310E+03  0.15269555610E+04  0.46999998093E+01 0.  1.
</event>
<event>
 5   0  0.5679750E-07  0.3689758E+04  0.7818609E-02  0.8070235E-01
       -1   -1    0    0    0  501  0.00000000000E+00  0.00000000000E+00  0.21278541149E+04  0.21278541149E+04  0.50400001928E-02 0.  1.
        1   -1    0    0  501    0  0.00000000000E+00  0.00000000000E+00 -0.15995356545E+04  0.15995356545E+04  0.50400001928E-02 0. -1.
    10030    2    1    2    0    0  0.00000000000E+00  0.00000000000E+00  0.52831846041E+03  0.37273897694E+04  0.36897579998E+04 0.  0.
        4    1    3    3  502    0  0.15434057632E+04  0.45011528143E+02  0.12841348464E+04  0.20082657454E+04  0.12699999809E+01 0.  1.
       -4    1    3    3    0  502 -0.15434057632E+04 -0.45011528143E+02 -0.75581638595E+03  0.17191240240E+04  0.12699999809E+01 0. -1.
</event>
<event>
 5   0  0.5679750E-07  0.3563500E+04  0.7818609E-02  0.8098904E-01
        1   -1    0    0  501    0  0.00000000000E+00  0.00000000000E+00  0.15364959105E+04  0.15364959105E+04  0.50400001928E-02 0.  1.
       -1   -1    0    0    0  501  0.00000000000E+00  0.00000000000E+00 -0.20661518917E+04  0.20661518917E+04  0.50400001928E-02 0. -1.
    10030    2    1    2    0    0  0.00000000000E+00  0.00000000000E+00 -0.52965598120E+03  0.36026478022E+04  0.35635004880E+04 0.  0.
        4    1    3    3  502    0 -0.21153411061E+03  0.10787321617E+04  0.11527968750E+04  0.15929067783E+04  0.12699999809E+01 0.  1.
       -4    1    3    3    0  502  0.21153411061E+03 -0.10787321617E+04 -0.16824528562E+04  0.20097410238E+04  0.12699999809E+01 0. -1.
</event>
<event>
 5   0  0.6463773E-07  0.1984546E+04  0.7818609E-02  0.8613880E-01
       -1   -1    0    0    0  501  0.00000000000E+00  0.00000000000E+00  0.71277987788E+03  0.71277987790E+03  0.50400001928E-02 0.  1.
        1   -1    0    0  501    0  0.00000000000E+00  0.00000000000E+00 -0.13813601685E+04  0.13813601685E+04  0.50400001928E-02 0. -1.
    10030    2    1    2    0    0  0.00000000000E+00  0.00000000000E+00 -0.66858029065E+03  0.20941400464E+04  0.19845460259E+04 0.  0.
        1    1    3    3  502    0  0.21101437562E+03 -0.16893910030E+03  0.67317955592E+03  0.72542277388E+03  0.50400001928E-02 0.  1.
       -1    1    3    3    0  502 -0.21101437562E+03  0.16893910030E+03 -0.13417598466E+04  0.13687172726E+04  0.50400001928E-02 0. -1.
</event>
<event>
 5   0  0.1184684E-06  0.3713834E+04  0.7818609E-02  0.8064903E-01
       -2   -1    0    0    0  501  0.00000000000E+00  0.00000000000E+00  0.27766018737E+04  0.27766018737E+04  0.25500000920E-02 0.  1.
        2   -1    0    0  501    0  0.00000000000E+00  0.00000000000E+00 -0.12418564465E+04  0.12418564465E+04  0.25500000920E-02 0. -1.
    10030    2    1    2    0    0  0.00000000000E+00  0.00000000000E+00  0.15347454273E+04  0.40184583202E+04  0.37138341030E+04 0.  0.
        4    1    3    3  502    0 -0.10229813686E+04 -0.10458963018E+04 -0.46999627605E+03  0.15366483225E+04  0.12699999809E+01 0. -1.
       -4    1    3    3    0  502  0.10229813686E+04  0.10458963018E+04  0.20047417033E+04  0.24818099977E+04  0.12699999809E+01 0.  1.
</event>
<event>
 5   0  0.1724503E-06  0.2707677E+04  0.7818609E-02  0.8332518E-01
        2   -1    0    0  501    0  0.00000000000E+00  0.00000000000E+00  0.21565783551E+04  0.21565783551E+04  0.25500000920E-02 0.  1.
       -2   -1    0    0    0  501  0.00000000000E+00  0.00000000000E+00 -0.84990112680E+03  0.84990112681E+03  0.25500000920E-02 0. -1.
    10030    2    1    2    0    0  0.00000000000E+00  0.00000000000E+00  0.13066772283E+04  0.30064794819E+04  0.27076767710E+04 0.  0.
        1    1    3    3  502    0 -0.99498200124E+02 -0.49159936502E+03  0.20496096663E+04  0.21100875839E+04  0.50400001928E-02 0.  1.
       -1    1    3    3    0  502  0.99498200124E+02  0.49159936502E+03 -0.74293243795E+03  0.89639189806E+03  0.50400001928E-02 0. -1.
</event>
<event>
 5   0  0.1151180E-06  0.3431158E+04  0.7818609E-02  0.8130301E-01
       -2   -1    0    0    0  501  0.00000000000E+00  0.00000000000E+00  0.16926469912E+04  0.16926469912E+04  0.25500000920E-02 0. -1.
        2   -1    0    0  501    0  0.00000000000E+00  0.00000000000E+00 -0.17388213601E+04  0.17388213601E+04  0.25500000920E-02 0.  1.
    10030    2    1    2    0    0  0.00000000000E+00  0.00000000000E+00 -0.46174368906E+02  0.34314683513E+04  0.34311576725E+04 0.  0.
        5    1    3    3  502    0 -0.85767656341E+03  0.32442057671E+03  0.14269857755E+04  0.16962217696E+04  0.46999998093E+01 0. -1.
       -5    1    3    3    0  502  0.85767656341E+03 -0.32442057671E+03 -0.14731601444E+04  0.17352465817E+04  0.46999998093E+01 0.  1.
</event>
<event>
 5   0  0.1151180E-06  0.2926270E+04  0.7818609E-02  0.8265104E-01
        2   -1    0    0  501    0  0.00000000000E+00  0.00000000000E+00  0.15044053580E+04  0.15044053580E+04  0.25500000920E-02 0.  1.
       -2   -1    0    0    0  501  0.00000000000E+00  0.00000000000E+00 -0.14229964963E+04  0.14229964963E+04  0.25500000920E-02 0. -1.
    10030    2    1    2    0    0  0.00000000000E+00  0.00000000000E+00  0.81408861722E+02  0.29274018543E+04  0.29262696755E+04 0.  0.
        5    1    3    3  502    0  0.23716784122E+03  0.80396049941E+03 -0.11589844651E+04  0.14303384739E+04  0.46999998093E+01 0. -1.
       -5    1    3    3    0  502 -0.23716784122E+03 -0.80396049941E+03  0.12403933269E+04  0.14970633804E+04  0.46999998093E+01 0.  1.
</event>
<event>
 5   0  0.6287345E-07  0.3688648E+04  0.7818609E-02  0.8070482E-01
        1   -1    0    0  501    0  0.00000000000E+00  0.00000000000E+00  0.18993465950E+04  0.18993465951E+04  0.50400001928E-02 0. -1.
       -1   -1    0    0    0  501  0.00000000000E+00  0.00000000000E+00 -0.17908956765E+04  0.17908956765E+04  0.50400001928E-02 0.  1.
    10030    2    1    2    0    0  0.00000000000E+00  0.00000000000E+00  0.10845091856E+03  0.36902422715E+04  0.36886483190E+04 0.  0.
        5    1    3    3  502    0 -0.10173221554E+03  0.16383091371E+04  0.89548314114E+03  0.18698444904E+04  0.46999998093E+01 0.  1.
       -5    1    3    3    0  502  0.10173221554E+03 -0.16383091371E+04 -0.78703222258E+03  0.18203977811E+04  0.46999998093E+01 0. -1.
</event>
<event>
 5   0  0.6186440E-07  0.2332125E+04  0.7818609E-02  0.8465361E-01
        1   -1    0    0  501    0  0.00000000000E+00  0.00000000000E+00  0.81610164150E+03  0.81610164152E+03  0.50400001928E-02 0.  1.
       -1   -1    0    0    0  501  0.00000000000E+00  0.00000000000E+00 -0.16660939587E+04  0.16660939588E+04  0.50400001928E-02 0. -1.
    10030    2    1    2    0    0  0.00000000000E+00  0.00000000000E+00 -0.84999231724E+03  0.24821956003E+04  0.23321252236E+04 0.  0.
        3    1    3    3  502    0  0.80993372772E+03 -0.70248013393E+03 -0.91301044583E+03  0.14082113003E+04  0.10100000352E+00 0. -1.
       -3    1    3    3    0  502 -0.80993372772E+03  0.70248013393E+03  0.63018128588E+02  0.10739843000E+04  0.10100000352E+00 0.  1.
</event>
<event>
 5   0  0.1184684E-06  0.2287960E+04  0.7818609E-02  0.8482683E-01
        2   -1    0    0  501    0  0.00000000000E+00  0.00000000000E+00  0.20232083740E+04  0.20232083740E+04  0.25500000920E-02 0. -1.
       -2   -1    0    0    0  501  0.00000000000E+00  0.00000000000E+00 -0.64683907303E+03  0.64683907303E+03  0.25500000920E-02 0.  1.
    10030    2    1    2    0    0  0.00000000000E+00  0.00000000000E+00  0.13763693009E+04  0.26700474470E+04  0.22879599902E+04 0.  0.
        4    1    3    3  502    0  0.76292398571E+03 -0.28946352465E+03  0.16238578433E+04  0.18173491817E+04  0.12699999809E+01 0. -1.
       -4    1    3    3    0  502 -0.76292398571E+03  0.28946352465E+03 -0.24748854240E+03  0.85269826527E+03  0.12699999809E+01 0.  1.
</event>
<event>
 5   0  0.6261598E-07  0.2771269E+04  0.7818609E-02  0.8312244E-01
       -1   -1    0    0    0  501  0.00000000000E+00  0.00000000000E+00  0.18084537659E+04  0.18084537659E+04  0.50400001928E-02 0.  1.
        1   -1    0    0  501    0  0.00000000000E+00  0.00000000000E+00 -0.10616713252E+04  0.10616713252E+04  0.50400001928E-02 0. -1.
    10030    2    1    2    0    0  0.00000000000E+00  0.00000000000E+00  0.74678244071E+03  0.28701250911E+04  0.27712693887E+04 0.  0.
        1    1    3    3  502    0  0.10321750495E+04 -0.37846951904E+02 -0.58322732289E+03  0.11861584358E+04  0.50400001928E-02 0. -1.
       -1    1    3    3    0  502 -0.10321750495E+04  0.37846951904E+02  0.13300097636E+04  0.16839666552E+04  0.50400001928E-02 0.  1.
</event>
<event>
 5   0  0.1184684E-06  0.3647768E+04  0.7818609E-02  0.8079637E-01
        2   -1    0    0  501    0  0.00000000000E+00  0.00000000000E+00  0.18002905177E+04  0.18002905177E+04  0.25500000920E-02 0.  1.
       -2   -1    0    0    0  501  0.00000000000E+00  0.00000000000E+00 -0.18477871052E+04  0.18477871052E+04  0.25500000920E-02 0. -1.
    10030    2    1    2    0    0  0.00000000000E+00  0.00000000000E+00 -0.47496587504E+02  0.36480776228E+04  0.36477684160E+04 0.  0.
        4    1    3    3  502    0 -0.89782164117E+02 -0.44552158839E+03 -0.17902506660E+04  0.18470380026E+04  0.12699999809E+01 0. -1.
       -4    1    3    3    0  502  0.89782164117E+02  0.44552158839E+03  0.17427540785E+04  0.18010396203E+04  0.12699999809E+01 0.  1.
</event>
<event>
 5   0  0.5679750E-07  0.2879557E+04  0.7818609E-02  0.8278986E-01
       -1   -1    0    0    0  501  0.00000000000E+00  0.00000000000E+00  0.10619418177E+04  0.10619418177E+04  0.50400001928E-02 0. -1.
        1   -1    0    0  501    0  0.00000000000E+00  0.00000000000E+00 -0.19520488675E+04  0.19520488675E+04  0.50400001928E-02 0.  1.
    10030    2    1    2    0    0  0.00000000000E+00  0.00000000000E+00 -0.89010704983E+03  0.30139906853E+04  0.28795571345E+04 0.  0.
        4    1    3    3  502    0 -0.89850320519E+03  0.69480279711E+03  0.48107197917E+03  0.12334872511E+04  0.12699999809E+01 0. -1.
       -4    1    3    3    0  502  0.89850320519E+03 -0.69480279711E+03 -0.13711790290E+04  0.17805034342E+04  0.12699999809E+01 0.  1.
</event>
<event>
 5   0  0.5679750E-07  0.3629632E+04  0.7818609E-02  0.8083738E-01
       -1   -1    0    0    0  501  0.00000000000E+00  0.00000000000E+00  0.22424793056E+04  0.22424793056E+04  0.50400001928E-02 0.  1.
        1   -1    0    0  501    0  0.00000000000E+00  0.00000000000E+00 -0.14687121553E+04  0.14687121553E+04  0.50400001928E-02 0. -1.
    10030    2    1    2    0    0  0.00000000000E+00  0.00000000000E+00  0.77376715032E+03  0.37111914608E+04  0.36296317246E+04 0.  0.
        4    1    3    3  502    0  0.83762204599E+03  0.13715139635E+04  0.12489746487E+04  0.20353379400E+04  0.12699999809E+01 0.  1.
       -4    1    3    3    0  502 -0.83762204599E+03 -0.13715139635E+04 -0.47520749840E+03  0.16758535209E+04  0.12699999809E+01 0. -1.
</event>
<event>
 5   0  0.1184684E-06  0.3731861E+04  0.7818609E-02  0.8060937E-01
       -2   -1    0    0    0  501  0.00000000000E+00  0.00000000000E+00  0.22287869757E+04  0.22287869757E+04  0.25500000920E-02 0.  1.
        2   -1    0    0  501    0  0.00000000000E+00  0.00000000000E+00 -0.15621486961E+04  0.15621486961E+04  0.25500000920E-02 0. -1.
    10030    2    1    2    0    0  0.00000000000E+00  0.00000000000E+00  0.66663827964E+03  0.37909356718E+04  0.37318610199E+04 0.  0.
        4    1    3    3  502    0 -0.17189205793E+04 -0.70749174271E+03  0.16807097596E+03  0.18664088486E+04  0.12699999809E+01 0.  1.
       -4    1    3    3    0  502  0.17189205793E+04  0.70749174271E+03  0.49856730368E+03  0.19245268232E+04  0.12699999809E+01 0. -1.
</event>
<event>
 5   0  0.1724503E-06  0.3708919E+04  0.7818609E-02  0.8065988E-01
        2   -1    0    0  501    0  0.00000000000E+00  0.00000000000E+00  0.16887943561E+04  0.16887943561E+04  0.25500000920E-02 0. -1.
       -2   -1    0    0    0  501  0.00000000000E+00  0.00000000000E+00 -0.20363761841E+04  0.20363761841E+04  0.25500000920E-02 0.  1.
    10030    2    1    2    0    0  0.00000000000E+00  0.00000000000E+00 -0.34758182800E+03  0.37251705402E+04  0.37089193071E+04 0.  0.
        1    1    3    3  502    0 -0.18497996424E+04 -0.21040669157E+02 -0.43533881294E+02  0.18504314701E+04  0.50400001928E-02 0.  1.
       -1    1    3    3    0  502  0.18497996424E+04  0.21040669157E+02 -0.30404794671E+03  0.18747390700E+04  0.50400001928E-02 0. -1.
</event>
<event>
 5   0  0.1680194E-06  0.2885964E+04  0.7818609E-02  0.8277066E-01
       -2   -1    0    0    0  501  0.00000000000E+00  0.00000000000E+00  0.10065162181E+04  0.10065162181E+04  0.25500000920E-02 0. -1.
        2   -1    0    0  501    0  0.00000000000E+00  0.00000000000E+00 -0.20687172347E+04  0.20687172347E+04  0.25500000920E-02 0.  1.
    10030    2    1    2    0    0  0.00000000000E+00  0.00000000000E+00 -0.10622010166E+04  0.30752334528E+04  0.28859642738E+04 0.  0.
        2    1    3    3  502    0 -0.49726101139E+03  0.73010630391E+03  0.68472589313E+03  0.11176642059E+04  0.25500000920E-02 0. -1.
       -2    1    3    3    0  502  0.49726101139E+03 -0.73010630391E+03 -0.17469269097E+04  0.19575692469E+04  0.25500000920E-02 0.  1.
</event>
<event>
 5   0  0.1184684E-06  0.3782920E+04  0.7818609E-02  0.8049830E-01
        2   -1    0    0  501    0  0.00000000000E+00  0.00000000000E+00  0.12476678448E+04  0.12476678448E+04  0.25500000920E-02 0.  1.
       -2   -1    0    0    0  501  0.00000000000E+00  0.00000000000E+00 -0.28674459847E+04  0.28674459847E+04  0.25500000920E-02 0. -1.
    10030    2    1    2    0    0  0.00000000000E+00  0.00000000000E+00 -0.16197781399E+04  0.41151138294E+04  0.37829195876E+04 0.  0.
        4    1    3    3  502    0  0.13112870281E+04 -0.16548057236E+03 -0.22817628711E+04  0.26369112428E+04  0.12699999809E+01 0. -1.
       -4    1    3    3    0  502 -0.13112870281E+04  0.16548057236E+03  0.66198473119E+03  0.14782025866E+04  0.12699999809E+01 0.  1.
</event>
<event>
 5   0  0.5679750E-07  0.1921750E+04  0.7818609E-02  0.8644105E-01
       -1   -1    0    0    0  501  0.00000000000E+00  0.00000000000E+00  0.72053199218E+03  0.72053199220E+03  0.50400001928E-02 0. -1.
        1   -1    0    0  501    0  0.00000000000E+00  0.00000000000E+00 -0.12813874322E+04  0.12813874322E+04  0.50400001928E-02 0.  1.
    10030    2    1    2    0    0  0.00000000000E+00  0.00000000000E+00 -0.56085544003E+03  0.20019194244E+04  0.19217498685E+04 0.  0.
        4    1    3    3  502    0 -0.53609010269E+03 -0.51996621143E+03  0.34937747265E+03  0.82451421487E+03  0.12699999809E+01 0. -1.
       -4    1    3    3    0  502  0.53609010269E+03  0.51996621143E+03 -0.91023291268E+03  0.11774052095E+04  0.12699999809E+01 0.  1.
</event>
<event>
 5   0  0.6261598E-07  0.3573779E+04  0.7818609E-02  0.8096524E-01
        1   -1    0    0  501    0  0.00000000000E+00  0.00000000000E+00  0.10202180798E+04  0.10202180798E+04  0.50400001928E-02 0. -1.
       -1   -1    0    0    0  501  0.00000000000E+00  0.00000000000E+00 -0.31296983192E+04  0.31296983192E+04  0.50400001928E-02 0.  1.
    10030    2    1    2    0    0  0.00000000000E+00  0.00000000000E+00 -0.21094802395E+04  0.41499163990E+04  0.35737794053E+04 0.  0.
        1    1    3    3  502    0  0.95405919498E+03 -0.48027086210E+03 -0.27181886188E+04  0.29205202303E+04  0.50400001928E-02 0.  1.
       -1    1    3    3    0  502 -0.95405919498E+03  0.48027086210E+03  0.60870837931E+03  0.12293961687E+04  0.50400001928E-02 0. -1.
</event>
<event>
 5   0  0.1680194E-06  0.3662791E+04  0.7818609E-02  0.8076258E-01
       -2   -1    0    0    0  501  0.00000000000E+00  0.00000000000E+00  0.17105925111E+04  0.17105925111E+04  0.25500000920E-02 0. -1.
        2   -1    0    0  501    0  0.00000000000E+00  0.00000000000E+00 -0.19607300180E+04  0.19607300180E+04  0.25500000920E-02 0.  1.
    10030    2    1    2    0    0  0.00000000000E+00  0.00000000000E+00 -0.25013750684E+03  0.36713225291E+04  0.36627913318E+04 0.  0.
        2    1    3    3  502    0 -0.22967495895E+03 -0.89667708982E+03  0.14588744579E+04  0.17277427685E+04  0.25500000920E-02 0. -1.
       -2    1    3    3    0  502  0.22967495895E+03  0.89667708982E+03 -0.17090119648E+04  0.19435797606E+04  0.25500000920E-02 0.  1.
</event>
<event>
 5   0  0.6287345E-07  0.2080044E+04  0.7818609E-02  0.8570086E-01
        1   -1    0    0  501    0  0.00000000000E+00  0.00000000000E+00  0.93452392036E+03  0.93452392038E+03  0.50400001928E-02 0.  1.
       -1   -1    0    0    0  501  0.00000000000E+00  0.00000000000E+00 -0.11574293779E+04  0.11574293779E+04  0.50400001928E-02 0. -1.
    10030    2    1    2    0    0  0.00000000000E+00  0.00000000000E+00 -0.22290545754E+03  0.20919532983E+04  0.20800436917E+04 0.  0.
        5    1    3    3  502    0 -0.84822340709E+03 -0.95205945283E+02  0.48615164516E+03  0.98229966529E+03  0.46999998093E+01 0.  1.
       -5    1    3    3    0  502  0.84822340709E+03  0.95205945283E+02 -0.70905710270E+03  0.11096536330E+04  0.46999998093E+01 0. -1.
</event>
<event>
 5   0  0.1151180E-06  0.2952336E+04  0.7818609E-02  0.8257474E-01
        2   -1    0    0  501    0  0.00000000000E+00  0.00000000000E+00  0.23633212267E+04  0.23633212267E+04  0.25500000920E-02 0. -1.
       -2   -1    0    0    0  501  0.00000000000E+00  0.00000000000E+00 -0.92203807906E+03  0.92203807906E+03  0.25500000920E-02 0.  1.
    10030    2    1    2    0    0  0.00000000000E+00  0.00000000000E+00  0.14412831476E+04  0.32853593058E+04  0.29523361354E+04 0.  0.
        5    1    3    3  502    0 -0.37169782290E+03  0.81736455645E+03  0.20244736260E+04  0.22146691948E+04  0.46999998093E+01 0. -1.
       -5    1    3    3    0  502  0.37169782290E+03 -0.81736455645E+03 -0.58319047840E+03  0.10706901110E+04  0.46999998093E+01 0.  1.
</event>
<event>
 5   0  0.5679750E-07  0.3705343E+04  0.7818609E-02  0.8066779E-01
       -3   -1    0    0    0  501  0.00000000000E+00  0.00000000000E+00  0.17760927830E+04  0.17760927859E+04  0.10100000352E+00 0. -1.
        3   -1    0    0  501    0  0.00000000000E+00  0.00000000000E+00 -0.19325520918E+04  0.19325520944E+04  0.10100000352E+00 0.  1.
    10030    2    1    2    0    0  0.00000000000E+00  0.00000000000E+00 -0.15645930873E+03  0.37086448803E+04  0.37053430790E+04 0.  0.
        3    1    3    3  502    0  0.18402287595E+02  0.15726779116E+04 -0.10582535178E+04  0.18956674223E+04  0.10100000352E+00 0.  1.
       -3    1    3    3    0  502 -0.18402287595E+02 -0.15726779116E+04  0.90179420903E+03  0.18129774580E+04  0.10100000352E+00 0. -1.
</event>
<event>
 5   0  0.5875011E-07  0.2072058E+04  0.7818609E-02  0.8573653E-01
        1   -1    0    0  501    0  0.00000000000E+00  0.00000000000E+00  0.21407282177E+04  0.21407282177E+04  0.50400001928E-02 0.  1.
       -1   -1    0    0    0  501  0.00000000000E+00  0.00000000000E+00 -0.50139787966E+03  0.50139787968E+03  0.50400001928E-02 0. -1.
    10030    2    1    2    0    0  0.00000000000E+00  0.00000000000E+00  0.16393303380E+04  0.26421260974E+04  0.20720584831E+04 0.  0.
        2    1    3    3  502    0  0.73700647105E+03  0.72656223311E+03  0.75870726645E+03  0.12832411828E+04  0.25500000920E-02 0.  1.
       -2    1    3    3    0  502 -0.73700647105E+03 -0.72656223311E+03  0.88062307156E+03  0.13588849146E+04  0.25500000920E-02 0. -1.
</event>
<event>
 5   0  0.5875011E-07  0.3772237E+04  0.7818609E-02  0.8052139E-01
        1   -1    0    0  501    0  0.00000000000E+00  0.00000000000E+00  0.15133124136E+04  0.15133124136E+04  0.50400001928E-02 0.  1.
       -1   -1    0    0    0  501  0.00000000000E+00  0.00000000000E+00 -0.23507661509E+04  0.23507661509E+04  0.50400001928E-02 0. -1.
    10030    2    1    2    0    0  0.00000000000E+00  0.00000000000E+00 -0.83745373732E+03  0.38640785645E+04  0.37722373190E+04 0.  0.
        2    1    3    3  502    0  0.93519021391E+03 -0.78303079885E+03 -0.18924073434E+04  0.22514269967E+04  0.25500000920E-02 0. -1.
       -2    1    3    3    0  502 -0.93519021391E+03  0.78303079885E+03  0.10549536061E+04  0.16126515678E+04  0.25500000920E-02 0.  1.
</event>
<event>
 5   0  0.1680194E-06  0.3648935E+04  0.7818609E-02  0.8079374E-01
       -2   -1    0    0    0  501  0.00000000000E+00  0.00000000000E+00  0.13819176045E+04  0.13819176045E+04  0.25500000920E-02 0. -1.
        2   -1    0    0  501    0  0.00000000000E+00  0.00000000000E+00 -0.24087405298E+04  0.24087405298E+04  0.25500000920E-02 0.  1.
    10030    2    1    2    0    0  0.00000000000E+00  0.00000000000E+00 -0.10268229253E+04  0.37906581344E+04  0.36489346078E+04 0.  0.
        2    1    3    3  502    0 -0.45724593484E+03  0.14613532865E+03 -0.23419616178E+04  0.23906512916E+04  0.25500000920E-02 0.  1.
       -2    1    3    3    0  502  0.45724593484E+03 -0.14613532865E+03  0.13151386925E+04  0.14000068427E+04  0.25500000920E-02 0. -1.
</event>
<event>
 5   0  0.5679750E-07  0.3683774E+04  0.7818609E-02  0.8071567E-01
        1   -1    0    0  501    0  0.00000000000E+00  0.00000000000E+00  0.17048900618E+04  0.17048900618E+04  0.50400001928E-02 0. -1.
       -1   -1    0    0    0  501  0.00000000000E+00  0.00000000000E+00 -0.19898918321E+04  0.19898918321E+04  0.50400001928E-02 0.  1.
    10030    2    1    2    0    0  0.00000000000E+00  0.00000000000E+00 -0.28500177027E+03  0.36947818939E+04  0.36837735048E+04 0.  0.
        4    1    3    3  502    0  0.67762694280E+03  0.75516951280E+03  0.13993261051E+04  0.17284601320E+04  0.12699999809E+01 0. -1.
       -4    1    3    3    0  502 -0.67762694280E+03 -0.75516951280E+03 -0.16843278754E+04  0.19663217619E+04  0.12699999809E+01 0.  1.
</event>
<event>
 5   0  0.1680194E-06  0.3695829E+04  0.7818609E-02  0.8068887E-01
       -2   -1    0    0    0  501  0.00000000000E+00  0.00000000000E+00  0.11976113527E+04  0.11976113527E+04  0.25500000920E-02 0.  1.
        2   -1    0    0  501    0  0.00000000000E+00  0.00000000000E+00 -0.28513325989E+04  0.28513325989E+04  0.25500000920E-02 0. -1.
    10030    2    1    2    0    0  0.00000000000E+00  0.00000000000E+00 -0.16537212462E+04  0.40489439516E+04  0.36958291577E+04 0.  0.
        2    1    3    3  502    0 -0.34308806858E+03 -0.13106341408E+04 -0.22036405801E+04  0.25867939772E+04  0.25500000920E-02 0. -1.
       -2    1    3    3    0  502  0.34308806858E+03  0.13106341408E+04  0.54991933391E+03  0.14621499744E+04  0.25500000920E-02 0.  1.
</event>
<event>
 5   0  0.1680194E-06  0.3654429E+04  0.7818609E-02  0.8078137E-01
       -2   -1    0    0    0  501  0.00000000000E+00  0.00000000000E+00  0.13636894542E+04  0.13636894542E+04  0.25500000920E-02 0.  1.
        2   -1    0    0  501    0  0.00000000000E+00  0.00000000000E+00 -0.24482945474E+04  0.24482945474E+04  0.25500000920E-02 0. -1.
    10030    2    1    2    0    0  0.00000000000E+00  0.00000000000E+00 -0.10846050932E+04  0.38119840015E+04  0.36544293426E+04 0.  0.
        2    1    3    3  502    0 -0.97086854379E+03 -0.92231872139E+03  0.75445805919E+03  0.15370310720E+04  0.25500000920E-02 0.  1.
       -2    1    3    3    0  502  0.97086854379E+03  0.92231872139E+03 -0.18390631524E+04  0.22749529296E+04  0.25500000920E-02 0. -1.
</event>
<event>
 5   0  0.1680194E-06  0.3701648E+04  0.7818609E-02  0.8067597E-01
        2   -1    0    0  501    0  0.00000000000E+00  0.00000000000E+00  0.25618348975E+04  0.25618348975E+04  0.25500000920E-02 0.  1.
       -2   -1    0    0    0  501  0.00000000000E+00  0.00000000000E+00 -0.13371464996E+04  0.13371464996E+04  0.25500000920E-02 0. -1.
    10030    2    1    2    0    0  0.00000000000E+00  0.00000000000E+00  0.12246883979E+04  0.38989813971E+04  0.37016475066E+04 0.  0.
        2    1    3    3  502    0  0.10802464333E+04  0.30052149264E+03 -0.93867113828E+03  0.14623094851E+04  0.25500000920E-02 0. -1.
       -2    1    3    3    0  502 -0.10802464333E+04 -0.30052149264E+03  0.21633595362E+04  0.24366719120E+04  0.25500000920E-02 0.  1.
</event>
<event>
 5   0  0.1184684E-06  0.3637161E+04  0.7818609E-02  0.8082032E-01
        2   -1    0    0  501    0  0.00000000000E+00  0.00000000000E+00  0.14332558425E+04  0.14332558425E+04  0.25500000920E-02 0. -1.
       -2   -1    0    0    0  501  0.00000000000E+00  0.00000000000E+00 -0.23074985137E+04  0.23074985137E+04  0.25500000920E-02 0.  1.
    10030    2    1    2    0    0  0.00000000000E+00  0.00000000000E+00 -0.87424267121E+03  0.37407543563E+04  0.36371613802E+04 0.  0.
        4    1    3    3  502    0 -0.10631347354E+04  0.14188996321E+04 -0.85324676017E+03  0.19676288467E+04  0.12699999809E+01 0. -1.
       -4    1    3    3    0  502  0.10631347354E+04 -0.14188996321E+04 -0.20995911036E+02  0.17731255096E+04  0.12699999809E+01 0.  1.
</event>
<event>
 5   0  0.1151180E-06  0.3743390E+04  0.7818609E-02  0.8058413E-01
       -2   -1    0    0    0  501  0.00000000000E+00  0.00000000000E+00  0.15483991582E+04  0.15483991582E+04  0.25500000920E-02 0. -1.
        2   -1    0    0  501    0  0.00000000000E+00  0.00000000000E+00 -0.22624933182E+04  0.22624933182E+04  0.25500000920E-02 0.  1.
    10030    2    1    2    0    0  0.00000000000E+00  0.00000000000E+00 -0.71409415995E+03  0.38108924764E+04  0.37433903079E+04 0.  0.
        5    1    3    3  502    0  0.85235694079E+03 -0.16660226981E+04 -0.39045148706E+03  0.19117056360E+04  0.46999998093E+01 0.  1.
       -5    1    3    3    0  502 -0.85235694079E+03  0.16660226981E+04 -0.32364267288E+03  0.18991868404E+04  0.46999998093E+01 0. -1.
</event>
<event>
 5   0  0.1184684E-06  0.3547813E+04  0.7818609E-02  0.8102551E-01
        2   -1    0    0  501    0  0.00000000000E+00  0.00000000000E+00  0.25273161285E+04  0.25273161285E+04  0.25500000920E-02 0. -1.
       -2   -1    0    0    0  501  0.00000000000E+00  0.00000000000E+00 -0.12450932547E+04  0.12450932547E+04  0.25500000920E-02 0.  1.
    10030    2    1    2    0    0  0.00000000000E+00  0.00000000000E+00  0.12822228737E+04  0.37724093832E+04  0.35478129962E+04 0.  0.
        4    1    3    3  502    0  0.12683143442E+04  0.12395761401E+04  0.68327480141E+03  0.19005358060E+04  0.12699999809E+01 0. -1.
       -4    1    3    3    0  502 -0.12683143442E+04 -0.12395761401E+04  0.59894807233E+03  0.18718735772E+04  0.12699999809E+01 0.  1.
</event>
<event>
 5   0  0.1151180E-06  0.2375656E+04  0.7818609E-02  0.8448674E-01
        2   -1    0    0  501    0  0.00000000000E+00  0.00000000000E+00  0.13384571862E+04  0.13384571862E+04  0.25500000920E-02 0. -1.
       -2   -1    0    0    0  501  0.00000000000E+00  0.00000000000E+00 -0.10541502037E+04  0.10541502037E+04  0.25500000920E-02 0.  1.
    10030    2    1    2    0    0  0.00000000000E+00  0.00000000000E+00  0.28430698253E+03  0.23926073900E+04  0.23756556279E+04 0.  0.
        5    1    3    3  502    0  0.26892438652E+03  0.11457145617E+04 -0.20025500466E+02  0.11770324096E+04  0.46999998093E+01 0.  1.
       -5    1    3    3    0  502 -0.26892438652E+03 -0.11457145617E+04  0.30433248300E+03  0.12155749803E+04  0.46999998093E+01 0. -1.
</event>
<event>
 5   0  0.6261598E-07  0.3679253E+04  0.7818609E-02  0.8072575E-01
        1   -1    0    0  501    0  0.00000000000E+00  0.00000000000E+00  0.23684387492E+04  0.23684387492E+04  0.50400001928E-02 0. -1.
       -1   -1    0    0    0  501  0.00000000000E+00  0.00000000000E+00 -0.14288845434E+04  0.14288845434E+04  0.50400001928E-02 0.  1.
    10030    2    1    2    0    0  0.00000000000E+00  0.00000000000E+00  0.93955420578E+03  0.37973232926E+04  0.36792529246E+04 0.  0.
        1    1    3    3  502    0  0.84255305301E+03 -0.16309282102E+04  0.59364110704E+03  0.19293087461E+04  0.50400001928E-02 0.  1.
       -1    1    3    3    0  502 -0.84255305301E+03  0.16309282102E+04  0.34591309875E+03  0.18680145465E+04  0.50400001928E-02 0. -1.
</event>
<event>
 5   0  0.1685793E-06  0.3027861E+04  0.7818609E-02  0.8235820E-01
        2   -1    0    0  501    0  0.00000000000E+00  0.00000000000E+00  0.21567630193E+04  0.21567630193E+04  0.25500000920E-02 0.  1.
       -2   -1    0    0    0  501  0.00000000000E+00  0.00000000000E+00 -0.10626968316E+04  0.10626968316E+04  0.25500000920E-02 0. -1.
    10030    2    1    2    0    0  0.00000000000E+00  0.00000000000E+00  0.10940661877E+04  0.32194598508E+04  0.30278607808E+04 0.  0.
        3    1    3    3  502    0 -0.70014358870E+03  0.62123493557E+03  0.18122236364E+04  0.20396785061E+04  0.10100000352E+00 0.  1.
       -3    1    3    3    0  502  0.70014358870E+03 -0.62123493557E+03 -0.71815744870E+03  0.11797813447E+04  0.10100000352E+00 0. -1.
</event>
<event>
 5   0  0.6186440E-07  0.3078665E+04  0.7818609E-02  0.8221618E-01
        1   -1    0    0  501    0  0.00000000000E+00  0.00000000000E+00  0.21904975628E+04  0.21904975628E+04  0.50400001928E-02 0. -1.
       -1   -1    0    0    0  501  0.00000000000E+00  0.00000000000E+00 -0.10817380330E+04  0.10817380330E+04  0.50400001928E-02 0.  1.
    10030    2    1    2    0    0  0.00000000000E+00  0.00000000000E+00  0.11087595298E+04  0.32722355958E+04  0.30786649866E+04 0.  0.
        3    1    3    3  502    0 -0.59387572794E+03 -0.16988363465E+03 -0.94423446077E+03  0.11283295426E+04  0.10100000352E+00 0.  1.
       -3    1    3    3    0  502  0.59387572794E+03  0.16988363465E+03  0.20529939906E+04  0.21439060532E+04  0.10100000352E+00 0. -1.
</event>
<event>
 5   0  0.1685793E-06  0.1880864E+04  0.7818609E-02  0.8664441E-01
       -2   -1    0    0    0  501  0.00000000000E+00  0.00000000000E+00  0.99567272221E+03  0.99567272222E+03  0.25500000920E-02 0.  1.
        2   -1    0    0  501    0  0.00000000000E+00  0.00000000000E+00 -0.88825626341E+03  0.88825626341E+03  0.25500000920E-02 0. -1.
    10030    2    1    2    0    0  0.00000000000E+00  0.00000000000E+00  0.10741645881E+03  0.18839289856E+04  0.18808641969E+04 0.  0.
        3    1    3    3  502    0  0.15154629048E+03 -0.24566042477E+03  0.95020699361E+03  0.99308039119E+03  0.10100000352E+00 0.  1.
       -3    1    3    3    0  502 -0.15154629048E+03  0.24566042477E+03 -0.84279053480E+03  0.89084859444E+03  0.10100000352E+00 0. -1.
</event>
<event>
 5   0  0.1680194E-06  0.3437943E+04  0.7818609E-02  0.8128656E-01
        2   -1    0    0  501    0  0.00000000000E+00  0.00000000000E+00  0.17379477765E+04  0.17379477765E+04  0.25500000920E-02 0. -1.
       -2   -1    0    0    0  501  0.00000000000E+00  0.00000000000E+00 -0.17002024562E+04  0.17002024562E+04  0.25500000920E-02 0.  1.
    10030    2    1    2    0    0  0.00000000000E+00  0.00000000000E+00  0.37745320338E+02  0.34381502327E+04  0.34379430352E+04 0.  0.
        2    1    3    3  502    0 -0.60286904628E+03  0.15396676334E+04 -0.45108711408E+03  0.17139157193E+04  0.25500000920E-02 0.  1.
       -2    1    3    3    0  502  0.60286904628E+03 -0.15396676334E+04  0.48883243441E+03  0.17242345134E+04  0.25500000920E-02 0. -1.
</event>
<event>
 5   0  0.5679750E-07  0.3538560E+04  0.7818609E-02  0.8104712E-01
       -1   -1    0    0    0  501  0.00000000000E+00  0.00000000000E+00  0.15315006171E+04  0.15315006171E+04  0.50400001928E-02 0.  1.
        1   -1    0    0  501    0  0.00000000000E+00  0.00000000000E+00 -0.20439764370E+04  0.20439764370E+04  0.50400001928E-02 0. -1.
    10030    2    1    2    0    0  0.00000000000E+00  0.00000000000E+00 -0.51247581989E+03  0.35754770540E+04  0.35385596926E+04 0.  0.
        4    1    3    3  502    0 -0.89584027450E+03 -0.41100305344E+03 -0.17408854242E+04  0.20005341738E+04  0.12699999809E+01 0. -1.
       -4    1    3    3    0  502  0.89584027450E+03  0.41100305344E+03  0.12284096043E+04  0.15749428803E+04  0.12699999809E+01 0.  1.
</event>
<event>
 5   0  0.5679750E-07  0.3049462E+04  0.7818609E-02  0.8229746E-01
       -1   -1    0    0    0  501  0.00000000000E+00  0.00000000000E+00  0.14773171815E+04  0.14773171816E+04  0.50400001928E-02 0.  1.
        1   -1    0    0  501    0  0.00000000000E+00  0.00000000000E+00 -0.15736662249E+04  0.15736662249E+04  0.50400001928E-02 0. -1.
    10030    2    1    2    0    0  0.00000000000E+00  0.00000000000E+00 -0.96349043371E+02  0.30509834065E+04  0.30494616916E+04 0.  0.
        4    1    3    3  502    0  0.76400432087E+03  0.10932333622E+04  0.69107222296E+03  0.15021465364E+04  0.12699999809E+01 0.  1.
       -4    1    3    3    0  502 -0.76400432087E+03 -0.10932333622E+04 -0.78742126633E+03  0.15488368701E+04  0.12699999809E+01 0. -1.
</event>
<event>
 5   0  0.1184684E-06  0.2232020E+04  0.7818609E-02  0.8505218E-01
       -2   -1    0    0    0  501  0.00000000000E+00  0.00000000000E+00  0.59664230862E+03  0.59664230863E+03  0.25500000920E-02 0.  1.
        2   -1    0    0  501    0  0.00000000000E+00  0.00000000000E+00 -0.20874782107E+04  0.20874782107E+04  0.25500000920E-02 0. -1.
    10030    2    1    2    0    0  0.00000000000E+00  0.00000000000E+00 -0.14908359020E+04  0.26841205193E+04  0.22320195508E+04 0.  0.
        4    1    3    3  502    0  0.10172438578E+04  0.43257200215E+03 -0.56078560576E+03  0.12395102709E+04  0.12699999809E+01 0.  1.
       -4    1    3    3    0  502 -0.10172438578E+04 -0.43257200215E+03 -0.93005029627E+03  0.14446102484E+04  0.12699999809E+01 0. -1.
</event>
<event>
 5   0  0.1184684E-06  0.3791847E+04  0.7818609E-02  0.8047907E-01
       -2   -1    0    0    0  501  0.00000000000E+00  0.00000000000E+00  0.17534821171E+04  0.17534821171E+04  0.25500000920E-02 0.  1.
        2   -1    0    0  501    0  0.00000000000E+00  0.00000000000E+00 -0.20499356256E+04  0.20499356256E+04  0.25500000920E-02 0. -1.
    10030    2    1    2    0    0  0.00000000000E+00  0.00000000000E+00 -0.29645350849E+03  0.38034177428E+04  0.37918467590E+04 0.  0.
        4    1    3    3  502    0 -0.17104736949E+04 -0.35023588520E+03 -0.88949366101E+03  0.19594861628E+04  0.12699999809E+01 0. -1.
       -4    1    3    3    0  502  0.17104736949E+04  0.35023588520E+03  0.59304015252E+03  0.18439315800E+04  0.12699999809E+01 0.  1.
</event>
<event>
 5   0  0.1724503E-06  0.3669797E+04  0.7818609E-02  0.8074688E-01
       -2   -1    0    0    0  501  0.00000000000E+00  0.00000000000E+00  0.15804165865E+04  0.15804165865E+04  0.25500000920E-02 0.  1.
        2   -1    0    0  501    0  0.00000000000E+00  0.00000000000E+00 -0.21303571315E+04  0.21303571315E+04  0.25500000920E-02 0. -1.
    10030    2    1    2    0    0  0.00000000000E+00  0.00000000000E+00 -0.54994054508E+03  0.37107737180E+04  0.36697965861E+04 0.  0.
        1    1    3    3  502    0 -0.18209549869E+04 -0.20568633367E+03 -0.18082960710E+03  0.18414351139E+04  0.50400001928E-02 0. -1.
       -1    1    3    3    0  502  0.18209549869E+04  0.20568633367E+03 -0.36911093798E+03  0.18693386041E+04  0.50400001928E-02 0.  1.
</event>
<event>
 5   0  0.1151180E-06  0.2621773E+04  0.7818609E-02  0.8360843E-01
       -2   -1    0    0    0  501  0.00000000000E+00  0.00000000000E+00  0.10911846295E+04  0.10911846296E+04  0.25500000920E-02 0.  1.
        2   -1    0    0  501    0  0.00000000000E+00  0.00000000000E+00 -0.15748237161E+04  0.15748237161E+04  0.25500000920E-02 0. -1.
    10030    2    1    2    0    0  0.00000000000E+00  0.00000000000E+00 -0.48363908653E+03  0.26660083456E+04  0.26217730132E+04 0.  0.
        5    1    3    3  502    0 -0.95898560725E+03 -0.68501384895E+03 -0.82552902079E+03  0.14388945835E+04  0.46999998093E+01 0. -1.
       -5    1    3    3    0  502  0.95898560725E+03  0.68501384895E+03  0.34188993426E+03  0.12271137622E+04  0.46999998093E+01 0.  1.
</event>
<event>
 5   0  0.6261598E-07  0.2284233E+04  0.7818609E-02  0.8484164E-01
        1   -1    0    0  501    0  0.00000000000E+00  0.00000000000E+00  0.22904942072E+04  0.22904942072E+04  0.50400001928E-02 0.  1.
       -1   -1    0    0    0  501  0.00000000000E+00  0.00000000000E+00 -0.56949709011E+03  0.56949709013E+03  0.50400001928E-02 0. -1.
    10030    2    1    2    0    0  0.00000000000E+00  0.00000000000E+00  0.17209971171E+04  0.28599912974E+04  0.22842327254E+04 0.  0.
        1    1    3    3  502    0 -0.38399128413E+03 -0.17305646155E+03 -0.46870799719E+03  0.63014683355E+03  0.50400001928E-02 0. -1.
       -1    1    3    3    0  502  0.38399128413E+03  0.17305646155E+03  0.21897051143E+04  0.22298444638E+04  0.50400001928E-02 0.  1.
</event>
<event>
 5   0  0.5679750E-07  0.3657889E+04  0.7818609E-02  0.8077359E-01
        1   -1    0    0  501    0  0.00000000000E+00  0.00000000000E+00  0.16581535169E+04  0.16581535169E+04  0.50400001928E-02 0. -1.
       -1   -1    0    0    0  501  0.00000000000E+00  0.00000000000E+00 -0.20173271008E+04  0.20173271008E+04  0.50400001928E-02 0.  1.
    10030    2    1    2    0    0  0.00000000000E+00  0.00000000000E+00 -0.35917358389E+03  0.36754806177E+04  0.36578890234E+04 0.  0.
        4    1    3    3  502    0  0.14290399261E+04  0.86674191004E+03 -0.92588327319E+03  0.19106695417E+04  0.12699999809E+01 0.  1.
       -4    1    3    3    0  502 -0.14290399261E+04 -0.86674191004E+03  0.56670968930E+03  0.17648110760E+04  0.12699999809E+01 0. -1.
</event>
<event>
 5   0  0.1680194E-06  0.3495712E+04  0.7818609E-02  0.8114807E-01
       -2   -1    0    0    0  501  0.00000000000E+00  0.00000000000E+00  0.19347021410E+04  0.19347021410E+04  0.25500000920E-02 0. -1.
        2   -1    0    0  501    0  0.00000000000E+00  0.00000000000E+00 -0.15790548749E+04  0.15790548749E+04  0.25500000920E-02 0.  1.
    10030    2    1    2    0    0  0.00000000000E+00  0.00000000000E+00  0.35564726608E+03  0.35137570159E+04  0.34957121434E+04 0.  0.
        2    1    3    3  502    0  0.20816255525E+03 -0.35799870268E+03  0.18846781346E+04  0.19296389277E+04  0.25500000920E-02 0. -1.
       -2    1    3    3    0  502 -0.20816255525E+03  0.35799870268E+03 -0.15290308685E+04  0.15841180882E+04  0.25500000920E-02 0.  1.
</event>
<event>
 5   0  0.6186440E-07  0.3746951E+04  0.7818609E-02  0.8057636E-01
       -1   -1    0    0    0  501  0.00000000000E+00  0.00000000000E+00  0.16751266162E+04  0.16751266162E+04  0.50400001928E-02 0.  1.
        1   -1    0    0  501    0  0.00000000000E+00  0.00000000000E+00 -0.20953108581E+04  0.20953108581E+04  0.50400001928E-02 0. -1.
    10030    2    1    2    0    0  0.00000000000E+00  0.00000000000E+00 -0.42018424188E+03  0.37704374744E+04  0.37469512875E+04 0.  0.
        3    1    3    3  502    0 -0.12417257383E+04  0.13779649798E+04  0.54693481759E+02  0.18557105598E+04  0.10100000352E+00 0. -1.
       -3    1    3    3    0  502  0.12417257383E+04 -0.13779649798E+04 -0.47487772364E+03  0.19147269146E+04  0.10100000352E+00 0.  1.
</event>
<event>
 5   0  0.5679750E-07  0.3617832E+04  0.7818609E-02  0.8086419E-01
        3   -1    0    0  501    0  0.00000000000E+00  0.00000000000E+00  0.18911792945E+04  0.18911792972E+04  0.10100000352E+00 0. -1.
       -3   -1    0    0    0  501  0.00000000000E+00  0.00000000000E+00 -0.17302309684E+04  0.17302309713E+04  0.10100000352E+00 0.  1.
    10030    2    1    2    0    0  0.00000000000E+00  0.00000000000E+00  0.16094832608E+03  0.36214102685E+04  0.36178319432E+04 0.  0.
        4    1    3    3  502    0 -0.12663038857E+04  0.38027796434E+03  0.13162147513E+04  0.18656258321E+04  0.12699999809E+01 0. -1.
       -4    1    3    3    0  502  0.12663038857E+04 -0.38027796434E+03 -0.11552664252E+04  0.17557844364E+04  0.12699999809E+01 0.  1.
</event>
<event>
 5   0  0.5679750E-07  0.3253289E+04  0.7818609E-02  0.8174884E-01
        1   -1    0    0  501    0  0.00000000000E+00  0.00000000000E+00  0.16203045695E+04  0.16203045695E+04  0.50400001928E-02 0.  1.
       -1   -1    0    0    0  501  0.00000000000E+00  0.00000000000E+00 -0.16330096662E+04  0.16330096662E+04  0.50400001928E-02 0. -1.
    10030    2    1    2    0    0  0.00000000000E+00  0.00000000000E+00 -0.12705096717E+02  0.32533142357E+04  0.32532894271E+04 0.  0.
        4    1    3    3  502    0  0.13433894469E+04 -0.90366591615E+03 -0.16340188211E+03  0.16272704391E+04  0.12699999809E+01 0. -1.
       -4    1    3    3    0  502 -0.13433894469E+04  0.90366591615E+03  0.15069678539E+03  0.16260437965E+04  0.12699999809E+01 0.  1.
</event>
<event>
 5   0  0.1151180E-06  0.3729991E+04  0.7818609E-02  0.8061348E-01
        2   -1    0    0  501    0  0.00000000000E+00  0.00000000000E+00  0.19467911768E+04  0.19467911768E+04  0.25500000920E-02 0. -1.
       -2   -1    0    0    0  501  0.00000000000E+00  0.00000000000E+00 -0.17866369328E+04  0.17866369328E+04  0.25500000920E-02 0.  1.
    10030    2    1    2    0    0  0.00000000000E+00  0.00000000000E+00  0.16015424405E+03  0.37334281096E+04  0.37299914300E+04 0.  0.
        5    1    3    3  502    0  0.12515105768E+03  0.24005575770E+03 -0.17668594126E+04  0.17874853364E+04  0.46999998093E+01 0.  1.
       -5    1    3    3    0  502 -0.12515105768E+03 -0.24005575770E+03  0.19270136566E+04  0.19459427733E+04  0.46999998093E+01 0. -1.
</event>
<event>
 5   0  0.1680194E-06  0.1823114E+04  0.7818609E-02  0.8694103E-01
       -2   -1    0    0    0  501  0.00000000000E+00  0.00000000000E+00  0.48909675915E+03  0.48909675916E+03  0.25500000920E-02 0. -1.
        2   -1    0    0  501    0  0.00000000000E+00  0.00000000000E+00 -0.16989195176E+04  0.16989195176E+04  0.25500000920E-02 0.  1.
    10030    2    1    2    0    0  0.00000000000E+00  0.00000000000E+00 -0.12098227585E+04  0.21880162768E+04  0.18231138529E+04 0.  0.
        2    1    3    3  502    0 -0.40480152957E+03  0.44070569773E+03  0.22036338305E+03  0.63768786326E+03  0.25500000920E-02 0. -1.
       -2    1    3    3    0  502  0.40480152957E+03 -0.44070569773E+03 -0.14301861415E+04  0.15503284135E+04  0.25500000920E-02 0.  1.
</event>
<event>
 5   0  0.1685793E-06  0.3600116E+04  0.7818609E-02  0.8090465E-01
        2   -1    0    0  501    0  0.00000000000E+00  0.00000000000E+00  0.19239334324E+04  0.19239334324E+04  0.25500000920E-02 0. -1.
       -2   -1    0    0    0  501  0.00000000000E+00  0.00000000000E+00 -0.16841588917E+04  0.16841588917E+04  0.25500000920E-02 0.  1.
    10030    2    1    2    0    0  0.00000000000E+00  0.00000000000E+00  0.23977454062E+03  0.36080923241E+04  0.36001164410E+04 0.  0.
        3    1    3    3  502    0 -0.14717128656E+03 -0.57492747429E+03 -0.15832918921E+04  0.16908619737E+04  0.10100000352E+00 0.  1.
       -3    1    3    3    0  502  0.14717128656E+03  0.57492747429E+03  0.18230664327E+04  0.19172303504E+04  0.10100000352E+00 0. -1.
</event>
<event>
 5   0  0.8562300E-07  0.1969164E+04  0.7818609E-02  0.8621175E-01
       -1   -1    0    0    0  501  0.00000000000E+00  0.00000000000E+00  0.81615686173E+03  0.81615686175E+03  0.50400001928E-02 0.  1.
        1   -1    0    0  501    0  0.00000000000E+00  0.00000000000E+00 -0.11877639187E+04  0.11877639187E+04  0.50400001928E-02 0. -1.
    10030    2    1    2    0    0  0.00000000000E+00  0.00000000000E+00 -0.37160705697E+03  0.20039207805E+04  0.19691639570E+04 0.  0.
        3    1    3    3  502    0 -0.45221182863E+02 -0.85303722642E+03  0.31241327552E+03  0.90957106922E+03  0.10100000352E+00 0. -1.
       -3    1    3    3    0  502  0.45221182863E+02  0.85303722642E+03 -0.68402033250E+03  0.10943497112E+04  0.10100000352E+00 0.  1.
</event>
<event>
 5   0  0.5679750E-07  0.3459316E+04  0.7818609E-02  0.8123500E-01
        1   -1    0    0  501    0  0.00000000000E+00  0.00000000000E+00  0.18645173860E+04  0.18645173860E+04  0.50400001928E-02 0. -1.
       -1   -1    0    0    0  501  0.00000000000E+00  0.00000000000E+00 -0.16045533534E+04  0.16045533534E+04  0.50400001928E-02 0.  1.
    10030    2    1    2    0    0  0.00000000000E+00  0.00000000000E+00  0.25996403257E+03  0.34690707393E+04  0.34593164782E+04 0.  0.
        4    1    3    3  502    0 -0.16022851549E+04  0.60075771743E+03 -0.12269762506E+03  0.17156001494E+04  0.12699999809E+01 0. -1.
       -4    1    3    3    0  502  0.16022851549E+04 -0.60075771743E+03  0.38266165763E+03  0.17534705899E+04  0.12699999809E+01 0.  1.
</event>
<event>
 5   0  0.6261598E-07  0.3632808E+04  0.7818609E-02  0.8083018E-01
       -1   -1    0    0    0  501  0.00000000000E+00  0.00000000000E+00  0.11592182221E+04  0.11592182221E+04  0.50400001928E-02 0. -1.
        1   -1    0    0  501    0  0.00000000000E+00  0.00000000000E+00 -0.28461631453E+04  0.28461631454E+04  0.50400001928E-02 0.  1.
    10030    2    1    2    0    0  0.00000000000E+00  0.00000000000E+00 -0.16869449233E+04  0.40053813674E+04  0.36328083798E+04 0.  0.
        1    1    3    3  502    0  0.55899555948E+03  0.58891042750E+03  0.94798306769E+03  0.12481840504E+04  0.50400001928E-02 0. -1.
       -1    1    3    3    0  502 -0.55899555948E+03 -0.58891042750E+03 -0.26349279910E+04  0.27571973170E+04  0.50400001928E-02 0.  1.
</event>
<event>
 5   0  0.1685793E-06  0.3527088E+04  0.7818609E-02  0.8107400E-01
        2   -1    0    0  501    0  0.00000000000E+00  0.00000000000E+00  0.23940125742E+04  0.23940125742E+04  0.25500000920E-02 0. -1.
       -2   -1    0    0    0  501  0.00000000000E+00  0.00000000000E+00 -0.12991104132E+04  0.12991104132E+04  0.25500000920E-02 0.  1.
    10030    2    1    2    0    0  0.00000000000E+00  0.00000000000E+00  0.10949021610E+04  0.36931229875E+04  0.35270875604E+04 0.  0.
        3    1    3    3  502    0 -0.10198926962E+04  0.10832809763E+04  0.15388087244E+04  0.21404698283E+04  0.10100000352E+00 0. -1.
       -3    1    3    3    0  502  0.10198926962E+04 -0.10832809763E+04 -0.44390656342E+03  0.15526531591E+04  0.10100000352E+00 0.  1.
</event>
<event>
 5   0  0.6287345E-07  0.3693610E+04  0.7818609E-02  0.8069379E-01
        1   -1    0    0  501    0  0.00000000000E+00  0.00000000000E+00  0.23215797819E+04  0.23215797819E+04  0.50400001928E-02 0.  1.
       -1   -1    0    0    0  501  0.00000000000E+00  0.00000000000E+00 -0.14691240470E+04  0.14691240470E+04  0.50400001928E-02 0. -1.
    10030    2    1    2    0    0  0.00000000000E+00  0.00000000000E+00  0.85245573488E+03  0.37907038290E+04  0.36936099874E+04 0.  0.
        5    1    3    3  502    0  0.32033024243E+03 -0.15621498291E+04  0.13822421665E+04  0.21103409795E+04  0.46999998093E+01 0.  1.
       -5    1    3    3    0  502 -0.32033024243E+03  0.15621498291E+04 -0.52978643160E+03  0.16803628495E+04  0.46999998093E+01 0. -1.
</event>
<event>
 5   0  0.1680194E-06  0.3572099E+04  0.7818609E-02  0.8096913E-01
        2   -1    0    0  501    0  0.00000000000E+00  0.00000000000E+00  0.25521954601E+04  0.25521954601E+04  0.25500000920E-02 0. -1.
       -2   -1    0    0    0  501  0.00000000000E+00  0.00000000000E+00 -0.12498937427E+04  0.12498937427E+04  0.25500000920E-02 0.  1.
    10030    2    1    2    0    0  0.00000000000E+00  0.00000000000E+00  0.13023017174E+04  0.38020892028E+04  0.35720991788E+04 0.  0.
        2    1    3    3  502    0  0.13990915321E+04  0.90586476301E+03  0.13342879964E+04  0.21350345528E+04  0.25500000920E-02 0. -1.
       -2    1    3    3    0  502 -0.13990915321E+04 -0.90586476301E+03 -0.31986279012E+02  0.16670546500E+04  0.25500000920E-02 0.  1.
</event>
<event>
 5   0  0.1680194E-06  0.2102466E+04  0.7818609E-02  0.8560158E-01
       -2   -1    0    0    0  501  0.00000000000E+00  0.00000000000E+00  0.53884176529E+03  0.53884176530E+03  0.25500000920E-02 0.  1.
        2   -1    0    0  501    0  0.00000000000E+00  0.00000000000E+00 -0.20508636072E+04  0.20508636072E+04  0.25500000920E-02 0. -1.
    10030    2    1    2    0    0  0.00000000000E+00  0.00000000000E+00 -0.15120218419E+04  0.25897053725E+04  0.21024661390E+04 0.  0.
        2    1    3    3  502    0 -0.78858577476E+03  0.25129447889E+03 -0.15543447290E+04  0.17609667731E+04  0.25500000920E-02 0. -1.
       -2    1    3    3    0  502  0.78858577476E+03 -0.25129447889E+03  0.42322887172E+02  0.82873859935E+03  0.25500000920E-02 0.  1.
</event>
<event>
 5   0  0.1685793E-06  0.2468495E+04  0.7818609E-02  0.8414296E-01
        2   -1    0    0  501    0  0.00000000000E+00  0.00000000000E+00  0.17829167516E+04  0.17829167516E+04  0.25500000920E-02 0. -1.
       -2   -1    0    0    0  501  0.00000000000E+00  0.00000000000E+00 -0.85442389051E+03  0.85442389051E+03  0.25500000920E-02 0.  1.
    10030    2    1    2    0    0  0.00000000000E+00  0.00000000000E+00  0.92849286105E+03  0.26373406421E+04  0.24684948186E+04 0.  0.
        3    1    3    3  502    0  0.60423777406E+03 -0.22041201677E+03 -0.66122185364E+03  0.92244191940E+03  0.10100000352E+00 0.  1.
       -3    1    3    3    0  502 -0.60423777406E+03  0.22041201677E+03  0.15897147147E+04  0.17148987227E+04  0.10100000352E+00 0. -1.
</event>
<event>
 5   0  0.1184684E-06  0.3755861E+04  0.7818609E-02  0.8055694E-01
       -2   -1    0    0    0  501  0.00000000000E+00  0.00000000000E+00  0.15730791489E+04  0.15730791489E+04  0.25500000920E-02 0. -1.
        2   -1    0    0  501    0  0.00000000000E+00  0.00000000000E+00 -0.22418602419E+04  0.22418602420E+04  0.25500000920E-02 0.  1.
    10030    2    1    2    0    0  0.00000000000E+00  0.00000000000E+00 -0.66878109302E+03  0.38149393909E+04  0.37558613401E+04 0.  0.
        4    1    3    3  502    0 -0.13040008193E+04 -0.86582712667E+01  0.10382088552E+04  0.16668450265E+04  0.12699999809E+01 0. -1.
       -4    1    3    3    0  502  0.13040008193E+04  0.86582712667E+01 -0.17069899482E+04  0.21480943644E+04  0.12699999809E+01 0.  1.
</event>
<event>
 5   0  0.1680194E-06  0.3687684E+04  0.7818609E-02  0.8070697E-01
       -2   -1    0    0    0  501  0.00000000000E+00  0.00000000000E+00  0.11719015220E+04  0.11719015220E+04  0.25500000920E-02 0. -1.
        2   -1    0    0  501    0  0.00000000000E+00  0.00000000000E+00 -0.29010575877E+04  0.29010575877E+04  0.25500000920E-02 0.  1.
    10030    2    1    2    0    0  0.00000000000E+00  0.00000000000E+00 -0.17291560658E+04  0.40729591097E+04  0.36876842611E+04 0.  0.
        2    1    3    3  502    0  0.38642614748E+01  0.29661767144E+03  0.11453732928E+04  0.11831639597E+04  0.25500000920E-02 0. -1.
       -2    1    3    3    0  502 -0.38642614748E+01 -0.29661767144E+03 -0.28745293586E+04  0.28897951500E+04  0.25500000920E-02 0.  1.
</event>
<event>
 5   0  0.1184684E-06  0.3761336E+04  0.7818609E-02  0.8054503E-01
        2   -1    0    0  501    0  0.00000000000E+00  0.00000000000E+00  0.14689014819E+04  0.14689014819E+04  0.25500000920E-02 0.  1.
       -2   -1    0    0    0  501  0.00000000000E+00  0.00000000000E+00 -0.24078625543E+04  0.24078625543E+04  0.25500000920E-02 0. -1.
    10030    2    1    2    0    0  0.00000000000E+00  0.00000000000E+00 -0.93896107235E+03  0.38767640362E+04  0.37613363978E+04 0.  0.
        4    1    3    3  502    0  0.48952432019E+03 -0.17963487465E+04 -0.19599184434E+03  0.18721424345E+04  0.12699999809E+01 0.  1.
       -4    1    3    3    0  502 -0.48952432019E+03  0.17963487465E+04 -0.74296922801E+03  0.20046216017E+04  0.12699999809E+01 0. -1.
</event>
<event>
 5   0  0.5875011E-07  0.3139093E+04  0.7818609E-02  0.8205090E-01
        1   -1    0    0  501    0  0.00000000000E+00  0.00000000000E+00  0.24654402204E+04  0.24654402204E+04  0.50400001928E-02 0. -1.
       -1   -1    0    0    0  501  0.00000000000E+00  0.00000000000E+00 -0.99920330539E+03  0.99920330540E+03  0.50400001928E-02 0.  1.
    10030    2    1    2    0    0  0.00000000000E+00  0.00000000000E+00  0.14662369150E+04  0.34646435258E+04  0.31390928737E+04 0.  0.
        2    1    3    3  502    0  0.21639693663E+03 -0.22124365136E+03  0.24314313058E+04  0.24510476500E+04  0.25500000920E-02 0. -1.
       -2    1    3    3    0  502 -0.21639693663E+03  0.22124365136E+03 -0.96519439082E+03  0.10135958758E+04  0.25500000920E-02 0.  1.
</event>
<event>
 5   0  0.5875011E-07  0.2788948E+04  0.7818609E-02  0.8306708E-01
       -1   -1    0    0    0  501  0.00000000000E+00  0.00000000000E+00  0.12212503359E+04  0.12212503359E+04  0.50400001928E-02 0. -1.
        1   -1    0    0  501    0  0.00000000000E+00  0.00000000000E+00 -0.15922677874E+04  0.15922677874E+04  0.50400001928E-02 0.  1.
    10030    2    1    2    0    0  0.00000000000E+00  0.00000000000E+00 -0.37101745143E+03  0.28135181233E+04  0.27889478806E+04 0.  0.
        2    1    3    3  502    0  0.10125144804E+04  0.65646989854E+03  0.51951821645E+03  0.13137874554E+04  0.25500000920E-02 0. -1.
       -2    1    3    3    0  502 -0.10125144804E+04 -0.65646989854E+03 -0.89053566788E+03  0.14997306680E+04  0.25500000920E-02 0.  1.
</event>
<event>
 5   0  0.5679750E-07  0.3858335E+04  0.7818609E-02  0.8033751E-01
        3   -1    0    0  501    0  0.00000000000E+00  0.00000000000E+00  0.19188693179E+04  0.19188693205E+04  0.10100000352E+00 0.  1.
       -3   -1    0    0    0  501  0.00000000000E+00  0.00000000000E+00 -0.19395205342E+04  0.19395205369E+04  0.10100000352E+00 0. -1.
    10030    2    1    2    0    0  0.00000000000E+00  0.00000000000E+00 -0.20651216365E+02  0.38583898574E+04  0.38583345914E+04 0.  0.
        2    1    3    3  502    0  0.63347343900E+03 -0.15732298222E+04  0.90911443923E+03  0.19242738201E+04  0.25500000920E-02 0.  1.
       -2    1    3    3    0  502 -0.63347343900E+03  0.15732298222E+04 -0.92976565560E+03  0.19341160373E+04  0.25500000920E-02 0. -1.
</event>
<event>
 5   0  0.5875011E-07  0.3706885E+04  0.7818609E-02  0.8066438E-01
        1   -1    0    0  501    0  0.00000000000E+00  0.00000000000E+00  0.22407804460E+04  0.22407804460E+04  0.50400001928E-02 0. -1.
       -1   -1    0    0    0  501  0.00000000000E+00  0.00000000000E+00 -0.15330594977E+04  0.15330594977E+04  0.50400001928E-02 0.  1.
    10030    2    1    2    0    0  0.00000000000E+00  0.00000000000E+00  0.70772094825E+03  0.37738399437E+04  0.37068853475E+04 0.  0.
        2    1    3    3  502    0  0.15917618438E+04 -0.86775527850E+03 -0.38516020563E+02  0.18133362828E+04  0.25500000920E-02 0. -1.
       -2    1    3    3    0  502 -0.15917618438E+04  0.86775527850E+03  0.74623696882E+03  0.19605036609E+04  0.25500000920E-02 0.  1.
</event>
<event>
 5   0  0.5679750E-07  0.3265660E+04  0.7818609E-02  0.8171689E-01
       -3   -1    0    0    0  501  0.00000000000E+00  0.00000000000E+00  0.13787214284E+04  0.13787214321E+04  0.10100000352E+00 0. -1.
        3   -1    0    0  501    0  0.00000000000E+00  0.00000000000E+00 -0.19337722066E+04  0.19337722093E+04  0.10100000352E+00 0.  1.
    10030    2    1    2    0    0  0.00000000000E+00  0.00000000000E+00 -0.55505077822E+03  0.33124936414E+04  0.32656596206E+04 0.  0.
        2    1    3    3  502    0 -0.10648605555E+04  0.59833793848E+03 -0.13766694090E+04  0.18404224930E+04  0.25500000920E-02 0.  1.
       -2    1    3    3    0  502  0.10648605555E+04 -0.59833793848E+03  0.82161863076E+03  0.14720711483E+04  0.25500000920E-02 0. -1.
</event>
<event>
 5   0  0.1184684E-06  0.3725961E+04  0.7818609E-02  0.8062233E-01
       -2   -1    0    0    0  501  0.00000000000E+00  0.00000000000E+00  0.99489490637E+03  0.99489490638E+03  0.25500000920E-02 0.  1.
        2   -1    0    0  501    0  0.00000000000E+00  0.00000000000E+00 -0.34885061414E+04  0.34885061414E+04  0.25500000920E-02 0. -1.
    10030    2    1    2    0    0  0.00000000000E+00  0.00000000000E+00 -0.24936112350E+04  0.44834010478E+04  0.37259613476E+04 0.  0.
        4    1    3    3  502    0 -0.98859942801E+03 -0.13463303258E+04 -0.25399447620E+03  0.16895114625E+04  0.12699999809E+01 0.  1.
       -4    1    3    3    0  502  0.98859942801E+03  0.13463303258E+04 -0.22396167588E+04  0.27938895852E+04  0.12699999809E+01 0. -1.
</event>
<event>
 5   0  0.6186440E-07  0.3642512E+04  0.7818609E-02  0.8080823E-01
        1   -1    0    0  501    0  0.00000000000E+00  0.00000000000E+00  0.21387633185E+04  0.21387633185E+04  0.50400001928E-02 0. -1.
       -1   -1    0    0    0  501  0.00000000000E+00  0.00000000000E+00 -0.15508838976E+04  0.15508838976E+04  0.50400001928E-02 0.  1.
    10030    2    1    2    0    0  0.00000000000E+00  0.00000000000E+00  0.58787942090E+03  0.36896472161E+04  0.36425120955E+04 0.  0.
        3    1    3    3  502    0  0.16617174621E+04  0.19897462168E+03 -0.43374191963E+03  0.17288805300E+04  0.10100000352E+00 0.  1.
       -3    1    3    3    0  502 -0.16617174621E+04 -0.19897462168E+03  0.10216213405E+04  0.19607666861E+04  0.10100000352E+00 0. -1.
</event>
<event>
 5   0  0.1151180E-06  0.3685884E+04  0.7818609E-02  0.8071097E-01
       -2   -1    0    0    0  501  0.00000000000E+00  0.00000000000E+00  0.27414722058E+04  0.27414722058E+04  0.25500000920E-02 0.  1.
        2   -1    0    0  501    0  0.00000000000E+00  0.00000000000E+00 -0.12389091121E+04  0.12389091121E+04  0.25500000920E-02 0. -1.
    10030    2    1    2    0    0  0.00000000000E+00  0.00000000000E+00  0.15025630938E+04  0.39803813179E+04  0.36858838269E+04 0.  0.
        5    1    3    3  502    0  0.12414603891E+04  0.13610789455E+04  0.80690432848E+03  0.20111878278E+04  0.46999998093E+01 0.  1.
       -5    1    3    3    0  502 -0.12414603891E+04 -0.13610789455E+04  0.69565876529E+03  0.19691934901E+04  0.46999998093E+01 0. -1.
</event>
<event>
 5   0  0.5875011E-07  0.3708541E+04  0.7818609E-02  0.8066072E-01
       -1   -1    0    0    0  501  0.00000000000E+00  0.00000000000E+00  0.18736090734E+04  0.18736090734E+04  0.50400001928E-02 0. -1.
        1   -1    0    0  501    0  0.00000000000E+00  0.00000000000E+00 -0.18351314009E+04  0.18351314009E+04  0.50400001928E-02 0.  1.
    10030    2    1    2    0    0  0.00000000000E+00  0.00000000000E+00  0.38477672529E+02  0.37087404744E+04  0.37085408687E+04 0.  0.
        2    1    3    3  502    0 -0.14136200263E+04  0.10115917309E+04  0.66478069418E+03  0.18610676452E+04  0.25500000920E-02 0. -1.
       -2    1    3    3    0  502  0.14136200263E+04 -0.10115917309E+04 -0.62630302165E+03  0.18476728292E+04  0.25500000920E-02 0.  1.
</event>
<event>
 5   0  0.5875011E-07  0.3621780E+04  0.7818609E-02  0.8085521E-01
        1   -1    0    0  501    0  0.00000000000E+00  0.00000000000E+00  0.21637919711E+04  0.21637919711E+04  0.50400001928E-02 0. -1.
       -1   -1    0    0    0  501  0.00000000000E+00  0.00000000000E+00 -0.15155444242E+04  0.15155444242E+04  0.50400001928E-02 0.  1.
    10030    2    1    2    0    0  0.00000000000E+00  0.00000000000E+00  0.64824754689E+03  0.36793363954E+04  0.36217801463E+04 0.  0.
        2    1    3    3  502    0 -0.15882052049E+04 -0.86993383448E+03  0.33623836940E+03  0.18418026198E+04  0.25500000920E-02 0.  1.
       -2    1    3    3    0  502  0.15882052049E+04  0.86993383448E+03  0.31200917749E+03  0.18375337755E+04  0.25500000920E-02 0. -1.
</event>
<event>
 5   0  0.1685793E-06  0.3638845E+04  0.7818609E-02  0.8081651E-01
       -2   -1    0    0    0  501  0.00000000000E+00  0.00000000000E+00  0.14154673202E+04  0.14154673202E+04  0.25500000920E-02 0. -1.
        2   -1    0    0  501    0  0.00000000000E+00  0.00000000000E+00 -0.23386604682E+04  0.23386604682E+04  0.25500000920E-02 0.  1.
    10030    2    1    2    0    0  0.00000000000E+00  0.00000000000E+00 -0.92319314800E+03  0.37541277884E+04  0.36388445781E+04 0.  0.
        3    1    3    3  502    0  0.19518878095E+03 -0.52830999561E+03 -0.22464610279E+04  0.23159873211E+04  0.10100000352E+00 0.  1.
       -3    1    3    3    0  502 -0.19518878095E+03  0.52830999561E+03  0.13232678799E+04  0.14381404673E+04  0.10100000352E+00 0. -1.
</event>
<event>
 5   0  0.1151180E-06  0.2205346E+04  0.7818609E-02  0.8516206E-01
        2   -1    0    0  501    0  0.00000000000E+00  0.00000000000E+00  0.13158198921E+04  0.13158198921E+04  0.25500000920E-02 0.  1.
       -2   -1    0    0    0  501  0.00000000000E+00  0.00000000000E+00 -0.92405366670E+03  0.92405366670E+03  0.25500000920E-02 0. -1.
    10030    2    1    2    0    0  0.00000000000E+00  0.00000000000E+00  0.39176622542E+03  0.22398735588E+04  0.22053464091E+04 0.  0.
        5    1    3    3  502    0  0.47506742450E+03  0.70264258950E+03 -0.51975487169E+03  0.99476775332E+03  0.46999998093E+01 0. -1.
       -5    1    3    3    0  502 -0.47506742450E+03 -0.70264258950E+03  0.91152109711E+03  0.12451058055E+04  0.46999998093E+01 0.  1.
</event>
<event>
 5   0  0.1724503E-06  0.3632483E+04  0.7818609E-02  0.8083091E-01
        2   -1    0    0  501    0  0.00000000000E+00  0.00000000000E+00  0.10414778242E+04  0.10414778242E+04  0.25500000920E-02 0.  1.
       -2   -1    0    0    0  501  0.00000000000E+00  0.00000000000E+00 -0.31673575854E+04  0.31673575854E+04  0.25500000920E-02 0. -1.
    10030    2    1    2    0    0  0.00000000000E+00  0.00000000000E+00 -0.21258797612E+04  0.42088354097E+04  0.36324827249E+04 0.  0.
        1    1    3    3  502    0  0.10723246038E+04 -0.14399824598E+04 -0.74498540264E+03  0.19438191250E+04  0.50400001928E-02 0.  1.
       -1    1    3    3    0  502 -0.10723246038E+04  0.14399824598E+04 -0.13808943586E+04  0.22650162847E+04  0.50400001928E-02 0. -1.
</event>
<event>
 5   0  0.6186440E-07  0.3567690E+04  0.7818609E-02  0.8097933E-01
       -1   -1    0    0    0  501  0.00000000000E+00  0.00000000000E+00  0.33875721055E+04  0.33875721055E+04  0.50400001928E-02 0. -1.
        1   -1    0    0  501    0  0.00000000000E+00  0.00000000000E+00 -0.93934605777E+03  0.93934605778E+03  0.50400001928E-02 0.  1.
    10030    2    1    2    0    0  0.00000000000E+00  0.00000000000E+00  0.24482260478E+04  0.43269181633E+04  0.35676897302E+04 0.  0.
        3    1    3    3  502    0 -0.17481872751E+04 -0.11253445221E+03  0.16323080669E+04  0.23944210965E+04  0.10100000352E+00 0. -1.
       -3    1    3    3    0  502  0.17481872751E+04  0.11253445221E+03  0.81591798084E+03  0.19324970668E+04  0.10100000352E+00 0.  1.
</event>
<event>
 5   0  0.1685793E-06  0.2410869E+04  0.7818609E-02  0.8435446E-01
        2   -1    0    0  501    0  0.00000000000E+00  0.00000000000E+00  0.15775058123E+04  0.15775058123E+04  0.25500000920E-02 0.  1.
       -2   -1    0    0    0  501  0.00000000000E+00  0.00000000000E+00 -0.92111995447E+03  0.92111995448E+03  0.25500000920E-02 0. -1.
    10030    2    1    2    0    0  0.00000000000E+00  0.00000000000E+00  0.65638585783E+03  0.24986257668E+04  0.24108687911E+04 0.  0.
        3    1    3    3  502    0  0.28874577052E+03 -0.33221476996E+03 -0.83485506839E+03  0.94378163195E+03  0.10100000352E+00 0. -1.
       -3    1    3    3    0  502 -0.28874577052E+03  0.33221476996E+03  0.14912409262E+04  0.15548441348E+04  0.10100000352E+00 0.  1.
</event>
<event>
 5   0  0.5679750E-07  0.1816970E+04  0.7818609E-02  0.8697327E-01
       -1   -1    0    0    0  501  0.00000000000E+00  0.00000000000E+00  0.57642747639E+03  0.57642747641E+03  0.50400001928E-02 0. -1.
        1   -1    0    0  501    0  0.00000000000E+00  0.00000000000E+00 -0.14318281663E+04  0.14318281663E+04  0.50400001928E-02 0.  1.
    10030    2    1    2    0    0  0.00000000000E+00  0.00000000000E+00 -0.85540068991E+03  0.20082556427E+04  0.18169701115E+04 0.  0.
        4    1    3    3  502    0  0.66598266468E+03 -0.44562039999E+03  0.45421605788E+02  0.80260524900E+03  0.12699999809E+01 0. -1.
       -4    1    3    3    0  502 -0.66598266468E+03  0.44562039999E+03 -0.90082229570E+03  0.12056503937E+04  0.12699999809E+01 0.  1.
</event>
<event>
 5   0  0.6186440E-07  0.3793475E+04  0.7818609E-02  0.8047557E-01
        1   -1    0    0  501    0  0.00000000000E+00  0.00000000000E+00  0.22581398706E+04  0.22581398706E+04  0.50400001928E-02 0. -1.
       -1   -1    0    0    0  501  0.00000000000E+00  0.00000000000E+00 -0.15931751307E+04  0.15931751307E+04  0.50400001928E-02 0.  1.
    10030    2    1    2    0    0  0.00000000000E+00  0.00000000000E+00  0.66496473995E+03  0.38513150013E+04  0.37934745463E+04 0.  0.
        3    1    3    3  502    0 -0.69278479880E+03  0.31871507071E+03  0.20956493895E+04  0.22300844037E+04  0.10100000352E+00 0. -1.
       -3    1    3    3    0  502  0.69278479880E+03 -0.31871507071E+03 -0.14306846496E+04  0.16212305976E+04  0.10100000352E+00 0.  1.
</event>
<event>
 5   0  0.1685793E-06  0.3742657E+04  0.7818609E-02  0.8058574E-01
        2   -1    0    0  501    0  0.00000000000E+00  0.00000000000E+00  0.19065935700E+04  0.19065935701E+04  0.25500000920E-02 0. -1.
       -2   -1    0    0    0  501  0.00000000000E+00  0.00000000000E+00 -0.18367154086E+04  0.18367154086E+04  0.25500000920E-02 0.  1.
    10030    2    1    2    0    0  0.00000000000E+00  0.00000000000E+00  0.69878161441E+02  0.37433089787E+04  0.37426566971E+04 0.  0.
        3    1    3    3  502    0 -0.93340963032E+03  0.89540614073E+02 -0.15847871143E+04  0.18414182761E+04  0.10100000352E+00 0.  1.
       -3    1    3    3    0  502  0.93340963032E+03 -0.89540614073E+02  0.16546652758E+04  0.19018907026E+04  0.10100000352E+00 0. -1.
</event>
<event>
 5   0  0.5679750E-07  0.3134709E+04  0.7818609E-02  0.8206276E-01
       -1   -1    0    0    0  501  0.00000000000E+00  0.00000000000E+00  0.12125869805E+04  0.12125869806E+04  0.50400001928E-02 0.  1.
        1   -1    0    0  501    0  0.00000000000E+00  0.00000000000E+00 -0.20259167797E+04  0.20259167798E+04  0.50400001928E-02 0. -1.
    10030    2    1    2    0    0  0.00000000000E+00  0.00000000000E+00 -0.81332979920E+03  0.32385037603E+04  0.31347091162E+04 0.  0.
        4    1    3    3  502    0 -0.16528742028E+03 -0.11551252281E+04  0.67438856550E+03  0.13477521189E+04  0.12699999809E+01 0.  1.
       -4    1    3    3    0  502  0.16528742028E+03  0.11551252281E+04 -0.14877183647E+04  0.18907516414E+04  0.12699999809E+01 0. -1.
</event>
<event>
 5   0  0.5679750E-07  0.3654251E+04  0.7818609E-02  0.8078177E-01
       -3   -1    0    0    0  501  0.00000000000E+00  0.00000000000E+00  0.25425384055E+04  0.25425384075E+04  0.10100000352E+00 0. -1.
        3   -1    0    0  501    0  0.00000000000E+00  0.00000000000E+00 -0.13130134162E+04  0.13130134200E+04  0.10100000352E+00 0.  1.
    10030    2    1    2    0    0  0.00000000000E+00  0.00000000000E+00  0.12295249894E+04  0.38555518276E+04  0.36542507023E+04 0.  0.
        3    1    3    3  502    0  0.21992325650E+03 -0.10025316298E+04 -0.98011255655E+03  0.14191745986E+04  0.10100000352E+00 0.  1.
       -3    1    3    3    0  502 -0.21992325650E+03  0.10025316298E+04  0.22096375459E+04  0.24363772290E+04  0.10100000352E+00 0. -1.
</event>
<event>
 5   0  0.1151180E-06  0.3744716E+04  0.7818609E-02  0.8058124E-01
        2   -1    0    0  501    0  0.00000000000E+00  0.00000000000E+00  0.24836204163E+04  0.24836204163E+04  0.25500000920E-02 0.  1.
       -2   -1    0    0    0  501  0.00000000000E+00  0.00000000000E+00 -0.14115382112E+04  0.14115382112E+04  0.25500000920E-02 0. -1.
    10030    2    1    2    0    0  0.00000000000E+00  0.00000000000E+00  0.10720822050E+04  0.38951586275E+04  0.37447163416E+04 0.  0.
        5    1    3    3  502    0  0.12924855537E+04  0.12085311342E+04  0.11727066316E+04  0.21228116597E+04  0.46999998093E+01 0.  1.
       -5    1    3    3    0  502 -0.12924855537E+04 -0.12085311342E+04 -0.10062442659E+03  0.17723469677E+04  0.46999998093E+01 0. -1.
</event>
<event>
 5   0  0.1680194E-06  0.2385335E+04  0.7818609E-02  0.8445014E-01
        2   -1    0    0  501    0  0.00000000000E+00  0.00000000000E+00  0.19132216747E+04  0.19132216747E+04  0.25500000920E-02 0.  1.
       -2   -1    0    0    0  501  0.00000000000E+00  0.00000000000E+00 -0.74348708688E+03  0.74348708688E+03  0.25500000920E-02 0. -1.
    10030    2    1    2    0    0  0.00000000000E+00  0.00000000000E+00  0.11697345879E+04  0.26567087616E+04  0.23853348692E+04 0.  0.
        2    1    3    3  502    0  0.68071184642E+03  0.12027050738E+03 -0.49762202163E+03  0.85174015358E+03  0.25500000920E-02 0. -1.
       -2    1    3    3    0  502 -0.68071184642E+03 -0.12027050738E+03  0.16673566095E+04  0.18049686080E+04  0.25500000920E-02 0.  1.
</event>
<event>
 5   0  0.1680194E-06  0.2457632E+04  0.7818609E-02  0.8418237E-01
        2   -1    0    0  501    0  0.00000000000E+00  0.00000000000E+00  0.17294332431E+04  0.17294332431E+04  0.25500000920E-02 0. -1.
       -2   -1    0    0    0  501  0.00000000000E+00  0.00000000000E+00 -0.87311186085E+03  0.87311186086E+03  0.25500000920E-02 0.  1.
    10030    2    1    2    0    0  0.00000000000E+00  0.00000000000E+00  0.85632138223E+03  0.26025451039E+04  0.24576319310E+04 0.  0.
        2    1    3    3  502    0 -0.17266665732E+03  0.89415233258E+03 -0.44551170641E+03  0.10138061200E+04  0.25500000920E-02 0.  1.
       -2    1    3    3    0  502  0.17266665732E+03 -0.89415233258E+03  0.13018330886E+04  0.15887389839E+04  0.25500000920E-02 0. -1.
</event>
<event>
 5   0  0.1184684E-06  0.3733765E+04  0.7818609E-02  0.8060520E-01
        2   -1    0    0  501    0  0.00000000000E+00  0.00000000000E+00  0.16229520142E+04  0.16229520142E+04  0.25500000920E-02 0. -1.
       -2   -1    0    0    0  501  0.00000000000E+00  0.00000000000E+00 -0.21474758125E+04  0.21474758125E+04  0.25500000920E-02 0.  1.
    10030    2    1    2    0    0  0.00000000000E+00  0.00000000000E+00 -0.52452379828E+03  0.37704278268E+04  0.37337649607E+04 0.  0.
        4    1    3    3  502    0  0.11102548871E+04  0.31985065794E+02  0.12529919023E+04  0.16744190870E+04  0.12699999809E+01 0. -1.
       -4    1    3    3    0  502 -0.11102548871E+04 -0.31985065794E+02 -0.17775157006E+04  0.20960087398E+04  0.12699999809E+01 0.  1.
</event>
<event>
 5   0  0.1724503E-06  0.2601614E+04  0.7818609E-02  0.8367653E-01
        2   -1    0    0  501    0  0.00000000000E+00  0.00000000000E+00  0.23564918708E+04  0.23564918708E+04  0.25500000920E-02 0.  1.
       -2   -1    0    0    0  501  0.00000000000E+00  0.00000000000E+00 -0.71805867684E+03  0.71805867685E+03  0.25500000920E-02 0. -1.
    10030    2    1    2    0    0  0.00000000000E+00  0.00000000000E+00  0.16384331940E+04  0.30745505476E+04  0.26016144486E+04 0.  0.
        1    1    3    3  502    0  0.11499788611E+04  0.63499170544E+02  0.15337972344E+04  0.19180765058E+04  0.50400001928E-02 0.  1.
       -1    1    3    3    0  502 -0.11499788611E+04 -0.63499170544E+02  0.10463595951E+03  0.11564740419E+04  0.50400001928E-02 0. -1.
</event>
<event>
 5   0  0.1151180E-06  0.3619839E+04  0.7818609E-02  0.8085962E-01
       -2   -1    0    0    0  501  0.00000000000E+00  0.00000000000E+00  0.12613777747E+04  0.12613777747E+04  0.25500000920E-02 0.  1.
        2   -1    0    0  501    0  0.00000000000E+00  0.00000000000E+00 -0.25970084920E+04  0.25970084920E+04  0.25500000920E-02 0. -1.
    10030    2    1    2    0    0  0.00000000000E+00  0.00000000000E+00 -0.13356307173E+04  0.38583862667E+04  0.36198391084E+04 0.  0.
        5    1    3    3  502    0  0.54619872605E+03  0.15084457138E+04 -0.15609130510E+04  0.22383505450E+04  0.46999998093E+01 0. -1.
       -5    1    3    3    0  502 -0.54619872605E+03 -0.15084457138E+04  0.22528233370E+03  0.16200357217E+04  0.46999998093E+01 0.  1.
</event>
<event>
 5   0  0.1680194E-06  0.2266405E+04  0.7818609E-02  0.8491286E-01
        2   -1    0    0  501    0  0.00000000000E+00  0.00000000000E+00  0.15736416902E+04  0.15736416902E+04  0.25500000920E-02 0.  1.
       -2   -1    0    0    0  501  0.00000000000E+00  0.00000000000E+00 -0.81603544301E+03  0.81603544301E+03  0.25500000920E-02 0. -1.
    10030    2    1    2    0    0  0.00000000000E+00  0.00000000000E+00  0.75760624721E+03  0.23896771332E+04  0.22664045480E+04 0.  0.
        2    1    3    3  502    0  0.73135087324E+03  0.80622531671E+03  0.46587825785E+02  0.10895153907E+04  0.25500000920E-02 0. -1.
       -2    1    3    3    0  502 -0.73135087324E+03 -0.80622531671E+03  0.71101842143E+03  0.13001617425E+04  0.25500000920E-02 0.  1.
</event>
<event>
 5   0  0.1724503E-06  0.2788895E+04  0.7818609E-02  0.8306724E-01
        2   -1    0    0  501    0  0.00000000000E+00  0.00000000000E+00  0.17221907737E+04  0.17221907737E+04  0.25500000920E-02 0.  1.
       -2   -1    0    0    0  501  0.00000000000E+00  0.00000000000E+00 -0.11290755310E+04  0.11290755310E+04  0.25500000920E-02 0. -1.
    10030    2    1    2    0    0  0.00000000000E+00  0.00000000000E+00  0.59311524269E+03  0.28512663047E+04  0.27888947362E+04 0.  0.
        1    1    3    3  502    0 -0.12448375614E+04  0.59165086347E+03  0.51298072284E+03  0.14706530932E+04  0.50400001928E-02 0.  1.
       -1    1    3    3    0  502  0.12448375614E+04 -0.59165086347E+03  0.80134519849E+02  0.13806132115E+04  0.50400001928E-02 0. -1.
</event>
<event>
 5   0  0.6287345E-07  0.2207802E+04  0.7818609E-02  0.8515188E-01
        1   -1    0    0  501    0  0.00000000000E+00  0.00000000000E+00  0.15465684917E+04  0.15465684917E+04  0.50400001928E-02 0.  1.
       -1   -1    0    0    0  501  0.00000000000E+00  0.00000000000E+00 -0.78793654731E+03  0.78793654732E+03  0.50400001928E-02 0. -1.
    10030    2    1    2    0    0  0.00000000000E+00  0.00000000000E+00  0.75863194435E+03  0.23345050390E+04  0.22078023802E+04 0.  0.
        5    1    3    3  502    0 -0.28401815010E+03 -0.63644354821E+03 -0.52587847768E+03  0.87309619340E+03  0.46999998093E+01 0. -1.
       -5    1    3    3    0  502  0.28401815010E+03  0.63644354821E+03  0.12845104220E+04  0.14614088456E+04  0.46999998093E+01 0.  1.
</event>
<event>
 5   0  0.6287345E-07  0.3494716E+04  0.7818609E-02  0.8115043E-01
        1   -1    0    0  501    0  0.00000000000E+00  0.00000000000E+00  0.15663901328E+04  0.15663901328E+04  0.50400001928E-02 0. -1.
       -1   -1    0    0    0  501  0.00000000000E+00  0.00000000000E+00 -0.19492333103E+04  0.19492333103E+04  0.50400001928E-02 0.  1.
    10030    2    1    2    0    0  0.00000000000E+00  0.00000000000E+00 -0.38284317753E+03  0.35156234430E+04  0.34947159104E+04 0.  0.
        5    1    3    3  502    0 -0.13299756227E+04 -0.75449073033E+03 -0.10421441041E+04  0.18504534154E+04  0.46999998093E+01 0.  1.
       -5    1    3    3    0  502  0.13299756227E+04  0.75449073033E+03  0.65930092656E+03  0.16651700276E+04  0.46999998093E+01 0. -1.
</event>
<event>
 5   0  0.6261598E-07  0.3715624E+04  0.7818609E-02  0.8064508E-01
       -1   -1    0    0    0  501  0.00000000000E+00  0.00000000000E+00  0.15940533112E+04  0.15940533112E+04  0.50400001928E-02 0. -1.
        1   -1    0    0  501    0  0.00000000000E+00  0.00000000000E+00 -0.21652137025E+04  0.21652137026E+04  0.50400001928E-02 0.  1.
    10030    2    1    2    0    0  0.00000000000E+00  0.00000000000E+00 -0.57116039133E+03  0.37592670138E+04  0.37156243470E+04 0.  0.
        1    1    3    3  502    0  0.13325486635E+04  0.11029661699E+04 -0.97121673060E+03  0.19838049930E+04  0.50400001928E-02 0.  1.
       -1    1    3    3    0  502 -0.13325486635E+04 -0.11029661699E+04  0.40005633927E+03  0.17754620208E+04  0.50400001928E-02 0. -1.
</event>
<event>
 5   0  0.6287345E-07  0.3303476E+04  0.7818609E-02  0.8162011E-01
       -1   -1    0    0    0  501  0.00000000000E+00  0.00000000000E+00  0.21900564803E+04  0.21900564803E+04  0.50400001928E-02 0.  1.
        1   -1    0    0  501    0  0.00000000000E+00  0.00000000000E+00 -0.12457389159E+04  0.12457389159E+04  0.50400001928E-02 0. -1.
    10030    2    1    2    0    0  0.00000000000E+00  0.00000000000E+00  0.94431756442E+03  0.34357953961E+04  0.33034760998E+04 0.  0.
        5    1    3    3  502    0 -0.10378157077E+04 -0.24745947324E+03  0.17835842248E+04  0.20783388586E+04  0.46999998093E+01 0.  1.
       -5    1    3    3    0  502  0.10378157077E+04  0.24745947324E+03 -0.83926666039E+03  0.13574565376E+04  0.46999998093E+01 0. -1.
</event>
<event>
 5   0  0.1151180E-06  0.2352273E+04  0.7818609E-02  0.8457591E-01
       -2   -1    0    0    0  501  0.00000000000E+00  0.00000000000E+00  0.51036203160E+03  0.51036203160E+03  0.25500000920E-02 0.  1.
        2   -1    0    0  501    0  0.00000000000E+00  0.00000000000E+00 -0.27104236489E+04  0.27104236489E+04  0.25500000920E-02 0. -1.
    10030    2    1    2    0    0  0.00000000000E+00  0.00000000000E+00 -0.22000616173E+04  0.32207856805E+04  0.23522732154E+04 0.  0.
        5    1    3    3  502    0 -0.13384165487E+03 -0.96961527021E+03 -0.19928730106E+04  0.22202775249E+04  0.46999998093E+01 0. -1.
       -5    1    3    3    0  502  0.13384165487E+03  0.96961527021E+03 -0.20718860666E+03  0.10005081557E+04  0.46999998093E+01 0.  1.
</event>
<event>
 5   0  0.6068898E-07  0.2051446E+04  0.7818609E-02  0.8582939E-01
        1   -1    0    0  501    0  0.00000000000E+00  0.00000000000E+00  0.88160737308E+03  0.88160737309E+03  0.50400001928E-02 0. -1.
       -1   -1    0    0    0  501  0.00000000000E+00  0.00000000000E+00 -0.11933974603E+04  0.11933974603E+04  0.50400001928E-02 0.  1.
    10030    2    1    2    0    0  0.00000000000E+00  0.00000000000E+00 -0.31179008721E+03  0.20750048334E+04  0.20514463191E+04 0.  0.
        2    1    3    3  502    0 -0.41503718778E+03 -0.15052600129E+03  0.78058500846E+03  0.89678698683E+03  0.25500000920E-02 0. -1.
       -2    1    3    3    0  502  0.41503718778E+03  0.15052600129E+03 -0.10923750957E+04  0.11782178466E+04  0.25500000920E-02 0.  1.
</event>
<event>
 5   0  0.1724503E-06  0.3642736E+04  0.7818609E-02  0.8080772E-01
        2   -1    0    0  501    0  0.00000000000E+00  0.00000000000E+00  0.28956482080E+04  0.28956482080E+04  0.25500000920E-02 0.  1.
       -2   -1    0    0    0  501  0.00000000000E+00  0.00000000000E+00 -0.11456438888E+04  0.11456438888E+04  0.25500000920E-02 0. -1.
    10030    2    1    2    0    0  0.00000000000E+00  0.00000000000E+00  0.17500043192E+04  0.40412920968E+04  0.36427361549E+04 0.  0.
        1    1    3    3  502    0 -0.14161612752E+04  0.10609786108E+04  0.39628989522E+03  0.18133488498E+04  0.50400001928E-02 0.  1.
       -1    1    3    3    0  502  0.14161612752E+04 -0.10609786108E+04  0.13537144240E+04  0.22279432470E+04  0.50400001928E-02 0. -1.
</event>
<event>
 5   0  0.6287345E-07  0.3821886E+04  0.7818609E-02  0.8041475E-01
       -1   -1    0    0    0  501  0.00000000000E+00  0.00000000000E+00  0.32474586371E+04  0.32474586371E+04  0.50400001928E-02 0.  1.
        1   -1    0    0  501    0  0.00000000000E+00  0.00000000000E+00 -0.11244801007E+04  0.11244801007E+04  0.50400001928E-02 0. -1.
    10030    2    1    2    0    0  0.00000000000E+00  0.00000000000E+00  0.21229785365E+04  0.43719387378E+04  0.38218857206E+04 0.  0.
        5    1    3    3  502    0  0.17553902739E+03 -0.13671608107E+04  0.25755069007E+04  0.29211642402E+04  0.46999998093E+01 0.  1.
       -5    1    3    3    0  502 -0.17553902739E+03  0.13671608107E+04 -0.45252836427E+03  0.14507744976E+04  0.46999998093E+01 0. -1.
</event>
<event>
 5   0  0.1680194E-06  0.1949668E+04  0.7818609E-02  0.8630521E-01
       -2   -1    0    0    0  501  0.00000000000E+00  0.00000000000E+00  0.53189766710E+03  0.53189766710E+03  0.25500000920E-02 0. -1.
        2   -1    0    0  501    0  0.00000000000E+00  0.00000000000E+00 -0.17866239485E+04  0.17866239485E+04  0.25500000920E-02 0.  1.
    10030    2    1    2    0    0  0.00000000000E+00  0.00000000000E+00 -0.12547262814E+04  0.23185216156E+04  0.19496677771E+04 0.  0.
        2    1    3    3  502    0  0.66616813192E+03 -0.64942664930E+02  0.21545460684E+03  0.70314878748E+03  0.25500000920E-02 0. -1.
       -2    1    3    3    0  502 -0.66616813192E+03  0.64942664930E+02 -0.14701808883E+04  0.16153728282E+04  0.25500000920E-02 0.  1.
</event>
<event>
 5   0  0.6186440E-07  0.3721249E+04  0.7818609E-02  0.8063269E-01
       -1   -1    0    0    0  501  0.00000000000E+00  0.00000000000E+00  0.14540781830E+04  0.14540781830E+04  0.50400001928E-02 0. -1.
        1   -1    0    0  501    0  0.00000000000E+00  0.00000000000E+00 -0.23808366643E+04  0.23808366643E+04  0.50400001928E-02 0.  1.
    10030    2    1    2    0    0  0.00000000000E+00  0.00000000000E+00 -0.92675848137E+03  0.38349148473E+04  0.37212485275E+04 0.  0.
        3    1    3    3  502    0  0.17392147626E+04 -0.61588283428E+03 -0.71101688428E+03  0.19773023735E+04  0.10100000352E+00 0. -1.
       -3    1    3    3    0  502 -0.17392147626E+04  0.61588283428E+03 -0.21574159709E+03  0.18576124739E+04  0.10100000352E+00 0.  1.
</event>
<event>
 5   0  0.1184684E-06  0.2525333E+04  0.7818609E-02  0.8394016E-01
        2   -1    0    0  501    0  0.00000000000E+00  0.00000000000E+00  0.22396858480E+04  0.22396858480E+04  0.25500000920E-02 0. -1.
       -2   -1    0    0    0  501  0.00000000000E+00  0.00000000000E+00 -0.71185267512E+03  0.71185267512E+03  0.25500000920E-02 0.  1.
    10030    2    1    2    0    0  0.00000000000E+00  0.00000000000E+00  0.15278331729E+04  0.29515385231E+04  0.25253327403E+04 0.  0.
        4    1    3    3  502    0  0.74322145717E+03  0.41406722100E+03 -0.32655153758E+03  0.91129979562E+03  0.12699999809E+01 0.  1.
       -4    1    3    3    0  502 -0.74322145717E+03 -0.41406722100E+03  0.18543847105E+04  0.20402387275E+04  0.12699999809E+01 0. -1.
</event>
<event>
 5   0  0.1685793E-06  0.3593828E+04  0.7818609E-02  0.8091907E-01
        2   -1    0    0  501    0  0.00000000000E+00  0.00000000000E+00  0.19034836907E+04  0.19034836907E+04  0.25500000920E-02 0.  1.
       -2   -1    0    0    0  501  0.00000000000E+00  0.00000000000E+00 -0.16963111917E+04  0.16963111917E+04  0.25500000920E-02 0. -1.
    10030    2    1    2    0    0  0.00000000000E+00  0.00000000000E+00  0.20717249906E+03  0.35997948824E+04  0.35938284254E+04 0.  0.
        3    1    3    3  502    0  0.59997468868E+03 -0.94872715746E+03 -0.13018996457E+04  0.17190100477E+04  0.10100000352E+00 0. -1.
       -3    1    3    3    0  502 -0.59997468868E+03  0.94872715746E+03  0.15090721447E+04  0.18807848347E+04  0.10100000352E+00 0.  1.
</event>
<event>
 5   0  0.5875011E-07  0.2892570E+04  0.7818609E-02  0.8275091E-01
        1   -1    0    0  501    0  0.00000000000E+00  0.00000000000E+00  0.12492034307E+04  0.12492034307E+04  0.50400001928E-02 0. -1.
       -1   -1    0    0    0  501  0.00000000000E+00  0.00000000000E+00 -0.16744595222E+04  0.16744595223E+04  0.50400001928E-02 0.  1.
    10030    2    1    2    0    0  0.00000000000E+00  0.00000000000E+00 -0.42525609157E+03  0.29236629529E+04  0.28925701926E+04 0.  0.
        2    1    3    3  502    0 -0.14127129753E+04 -0.15182299366E+03 -0.48559097734E+03  0.15015348046E+04  0.25500000920E-02 0.  1.
       -2    1    3    3    0  502  0.14127129753E+04  0.15182299366E+03  0.60334885774E+02  0.14221281484E+04  0.25500000920E-02 0. -1.
</event>
<event>
 5   0  0.1724503E-06  0.3607873E+04  0.7818609E-02  0.8088691E-01
       -2   -1    0    0    0  501  0.00000000000E+00  0.00000000000E+00  0.16363195678E+04  0.16363195678E+04  0.25500000920E-02 0.  1.
        2   -1    0    0  501    0  0.00000000000E+00  0.00000000000E+00 -0.19887235388E+04  0.19887235388E+04  0.25500000920E-02 0. -1.
    10030    2    1    2    0    0  0.00000000000E+00  0.00000000000E+00 -0.35240397097E+03  0.36250431066E+04  0.36078731915E+04 0.  0.
        1    1    3    3  502    0  0.73533257902E+03  0.15603745759E+04  0.35423505189E+03  0.17609557890E+04  0.50400001928E-02 0.  1.
       -1    1    3    3    0  502 -0.73533257902E+03 -0.15603745759E+04 -0.70663902286E+03  0.18640873176E+04  0.50400001928E-02 0. -1.
</event>
<event>
 5   0  0.6186440E-07  0.3745063E+04  0.7818609E-02  0.8058048E-01
        1   -1    0    0  501    0  0.00000000000E+00  0.00000000000E+00  0.25260014924E+04  0.25260014924E+04  0.50400001928E-02 0.  1.
       -1   -1    0    0    0  501  0.00000000000E+00  0.00000000000E+00 -0.13881125794E+04  0.13881125795E+04  0.50400001928E-02 0. -1.
    10030    2    1    2    0    0  0.00000000000E+00  0.00000000000E+00  0.11378889129E+04  0.39141140718E+04  0.37450631222E+04 0.  0.
        3    1    3    3  502    0  0.11062485912E+04  0.14636092351E+04  0.17727984523E+03  0.18431945346E+04  0.10100000352E+00 0. -1.
       -3    1    3    3    0  502 -0.11062485912E+04 -0.14636092351E+04  0.96060906772E+03  0.20709195373E+04  0.10100000352E+00 0.  1.
</event>
<event>
 5   0  0.6261598E-07  0.3310894E+04  0.7818609E-02  0.8160129E-01
       -1   -1    0    0    0  501  0.00000000000E+00  0.00000000000E+00  0.29209682772E+04  0.29209682772E+04  0.50400001928E-02 0. -1.
        1   -1    0    0  501    0  0.00000000000E+00  0.00000000000E+00 -0.93821776236E+03  0.93821776237E+03  0.50400001928E-02 0.  1.
    10030    2    1    2    0    0  0.00000000000E+00  0.00000000000E+00  0.19827505148E+04  0.38591860396E+04  0.33108937289E+04 0.  0.
        1    1    3    3  502    0 -0.10930455984E+04 -0.18687649314E+03  0.24240865324E+04  0.26656832183E+04  0.50400001928E-02 0. -1.
       -1    1    3    3    0  502  0.10930455984E+04  0.18687649314E+03 -0.44133601757E+03  0.11935028212E+04  0.50400001928E-02 0.  1.
</event>
<event>
 5   0  0.6261598E-07  0.3683854E+04  0.7818609E-02  0.8071549E-01
        1   -1    0    0  501    0  0.00000000000E+00  0.00000000000E+00  0.18005930192E+04  0.18005930192E+04  0.50400001928E-02 0.  1.
       -1   -1    0    0    0  501  0.00000000000E+00  0.00000000000E+00 -0.18842095137E+04  0.18842095137E+04  0.50400001928E-02 0. -1.
    10030    2    1    2    0    0  0.00000000000E+00  0.00000000000E+00 -0.83616494432E+02  0.36848025329E+04  0.36838536871E+04 0.  0.
        1    1    3    3  502    0  0.13457071124E+04  0.11196653214E+04 -0.61477026988E+03  0.18554030692E+04  0.50400001928E-02 0. -1.
       -1    1    3    3    0  502 -0.13457071124E+04 -0.11196653214E+04  0.53115377545E+03  0.18293994637E+04  0.50400001928E-02 0.  1.
</event>
<event>
 5   0  0.5679750E-07  0.3749318E+04  0.7818609E-02  0.8057119E-01
       -1   -1    0    0    0  501  0.00000000000E+00  0.00000000000E+00  0.12918226703E+04  0.12918226704E+04  0.50400001928E-02 0. -1.
        1   -1    0    0  501    0  0.00000000000E+00  0.00000000000E+00 -0.27204558607E+04  0.27204558607E+04  0.50400001928E-02 0.  1.
    10030    2    1    2    0    0  0.00000000000E+00  0.00000000000E+00 -0.14286331904E+04  0.40122785311E+04  0.37493181005E+04 0.  0.
        4    1    3    3  502    0 -0.13743072165E+04 -0.92769371553E+02  0.64648958955E+03  0.15216033924E+04  0.12699999809E+01 0. -1.
       -4    1    3    3    0  502  0.13743072165E+04  0.92769371553E+02 -0.20751227799E+04  0.24906751386E+04  0.12699999809E+01 0.  1.
</event>
<event>
 5   0  0.1724503E-06  0.3754415E+04  0.7818609E-02  0.8056009E-01
        2   -1    0    0  501    0  0.00000000000E+00  0.00000000000E+00  0.20843061412E+04  0.20843061412E+04  0.25500000920E-02 0.  1.
       -2   -1    0    0    0  501  0.00000000000E+00  0.00000000000E+00 -0.16906864106E+04  0.16906864106E+04  0.25500000920E-02 0. -1.
    10030    2    1    2    0    0  0.00000000000E+00  0.00000000000E+00  0.39361973065E+03  0.37749925518E+04  0.37544150375E+04 0.  0.
        1    1    3    3  502    0 -0.80205950458E+03 -0.96554337401E+03  0.16002878073E+04  0.20338373884E+04  0.50400001928E-02 0.  1.
       -1    1    3    3    0  502  0.80205950458E+03  0.96554337401E+03 -0.12066680767E+04  0.17411551635E+04  0.50400001928E-02 0. -1.
</event>
<event>
 5   0  0.7001292E-07  0.2041936E+04  0.7818609E-02  0.8587261E-01
       -1   -1    0    0    0  501  0.00000000000E+00  0.00000000000E+00  0.10151220389E+04  0.10151220389E+04  0.50400001928E-02 0. -1.
        1   -1    0    0  501    0  0.00000000000E+00  0.00000000000E+00 -0.10268478901E+04  0.10268478901E+04  0.50400001928E-02 0.  1.
    10030    2    1    2    0    0  0.00000000000E+00  0.00000000000E+00 -0.11725851255E+02  0.20419699290E+04  0.20419362613E+04 0.  0.
        5    1    3    3  502    0 -0.45131090013E+03  0.59761784696E+03 -0.69979454565E+03  0.10249698121E+04  0.46999998093E+01 0.  1.
       -5    1    3    3    0  502  0.45131090013E+03 -0.59761784696E+03  0.68806869439E+03  0.10170001169E+04  0.46999998093E+01 0. -1.
</event>
<event>
 5   0  0.1685793E-06  0.3376087E+04  0.7818609E-02  0.8143800E-01
        2   -1    0    0  501    0  0.00000000000E+00  0.00000000000E+00  0.17929429239E+04  0.17929429239E+04  0.25500000920E-02 0.  1.
       -2   -1    0    0    0  501  0.00000000000E+00  0.00000000000E+00 -0.15892811252E+04  0.15892811252E+04  0.25500000920E-02 0. -1.
    10030    2    1    2    0    0  0.00000000000E+00  0.00000000000E+00  0.20366179867E+03  0.33822240491E+04  0.33760866976E+04 0.  0.
        3    1    3    3  502    0 -0.47957364528E+03  0.32259137205E+03  0.16907261561E+04  0.17867879056E+04  0.10100000352E+00 0.  1.
       -3    1    3    3    0  502  0.47957364528E+03 -0.32259137205E+03 -0.14870643574E+04  0.15954361435E+04  0.10100000352E+00 0. -1.
</event>
<event>
 5   0  0.1685793E-06  0.3269660E+04  0.7818609E-02  0.8170659E-01
        2   -1    0    0  501    0  0.00000000000E+00  0.00000000000E+00  0.16729055884E+04  0.16729055884E+04  0.25500000920E-02 0. -1.
       -2   -1    0    0    0  501  0.00000000000E+00  0.00000000000E+00 -0.15976211729E+04  0.15976211729E+04  0.25500000920E-02 0.  1.
    10030    2    1    2    0    0  0.00000000000E+00  0.00000000000E+00  0.75284415458E+02  0.32705267613E+04  0.32696601586E+04 0.  0.
        3    1    3    3  502    0  0.11474090140E+04  0.83297825874E+03  0.85165710932E+03  0.16540012295E+04  0.10100000352E+00 0. -1.
       -3    1    3    3    0  502 -0.11474090140E+04 -0.83297825874E+03 -0.77637269387E+03  0.16165255318E+04  0.10100000352E+00 0.  1.
</event>
<event>
 5   0  0.1151180E-06  0.3691860E+04  0.7818609E-02  0.8069768E-01
        2   -1    0    0  501    0  0.00000000000E+00  0.00000000000E+00  0.15106498444E+04  0.15106498444E+04  0.25500000920E-02 0.  1.
       -2   -1    0    0    0  501  0.00000000000E+00  0.00000000000E+00 -0.22556241785E+04  0.22556241785E+04  0.25500000920E-02 0. -1.
    10030    2    1    2    0    0  0.00000000000E+00  0.00000000000E+00 -0.74497433409E+03  0.37662740229E+04  0.36918604060E+04 0.  0.
        5    1    3    3  502    0  0.11196976871E+04  0.28211675459E+03 -0.18416973991E+04  0.21737488755E+04  0.46999998093E+01 0. -1.
       -5    1    3    3    0  502 -0.11196976871E+04 -0.28211675459E+03  0.10967230650E+04  0.15925251474E+04  0.46999998093E+01 0.  1.
</event>
<event>
 5   0  0.5875011E-07  0.2873255E+04  0.7818609E-02  0.8280880E-01
        1   -1    0    0  501    0  0.00000000000E+00  0.00000000000E+00  0.15050117030E+04  0.15050117030E+04  0.50400001928E-02 0.  1.
       -1   -1    0    0    0  501  0.00000000000E+00  0.00000000000E+00 -0.13713507958E+04  0.13713507958E+04  0.50400001928E-02 0. -1.
    10030    2    1    2    0    0  0.00000000000E+00  0.00000000000E+00  0.13366090722E+03  0.28763624987E+04  0.28732552943E+04 0.  0.
        2    1    3    3  502    0  0.81035240601E+03 -0.65572397565E+03 -0.92280020239E+03  0.13921943714E+04  0.25500000920E-02 0. -1.
       -2    1    3    3    0  502 -0.81035240601E+03  0.65572397565E+03  0.10564611096E+04  0.14841681274E+04  0.25500000920E-02 0.  1.
</event>
<event>
 5   0  0.1680194E-06  0.1908291E+04  0.7818609E-02  0.8650740E-01
       -2   -1    0    0    0  501  0.00000000000E+00  0.00000000000E+00  0.44271915974E+03  0.44271915974E+03  0.25500000920E-02 0. -1.
        2   -1    0    0  501    0  0.00000000000E+00  0.00000000000E+00 -0.20563682109E+04  0.20563682109E+04  0.25500000920E-02 0.  1.
    10030    2    1    2    0    0  0.00000000000E+00  0.00000000000E+00 -0.16136490511E+04  0.24990873706E+04  0.19082909699E+04 0.  0.
        2    1    3    3  502    0  0.35557945030E+03  0.30902669643E+03  0.27979123419E+03  0.54792096083E+03  0.25500000920E-02 0. -1.
       -2    1    3    3    0  502 -0.35557945030E+03 -0.30902669643E+03 -0.18934402853E+04  0.19511664098E+04  0.25500000920E-02 0.  1.
</event>
<event>
 5   0  0.1685793E-06  0.2790974E+04  0.7818609E-02  0.8306076E-01
        2   -1    0    0  501    0  0.00000000000E+00  0.00000000000E+00  0.16680779288E+04  0.16680779288E+04  0.25500000920E-02 0.  1.
       -2   -1    0    0    0  501  0.00000000000E+00  0.00000000000E+00 -0.11674422163E+04  0.11674422163E+04  0.25500000920E-02 0. -1.
    10030    2    1    2    0    0  0.00000000000E+00  0.00000000000E+00  0.50063571249E+03  0.28355201451E+04  0.27909744493E+04 0.  0.
        3    1    3    3  502    0 -0.49761944189E+03 -0.23201237418E+03  0.15537322775E+04  0.16478892108E+04  0.10100000352E+00 0.  1.
       -3    1    3    3    0  502  0.49761944189E+03  0.23201237418E+03 -0.10530965650E+04  0.11876309343E+04  0.10100000352E+00 0. -1.
</event>
<event>
 5   0  0.5679750E-07  0.2112585E+04  0.7818609E-02  0.8555720E-01
       -1   -1    0    0    0  501  0.00000000000E+00  0.00000000000E+00  0.11166160976E+04  0.11166160976E+04  0.50400001928E-02 0.  1.
        1   -1    0    0  501    0  0.00000000000E+00  0.00000000000E+00 -0.99922815584E+03  0.99922815586E+03  0.50400001928E-02 0. -1.
    10030    2    1    2    0    0  0.00000000000E+00  0.00000000000E+00  0.11738794175E+03  0.21158442535E+04  0.21125853772E+04 0.  0.
        4    1    3    3  502    0 -0.30029570690E+02 -0.84069288747E+03 -0.58110781464E+03  0.10224256507E+04  0.12699999809E+01 0. -1.
       -4    1    3    3    0  502  0.30029570690E+02  0.84069288747E+03  0.69849575639E+03  0.10934186027E+04  0.12699999809E+01 0.  1.
</event>
<event>
 5   0  0.1685793E-06  0.3680989E+04  0.7818609E-02  0.8072188E-01
       -2   -1    0    0    0  501  0.00000000000E+00  0.00000000000E+00  0.15032146244E+04  0.15032146244E+04  0.25500000920E-02 0. -1.
        2   -1    0    0  501    0  0.00000000000E+00  0.00000000000E+00 -0.22534501330E+04  0.22534501331E+04  0.25500000920E-02 0.  1.
    10030    2    1    2    0    0  0.00000000000E+00  0.00000000000E+00 -0.75023550861E+03  0.37566647575E+04  0.36809885604E+04 0.  0.
        3    1    3    3  502    0  0.14301565116E+04 -0.56366787597E+03 -0.14080270173E+04  0.20846124852E+04  0.10100000352E+00 0.  1.
       -3    1    3    3    0  502 -0.14301565116E+04  0.56366787597E+03  0.65779150868E+03  0.16720522722E+04  0.10100000352E+00 0. -1.
</event>
<event>
 5   0  0.6287345E-07  0.3917363E+04  0.7818609E-02  0.8021428E-01
       -1   -1    0    0    0  501  0.00000000000E+00  0.00000000000E+00  0.23966356644E+04  0.23966356644E+04  0.50400001928E-02 0. -1.
        1   -1    0    0  501    0  0.00000000000E+00  0.00000000000E+00 -0.16007579803E+04  0.16007579803E+04  0.50400001928E-02 0.  1.
    10030    2    1    2    0    0  0.00000000000E+00  0.00000000000E+00  0.79587768416E+03  0.39973936447E+04  0.39173632283E+04 0.  0.
        5    1    3    3  502    0 -0.49691269233E+03 -0.29028388035E+03 -0.15125345878E+04  0.16183231829E+04  0.46999998093E+01 0.  1.
       -5    1    3    3    0  502  0.49691269233E+03  0.29028388035E+03  0.23084122719E+04  0.23790704618E+04  0.46999998093E+01 0. -1.
</event>
<event>
 5   0  0.5875011E-07  0.3648359E+04  0.7818609E-02  0.8079503E-01
        1   -1    0    0  501    0  0.00000000000E+00  0.00000000000E+00  0.21459391215E+04  0.21459391216E+04  0.50400001928E-02 0.  1.
       -1   -1    0    0    0  501  0.00000000000E+00  0.00000000000E+00 -0.15506644117E+04  0.15506644117E+04  0.50400001928E-02 0. -1.
    10030    2    1    2    0    0  0.00000000000E+00  0.00000000000E+00  0.59527470987E+03  0.36966035332E+04  0.36483593164E+04 0.  0.
        2    1    3    3  502    0  0.29477496663E+03 -0.10909056146E+04 -0.11533129320E+04  0.16146510645E+04  0.25500000920E-02 0. -1.
       -2    1    3    3    0  502 -0.29477496663E+03  0.10909056146E+04  0.17485876419E+04  0.20819524688E+04  0.25500000920E-02 0.  1.
</event>
<event>
 5   0  0.6287345E-07  0.3582096E+04  0.7818609E-02  0.8094605E-01
        1   -1    0    0  501    0  0.00000000000E+00  0.00000000000E+00  0.33048771219E+04  0.33048771219E+04  0.50400001928E-02 0.  1.
       -1   -1    0    0    0  501  0.00000000000E+00  0.00000000000E+00 -0.97064193737E+03  0.97064193738E+03  0.50400001928E-02 0. -1.
    10030    2    1    2    0    0  0.00000000000E+00  0.00000000000E+00  0.23342351846E+04  0.42755190593E+04  0.35820956617E+04 0.  0.
        5    1    3    3  502    0 -0.82988862811E+03  0.57450224064E+03 -0.59884185394E+03  0.11736275455E+04  0.46999998093E+01 0. -1.
       -5    1    3    3    0  502  0.82988862811E+03 -0.57450224064E+03  0.29330770385E+04  0.31018915138E+04  0.46999998093E+01 0.  1.
</event>
<event>
 5   0  0.9195191E-07  0.1823202E+04  0.7818609E-02  0.8694057E-01
        1   -1    0    0  501    0  0.00000000000E+00  0.00000000000E+00  0.16377911358E+04  0.16377911358E+04  0.50400001928E-02 0.  1.
       -1   -1    0    0    0  501  0.00000000000E+00  0.00000000000E+00 -0.50740082082E+03  0.50740082084E+03  0.50400001928E-02 0. -1.
    10030    2    1    2    0    0  0.00000000000E+00  0.00000000000E+00  0.11303903149E+04  0.21451919566E+04  0.18232022012E+04 0.  0.
        3    1    3    3  502    0  0.37294550726E+03 -0.49812058459E+03 -0.21864403137E+03  0.65955870916E+03  0.10100000352E+00 0. -1.
       -3    1    3    3    0  502 -0.37294550726E+03  0.49812058459E+03  0.13490343463E+04  0.14856332474E+04  0.10100000352E+00 0.  1.
</event>
<event>
 5   0  0.1680194E-06  0.3849346E+04  0.7818609E-02  0.8035647E-01
       -2   -1    0    0    0  501  0.00000000000E+00  0.00000000000E+00  0.30752204003E+04  0.30752204003E+04  0.25500000920E-02 0. -1.
        2   -1    0    0  501    0  0.00000000000E+00  0.00000000000E+00 -0.12045858470E+04  0.12045858470E+04  0.25500000920E-02 0.  1.
    10030    2    1    2    0    0  0.00000000000E+00  0.00000000000E+00  0.18706345533E+04  0.42798062472E+04  0.38493464227E+04 0.  0.
        2    1    3    3  502    0  0.16745731071E+04  0.84835872965E+03  0.46300764746E+03  0.19334641726E+04  0.25500000920E-02 0.  1.
       -2    1    3    3    0  502 -0.16745731071E+04 -0.84835872965E+03  0.14076269059E+04  0.23463420746E+04  0.25500000920E-02 0. -1.
</event>
<event>
 5   0  0.5679750E-07  0.3686754E+04  0.7818609E-02  0.8070904E-01
       -1   -1    0    0    0  501  0.00000000000E+00  0.00000000000E+00  0.12386129213E+04  0.12386129213E+04  0.50400001928E-02 0. -1.
        1   -1    0    0  501    0  0.00000000000E+00  0.00000000000E+00 -0.27434222974E+04  0.27434222974E+04  0.50400001928E-02 0.  1.
    10030    2    1    2    0    0  0.00000000000E+00  0.00000000000E+00 -0.15048093761E+04  0.39820352187E+04  0.36867537516E+04 0.  0.
        4    1    3    3  502    0  0.80814998073E+03 -0.72111077057E+03 -0.23634920794E+04  0.25998468334E+04  0.12699999809E+01 0.  1.
       -4    1    3    3    0  502 -0.80814998073E+03  0.72111077057E+03  0.85868270331E+03  0.13821883854E+04  0.12699999809E+01 0. -1.
</event>
<event>
 5   0  0.1151180E-06  0.3688545E+04  0.7818609E-02  0.8070505E-01
        2   -1    0    0  501    0  0.00000000000E+00  0.00000000000E+00  0.13179543284E+04  0.13179543284E+04  0.25500000920E-02 0.  1.
       -2   -1    0    0    0  501  0.00000000000E+00  0.00000000000E+00 -0.25807725960E+04  0.25807725960E+04  0.25500000920E-02 0. -1.
    10030    2    1    2    0    0  0.00000000000E+00  0.00000000000E+00 -0.12628182676E+04  0.38987269244E+04  0.36885446526E+04 0.  0.
        5    1    3    3  502    0 -0.12852583859E+04 -0.13085741559E+04 -0.83489646502E+03  0.20152740849E+04  0.46999998093E+01 0. -1.
       -5    1    3    3    0  502  0.12852583859E+04  0.13085741559E+04 -0.42792180261E+03  0.18834528396E+04  0.46999998093E+01 0.  1.
</event>
<event>
 5   0  0.1151180E-06  0.3724334E+04  0.7818609E-02  0.8062590E-01
       -2   -1    0    0    0  501  0.00000000000E+00  0.00000000000E+00  0.17405259451E+04  0.17405259451E+04  0.25500000920E-02 0.  1.
        2   -1    0    0  501    0  0.00000000000E+00  0.00000000000E+00 -0.19923093227E+04  0.19923093227E+04  0.25500000920E-02 0. -1.
    10030    2    1    2    0    0  0.00000000000E+00  0.00000000000E+00 -0.25178337754E+03  0.37328352678E+04  0.37243340704E+04 0.  0.
        5    1    3    3  502    0  0.12682949866E+04  0.83555943219E+03 -0.12058074746E+04  0.19392590064E+04  0.46999998093E+01 0. -1.
       -5    1    3    3    0  502 -0.12682949866E+04 -0.83555943219E+03  0.95402409711E+03  0.17935762615E+04  0.46999998093E+01 0.  1.
</event>
<event>
 5   0  0.1184684E-06  0.3688799E+04  0.7818609E-02  0.8070449E-01
        2   -1    0    0  501    0  0.00000000000E+00  0.00000000000E+00  0.22948935493E+04  0.22948935493E+04  0.25500000920E-02 0.  1.
       -2   -1    0    0    0  501  0.00000000000E+00  0.00000000000E+00 -0.14823383735E+04  0.14823383735E+04  0.25500000920E-02 0. -1.
    10030    2    1    2    0    0  0.00000000000E+00  0.00000000000E+00  0.81255517581E+03  0.37772319228E+04  0.36887985964E+04 0.  0.
        4    1    3    3  502    0  0.49525649326E+03 -0.33528609122E+03  0.21928432324E+04  0.22729405650E+04  0.12699999809E+01 0.  1.
       -4    1    3    3    0  502 -0.49525649326E+03  0.33528609122E+03 -0.13802880566E+04  0.15042913578E+04  0.12699999809E+01 0. -1.
</event>
<event>
 5   0  0.1151180E-06  0.2396135E+04  0.7818609E-02  0.8440952E-01
       -2   -1    0    0    0  501  0.00000000000E+00  0.00000000000E+00  0.93502945932E+03  0.93502945933E+03  0.25500000920E-02 0. -1.
        2   -1    0    0  501    0  0.00000000000E+00  0.00000000000E+00 -0.15351019739E+04  0.15351019739E+04  0.25500000920E-02 0.  1.
    10030    2    1    2    0    0  0.00000000000E+00  0.00000000000E+00 -0.60007251454E+03  0.24701314332E+04  0.23961348615E+04 0.  0.
        5    1    3    3  502    0  0.27384287751E+03 -0.11576972536E+04 -0.15391764463E+03  0.11995689158E+04  0.46999998093E+01 0.  1.
       -5    1    3    3    0  502 -0.27384287751E+03  0.11576972536E+04 -0.44615486991E+03  0.12705625173E+04  0.46999998093E+01 0. -1.
</event>
<event>
 5   0  0.9489458E-07  0.1844487E+04  0.7818609E-02  0.8682993E-01
       -1   -1    0    0    0  501  0.00000000000E+00  0.00000000000E+00  0.90134570079E+03  0.90134570080E+03  0.50400001928E-02 0. -1.
        1   -1    0    0  501    0  0.00000000000E+00  0.00000000000E+00 -0.94362593424E+03  0.94362593425E+03  0.50400001928E-02 0.  1.
    10030    2    1    2    0    0  0.00000000000E+00  0.00000000000E+00 -0.42280233451E+02  0.18449716351E+04  0.18444871146E+04 0.  0.
        1    1    3    3  502    0 -0.12295202304E+03 -0.34515288621E+03 -0.86769893306E+03  0.94188595556E+03  0.50400001928E-02 0.  1.
       -1    1    3    3    0  502  0.12295202304E+03  0.34515288621E+03  0.82541869961E+03  0.90308567950E+03  0.50400001928E-02 0. -1.
</event>
<event>
 5   0  0.1151180E-06  0.3592001E+04  0.7818609E-02  0.8092326E-01
        2   -1    0    0  501    0  0.00000000000E+00  0.00000000000E+00  0.20913866780E+04  0.20913866780E+04  0.25500000920E-02 0. -1.
       -2   -1    0    0    0  501  0.00000000000E+00  0.00000000000E+00 -0.15423342917E+04  0.15423342917E+04  0.25500000920E-02 0.  1.
    10030    2    1    2    0    0  0.00000000000E+00  0.00000000000E+00  0.54905238631E+03  0.36337209697E+04  0.35920007743E+04 0.  0.
        5    1    3    3  502    0  0.39864046429E+03  0.26772209942E+02 -0.14968006433E+04  0.15492143902E+04  0.46999998093E+01 0.  1.
       -5    1    3    3    0  502 -0.39864046429E+03 -0.26772209942E+02  0.20458530297E+04  0.20845065795E+04  0.46999998093E+01 0. -1.
</event>
<event>
 5   0  0.1724503E-06  0.3661957E+04  0.7818609E-02  0.8076445E-01
       -2   -1    0    0    0  501  0.00000000000E+00  0.00000000000E+00  0.12758663547E+04  0.12758663547E+04  0.25500000920E-02 0. -1.
        2   -1    0    0  501    0  0.00000000000E+00  0.00000000000E+00 -0.26276128074E+04  0.26276128074E+04  0.25500000920E-02 0.  1.
    10030    2    1    2    0    0  0.00000000000E+00  0.00000000000E+00 -0.13517464528E+04  0.39034791621E+04  0.36619572767E+04 0.  0.
        1    1    3    3  502    0 -0.45685546974E+03  0.17095287739E+04 -0.11772993431E+04  0.21253797995E+04  0.50400001928E-02 0. -1.
       -1    1    3    3    0  502  0.45685546974E+03 -0.17095287739E+04 -0.17444710970E+03  0.17780993626E+04  0.50400001928E-02 0.  1.
</event>
<event>
 5   0  0.6186440E-07  0.2253261E+04  0.7818609E-02  0.8496581E-01
       -1   -1    0    0    0  501  0.00000000000E+00  0.00000000000E+00  0.65933545980E+03  0.65933545982E+03  0.50400001928E-02 0. -1.
        1   -1    0    0  501    0  0.00000000000E+00  0.00000000000E+00 -0.19251138394E+04  0.19251138394E+04  0.50400001928E-02 0.  1.
    10030    2    1    2    0    0  0.00000000000E+00  0.00000000000E+00 -0.12657783796E+04  0.25844492992E+04  0.22532605872E+04 0.  0.
        3    1    3    3  502    0  0.10392318639E+04  0.43372351454E+03 -0.67223676330E+03  0.13114957987E+04  0.10100000352E+00 0. -1.
       -3    1    3    3    0  502 -0.10392318639E+04 -0.43372351454E+03 -0.59354161632E+03  0.12729535005E+04  0.10100000352E+00 0.  1.
</event>
<event>
 5   0  0.5875011E-07  0.3673814E+04  0.7818609E-02  0.8073790E-01
        1   -1    0    0  501    0  0.00000000000E+00  0.00000000000E+00  0.14574807837E+04  0.14574807837E+04  0.50400001928E-02 0.  1.
       -1   -1    0    0    0  501  0.00000000000E+00  0.00000000000E+00 -0.23151096744E+04  0.23151096744E+04  0.50400001928E-02 0. -1.
    10030    2    1    2    0    0  0.00000000000E+00  0.00000000000E+00 -0.85762889067E+03  0.37725904581E+04  0.36738142918E+04 0.  0.
        2    1    3    3  502    0  0.83868688705E+03 -0.15186056317E+04 -0.10489290321E+04  0.20272668482E+04  0.25500000920E-02 0. -1.
       -2    1    3    3    0  502 -0.83868688705E+03  0.15186056317E+04  0.19130014145E+03  0.17453236099E+04  0.25500000920E-02 0.  1.
</event>
<event>
 5   0  0.6261598E-07  0.2502804E+04  0.7818609E-02  0.8401987E-01
       -1   -1    0    0    0  501  0.00000000000E+00  0.00000000000E+00  0.21125285117E+04  0.21125285117E+04  0.50400001928E-02 0. -1.
        1   -1    0    0  501    0  0.00000000000E+00  0.00000000000E+00 -0.74129526534E+03  0.74129526536E+03  0.50400001928E-02 0.  1.
    10030    2    1    2    0    0  0.00000000000E+00  0.00000000000E+00  0.13712332464E+04  0.28538237771E+04  0.25028043341E+04 0.  0.
        1    1    3    3  502    0 -0.13705689399E+03  0.29305541393E+03 -0.69278598179E+03  0.76460348182E+03  0.50400001928E-02 0.  1.
       -1    1    3    3    0  502  0.13705689399E+03 -0.29305541393E+03  0.20640192282E+04  0.20892202952E+04  0.50400001928E-02 0. -1.
</event>
<event>
 5   0  0.1184684E-06  0.3774271E+04  0.7818609E-02  0.8051699E-01
       -2   -1    0    0    0  501  0.00000000000E+00  0.00000000000E+00  0.19038964999E+04  0.19038964999E+04  0.25500000920E-02 0. -1.
        2   -1    0    0  501    0  0.00000000000E+00  0.00000000000E+00 -0.18705217275E+04  0.18705217275E+04  0.25500000920E-02 0.  1.
    10030    2    1    2    0    0  0.00000000000E+00  0.00000000000E+00  0.33374772461E+02  0.37744182274E+04  0.37742706686E+04 0.  0.
        4    1    3    3  502    0  0.83875585689E+03  0.15977160861E+04  0.56904047273E+03  0.18920932197E+04  0.12699999809E+01 0. -1.
       -4    1    3    3    0  502 -0.83875585689E+03 -0.15977160861E+04 -0.53566570026E+03  0.18823250077E+04  0.12699999809E+01 0.  1.
</event>
<event>
 5   0  0.5679750E-07  0.3702439E+04  0.7818609E-02  0.8067421E-01
        1   -1    0    0  501    0  0.00000000000E+00  0.00000000000E+00  0.21774466433E+04  0.21774466433E+04  0.50400001928E-02 0.  1.
       -1   -1    0    0    0  501  0.00000000000E+00  0.00000000000E+00 -0.15738682062E+04  0.15738682062E+04  0.50400001928E-02 0. -1.
    10030    2    1    2    0    0  0.00000000000E+00  0.00000000000E+00  0.60357843703E+03  0.37513148495E+04  0.37024392190E+04 0.  0.
        4    1    3    3  502    0  0.34123835402E+03  0.23451829835E+03 -0.15263492877E+04  0.15815138973E+04  0.12699999809E+01 0. -1.
       -4    1    3    3    0  502 -0.34123835402E+03 -0.23451829835E+03  0.21299277247E+04  0.21698009522E+04  0.12699999809E+01 0.  1.
</event>
<event>
 5   0  0.1724503E-06  0.1845366E+04  0.7818609E-02  0.8682540E-01
        2   -1    0    0  501    0  0.00000000000E+00  0.00000000000E+00  0.77807160284E+03  0.77807160284E+03  0.25500000920E-02 0. -1.
       -2   -1    0    0    0  501  0.00000000000E+00  0.00000000000E+00 -0.10941714632E+04  0.10941714632E+04  0.25500000920E-02 0.  1.
    10030    2    1    2    0    0  0.00000000000E+00  0.00000000000E+00 -0.31609986034E+03  0.18722430660E+04  0.18453658110E+04 0.  0.
        1    1    3    3  502    0  0.21472344994E+03 -0.43701548918E+03 -0.95320920169E+03  0.10703721222E+04  0.50400001928E-02 0.  1.
       -1    1    3    3    0  502 -0.21472344994E+03  0.43701548918E+03  0.63710934134E+03  0.80187094385E+03  0.50400001928E-02 0. -1.
</event>
<event>
 5   0  0.1685793E-06  0.1995141E+04  0.7818609E-02  0.8608896E-01
        2   -1    0    0  501    0  0.00000000000E+00  0.00000000000E+00  0.64722919450E+03  0.64722919451E+03  0.25500000920E-02 0. -1.
       -2   -1    0    0    0  501  0.00000000000E+00  0.00000000000E+00 -0.15375493678E+04  0.15375493678E+04  0.25500000920E-02 0.  1.
    10030    2    1    2    0    0  0.00000000000E+00  0.00000000000E+00 -0.89032017329E+03  0.21847785623E+04  0.19951409362E+04 0.  0.
        3    1    3    3  502    0 -0.52546589999E+02  0.92009158864E+03 -0.86331591410E+03  0.12627921655E+04  0.10100000352E+00 0.  1.
       -3    1    3    3    0  502  0.52546589999E+02 -0.92009158864E+03 -0.27004259192E+02  0.92198639677E+03  0.10100000352E+00 0. -1.
</event>
<event>
 5   0  0.1184684E-06  0.3682941E+04  0.7818609E-02  0.8071753E-01
        2   -1    0    0  501    0  0.00000000000E+00  0.00000000000E+00  0.27718948255E+04  0.27718948255E+04  0.25500000920E-02 0.  1.
       -2   -1    0    0    0  501  0.00000000000E+00  0.00000000000E+00 -0.12233555635E+04  0.12233555635E+04  0.25500000920E-02 0. -1.
    10030    2    1    2    0    0  0.00000000000E+00  0.00000000000E+00  0.15485392620E+04  0.39952503890E+04  0.36829406491E+04 0.  0.
        4    1    3    3  502    0  0.14251697074E+04 -0.11317040414E+04  0.46907918667E+03  0.18793348899E+04  0.12699999809E+01 0.  1.
       -4    1    3    3    0  502 -0.14251697074E+04  0.11317040414E+04  0.10794600753E+04  0.21159154991E+04  0.12699999809E+01 0. -1.
</event>
<event>
 5   0  0.6261598E-07  0.3723075E+04  0.7818609E-02  0.8062867E-01
        1   -1    0    0  501    0  0.00000000000E+00  0.00000000000E+00  0.16368386671E+04  0.16368386671E+04  0.50400001928E-02 0.  1.
       -1   -1    0    0    0  501  0.00000000000E+00  0.00000000000E+00 -0.21170825230E+04  0.21170825230E+04  0.50400001928E-02 0. -1.
    10030    2    1    2    0    0  0.00000000000E+00  0.00000000000E+00 -0.48024385592E+03  0.37539211901E+04  0.37230753605E+04 0.  0.
        1    1    3    3  502    0 -0.15032822117E+03 -0.10579840546E+04 -0.17770188030E+04  0.20735777439E+04  0.50400001928E-02 0. -1.
       -1    1    3    3    0  502  0.15032822117E+03  0.10579840546E+04  0.12967749470E+04  0.16803434462E+04  0.50400001928E-02 0.  1.
</event>
<event>
 5   0  0.1184684E-06  0.1985638E+04  0.7818609E-02  0.8613365E-01
        2   -1    0    0  501    0  0.00000000000E+00  0.00000000000E+00  0.14486700076E+04  0.14486700076E+04  0.25500000920E-02 0.  1.
       -2   -1    0    0    0  501  0.00000000000E+00  0.00000000000E+00 -0.68040971849E+03  0.68040971849E+03  0.25500000920E-02 0. -1.
    10030    2    1    2    0    0  0.00000000000E+00  0.00000000000E+00  0.76826028914E+03  0.21290797261E+04  0.19856375823E+04 0.  0.
        4    1    3    3  502    0 -0.38163573003E+03  0.46218003038E+03 -0.46451997115E+03  0.75831169542E+03  0.12699999809E+01 0. -1.
       -4    1    3    3    0  502  0.38163573003E+03 -0.46218003038E+03  0.12327802603E+04  0.13707680307E+04  0.12699999809E+01 0.  1.
</event>
<event>
 5   0  0.6186440E-07  0.2743150E+04  0.7818609E-02  0.8321138E-01
        1   -1    0    0  501    0  0.00000000000E+00  0.00000000000E+00  0.14458432737E+04  0.14458432737E+04  0.50400001928E-02 0. -1.
       -1   -1    0    0    0  501  0.00000000000E+00  0.00000000000E+00 -0.13011221202E+04  0.13011221202E+04  0.50400001928E-02 0.  1.
    10030    2    1    2    0    0  0.00000000000E+00  0.00000000000E+00  0.14472115352E+03  0.27469653939E+04  0.27431504996E+04 0.  0.
        3    1    3    3  502    0 -0.59335845621E+03  0.26338506798E+03  0.12822513709E+04  0.14372245962E+04  0.10100000352E+00 0. -1.
       -3    1    3    3    0  502  0.59335845621E+03 -0.26338506798E+03 -0.11375302174E+04  0.13097407977E+04  0.10100000352E+00 0.  1.
</event>
<event>
 5   0  0.1724503E-06  0.2530793E+04  0.7818609E-02  0.8392097E-01
        2   -1    0    0  501    0  0.00000000000E+00  0.00000000000E+00  0.13072020204E+04  0.13072020204E+04  0.25500000920E-02 0.  1.
       -2   -1    0    0    0  501  0.00000000000E+00  0.00000000000E+00 -0.12249282692E+04  0.12249282692E+04  0.25500000920E-02 0. -1.
    10030    2    1    2    0    0  0.00000000000E+00  0.00000000000E+00  0.82273751210E+02  0.25321302896E+04  0.25307933210E+04 0.  0.
        1    1    3    3  502    0 -0.91954209070E+03  0.77575843543E+03  0.43360664191E+03  0.12788172374E+04  0.50400001928E-02 0.  1.
       -1    1    3    3    0  502  0.91954209070E+03 -0.77575843543E+03 -0.35133289070E+03  0.12533130522E+04  0.50400001928E-02 0. -1.
</event>
<event>
 5   0  0.1151180E-06  0.2520041E+04  0.7818609E-02  0.8395880E-01
       -2   -1    0    0    0  501  0.00000000000E+00  0.00000000000E+00  0.77018725247E+03  0.77018725248E+03  0.25500000920E-02 0.  1.
        2   -1    0    0  501    0  0.00000000000E+00  0.00000000000E+00 -0.20613845492E+04  0.20613845492E+04  0.25500000920E-02 0. -1.
    10030    2    1    2    0    0  0.00000000000E+00  0.00000000000E+00 -0.12911972967E+04  0.28315718017E+04  0.25200413506E+04 0.  0.
        5    1    3    3  502    0  0.76177954003E+03 -0.97838584227E+03 -0.89705665131E+03  0.15304507995E+04  0.46999998093E+01 0. -1.
       -5    1    3    3    0  502 -0.76177954003E+03  0.97838584227E+03 -0.39414064540E+03  0.13011210022E+04  0.46999998093E+01 0.  1.
</event>
<event>
 5   0  0.1151180E-06  0.4139219E+04  0.7818609E-02  0.7977036E-01
       -2   -1    0    0    0  501  0.00000000000E+00  0.00000000000E+00  0.26919702661E+04  0.26919702661E+04  0.25500000920E-02 0.  1.
        2   -1    0    0  501    0  0.00000000000E+00  0.00000000000E+00 -0.15911329661E+04  0.15911329661E+04  0.25500000920E-02 0. -1.
    10030    2    1    2    0    0  0.00000000000E+00  0.00000000000E+00  0.11008373000E+04  0.42831032322E+04  0.41392185901E+04 0.  0.
        5    1    3    3  502    0  0.42073549224E+03  0.91437269728E+03  0.24216392813E+04  0.26224901683E+04  0.46999998093E+01 0.  1.
       -5    1    3    3    0  502 -0.42073549224E+03 -0.91437269728E+03 -0.13208019813E+04  0.16606130638E+04  0.46999998093E+01 0. -1.
</event>
<event>
 5   0  0.6261598E-07  0.3731702E+04  0.7818609E-02  0.8060972E-01
        1   -1    0    0  501    0  0.00000000000E+00  0.00000000000E+00  0.21133803827E+04  0.21133803828E+04  0.50400001928E-02 0. -1.
       -1   -1    0    0    0  501  0.00000000000E+00  0.00000000000E+00 -0.16473131688E+04  0.16473131688E+04  0.50400001928E-02 0.  1.
    10030    2    1    2    0    0  0.00000000000E+00  0.00000000000E+00  0.46606721395E+03  0.37606935516E+04  0.37317016682E+04 0.  0.
        1    1    3    3  502    0 -0.18276415063E+04  0.35050107084E+03  0.96798811252E+02  0.18634630359E+04  0.50400001928E-02 0. -1.
       -1    1    3    3    0  502  0.18276415063E+04 -0.35050107084E+03  0.36926840270E+03  0.18972305157E+04  0.50400001928E-02 0.  1.
</event>
<event>
 5   0  0.6261598E-07  0.3803863E+04  0.7818609E-02  0.8045326E-01
       -1   -1    0    0    0  501  0.00000000000E+00  0.00000000000E+00  0.14989313190E+04  0.14989313190E+04  0.50400001928E-02 0. -1.
        1   -1    0    0  501    0  0.00000000000E+00  0.00000000000E+00 -0.24132822064E+04  0.24132822064E+04  0.50400001928E-02 0.  1.
    10030    2    1    2    0    0  0.00000000000E+00  0.00000000000E+00 -0.91435088742E+03  0.39122135254E+04  0.38038634470E+04 0.  0.
        1    1    3    3  502    0  0.85642182874E+03  0.24958779338E+03  0.12704306589E+04  0.15523358124E+04  0.50400001928E-02 0. -1.
       -1    1    3    3    0  502 -0.85642182874E+03 -0.24958779338E+03 -0.21847815463E+04  0.23598777130E+04  0.50400001928E-02 0.  1.
</event>
<event>
 5   0  0.6287345E-07  0.3045932E+04  0.7818609E-02  0.8230735E-01
       -1   -1    0    0    0  501  0.00000000000E+00  0.00000000000E+00  0.76083082782E+03  0.76083082784E+03  0.50400001928E-02 0. -1.
        1   -1    0    0  501    0  0.00000000000E+00  0.00000000000E+00 -0.30485429621E+04  0.30485429621E+04  0.50400001928E-02 0.  1.
    10030    2    1    2    0    0  0.00000000000E+00  0.00000000000E+00 -0.22877121343E+04  0.38093737899E+04  0.30459320186E+04 0.  0.
        5    1    3    3  502    0  0.86580436196E+03  0.83738951695E+03  0.21703679559E+02  0.12047122212E+04  0.46999998093E+01 0. -1.
       -5    1    3    3    0  502 -0.86580436196E+03 -0.83738951695E+03 -0.23094158138E+04  0.26046615687E+04  0.46999998093E+01 0.  1.
</event>
<event>
 5   0  0.6287345E-07  0.3605897E+04  0.7818609E-02  0.8089142E-01
       -1   -1    0    0    0  501  0.00000000000E+00  0.00000000000E+00  0.14962044961E+04  0.14962044961E+04  0.50400001928E-02 0.  1.
        1   -1    0    0  501    0  0.00000000000E+00  0.00000000000E+00 -0.21725799883E+04  0.21725799884E+04  0.50400001928E-02 0. -1.
    10030    2    1    2    0    0  0.00000000000E+00  0.00000000000E+00 -0.67637549221E+03  0.36687844845E+04  0.36058973623E+04 0.  0.
        5    1    3    3  502    0 -0.13282845886E+04  0.62727003121E+03  0.72541153172E+03  0.16383075477E+04  0.46999998093E+01 0.  1.
       -5    1    3    3    0  502  0.13282845886E+04 -0.62727003121E+03 -0.14017870239E+04  0.20304769368E+04  0.46999998093E+01 0. -1.
</event>
<event>
 5   0  0.5679750E-07  0.3601730E+04  0.7818609E-02  0.8090096E-01
        1   -1    0    0  501    0  0.00000000000E+00  0.00000000000E+00  0.16057209133E+04  0.16057209133E+04  0.50400001928E-02 0.  1.
       -1   -1    0    0    0  501  0.00000000000E+00  0.00000000000E+00 -0.20197251276E+04  0.20197251276E+04  0.50400001928E-02 0. -1.
    10030    2    1    2    0    0  0.00000000000E+00  0.00000000000E+00 -0.41400421438E+03  0.36254460409E+04  0.36017300712E+04 0.  0.
        4    1    3    3  502    0 -0.43552656760E+03  0.10193049204E+04 -0.16356599991E+04  0.19758671913E+04  0.12699999809E+01 0. -1.
       -4    1    3    3    0  502  0.43552656760E+03 -0.10193049204E+04  0.12216557848E+04  0.16495788496E+04  0.12699999809E+01 0.  1.
</event>
<event>
 5   0  0.1151180E-06  0.3650766E+04  0.7818609E-02  0.8078961E-01
        2   -1    0    0  501    0  0.00000000000E+00  0.00000000000E+00  0.19594169342E+04  0.19594169342E+04  0.25500000920E-02 0. -1.
       -2   -1    0    0    0  501  0.00000000000E+00  0.00000000000E+00 -0.17005179799E+04  0.17005179799E+04  0.25500000920E-02 0.  1.
    10030    2    1    2    0    0  0.00000000000E+00  0.00000000000E+00  0.25889895427E+03  0.36599349141E+04  0.36507663451E+04 0.  0.
        5    1    3    3  502    0  0.76551658036E+03 -0.67183092888E+03  0.16480571237E+04  0.19373917531E+04  0.46999998093E+01 0. -1.
       -5    1    3    3    0  502 -0.76551658036E+03  0.67183092888E+03 -0.13891581694E+04  0.17225431610E+04  0.46999998093E+01 0.  1.
</event>
<event>
 5   0  0.6186440E-07  0.3668330E+04  0.7818609E-02  0.8075017E-01
       -1   -1    0    0    0  501  0.00000000000E+00  0.00000000000E+00  0.18145769192E+04  0.18145769192E+04  0.50400001928E-02 0. -1.
        1   -1    0    0  501    0  0.00000000000E+00  0.00000000000E+00 -0.18539642354E+04  0.18539642354E+04  0.50400001928E-02 0.  1.
    10030    2    1    2    0    0  0.00000000000E+00  0.00000000000E+00 -0.39387316212E+02  0.36685411545E+04  0.36683297074E+04 0.  0.
        3    1    3    3  502    0  0.10163054204E+04 -0.14325695402E+04  0.50856827799E+03  0.18285988895E+04  0.10100000352E+00 0. -1.
       -3    1    3    3    0  502 -0.10163054204E+04  0.14325695402E+04 -0.54795559420E+03  0.18399422650E+04  0.10100000352E+00 0.  1.
</event>
<event>
 5   0  0.1151180E-06  0.2223357E+04  0.7818609E-02  0.8508769E-01
       -2   -1    0    0    0  501  0.00000000000E+00  0.00000000000E+00  0.79984441120E+03  0.79984441121E+03  0.25500000920E-02 0.  1.
        2   -1    0    0  501    0  0.00000000000E+00  0.00000000000E+00 -0.15450874705E+04  0.15450874705E+04  0.25500000920E-02 0. -1.
    10030    2    1    2    0    0  0.00000000000E+00  0.00000000000E+00 -0.74524305934E+03  0.23449318818E+04  0.22233574415E+04 0.  0.
        5    1    3    3  502    0 -0.49955839618E+03  0.80244548630E+02 -0.14166006490E+04  0.15042530596E+04  0.46999998093E+01 0. -1.
       -5    1    3    3    0  502  0.49955839618E+03 -0.80244548630E+02  0.67135758964E+03  0.84067882211E+03  0.46999998093E+01 0.  1.
</event>
<event>
 5   0  0.6186440E-07  0.1993688E+04  0.7818609E-02  0.8609577E-01
        1   -1    0    0  501    0  0.00000000000E+00  0.00000000000E+00  0.72992688742E+03  0.72992688744E+03  0.50400001928E-02 0.  1.
       -1   -1    0    0    0  501  0.00000000000E+00  0.00000000000E+00 -0.13613665136E+04  0.13613665136E+04  0.50400001928E-02 0. -1.
    10030    2    1    2    0    0  0.00000000000E+00  0.00000000000E+00 -0.63143962613E+03  0.20912934010E+04  0.19936880618E+04 0.  0.
        3    1    3    3  502    0  0.31303269877E+03  0.58821488398E+03  0.46200380007E+03  0.81082287938E+03  0.10100000352E+00 0.  1.
       -3    1    3    3    0  502 -0.31303269877E+03 -0.58821488398E+03 -0.10934434262E+04  0.12804705216E+04  0.10100000352E+00 0. -1.
</event>
<event>
 5   0  0.1724503E-06  0.3224231E+04  0.7818609E-02  0.8182447E-01
       -2   -1    0    0    0  501  0.00000000000E+00  0.00000000000E+00  0.14231993321E+04  0.14231993321E+04  0.25500000920E-02 0.  1.
        2   -1    0    0  501    0  0.00000000000E+00  0.00000000000E+00 -0.18261089218E+04  0.18261089218E+04  0.25500000920E-02 0. -1.
    10030    2    1    2    0    0  0.00000000000E+00  0.00000000000E+00 -0.40290958970E+03  0.32493082539E+04  0.32242313800E+04 0.  0.
        1    1    3    3  502    0 -0.40245236347E+03 -0.38849388894E+03 -0.17251737747E+04  0.18135931075E+04  0.50400001928E-02 0. -1.
       -1    1    3    3    0  502  0.40245236347E+03  0.38849388894E+03  0.13222641850E+04  0.14357151464E+04  0.50400001928E-02 0.  1.
</event>
<event>
 5   0  0.5679750E-07  0.2715459E+04  0.7818609E-02  0.8330006E-01
       -1   -1    0    0    0  501  0.00000000000E+00  0.00000000000E+00  0.94897514617E+03  0.94897514619E+03  0.50400001928E-02 0.  1.
        1   -1    0    0  501    0  0.00000000000E+00  0.00000000000E+00 -0.19425480230E+04  0.19425480230E+04  0.50400001928E-02 0. -1.
    10030    2    1    2    0    0  0.00000000000E+00  0.00000000000E+00 -0.99357287678E+03  0.28915231691E+04  0.27154592938E+04 0.  0.
        4    1    3    3  502    0 -0.11201542468E+04  0.28586399838E+03  0.26139320468E+03  0.11852391246E+04  0.12699999809E+01 0.  1.
       -4    1    3    3    0  502  0.11201542468E+04 -0.28586399838E+03 -0.12549660815E+04  0.17062840445E+04  0.12699999809E+01 0. -1.
</event>
<event>
 5   0  0.1184684E-06  0.3916510E+04  0.7818609E-02  0.8021604E-01
       -2   -1    0    0    0  501  0.00000000000E+00  0.00000000000E+00  0.21714764940E+04  0.21714764940E+04  0.25500000920E-02 0. -1.
        2   -1    0    0  501    0  0.00000000000E+00  0.00000000000E+00 -0.17659702224E+04  0.17659702224E+04  0.25500000920E-02 0.  1.
    10030    2    1    2    0    0  0.00000000000E+00  0.00000000000E+00  0.40550627162E+03  0.39374467164E+04  0.39165100929E+04 0.  0.
        4    1    3    3  502    0 -0.72413744958E+03  0.14476675506E+04  0.13107539840E+04  0.20828331672E+04  0.12699999809E+01 0. -1.
       -4    1    3    3    0  502  0.72413744958E+03 -0.14476675506E+04 -0.90524771242E+03  0.18546135491E+04  0.12699999809E+01 0.  1.
</event>
<event>
 5   0  0.1724503E-06  0.3683568E+04  0.7818609E-02  0.8071613E-01
        2   -1    0    0  501    0  0.00000000000E+00  0.00000000000E+00  0.13851027112E+04  0.13851027112E+04  0.25500000920E-02 0. -1.
       -2   -1    0    0    0  501  0.00000000000E+00  0.00000000000E+00 -0.24490378655E+04  0.24490378655E+04  0.25500000920E-02 0.  1.
    10030    2    1    2    0    0  0.00000000000E+00  0.00000000000E+00 -0.10639351543E+04  0.38341405767E+04  0.36835683718E+04 0.  0.
        1    1    3    3  502    0  0.88282593945E+03 -0.66833683585E+03 -0.20639009360E+04  0.23421662706E+04  0.50400001928E-02 0.  1.
       -1    1    3    3    0  502 -0.88282593945E+03  0.66833683585E+03  0.99996578172E+03  0.14919743061E+04  0.50400001928E-02 0. -1.
</event>
<event>
 5   0  0.6261598E-07  0.1843859E+04  0.7818609E-02  0.8683317E-01
        1   -1    0    0  501    0  0.00000000000E+00  0.00000000000E+00  0.10258935980E+04  0.10258935980E+04  0.50400001928E-02 0.  1.
       -1   -1    0    0    0  501  0.00000000000E+00  0.00000000000E+00 -0.82850122280E+03  0.82850122281E+03  0.50400001928E-02 0. -1.
    10030    2    1    2    0    0  0.00000000000E+00  0.00000000000E+00  0.19739237523E+03  0.18543948208E+04  0.18438591057E+04 0.  0.
        1    1    3    3  502    0 -0.11824465504E+03  0.28888943845E+03 -0.77373686356E+03  0.83433065397E+03  0.50400001928E-02 0. -1.
       -1    1    3    3    0  502  0.11824465504E+03 -0.28888943845E+03  0.97112923879E+03  0.10200641669E+04  0.50400001928E-02 0.  1.
</event>
<event>
 5   0  0.6186440E-07  0.3901980E+04  0.7818609E-02  0.8024618E-01
        1   -1    0    0  501    0  0.00000000000E+00  0.00000000000E+00  0.22079370619E+04  0.22079370619E+04  0.50400001928E-02 0. -1.
       -1   -1    0    0    0  501  0.00000000000E+00  0.00000000000E+00 -0.17239448156E+04  0.17239448156E+04  0.50400001928E-02 0.  1.
    10030    2    1    2    0    0  0.00000000000E+00  0.00000000000E+00  0.48399224632E+03  0.39318818775E+04  0.39019798314E+04 0.  0.
        3    1    3    3  502    0  0.64111278079E+03 -0.14089121236E+03 -0.16093327686E+04  0.17380529053E+04  0.10100000352E+00 0.  1.
       -3    1    3    3    0  502 -0.64111278079E+03  0.14089121236E+03  0.20933250149E+04  0.21938289723E+04  0.10100000352E+00 0. -1.
</event>
<event>
 5   0  0.6287345E-07  0.3667346E+04  0.7818609E-02  0.8075237E-01
        1   -1    0    0  501    0  0.00000000000E+00  0.00000000000E+00  0.25921625151E+04  0.25921625151E+04  0.50400001928E-02 0.  1.
       -1   -1    0    0    0  501  0.00000000000E+00  0.00000000000E+00 -0.12971244573E+04  0.12971244573E+04  0.50400001928E-02 0. -1.
    10030    2    1    2    0    0  0.00000000000E+00  0.00000000000E+00  0.12950380577E+04  0.38892869724E+04  0.36673463952E+04 0.  0.
        5    1    3    3  502    0  0.24552098019E+03 -0.18105613087E+03  0.25650557024E+04  0.25831366051E+04  0.46999998093E+01 0.  1.
       -5    1    3    3    0  502 -0.24552098019E+03  0.18105613087E+03 -0.12700176447E+04  0.13061503673E+04  0.46999998093E+01 0. -1.
</event>
<event>
 5   0  0.5875011E-07  0.3645815E+04  0.7818609E-02  0.8080077E-01
       -1   -1    0    0    0  501  0.00000000000E+00  0.00000000000E+00  0.19172529192E+04  0.19172529192E+04  0.50400001928E-02 0.  1.
        1   -1    0    0  501    0  0.00000000000E+00  0.00000000000E+00 -0.17332042678E+04  0.17332042679E+04  0.50400001928E-02 0. -1.
    10030    2    1    2    0    0  0.00000000000E+00  0.00000000000E+00  0.18404865136E+03  0.36504571871E+04  0.36458145549E+04 0.  0.
        2    1    3    3  502    0  0.16318815445E+04  0.14079207035E+03  0.89312513214E+03  0.18656184722E+04  0.25500000920E-02 0.  1.
       -2    1    3    3    0  502 -0.16318815445E+04 -0.14079207035E+03 -0.70907648078E+03  0.17848387148E+04  0.25500000920E-02 0. -1.
</event>
<event>
 5   0  0.1685793E-06  0.3654047E+04  0.7818609E-02  0.8078223E-01
        2   -1    0    0  501    0  0.00000000000E+00  0.00000000000E+00  0.31679712601E+04  0.31679712601E+04  0.25500000920E-02 0. -1.
       -2   -1    0    0    0  501  0.00000000000E+00  0.00000000000E+00 -0.10536757238E+04  0.10536757238E+04  0.25500000920E-02 0.  1.
    10030    2    1    2    0    0  0.00000000000E+00  0.00000000000E+00  0.21142955363E+04  0.42216469839E+04  0.36540467487E+04 0.  0.
        3    1    3    3  502    0 -0.64143314965E+03  0.17106555275E+04  0.10748805900E+04  0.21197044870E+04  0.10100000352E+00 0.  1.
       -3    1    3    3    0  502  0.64143314965E+03 -0.17106555275E+04  0.10394149463E+04  0.21019424969E+04  0.10100000352E+00 0. -1.
</event>
<event>
 5   0  0.1680194E-06  0.3694413E+04  0.7818609E-02  0.8069201E-01
       -2   -1    0    0    0  501  0.00000000000E+00  0.00000000000E+00  0.12938352178E+04  0.12938352178E+04  0.25500000920E-02 0. -1.
        2   -1    0    0  501    0  0.00000000000E+00  0.00000000000E+00 -0.26372543494E+04  0.26372543494E+04  0.25500000920E-02 0.  1.
    10030    2    1    2    0    0  0.00000000000E+00  0.00000000000E+00 -0.13434191316E+04  0.39310895672E+04  0.36944133799E+04 0.  0.
        2    1    3    3  502    0 -0.19940485635E+03 -0.71594324922E+03 -0.24711520871E+04  0.25804901996E+04  0.25500000920E-02 0.  1.
       -2    1    3    3    0  502  0.19940485635E+03  0.71594324922E+03  0.11277329554E+04  0.13505993676E+04  0.25500000920E-02 0. -1.
</event>
<event>
 5   0  0.1685793E-06  0.3770093E+04  0.7818609E-02  0.8052603E-01
        2   -1    0    0  501    0  0.00000000000E+00  0.00000000000E+00  0.25851383019E+04  0.25851383019E+04  0.25500000920E-02 0. -1.
       -2   -1    0    0    0  501  0.00000000000E+00  0.00000000000E+00 -0.13745494946E+04  0.13745494946E+04  0.25500000920E-02 0.  1.
    10030    2    1    2    0    0  0.00000000000E+00  0.00000000000E+00  0.12105888073E+04  0.39596877966E+04  0.37700931270E+04 0.  0.
        3    1    3    3  502    0  0.99683029144E+03 -0.18328199065E+03  0.22746058456E+04  0.24901997272E+04  0.10100000352E+00 0. -1.
       -3    1    3    3    0  502 -0.99683029144E+03  0.18328199065E+03 -0.10640170383E+04  0.14694880694E+04  0.10100000352E+00 0.  1.
</event>
<event>
 5   0  0.1680194E-06  0.3718246E+04  0.7818609E-02  0.8063930E-01
       -2   -1    0    0    0  501  0.00000000000E+00  0.00000000000E+00  0.20310789302E+04  0.20310789302E+04  0.25500000920E-02 0. -1.
        2   -1    0    0  501    0  0.00000000000E+00  0.00000000000E+00 -0.17017254579E+04  0.17017254579E+04  0.25500000920E-02 0.  1.
    10030    2    1    2    0    0  0.00000000000E+00  0.00000000000E+00  0.32935347227E+03  0.37328043882E+04  0.37182462117E+04 0.  0.
        2    1    3    3  502    0  0.13259721801E+04 -0.11371638276E+04  0.80356054324E+03  0.19227723058E+04  0.25500000920E-02 0. -1.
       -2    1    3    3    0  502 -0.13259721801E+04  0.11371638276E+04 -0.47420707097E+03  0.18100320824E+04  0.25500000920E-02 0.  1.
</event>
<event>
 5   0  0.1685793E-06  0.3728029E+04  0.7818609E-02  0.8061779E-01
       -2   -1    0    0    0  501  0.00000000000E+00  0.00000000000E+00  0.17836028343E+04  0.17836028343E+04  0.25500000920E-02 0. -1.
        2   -1    0    0  501    0  0.00000000000E+00  0.00000000000E+00 -0.19480510643E+04  0.19480510643E+04  0.25500000920E-02 0.  1.
    10030    2    1    2    0    0  0.00000000000E+00  0.00000000000E+00 -0.16444823005E+03  0.37316538986E+04  0.37280286478E+04 0.  0.
        3    1    3    3  502    0  0.13559649055E+04 -0.95323741280E+03 -0.93584117326E+03  0.19034445361E+04  0.10100000352E+00 0. -1.
       -3    1    3    3    0  502 -0.13559649055E+04  0.95323741280E+03  0.77139294321E+03  0.18282093625E+04  0.10100000352E+00 0.  1.
</event>
<event>
 5   0  0.1685793E-06  0.3396250E+04  0.7818609E-02  0.8138827E-01
       -2   -1    0    0    0  501  0.00000000000E+00  0.00000000000E+00  0.16404112399E+04  0.16404112399E+04  0.25500000920E-02 0.  1.
        2   -1    0    0  501    0  0.00000000000E+00  0.00000000000E+00 -0.17578693827E+04  0.17578693827E+04  0.25500000920E-02 0. -1.
    10030    2    1    2    0    0  0.00000000000E+00  0.00000000000E+00 -0.11745814276E+03  0.33982806226E+04  0.33962501048E+04 0.  0.
        3    1    3    3  502    0  0.62884985522E+03 -0.14877940816E+04 -0.58310852987E+03  0.17172649585E+04  0.10100000352E+00 0. -1.
       -3    1    3    3    0  502 -0.62884985522E+03  0.14877940816E+04  0.46565038711E+03  0.16810156641E+04  0.10100000352E+00 0.  1.
</event>
<event>
 5   0  0.1184684E-06  0.3726915E+04  0.7818609E-02  0.8062023E-01
       -2   -1    0    0    0  501  0.00000000000E+00  0.00000000000E+00  0.16247141995E+04  0.16247141995E+04  0.25500000920E-02 0. -1.
        2   -1    0    0  501    0  0.00000000000E+00  0.00000000000E+00 -0.21372831279E+04  0.21372831279E+04  0.25500000920E-02 0.  1.
    10030    2    1    2    0    0  0.00000000000E+00  0.00000000000E+00 -0.51256892838E+03  0.37619973274E+04  0.37269152103E+04 0.  0.
        4    1    3    3  502    0  0.43487699471E+03 -0.50714828108E+03 -0.20122442794E+04  0.21202466914E+04  0.12699999809E+01 0.  1.
       -4    1    3    3    0  502 -0.43487699471E+03  0.50714828108E+03  0.14996753510E+04  0.16417506360E+04  0.12699999809E+01 0. -1.
</event>
<event>
 5   0  0.1184684E-06  0.3716221E+04  0.7818609E-02  0.8064376E-01
        2   -1    0    0  501    0  0.00000000000E+00  0.00000000000E+00  0.20961016465E+04  0.20961016465E+04  0.25500000920E-02 0.  1.
       -2   -1    0    0    0  501  0.00000000000E+00  0.00000000000E+00 -0.16471412202E+04  0.16471412203E+04  0.25500000920E-02 0. -1.
    10030    2    1    2    0    0  0.00000000000E+00  0.00000000000E+00  0.44896042623E+03  0.37432428667E+04  0.37162214271E+04 0.  0.
        4    1    3    3  502    0 -0.16000515202E+04 -0.85118944767E+03 -0.18823737345E+03  0.18221205406E+04  0.12699999809E+01 0. -1.
       -4    1    3    3    0  502  0.16000515202E+04  0.85118944767E+03  0.63719779968E+03  0.19211223261E+04  0.12699999809E+01 0.  1.
</event>
<event>
 5   0  0.5679750E-07  0.2931344E+04  0.7818609E-02  0.8263612E-01
       -1   -1    0    0    0  501  0.00000000000E+00  0.00000000000E+00  0.15127342845E+04  0.15127342845E+04  0.50400001928E-02 0. -1.
        1   -1    0    0  501    0  0.00000000000E+00  0.00000000000E+00 -0.14200734403E+04  0.14200734403E+04  0.50400001928E-02 0.  1.
    10030    2    1    2    0    0  0.00000000000E+00  0.00000000000E+00  0.92660844261E+02  0.29328077248E+04  0.29313435689E+04 0.  0.
        4    1    3    3  502    0  0.68073971974E+03  0.11251984695E+04  0.69373477065E+03  0.14868583344E+04  0.12699999809E+01 0. -1.
       -4    1    3    3    0  502 -0.68073971974E+03 -0.11251984695E+04 -0.60107392639E+03  0.14459493904E+04  0.12699999809E+01 0.  1.
</event>
<event>
 5   0  0.1680194E-06  0.3739956E+04  0.7818609E-02  0.8059164E-01
        2   -1    0    0  501    0  0.00000000000E+00  0.00000000000E+00  0.27983929419E+04  0.27983929419E+04  0.25500000920E-02 0. -1.
       -2   -1    0    0    0  501  0.00000000000E+00  0.00000000000E+00 -0.12495806185E+04  0.12495806185E+04  0.25500000920E-02 0.  1.
    10030    2    1    2    0    0  0.00000000000E+00  0.00000000000E+00  0.15488123235E+04  0.40479735604E+04  0.37399559265E+04 0.  0.
        2    1    3    3  502    0  0.45599425531E+03 -0.16562807434E+03  0.27290913522E+04  0.27718771669E+04  0.25500000920E-02 0. -1.
       -2    1    3    3    0  502 -0.45599425531E+03  0.16562807434E+03 -0.11802790287E+04  0.12760963935E+04  0.25500000920E-02 0.  1.
</event>
<event>
 5   0  0.6186440E-07  0.2080629E+04  0.7818609E-02  0.8569825E-01
        1   -1    0    0  501    0  0.00000000000E+00  0.00000000000E+00  0.79724739448E+03  0.79724739449E+03  0.50400001928E-02 0.  1.
       -1   -1    0    0    0  501  0.00000000000E+00  0.00000000000E+00 -0.13574891541E+04  0.13574891541E+04  0.50400001928E-02 0. -1.
    10030    2    1    2    0    0  0.00000000000E+00  0.00000000000E+00 -0.56024175962E+03  0.21547365486E+04  0.20806294155E+04 0.  0.
        3    1    3    3  502    0  0.92417504190E+03  0.43432041941E+03 -0.74241376992E+02  0.10238386235E+04  0.10100000352E+00 0. -1.
       -3    1    3    3    0  502 -0.92417504190E+03 -0.43432041941E+03 -0.48600038263E+03  0.11308979251E+04  0.10100000352E+00 0.  1.
</event>
<event>
 5   0  0.5875011E-07  0.3677627E+04  0.7818609E-02  0.8072938E-01
       -1   -1    0    0    0  501  0.00000000000E+00  0.00000000000E+00  0.17083348644E+04  0.17083348644E+04  0.50400001928E-02 0. -1.
        1   -1    0    0  501    0  0.00000000000E+00  0.00000000000E+00 -0.19792579169E+04  0.19792579169E+04  0.50400001928E-02 0.  1.
    10030    2    1    2    0    0  0.00000000000E+00  0.00000000000E+00 -0.27092305247E+03  0.36875927813E+04  0.36776271182E+04 0.  0.
        2    1    3    3  502    0 -0.16705118456E+04  0.29740527983E+01  0.63513686852E+03  0.17871814438E+04  0.25500000920E-02 0. -1.
       -2    1    3    3    0  502  0.16705118456E+04 -0.29740527983E+01 -0.90605992100E+03  0.19004113375E+04  0.25500000920E-02 0.  1.
</event>
<event>
 5   0  0.6186440E-07  0.3574028E+04  0.7818609E-02  0.8096467E-01
        1   -1    0    0  501    0  0.00000000000E+00  0.00000000000E+00  0.15664672424E+04  0.15664672424E+04  0.50400001928E-02 0.  1.
       -1   -1    0    0    0  501  0.00000000000E+00  0.00000000000E+00 -0.20386119787E+04  0.20386119787E+04  0.50400001928E-02 0. -1.
    10030    2    1    2    0    0  0.00000000000E+00  0.00000000000E+00 -0.47214473635E+03  0.36050792211E+04  0.35740279152E+04 0.  0.
        3    1    3    3  502    0 -0.19069486984E+03  0.74524790085E+03  0.13909073333E+04  0.15894597155E+04  0.10100000352E+00 0.  1.
       -3    1    3    3    0  502  0.19069486984E+03 -0.74524790085E+03 -0.18630520697E+04  0.20156195056E+04  0.10100000352E+00 0. -1.
</event>
<event>
 5   0  0.1724503E-06  0.3673733E+04  0.7818609E-02  0.8073808E-01
       -2   -1    0    0    0  501  0.00000000000E+00  0.00000000000E+00  0.16958539176E+04  0.16958539176E+04  0.25500000920E-02 0. -1.
        2   -1    0    0  501    0  0.00000000000E+00  0.00000000000E+00 -0.19896039951E+04  0.19896039951E+04  0.25500000920E-02 0.  1.
    10030    2    1    2    0    0  0.00000000000E+00  0.00000000000E+00 -0.29375007752E+03  0.36854579127E+04  0.36737325595E+04 0.  0.
        1    1    3    3  502    0 -0.15408021919E+03  0.16050731144E+04  0.73574968439E+03  0.17723791960E+04  0.50400001928E-02 0. -1.
       -1    1    3    3    0  502  0.15408021919E+03 -0.16050731144E+04 -0.10294997619E+04  0.19130787167E+04  0.50400001928E-02 0.  1.
</event>
<event>
 5   0  0.1685793E-06  0.3603439E+04  0.7818609E-02  0.8089704E-01
       -2   -1    0    0    0  501  0.00000000000E+00  0.00000000000E+00  0.15545445722E+04  0.15545445722E+04  0.25500000920E-02 0. -1.
        2   -1    0    0  501    0  0.00000000000E+00  0.00000000000E+00 -0.20881952981E+04  0.20881952981E+04  0.25500000920E-02 0.  1.
    10030    2    1    2    0    0  0.00000000000E+00  0.00000000000E+00 -0.53365072590E+03  0.36427398703E+04  0.36034387278E+04 0.  0.
        3    1    3    3  502    0 -0.79825345556E+03 -0.12810332616E+04 -0.12613939906E+04  0.19670713272E+04  0.10100000352E+00 0.  1.
       -3    1    3    3    0  502  0.79825345556E+03  0.12810332616E+04  0.72774326467E+03  0.16756685431E+04  0.10100000352E+00 0. -1.
</event>
<event>
 5   0  0.1151180E-06  0.2226523E+04  0.7818609E-02  0.8507469E-01
       -2   -1    0    0    0  501  0.00000000000E+00  0.00000000000E+00  0.60167279658E+03  0.60167279659E+03  0.25500000920E-02 0.  1.
        2   -1    0    0  501    0  0.00000000000E+00  0.00000000000E+00 -0.20598419410E+04  0.20598419410E+04  0.25500000920E-02 0. -1.
    10030    2    1    2    0    0  0.00000000000E+00  0.00000000000E+00 -0.14581691444E+04  0.26615147376E+04  0.22265227249E+04 0.  0.
        5    1    3    3  502    0 -0.96555139371E+03 -0.70356575443E+02 -0.72078529368E+02  0.97080221775E+03  0.46999998093E+01 0. -1.
       -5    1    3    3    0  502  0.96555139371E+03  0.70356575443E+02 -0.13860906151E+04  0.16907125198E+04  0.46999998093E+01 0.  1.
</event>
<event>
 5   0  0.6186440E-07  0.2737026E+04  0.7818609E-02  0.8323090E-01
       -1   -1    0    0    0  501  0.00000000000E+00  0.00000000000E+00  0.14247395314E+04  0.14247395314E+04  0.50400001928E-02 0. -1.
        1   -1    0    0  501    0  0.00000000000E+00  0.00000000000E+00 -0.13145053462E+04  0.13145053462E+04  0.50400001928E-02 0.  1.
    10030    2    1    2    0    0  0.00000000000E+00  0.00000000000E+00  0.11023418523E+03  0.27392448776E+04  0.27370259268E+04 0.  0.
        3    1    3    3  502    0  0.20033898742E+02  0.44798089465E+03  0.13491229630E+04  0.14216965283E+04  0.10100000352E+00 0. -1.
       -3    1    3    3    0  502 -0.20033898742E+02 -0.44798089465E+03 -0.12388887777E+04  0.13175483494E+04  0.10100000352E+00 0.  1.
</event>
<event>
 5   0  0.1724503E-06  0.3873904E+04  0.7818609E-02  0.8030479E-01
       -2   -1    0    0    0  501  0.00000000000E+00  0.00000000000E+00  0.19791134632E+04  0.19791134632E+04  0.25500000920E-02 0.  1.
        2   -1    0    0  501    0  0.00000000000E+00  0.00000000000E+00 -0.18956890455E+04  0.18956890455E+04  0.25500000920E-02 0. -1.
    10030    2    1    2    0    0  0.00000000000E+00  0.00000000000E+00  0.83424417635E+02  0.38748025087E+04  0.38739043416E+04 0.  0.
        1    1    3    3  502    0 -0.14369348159E+04 -0.10273320794E+04 -0.75319894901E+03  0.19202868336E+04  0.50400001928E-02 0. -1.
       -1    1    3    3    0  502  0.14369348159E+04  0.10273320794E+04  0.83662336664E+03  0.19545156751E+04  0.50400001928E-02 0.  1.
</event>
<event>
 5   0  0.1184684E-06  0.2996136E+04  0.7818609E-02  0.8244835E-01
        2   -1    0    0  501    0  0.00000000000E+00  0.00000000000E+00  0.16887768878E+04  0.16887768878E+04  0.25500000920E-02 0. -1.
       -2   -1    0    0    0  501  0.00000000000E+00  0.00000000000E+00 -0.13288955318E+04  0.13288955318E+04  0.25500000920E-02 0.  1.
    10030    2    1    2    0    0  0.00000000000E+00  0.00000000000E+00  0.35988135600E+03  0.30176724197E+04  0.29961362189E+04 0.  0.
        4    1    3    3  502    0  0.14422024639E+04 -0.26836922336E+03  0.48582826515E+03  0.15453157293E+04  0.12699999809E+01 0.  1.
       -4    1    3    3    0  502 -0.14422024639E+04  0.26836922336E+03 -0.12594690915E+03  0.14723566904E+04  0.12699999809E+01 0. -1.
</event>
<event>
 5   0  0.1151180E-06  0.2035440E+04  0.7818609E-02  0.8590228E-01
        2   -1    0    0  501    0  0.00000000000E+00  0.00000000000E+00  0.19086807462E+04  0.19086807462E+04  0.25500000920E-02 0. -1.
       -2   -1    0    0    0  501  0.00000000000E+00  0.00000000000E+00 -0.54265459120E+03  0.54265459121E+03  0.25500000920E-02 0.  1.
    10030    2    1    2    0    0  0.00000000000E+00  0.00000000000E+00  0.13660261550E+04  0.24513353374E+04  0.20354403652E+04 0.  0.
        5    1    3    3  502    0  0.96691544463E+03  0.67777412734E+02  0.10565738616E+04  0.14338373931E+04  0.46999998093E+01 0. -1.
       -5    1    3    3    0  502 -0.96691544463E+03 -0.67777412734E+02  0.30945229331E+03  0.10174979443E+04  0.46999998093E+01 0.  1.
</event>
<event>
 5   0  0.6186440E-07  0.3601552E+04  0.7818609E-02  0.8090136E-01
        1   -1    0    0  501    0  0.00000000000E+00  0.00000000000E+00  0.26996389362E+04  0.26996389362E+04  0.50400001928E-02 0. -1.
       -1   -1    0    0    0  501  0.00000000000E+00  0.00000000000E+00 -0.12011953778E+04  0.12011953778E+04  0.50400001928E-02 0.  1.
    10030    2    1    2    0    0  0.00000000000E+00  0.00000000000E+00  0.14984435583E+04  0.39008343140E+04  0.36015517833E+04 0.  0.
        3    1    3    3  502    0 -0.16758313427E+04 -0.82770032904E+01  0.14630111182E+04  0.22246079969E+04  0.10100000352E+00 0.  1.
       -3    1    3    3    0  502  0.16758313427E+04  0.82770032904E+01  0.35432440152E+02  0.16762263170E+04  0.10100000352E+00 0. -1.
</event>
<event>
 5   0  0.1685793E-06  0.3764113E+04  0.7818609E-02  0.8053900E-01
       -2   -1    0    0    0  501  0.00000000000E+00  0.00000000000E+00  0.23654005091E+04  0.23654005091E+04  0.25500000920E-02 0.  1.
        2   -1    0    0  501    0  0.00000000000E+00  0.00000000000E+00 -0.14974785030E+04  0.14974785030E+04  0.25500000920E-02 0. -1.
    10030    2    1    2    0    0  0.00000000000E+00  0.00000000000E+00  0.86792200605E+03  0.38628790121E+04  0.37641128640E+04 0.  0.
        3    1    3    3  502    0 -0.63996770104E+03  0.16314346180E+04  0.11382621313E+04  0.20896837705E+04  0.10100000352E+00 0.  1.
       -3    1    3    3    0  502  0.63996770104E+03 -0.16314346180E+04 -0.27034012520E+03  0.17731952415E+04  0.10100000352E+00 0. -1.
</event>
<event>
 5   0  0.1724503E-06  0.3820888E+04  0.7818609E-02  0.8041687E-01
        2   -1    0    0  501    0  0.00000000000E+00  0.00000000000E+00  0.25193595144E+04  0.25193595144E+04  0.25500000920E-02 0. -1.
       -2   -1    0    0    0  501  0.00000000000E+00  0.00000000000E+00 -0.14487003334E+04  0.14487003334E+04  0.25500000920E-02 0.  1.
    10030    2    1    2    0    0  0.00000000000E+00  0.00000000000E+00  0.10706591811E+04  0.39680598478E+04  0.38208883619E+04 0.  0.
        1    1    3    3  502    0 -0.47552487135E+03 -0.15250756604E+03 -0.13797189885E+04  0.14673128324E+04  0.50400001928E-02 0.  1.
       -1    1    3    3    0  502  0.47552487135E+03  0.15250756604E+03  0.24503781696E+04  0.25007470154E+04  0.50400001928E-02 0. -1.
</event>
<event>
 5   0  0.1184684E-06  0.3663079E+04  0.7818609E-02  0.8076194E-01
        2   -1    0    0  501    0  0.00000000000E+00  0.00000000000E+00  0.29507730026E+04  0.29507730026E+04  0.25500000920E-02 0. -1.
       -2   -1    0    0    0  501  0.00000000000E+00  0.00000000000E+00 -0.11368332086E+04  0.11368332086E+04  0.25500000920E-02 0.  1.
    10030    2    1    2    0    0  0.00000000000E+00  0.00000000000E+00  0.18139397940E+04  0.40876062112E+04  0.36630788910E+04 0.  0.
        4    1    3    3  502    0 -0.56317830834E+03 -0.15498620431E+03 -0.10301084114E+04  0.11841940224E+04  0.12699999809E+01 0.  1.
       -4    1    3    3    0  502  0.56317830834E+03  0.15498620431E+03  0.28440482054E+04  0.29034121888E+04  0.12699999809E+01 0. -1.
</event>
<event>
 5   0  0.1184684E-06  0.3364898E+04  0.7818609E-02  0.8146576E-01
        2   -1    0    0  501    0  0.00000000000E+00  0.00000000000E+00  0.19269902952E+04  0.19269902952E+04  0.25500000920E-02 0. -1.
       -2   -1    0    0    0  501  0.00000000000E+00  0.00000000000E+00 -0.14689411527E+04  0.14689411527E+04  0.25500000920E-02 0.  1.
    10030    2    1    2    0    0  0.00000000000E+00  0.00000000000E+00  0.45804914248E+03  0.33959314479E+04  0.33648984208E+04 0.  0.
        4    1    3    3  502    0  0.15903280461E+04  0.51956653382E+03  0.49788643732E+02  0.16737900702E+04  0.12699999809E+01 0.  1.
       -4    1    3    3    0  502 -0.15903280461E+04 -0.51956653382E+03  0.40826049875E+03  0.17221413777E+04  0.12699999809E+01 0. -1.
</event>
<event>
 5   0  0.1685793E-06  0.1863013E+04  0.7818609E-02  0.8673489E-01
       -2   -1    0    0    0  501  0.00000000000E+00  0.00000000000E+00  0.93886496043E+03  0.93886496043E+03  0.25500000920E-02 0. -1.
        2   -1    0    0  501    0  0.00000000000E+00  0.00000000000E+00 -0.92420555043E+03  0.92420555043E+03  0.25500000920E-02 0.  1.
    10030    2    1    2    0    0  0.00000000000E+00  0.00000000000E+00  0.14659409996E+02  0.18630705109E+04  0.18630128368E+04 0.  0.
        3    1    3    3  502    0  0.26259761016E+03 -0.17670869133E+03  0.88343943130E+03  0.93842884942E+03  0.10100000352E+00 0. -1.
       -3    1    3    3    0  502 -0.26259761016E+03  0.17670869133E+03 -0.86878002130E+03  0.92464166144E+03  0.10100000352E+00 0.  1.
</event>
<event>
 5   0  0.1680194E-06  0.3680494E+04  0.7818609E-02  0.8072298E-01
       -2   -1    0    0    0  501  0.00000000000E+00  0.00000000000E+00  0.19220711035E+04  0.19220711036E+04  0.25500000920E-02 0.  1.
        2   -1    0    0  501    0  0.00000000000E+00  0.00000000000E+00 -0.17619064157E+04  0.17619064157E+04  0.25500000920E-02 0. -1.
    10030    2    1    2    0    0  0.00000000000E+00  0.00000000000E+00  0.16016468784E+03  0.36839775193E+04  0.36804942107E+04 0.  0.
        2    1    3    3  502    0  0.16267313098E+04 -0.42209172072E+03 -0.67035599109E+03  0.18093626860E+04  0.25500000920E-02 0. -1.
       -2    1    3    3    0  502 -0.16267313098E+04  0.42209172072E+03  0.83052067893E+03  0.18746148332E+04  0.25500000920E-02 0.  1.
</event>
<event>
 5   0  0.1724503E-06  0.3671211E+04  0.7818609E-02  0.8074372E-01
       -2   -1    0    0    0  501  0.00000000000E+00  0.00000000000E+00  0.17181113741E+04  0.17181113741E+04  0.25500000920E-02 0. -1.
        2   -1    0    0  501    0  0.00000000000E+00  0.00000000000E+00 -0.19611342704E+04  0.19611342704E+04  0.25500000920E-02 0.  1.
    10030    2    1    2    0    0  0.00000000000E+00  0.00000000000E+00 -0.24302289629E+03  0.36792456445E+04  0.36712107518E+04 0.  0.
        1    1    3    3  502    0  0.71998949685E+03  0.10902313434E+04 -0.14136967233E+04  0.19249747227E+04  0.50400001928E-02 0.  1.
       -1    1    3    3    0  502 -0.71998949685E+03 -0.10902313434E+04  0.11706738270E+04  0.17542709218E+04  0.50400001928E-02 0. -1.
</event>
<event>
 5   0  0.1680194E-06  0.2103885E+04  0.7818609E-02  0.8559534E-01
        2   -1    0    0  501    0  0.00000000000E+00  0.00000000000E+00  0.26246026039E+04  0.26246026039E+04  0.25500000920E-02 0.  1.
       -2   -1    0    0    0  501  0.00000000000E+00  0.00000000000E+00 -0.42161915337E+03  0.42161915338E+03  0.25500000920E-02 0. -1.
    10030    2    1    2    0    0  0.00000000000E+00  0.00000000000E+00  0.22029834505E+04  0.30462217573E+04  0.21038847191E+04 0.  0.
        2    1    3    3  502    0  0.52852024060E+03  0.55900471063E+03  0.62664888181E+02  0.77184635740E+03  0.25500000920E-02 0. -1.
       -2    1    3    3    0  502 -0.52852024060E+03 -0.55900471063E+03  0.21403185623E+04  0.22743753999E+04  0.25500000920E-02 0.  1.
</event>
<event>
 5   0  0.5679750E-07  0.3629823E+04  0.7818609E-02  0.8083694E-01
        1   -1    0    0  501    0  0.00000000000E+00  0.00000000000E+00  0.21727158127E+04  0.21727158127E+04  0.50400001928E-02 0.  1.
       -1   -1    0    0    0  501  0.00000000000E+00  0.00000000000E+00 -0.15160303993E+04  0.15160303993E+04  0.50400001928E-02 0. -1.
    10030    2    1    2    0    0  0.00000000000E+00  0.00000000000E+00  0.65668541344E+03  0.36887462120E+04  0.36298227070E+04 0.  0.
        4    1    3    3  502    0  0.12316471833E+03  0.46811152861E+03 -0.14492241703E+04  0.15279235124E+04  0.12699999809E+01 0. -1.
       -4    1    3    3    0  502 -0.12316471833E+03 -0.46811152861E+03  0.21059095838E+04  0.21608226996E+04  0.12699999809E+01 0.  1.
</event>
<event>
 5   0  0.1151180E-06  0.1990930E+04  0.7818609E-02  0.8610873E-01
       -2   -1    0    0    0  501  0.00000000000E+00  0.00000000000E+00  0.56794022208E+03  0.56794022209E+03  0.25500000920E-02 0.  1.
        2   -1    0    0  501    0  0.00000000000E+00  0.00000000000E+00 -0.17448150544E+04  0.17448150544E+04  0.25500000920E-02 0. -1.
    10030    2    1    2    0    0  0.00000000000E+00  0.00000000000E+00 -0.11768748323E+04  0.23127552765E+04  0.19909300836E+04 0.  0.
        5    1    3    3  502    0  0.19817199345E+03 -0.11924264779E+03  0.53628372489E+03  0.58404903187E+03  0.46999998093E+01 0.  1.
       -5    1    3    3    0  502 -0.19817199345E+03  0.11924264779E+03 -0.17131585572E+04  0.17287062446E+04  0.46999998093E+01 0. -1.
</event>
<event>
 5   0  0.5875011E-07  0.2345344E+04  0.7818609E-02  0.8460254E-01
        1   -1    0    0  501    0  0.00000000000E+00  0.00000000000E+00  0.27804122473E+04  0.27804122473E+04  0.50400001928E-02 0.  1.
       -1   -1    0    0    0  501  0.00000000000E+00  0.00000000000E+00 -0.49458844163E+03  0.49458844165E+03  0.50400001928E-02 0. -1.
    10030    2    1    2    0    0  0.00000000000E+00  0.00000000000E+00  0.22858238057E+04  0.32750006890E+04  0.23453441202E+04 0.  0.
        2    1    3    3  502    0  0.63601911262E+03 -0.63608894811E+03  0.92342708901E+02  0.90424368255E+03  0.25500000920E-02 0.  1.
       -2    1    3    3    0  502 -0.63601911262E+03  0.63608894811E+03  0.21934810968E+04  0.23707570064E+04  0.25500000920E-02 0. -1.
</event>
<event>
 5   0  0.6287345E-07  0.2000040E+04  0.7818609E-02  0.8606602E-01
        1   -1    0    0  501    0  0.00000000000E+00  0.00000000000E+00  0.62947757802E+03  0.62947757804E+03  0.50400001928E-02 0.  1.
       -1   -1    0    0    0  501  0.00000000000E+00  0.00000000000E+00 -0.15886826138E+04  0.15886826138E+04  0.50400001928E-02 0. -1.
    10030    2    1    2    0    0  0.00000000000E+00  0.00000000000E+00 -0.95920503577E+03  0.22181601918E+04  0.20000400836E+04 0.  0.
        5    1    3    3  502    0  0.12879964869E+03  0.38911322638E+01  0.62021919936E+03  0.63348120387E+03  0.46999998093E+01 0.  1.
       -5    1    3    3    0  502 -0.12879964869E+03 -0.38911322638E+01 -0.15794242351E+04  0.15846789880E+04  0.46999998093E+01 0. -1.
</event>
<event>
 5   0  0.6186440E-07  0.3767239E+04  0.7818609E-02  0.8053222E-01
        1   -1    0    0  501    0  0.00000000000E+00  0.00000000000E+00  0.21385885405E+04  0.21385885405E+04  0.50400001928E-02 0. -1.
       -1   -1    0    0    0  501  0.00000000000E+00  0.00000000000E+00 -0.16590482374E+04  0.16590482374E+04  0.50400001928E-02 0.  1.
    10030    2    1    2    0    0  0.00000000000E+00  0.00000000000E+00  0.47954030308E+03  0.37976367780E+04  0.37672385371E+04 0.  0.
        3    1    3    3  502    0 -0.68080485200E+03  0.22191227454E+03  0.19960340455E+04  0.21205877074E+04  0.10100000352E+00 0. -1.
       -3    1    3    3    0  502  0.68080485200E+03 -0.22191227454E+03 -0.15164937424E+04  0.16770490705E+04  0.10100000352E+00 0.  1.
</event>
<event>
 5   0  0.1724503E-06  0.3408067E+04  0.7818609E-02  0.8135929E-01
        2   -1    0    0  501    0  0.00000000000E+00  0.00000000000E+00  0.16299444203E+04  0.16299444203E+04  0.25500000920E-02 0.  1.
       -2   -1    0    0    0  501  0.00000000000E+00  0.00000000000E+00 -0.17814901914E+04  0.17814901914E+04  0.25500000920E-02 0. -1.
    10030    2    1    2    0    0  0.00000000000E+00  0.00000000000E+00 -0.15154577111E+03  0.34114346118E+04  0.34080668992E+04 0.  0.
        1    1    3    3  502    0  0.11147331216E+04  0.12481906902E+04 -0.39721333822E+03  0.17199966185E+04  0.50400001928E-02 0. -1.
       -1    1    3    3    0  502 -0.11147331216E+04 -0.12481906902E+04  0.24566756710E+03  0.16914379933E+04  0.50400001928E-02 0.  1.
</event>
<event>
 5   0  0.6287345E-07  0.2112698E+04  0.7818609E-02  0.8555670E-01
       -1   -1    0    0    0  501  0.00000000000E+00  0.00000000000E+00  0.52580951044E+03  0.52580951046E+03  0.50400001928E-02 0.  1.
        1   -1    0    0  501    0  0.00000000000E+00  0.00000000000E+00 -0.21222010704E+04  0.21222010704E+04  0.50400001928E-02 0. -1.
    10030    2    1    2    0    0  0.00000000000E+00  0.00000000000E+00 -0.15963915600E+04  0.26480105809E+04  0.21126982803E+04 0.  0.
        5    1    3    3  502    0  0.10319120924E+04 -0.22576951323E+03 -0.80581734600E+03  0.13286000620E+04  0.46999998093E+01 0.  1.
       -5    1    3    3    0  502 -0.10319120924E+04  0.22576951323E+03 -0.79057421397E+03  0.13194105189E+04  0.46999998093E+01 0. -1.
</event>
<event>
 5   0  0.1724503E-06  0.3746738E+04  0.7818609E-02  0.8057682E-01
        2   -1    0    0  501    0  0.00000000000E+00  0.00000000000E+00  0.24468783513E+04  0.24468783513E+04  0.25500000920E-02 0. -1.
       -2   -1    0    0    0  501  0.00000000000E+00  0.00000000000E+00 -0.14342811513E+04  0.14342811514E+04  0.25500000920E-02 0.  1.
    10030    2    1    2    0    0  0.00000000000E+00  0.00000000000E+00  0.10125972000E+04  0.38811595027E+04  0.37467380474E+04 0.  0.
        1    1    3    3  502    0 -0.28907582244E+03 -0.71979525717E+03 -0.12601195665E+04  0.14797200294E+04  0.50400001928E-02 0.  1.
       -1    1    3    3    0  502  0.28907582244E+03  0.71979525717E+03  0.22727167665E+04  0.24014394733E+04  0.50400001928E-02 0. -1.
</event>
<event>
 5   0  0.6261598E-07  0.3912858E+04  0.7818609E-02  0.8022360E-01
        1   -1    0    0  501    0  0.00000000000E+00  0.00000000000E+00  0.16473642996E+04  0.16473642996E+04  0.50400001928E-02 0.  1.
       -1   -1    0    0    0  501  0.00000000000E+00  0.00000000000E+00 -0.23234781359E+04  0.23234781359E+04  0.50400001928E-02 0. -1.
    10030    2    1    2    0    0  0.00000000000E+00  0.00000000000E+00 -0.67611383633E+03  0.39708424355E+04  0.39128582556E+04 0.  0.
        1    1    3    3  502    0  0.19551185581E+04 -0.14885594269E+02 -0.26698499284E+03  0.19733198280E+04  0.50400001928E-02 0.  1.
       -1    1    3    3    0  502 -0.19551185581E+04  0.14885594269E+02 -0.40912884349E+03  0.19975226075E+04  0.50400001928E-02 0. -1.
</event>
<event>
 5   0  0.5875011E-07  0.3635393E+04  0.7818609E-02  0.8082432E-01
        1   -1    0    0  501    0  0.00000000000E+00  0.00000000000E+00  0.20996288237E+04  0.20996288237E+04  0.50400001928E-02 0. -1.
       -1   -1    0    0    0  501  0.00000000000E+00  0.00000000000E+00 -0.15736213110E+04  0.15736213110E+04  0.50400001928E-02 0.  1.
    10030    2    1    2    0    0  0.00000000000E+00  0.00000000000E+00  0.52600751270E+03  0.36732501348E+04  0.36353930529E+04 0.  0.
        2    1    3    3  502    0  0.18470063344E+03 -0.18065401103E+04  0.18268275925E+03  0.18251231423E+04  0.25500000920E-02 0. -1.
       -2    1    3    3    0  502 -0.18470063344E+03  0.18065401103E+04  0.34332475345E+03  0.18481269925E+04  0.25500000920E-02 0.  1.
</event>
<event>
 5   0  0.6186440E-07  0.2084812E+04  0.7818609E-02  0.8567963E-01
       -1   -1    0    0    0  501  0.00000000000E+00  0.00000000000E+00  0.17535130010E+04  0.17535130010E+04  0.50400001928E-02 0.  1.
        1   -1    0    0  501    0  0.00000000000E+00  0.00000000000E+00 -0.61967627749E+03  0.61967627751E+03  0.50400001928E-02 0. -1.
    10030    2    1    2    0    0  0.00000000000E+00  0.00000000000E+00  0.11338367235E+04  0.23731892785E+04  0.20848121345E+04 0.  0.
        3    1    3    3  502    0 -0.39484296020E+03 -0.95675209238E+03  0.70788147784E+03  0.12539424733E+04  0.10100000352E+00 0. -1.
       -3    1    3    3    0  502  0.39484296020E+03  0.95675209238E+03  0.42595524569E+03  0.11192468052E+04  0.10100000352E+00 0.  1.
</event>
<event>
 5   0  0.1184684E-06  0.1923288E+04  0.7818609E-02  0.8643351E-01
       -2   -1    0    0    0  501  0.00000000000E+00  0.00000000000E+00  0.41289385169E+03  0.41289385170E+03  0.25500000920E-02 0. -1.
        2   -1    0    0  501    0  0.00000000000E+00  0.00000000000E+00 -0.22397013165E+04  0.22397013165E+04  0.25500000920E-02 0.  1.
    10030    2    1    2    0    0  0.00000000000E+00  0.00000000000E+00 -0.18268074648E+04  0.26525951682E+04  0.19232877093E+04 0.  0.
        4    1    3    3  502    0  0.87217791778E+01  0.96158060070E+03 -0.92254910045E+03  0.13325958790E+04  0.12699999809E+01 0. -1.
       -4    1    3    3    0  502 -0.87217791778E+01 -0.96158060070E+03 -0.90425836436E+03  0.13199992892E+04  0.12699999809E+01 0.  1.
</event>
<event>
 5   0  0.1184684E-06  0.3666290E+04  0.7818609E-02  0.8075474E-01
       -2   -1    0    0    0  501  0.00000000000E+00  0.00000000000E+00  0.13575119976E+04  0.13575119976E+04  0.25500000920E-02 0.  1.
        2   -1    0    0  501    0  0.00000000000E+00  0.00000000000E+00 -0.24754264541E+04  0.24754264541E+04  0.25500000920E-02 0. -1.
    10030    2    1    2    0    0  0.00000000000E+00  0.00000000000E+00 -0.11179144565E+04  0.38329384517E+04  0.36662902834E+04 0.  0.
        4    1    3    3  502    0 -0.16514556562E+04 -0.66821096403E+03 -0.10105738505E+04  0.20481876860E+04  0.12699999809E+01 0. -1.
       -4    1    3    3    0  502  0.16514556562E+04  0.66821096403E+03 -0.10734060601E+03  0.17847507657E+04  0.12699999809E+01 0.  1.
</event>
<event>
 5   0  0.1685793E-06  0.3561859E+04  0.7818609E-02  0.8099285E-01
        2   -1    0    0  501    0  0.00000000000E+00  0.00000000000E+00  0.23566914169E+04  0.23566914169E+04  0.25500000920E-02 0.  1.
       -2   -1    0    0    0  501  0.00000000000E+00  0.00000000000E+00 -0.13458317231E+04  0.13458317231E+04  0.25500000920E-02 0. -1.
    10030    2    1    2    0    0  0.00000000000E+00  0.00000000000E+00  0.10108596938E+04  0.37025231400E+04  0.35618591047E+04 0.  0.
        3    1    3    3  502    0  0.37025052793E+03  0.65028217652E+03 -0.11744858455E+04  0.13926124278E+04  0.10100000352E+00 0. -1.
       -3    1    3    3    0  502 -0.37025052793E+03 -0.65028217652E+03  0.21853455392E+04  0.23099107122E+04  0.10100000352E+00 0.  1.
</event>
<event>
 5   0  0.6287345E-07  0.3694921E+04  0.7818609E-02  0.8069088E-01
        1   -1    0    0  501    0  0.00000000000E+00  0.00000000000E+00  0.16436071052E+04  0.16436071052E+04  0.50400001928E-02 0. -1.
       -1   -1    0    0    0  501  0.00000000000E+00  0.00000000000E+00 -0.20765975234E+04  0.20765975235E+04  0.50400001928E-02 0.  1.
    10030    2    1    2    0    0  0.00000000000E+00  0.00000000000E+00 -0.43299041822E+03  0.37202046287E+04  0.36949210786E+04 0.  0.
        5    1    3    3  502    0 -0.35535183755E+03  0.71196801073E+03  0.14622215221E+04  0.16647183685E+04  0.46999998093E+01 0. -1.
       -5    1    3    3    0  502  0.35535183755E+03 -0.71196801073E+03 -0.18952119404E+04  0.20554862601E+04  0.46999998093E+01 0.  1.
</event>
<event>
 5   0  0.5679750E-07  0.3700402E+04  0.7818609E-02  0.8067873E-01
        1   -1    0    0  501    0  0.00000000000E+00  0.00000000000E+00  0.25319203481E+04  0.25319203481E+04  0.50400001928E-02 0. -1.
       -1   -1    0    0    0  501  0.00000000000E+00  0.00000000000E+00 -0.13520342389E+04  0.13520342389E+04  0.50400001928E-02 0.  1.
    10030    2    1    2    0    0  0.00000000000E+00  0.00000000000E+00  0.11798861092E+04  0.38839545870E+04  0.37004016002E+04 0.  0.
        4    1    3    3  502    0 -0.48459840360E+03  0.96493772290E+03  0.21669006560E+04  0.24210329382E+04  0.12699999809E+01 0. -1.
       -4    1    3    3    0  502  0.48459840360E+03 -0.96493772290E+03 -0.98701454683E+03  0.14629216488E+04  0.12699999809E+01 0.  1.
</event>
<event>
 5   0  0.1184684E-06  0.3634359E+04  0.7818609E-02  0.8082666E-01
        2   -1    0    0  501    0  0.00000000000E+00  0.00000000000E+00  0.13753404323E+04  0.13753404323E+04  0.25500000920E-02 0.  1.
       -2   -1    0    0    0  501  0.00000000000E+00  0.00000000000E+00 -0.24009629560E+04  0.24009629561E+04  0.25500000920E-02 0. -1.
    10030    2    1    2    0    0  0.00000000000E+00  0.00000000000E+00 -0.10256225237E+04  0.37763033884E+04  0.36343590521E+04 0.  0.
        4    1    3    3  502    0  0.41858209456E+03  0.16638256512E+04  0.10942037996E+03  0.17191571190E+04  0.12699999809E+01 0. -1.
       -4    1    3    3    0  502 -0.41858209456E+03 -0.16638256512E+04 -0.11350429037E+04  0.20571462694E+04  0.12699999809E+01 0.  1.
</event>
<event>
 5   0  0.5875011E-07  0.2219962E+04  0.7818609E-02  0.8510165E-01
       -1   -1    0    0    0  501  0.00000000000E+00  0.00000000000E+00  0.74241388685E+03  0.74241388687E+03  0.50400001928E-02 0.  1.
        1   -1    0    0  501    0  0.00000000000E+00  0.00000000000E+00 -0.16595292930E+04  0.16595292930E+04  0.50400001928E-02 0. -1.
    10030    2    1    2    0    0  0.00000000000E+00  0.00000000000E+00 -0.91711540618E+03  0.24019431799E+04  0.22199617950E+04 0.  0.
        2    1    3    3  502    0 -0.28892666664E+03 -0.11144638580E+03  0.69472751068E+03  0.76062160744E+03  0.25500000920E-02 0.  1.
       -2    1    3    3    0  502  0.28892666664E+03  0.11144638580E+03 -0.16118429169E+04  0.16413215725E+04  0.25500000920E-02 0. -1.
</event>
<event>
 5   0  0.1724503E-06  0.3875423E+04  0.7818609E-02  0.8030160E-01
        2   -1    0    0  501    0  0.00000000000E+00  0.00000000000E+00  0.36503776453E+04  0.36503776453E+04  0.25500000920E-02 0. -1.
       -2   -1    0    0    0  501  0.00000000000E+00  0.00000000000E+00 -0.10285857790E+04  0.10285857790E+04  0.25500000920E-02 0.  1.
    10030    2    1    2    0    0  0.00000000000E+00  0.00000000000E+00  0.26217918663E+04  0.46789634242E+04  0.38754233491E+04 0.  0.
        1    1    3    3  502    0  0.12096525032E+04  0.94928964804E+03 -0.11270197201E+03  0.15417884903E+04  0.50400001928E-02 0.  1.
       -1    1    3    3    0  502 -0.12096525032E+04 -0.94928964804E+03  0.27344938383E+04  0.31371749339E+04  0.50400001928E-02 0. -1.
</event>
<event>
 5   0  0.1685793E-06  0.3524882E+04  0.7818609E-02  0.8107918E-01
        2   -1    0    0  501    0  0.00000000000E+00  0.00000000000E+00  0.18664351298E+04  0.18664351298E+04  0.25500000920E-02 0. -1.
       -2   -1    0    0    0  501  0.00000000000E+00  0.00000000000E+00 -0.16642410776E+04  0.16642410776E+04  0.25500000920E-02 0.  1.
    10030    2    1    2    0    0  0.00000000000E+00  0.00000000000E+00  0.20219405225E+03  0.35306762074E+04  0.35248818486E+04 0.  0.
        3    1    3    3  502    0 -0.14599648315E+04 -0.36989785852E+03  0.10179575433E+04  0.18178446867E+04  0.10100000352E+00 0. -1.
       -3    1    3    3    0  502  0.14599648315E+04  0.36989785852E+03 -0.81576349103E+03  0.17128315207E+04  0.10100000352E+00 0.  1.
</event>
<event>
 5   0  0.5875011E-07  0.1942519E+04  0.7818609E-02  0.8633976E-01
       -1   -1    0    0    0  501  0.00000000000E+00  0.00000000000E+00  0.79086916667E+03  0.79086916669E+03  0.50400001928E-02 0.  1.
        1   -1    0    0  501    0  0.00000000000E+00  0.00000000000E+00 -0.11927957992E+04  0.11927957992E+04  0.50400001928E-02 0. -1.
    10030    2    1    2    0    0  0.00000000000E+00  0.00000000000E+00 -0.40192663254E+03  0.19836649659E+04  0.19425194154E+04 0.  0.
        2    1    3    3  502    0  0.28815911764E+03  0.17372797862E+03  0.72944926243E+03  0.80331395737E+03  0.25500000920E-02 0.  1.
       -2    1    3    3    0  502 -0.28815911764E+03 -0.17372797862E+03 -0.11313758950E+04  0.11803510085E+04  0.25500000920E-02 0. -1.
</event>
<event>
 5   0  0.5679750E-07  0.3587823E+04  0.7818609E-02  0.8093287E-01
       -1   -1    0    0    0  501  0.00000000000E+00  0.00000000000E+00  0.23388367732E+04  0.23388367732E+04  0.50400001928E-02 0. -1.
        1   -1    0    0  501    0  0.00000000000E+00  0.00000000000E+00 -0.13759485445E+04  0.13759485445E+04  0.50400001928E-02 0.  1.
    10030    2    1    2    0    0  0.00000000000E+00  0.00000000000E+00  0.96288822872E+03  0.37147853178E+04  0.35878233257E+04 0.  0.
        4    1    3    3  502    0 -0.98916571639E+03 -0.60086053510E+03 -0.93769151636E+03  0.14895466390E+04  0.12699999809E+01 0.  1.
       -4    1    3    3    0  502  0.98916571639E+03  0.60086053510E+03  0.19005797451E+04  0.22252386787E+04  0.12699999809E+01 0. -1.
</event>
<event>
 5   0  0.5875011E-07  0.3859895E+04  0.7818609E-02  0.8033422E-01
        1   -1    0    0  501    0  0.00000000000E+00  0.00000000000E+00  0.25436086333E+04  0.25436086333E+04  0.50400001928E-02 0. -1.
       -1   -1    0    0    0  501  0.00000000000E+00  0.00000000000E+00 -0.14643358512E+04  0.14643358512E+04  0.50400001928E-02 0.  1.
    10030    2    1    2    0    0  0.00000000000E+00  0.00000000000E+00  0.10792727820E+04  0.40079444845E+04  0.38598949795E+04 0.  0.
        2    1    3    3  502    0 -0.23472566512E+03  0.62235373202E+03 -0.13415586451E+04  0.14973977106E+04  0.25500000920E-02 0.  1.
       -2    1    3    3    0  502  0.23472566512E+03 -0.62235373202E+03  0.24208314271E+04  0.25105467739E+04  0.25500000920E-02 0. -1.
</event>
<event>
 5   0  0.1184684E-06  0.2352023E+04  0.7818609E-02  0.8457687E-01
        2   -1    0    0  501    0  0.00000000000E+00  0.00000000000E+00  0.14882570529E+04  0.14882570529E+04  0.25500000920E-02 0.  1.
       -2   -1    0    0    0  501  0.00000000000E+00  0.00000000000E+00 -0.92927664624E+03  0.92927664624E+03  0.25500000920E-02 0. -1.
    10030    2    1    2    0    0  0.00000000000E+00  0.00000000000E+00  0.55898040670E+03  0.24175336992E+04  0.23520225534E+04 0.  0.
        4    1    3    3  502    0 -0.67732672288E+03  0.83703403781E+03  0.76552828171E+03  0.13211482252E+04  0.12699999809E+01 0.  1.
       -4    1    3    3    0  502  0.67732672288E+03 -0.83703403781E+03 -0.20654787501E+03  0.10963854740E+04  0.12699999809E+01 0. -1.
</event>
<event>
 5   0  0.5679750E-07  0.3585390E+04  0.7818609E-02  0.8093847E-01
        1   -1    0    0  501    0  0.00000000000E+00  0.00000000000E+00  0.17675698587E+04  0.17675698587E+04  0.50400001928E-02 0.  1.
       -1   -1    0    0    0  501  0.00000000000E+00  0.00000000000E+00 -0.18181770605E+04  0.18181770605E+04  0.50400001928E-02 0. -1.
    10030    2    1    2    0    0  0.00000000000E+00  0.00000000000E+00 -0.50607201758E+02  0.35857469192E+04  0.35853897807E+04 0.  0.
        4    1    3    3  502    0  0.12530278397E+04  0.12194601929E+04 -0.42105936565E+03  0.17984589324E+04  0.12699999809E+01 0. -1.
       -4    1    3    3    0  502 -0.12530278397E+04 -0.12194601929E+04  0.37045216389E+03  0.17872879868E+04  0.12699999809E+01 0.  1.
</event>
<event>
 5   0  0.1184684E-06  0.2254207E+04  0.7818609E-02  0.8496199E-01
       -2   -1    0    0    0  501  0.00000000000E+00  0.00000000000E+00  0.78305877095E+03  0.78305877096E+03  0.25500000920E-02 0.  1.
        2   -1    0    0  501    0  0.00000000000E+00  0.00000000000E+00 -0.16223072558E+04  0.16223072558E+04  0.25500000920E-02 0. -1.
    10030    2    1    2    0    0  0.00000000000E+00  0.00000000000E+00 -0.83924848483E+03  0.24053660267E+04  0.22542066683E+04 0.  0.
        4    1    3    3  502    0 -0.91372281699E+03  0.13653721091E+03 -0.11085400563E+04  0.14430504030E+04  0.12699999809E+01 0. -1.
       -4    1    3    3    0  502  0.91372281699E+03 -0.13653721091E+03  0.26929157151E+03  0.96231562371E+03  0.12699999809E+01 0.  1.
</event>
<event>
 5   0  0.6287345E-07  0.1915776E+04  0.7818609E-02  0.8647043E-01
       -1   -1    0    0    0  501  0.00000000000E+00  0.00000000000E+00  0.10611024423E+04  0.10611024423E+04  0.50400001928E-02 0. -1.
        1   -1    0    0  501    0  0.00000000000E+00  0.00000000000E+00 -0.86471344052E+03  0.86471344053E+03  0.50400001928E-02 0.  1.
    10030    2    1    2    0    0  0.00000000000E+00  0.00000000000E+00  0.19638900176E+03  0.19258158828E+04  0.19157761285E+04 0.  0.
        5    1    3    3  502    0  0.82538320762E+03  0.48598216749E+03  0.88586846593E+02  0.96192818127E+03  0.46999998093E+01 0. -1.
       -5    1    3    3    0  502 -0.82538320762E+03 -0.48598216749E+03  0.10780215516E+03  0.96388770155E+03  0.46999998093E+01 0.  1.
</event>
<event>
 5   0  0.6186440E-07  0.3731047E+04  0.7818609E-02  0.8061116E-01
       -1   -1    0    0    0  501  0.00000000000E+00  0.00000000000E+00  0.11537293769E+04  0.11537293769E+04  0.50400001928E-02 0.  1.
        1   -1    0    0  501    0  0.00000000000E+00  0.00000000000E+00 -0.30164600514E+04  0.30164600514E+04  0.50400001928E-02 0. -1.
    10030    2    1    2    0    0  0.00000000000E+00  0.00000000000E+00 -0.18627306745E+04  0.41701894283E+04  0.37310473465E+04 0.  0.
        3    1    3    3  502    0 -0.36829971762E+03  0.68570057724E+03 -0.28263021896E+04  0.29315207727E+04  0.10100000352E+00 0. -1.
       -3    1    3    3    0  502  0.36829971762E+03 -0.68570057724E+03  0.96357151503E+03  0.12386686556E+04  0.10100000352E+00 0.  1.
</event>
<event>
 5   0  0.1724503E-06  0.3642229E+04  0.7818609E-02  0.8080887E-01
       -2   -1    0    0    0  501  0.00000000000E+00  0.00000000000E+00  0.19418791103E+04  0.19418791103E+04  0.25500000920E-02 0.  1.
        2   -1    0    0  501    0  0.00000000000E+00  0.00000000000E+00 -0.17078599238E+04  0.17078599238E+04  0.25500000920E-02 0. -1.
    10030    2    1    2    0    0  0.00000000000E+00  0.00000000000E+00  0.23401918652E+03  0.36497390341E+04  0.36422287184E+04 0.  0.
        1    1    3    3  502    0  0.14383016752E+04 -0.49077961411E+03 -0.88849418700E+03  0.17603971878E+04  0.50400001928E-02 0. -1.
       -1    1    3    3    0  502 -0.14383016752E+04  0.49077961411E+03  0.11225133735E+04  0.18893418463E+04  0.50400001928E-02 0.  1.
</event>
<event>
 5   0  0.5679750E-07  0.2801425E+04  0.7818609E-02  0.8302826E-01
       -1   -1    0    0    0  501  0.00000000000E+00  0.00000000000E+00  0.11731956314E+04  0.11731956314E+04  0.50400001928E-02 0.  1.
        1   -1    0    0  501    0  0.00000000000E+00  0.00000000000E+00 -0.16723515547E+04  0.16723515547E+04  0.50400001928E-02 0. -1.
    10030    2    1    2    0    0  0.00000000000E+00  0.00000000000E+00 -0.49915592334E+03  0.28455471861E+04  0.28014250217E+04 0.  0.
        4    1    3    3  502    0  0.27819900317E+03 -0.86265632526E+03  0.83514748899E+03  0.12324948528E+04  0.12699999809E+01 0.  1.
       -4    1    3    3    0  502 -0.27819900317E+03  0.86265632526E+03 -0.13343034123E+04  0.16130523333E+04  0.12699999809E+01 0. -1.
</event>
<event>
 5   0  0.6186440E-07  0.3571904E+04  0.7818609E-02  0.8096958E-01
       -1   -1    0    0    0  501  0.00000000000E+00  0.00000000000E+00  0.16862925084E+04  0.16862925084E+04  0.50400001928E-02 0. -1.
        1   -1    0    0  501    0  0.00000000000E+00  0.00000000000E+00 -0.18915013234E+04  0.18915013234E+04  0.50400001928E-02 0.  1.
    10030    2    1    2    0    0  0.00000000000E+00  0.00000000000E+00 -0.20520881497E+03  0.35777938318E+04  0.35719039804E+04 0.  0.
        3    1    3    3  502    0 -0.17809704283E+04  0.12542956527E+03 -0.57405074850E+02  0.17863044519E+04  0.10100000352E+00 0. -1.
       -3    1    3    3    0  502  0.17809704283E+04 -0.12542956527E+03 -0.14780374012E+03  0.17914893798E+04  0.10100000352E+00 0.  1.
</event>
<event>
 5   0  0.6287345E-07  0.2912589E+04  0.7818609E-02  0.8269142E-01
       -1   -1    0    0    0  501  0.00000000000E+00  0.00000000000E+00  0.11469698998E+04  0.11469698998E+04  0.50400001928E-02 0. -1.
        1   -1    0    0  501    0  0.00000000000E+00  0.00000000000E+00 -0.18490402954E+04  0.18490402954E+04  0.50400001928E-02 0.  1.
    10030    2    1    2    0    0  0.00000000000E+00  0.00000000000E+00 -0.70207039561E+03  0.29960101951E+04  0.29125889255E+04 0.  0.
        5    1    3    3  502    0  0.13948327151E+04  0.39719313767E+03 -0.48692019832E+03  0.15298477249E+04  0.46999998093E+01 0.  1.
       -5    1    3    3    0  502 -0.13948327151E+04 -0.39719313767E+03 -0.21515019730E+03  0.14661624703E+04  0.46999998093E+01 0. -1.
</event>
<event>
 5   0  0.6287345E-07  0.3710110E+04  0.7818609E-02  0.8065725E-01
        1   -1    0    0  501    0  0.00000000000E+00  0.00000000000E+00  0.21153580379E+04  0.21153580379E+04  0.50400001928E-02 0. -1.
       -1   -1    0    0    0  501  0.00000000000E+00  0.00000000000E+00 -0.16267833246E+04  0.16267833246E+04  0.50400001928E-02 0.  1.
    10030    2    1    2    0    0  0.00000000000E+00  0.00000000000E+00  0.48857471331E+03  0.37421413625E+04  0.37101100693E+04 0.  0.
        5    1    3    3  502    0  0.14691985413E+04 -0.34267068113E+02  0.13860892339E+04  0.20201445592E+04  0.46999998093E+01 0. -1.
       -5    1    3    3    0  502 -0.14691985413E+04  0.34267068113E+02 -0.89751452059E+03  0.17219968033E+04  0.46999998093E+01 0.  1.
</event>
<event>
 5   0  0.1685793E-06  0.3699180E+04  0.7818609E-02  0.8068144E-01
        2   -1    0    0  501    0  0.00000000000E+00  0.00000000000E+00  0.17544264808E+04  0.17544264808E+04  0.25500000920E-02 0.  1.
       -2   -1    0    0    0  501  0.00000000000E+00  0.00000000000E+00 -0.19499151403E+04  0.19499151403E+04  0.25500000920E-02 0. -1.
    10030    2    1    2    0    0  0.00000000000E+00  0.00000000000E+00 -0.19548865952E+03  0.37043416211E+04  0.36991797779E+04 0.  0.
        3    1    3    3  502    0 -0.15232196287E+04  0.76434883617E+03  0.62197657300E+03  0.18141890883E+04  0.10100000352E+00 0. -1.
       -3    1    3    3    0  502  0.15232196287E+04 -0.76434883617E+03 -0.81746523252E+03  0.18901525328E+04  0.10100000352E+00 0.  1.
</event>
<event>
 5   0  0.5679750E-07  0.2586359E+04  0.7818609E-02  0.8372850E-01
       -3   -1    0    0    0  501  0.00000000000E+00  0.00000000000E+00  0.21332833219E+04  0.21332833243E+04  0.10100000352E+00 0.  1.
        3   -1    0    0  501    0  0.00000000000E+00  0.00000000000E+00 -0.78391524609E+03  0.78391525260E+03  0.10100000352E+00 0. -1.
    10030    2    1    2    0    0  0.00000000000E+00  0.00000000000E+00  0.13493680758E+04  0.29171985769E+04  0.25863590882E+04 0.  0.
        1    1    3    3  502    0 -0.24931231880E+03 -0.88629248654E+03  0.16989434960E+04  0.19323767766E+04  0.50400001928E-02 0.  1.
       -1    1    3    3    0  502  0.24931231880E+03  0.88629248654E+03 -0.34957542018E+03  0.98482180033E+03  0.50400001928E-02 0. -1.
</event>
<event>
 5   0  0.5679750E-07  0.3507597E+04  0.7818609E-02  0.8111992E-01
       -1   -1    0    0    0  501  0.00000000000E+00  0.00000000000E+00  0.10042957166E+04  0.10042957166E+04  0.50400001928E-02 0. -1.
        1   -1    0    0  501    0  0.00000000000E+00  0.00000000000E+00 -0.30626534707E+04  0.30626534707E+04  0.50400001928E-02 0.  1.
    10030    2    1    2    0    0  0.00000000000E+00  0.00000000000E+00 -0.20583577540E+04  0.40669491873E+04  0.35075973327E+04 0.  0.
        4    1    3    3  502    0  0.28149545212E+03 -0.21819657220E+02 -0.30361291592E+04  0.30492290290E+04  0.12699999809E+01 0.  1.
       -4    1    3    3    0  502 -0.28149545212E+03  0.21819657220E+02  0.97777140516E+03  0.10177201583E+04  0.12699999809E+01 0. -1.
</event>
<event>
 5   0  0.6186440E-07  0.3807409E+04  0.7818609E-02  0.8044567E-01
       -1   -1    0    0    0  501  0.00000000000E+00  0.00000000000E+00  0.13205363278E+04  0.13205363278E+04  0.50400001928E-02 0. -1.
        1   -1    0    0  501    0  0.00000000000E+00  0.00000000000E+00 -0.27444082126E+04  0.27444082126E+04  0.50400001928E-02 0.  1.
    10030    2    1    2    0    0  0.00000000000E+00  0.00000000000E+00 -0.14238718849E+04  0.40649445404E+04  0.38074089578E+04 0.  0.
        3    1    3    3  502    0  0.13936268511E+04  0.12697759226E+04 -0.43034577064E+03  0.19338366493E+04  0.10100000352E+00 0. -1.
       -3    1    3    3    0  502 -0.13936268511E+04 -0.12697759226E+04 -0.99352611422E+03  0.21311078911E+04  0.10100000352E+00 0.  1.
</event>
<event>
 5   0  0.6261598E-07  0.3426734E+04  0.7818609E-02  0.8131376E-01
        1   -1    0    0  501    0  0.00000000000E+00  0.00000000000E+00  0.19479443894E+04  0.19479443894E+04  0.50400001928E-02 0.  1.
       -1   -1    0    0    0  501  0.00000000000E+00  0.00000000000E+00 -0.15070379883E+04  0.15070379883E+04  0.50400001928E-02 0. -1.
    10030    2    1    2    0    0  0.00000000000E+00  0.00000000000E+00  0.44090640103E+03  0.34549823777E+04  0.34267338350E+04 0.  0.
        1    1    3    3  502    0  0.11878479907E+04 -0.41832325640E+03  0.13917740726E+04  0.18769689036E+04  0.50400001928E-02 0.  1.
       -1    1    3    3    0  502 -0.11878479907E+04  0.41832325640E+03 -0.95086767157E+03  0.15780134742E+04  0.50400001928E-02 0. -1.
</event>
<event>
 5   0  0.1184684E-06  0.3674874E+04  0.7818609E-02  0.8073553E-01
       -2   -1    0    0    0  501  0.00000000000E+00  0.00000000000E+00  0.19346381791E+04  0.19346381791E+04  0.25500000920E-02 0. -1.
        2   -1    0    0  501    0  0.00000000000E+00  0.00000000000E+00 -0.17451193870E+04  0.17451193870E+04  0.25500000920E-02 0.  1.
    10030    2    1    2    0    0  0.00000000000E+00  0.00000000000E+00  0.18951879204E+03  0.36797575661E+04  0.36748739261E+04 0.  0.
        4    1    3    3  502    0  0.14522017001E+04 -0.10160218941E+04 -0.39063495728E+03  0.18148794863E+04  0.12699999809E+01 0.  1.
       -4    1    3    3    0  502 -0.14522017001E+04  0.10160218941E+04  0.58015374933E+03  0.18648780798E+04  0.12699999809E+01 0. -1.
</event>
<event>
 5   0  0.1151180E-06  0.3665515E+04  0.7818609E-02  0.8075647E-01
        2   -1    0    0  501    0  0.00000000000E+00  0.00000000000E+00  0.14681958465E+04  0.14681958465E+04  0.25500000920E-02 0.  1.
       -2   -1    0    0    0  501  0.00000000000E+00  0.00000000000E+00 -0.22878417545E+04  0.22878417545E+04  0.25500000920E-02 0. -1.
    10030    2    1    2    0    0  0.00000000000E+00  0.00000000000E+00 -0.81964590807E+03  0.37560376010E+04  0.36655148404E+04 0.  0.
        5    1    3    3  502    0 -0.11512712519E+02 -0.80436946276E+03  0.12776101762E+04  0.15097856231E+04  0.46999998093E+01 0.  1.
       -5    1    3    3    0  502  0.11512712519E+02  0.80436946276E+03 -0.20972560843E+04  0.22462519779E+04  0.46999998093E+01 0. -1.
</event>
<event>
 5   0  0.6287345E-07  0.3388283E+04  0.7818609E-02  0.8140788E-01
        1   -1    0    0  501    0  0.00000000000E+00  0.00000000000E+00  0.18540186933E+04  0.18540186933E+04  0.50400001928E-02 0. -1.
       -1   -1    0    0    0  501  0.00000000000E+00  0.00000000000E+00 -0.15480513547E+04  0.15480513548E+04  0.50400001928E-02 0.  1.
    10030    2    1    2    0    0  0.00000000000E+00  0.00000000000E+00  0.30596733858E+03  0.34020700481E+04  0.33882834297E+04 0.  0.
        5    1    3    3  502    0 -0.21942057513E+03  0.30678979164E+03  0.18113179036E+04  0.18501783706E+04  0.46999998093E+01 0. -1.
       -5    1    3    3    0  502  0.21942057513E+03 -0.30678979164E+03 -0.15053505650E+04  0.15518916775E+04  0.46999998093E+01 0.  1.
</event>
<event>
 5   0  0.1184684E-06  0.3669875E+04  0.7818609E-02  0.8074671E-01
        2   -1    0    0  501    0  0.00000000000E+00  0.00000000000E+00  0.23526896860E+04  0.23526896860E+04  0.25500000920E-02 0.  1.
       -2   -1    0    0    0  501  0.00000000000E+00  0.00000000000E+00 -0.14311260588E+04  0.14311260589E+04  0.25500000920E-02 0. -1.
    10030    2    1    2    0    0  0.00000000000E+00  0.00000000000E+00  0.92156362716E+03  0.37838157449E+04  0.36698749396E+04 0.  0.
        4    1    3    3  502    0  0.10152836265E+03  0.10699158929E+04 -0.10726622088E+04  0.15184313792E+04  0.12699999809E+01 0. -1.
       -4    1    3    3    0  502 -0.10152836265E+03 -0.10699158929E+04  0.19942258360E+04  0.22653843656E+04  0.12699999809E+01 0.  1.
</event>
<event>
 5   0  0.1184684E-06  0.2937517E+04  0.7818609E-02  0.8261802E-01
       -2   -1    0    0    0  501  0.00000000000E+00  0.00000000000E+00  0.96310281831E+03  0.96310281831E+03  0.25500000920E-02 0.  1.
        2   -1    0    0  501    0  0.00000000000E+00  0.00000000000E+00 -0.22398972927E+04  0.22398972927E+04  0.25500000920E-02 0. -1.
    10030    2    1    2    0    0  0.00000000000E+00  0.00000000000E+00 -0.12767944744E+04  0.32030001110E+04  0.29375169074E+04 0.  0.
        4    1    3    3  502    0  0.12723445229E+03  0.14484362083E+04 -0.41204561752E+03  0.15112707432E+04  0.12699999809E+01 0.  1.
       -4    1    3    3    0  502 -0.12723445229E+03 -0.14484362083E+04 -0.86474885685E+03  0.16917293678E+04  0.12699999809E+01 0. -1.
</event>
<event>
 5   0  0.5679750E-07  0.3750046E+04  0.7818609E-02  0.8056961E-01
       -3   -1    0    0    0  501  0.00000000000E+00  0.00000000000E+00  0.17089056850E+04  0.17089056880E+04  0.10100000352E+00 0.  1.
        3   -1    0    0  501    0  0.00000000000E+00  0.00000000000E+00 -0.20572884192E+04  0.20572884217E+04  0.10100000352E+00 0. -1.
    10030    2    1    2    0    0  0.00000000000E+00  0.00000000000E+00 -0.34838273414E+03  0.37661941097E+04  0.37500463387E+04 0.  0.
        4    1    3    3  502    0 -0.47077243028E+03 -0.17333959764E+04  0.36610471835E+03  0.18331182640E+04  0.12699999809E+01 0. -1.
       -4    1    3    3    0  502  0.47077243028E+03  0.17333959764E+04 -0.71448745249E+03  0.19330758456E+04  0.12699999809E+01 0.  1.
</event>
<event>
 5   0  0.1184684E-06  0.3623737E+04  0.7818609E-02  0.8085076E-01
       -2   -1    0    0    0  501  0.00000000000E+00  0.00000000000E+00  0.19142390948E+04  0.19142390948E+04  0.25500000920E-02 0.  1.
        2   -1    0    0  501    0  0.00000000000E+00  0.00000000000E+00 -0.17149722143E+04  0.17149722143E+04  0.25500000920E-02 0. -1.
    10030    2    1    2    0    0  0.00000000000E+00  0.00000000000E+00  0.19926688046E+03  0.36292113091E+04  0.36237366677E+04 0.  0.
        4    1    3    3  502    0 -0.41564376543E+03 -0.17433266419E+04  0.36633958765E+03  0.18292495255E+04  0.12699999809E+01 0.  1.
       -4    1    3    3    0  502  0.41564376543E+03  0.17433266419E+04 -0.16707270719E+03  0.17999617836E+04  0.12699999809E+01 0. -1.
</event>
<event>
 5   0  0.1680194E-06  0.2352810E+04  0.7818609E-02  0.8457385E-01
       -2   -1    0    0    0  501  0.00000000000E+00  0.00000000000E+00  0.93432585519E+03  0.93432585519E+03  0.25500000920E-02 0.  1.
        2   -1    0    0  501    0  0.00000000000E+00  0.00000000000E+00 -0.14812051302E+04  0.14812051302E+04  0.25500000920E-02 0. -1.
    10030    2    1    2    0    0  0.00000000000E+00  0.00000000000E+00 -0.54687927501E+03  0.24155309854E+04  0.23528095970E+04 0.  0.
        2    1    3    3  502    0  0.83997844440E+03  0.46810984714E+02 -0.11176580208E+04  0.13988976041E+04  0.25500000920E-02 0. -1.
       -2    1    3    3    0  502 -0.83997844440E+03 -0.46810984714E+02  0.57077874576E+03  0.10166333813E+04  0.25500000920E-02 0.  1.
</event>
<event>
 5   0  0.1724503E-06  0.3672436E+04  0.7818609E-02  0.8074098E-01
        2   -1    0    0  501    0  0.00000000000E+00  0.00000000000E+00  0.21536407264E+04  0.21536407264E+04  0.25500000920E-02 0. -1.
       -2   -1    0    0    0  501  0.00000000000E+00  0.00000000000E+00 -0.15655795829E+04  0.15655795829E+04  0.25500000920E-02 0.  1.
    10030    2    1    2    0    0  0.00000000000E+00  0.00000000000E+00  0.58806114350E+03  0.37192203093E+04  0.36724356768E+04 0.  0.
        1    1    3    3  502    0 -0.15022601455E+04  0.38979504737E+02 -0.77458515346E+03  0.16906469492E+04  0.50400001928E-02 0.  1.
       -1    1    3    3    0  502  0.15022601455E+04 -0.38979504737E+02  0.13626462970E+04  0.20285733601E+04  0.50400001928E-02 0. -1.
</event>
<event>
 5   0  0.6261598E-07  0.3724917E+04  0.7818609E-02  0.8062462E-01
       -1   -1    0    0    0  501  0.00000000000E+00  0.00000000000E+00  0.20488880700E+04  0.20488880700E+04  0.50400001928E-02 0.  1.
        1   -1    0    0  501    0  0.00000000000E+00  0.00000000000E+00 -0.16929924777E+04  0.16929924777E+04  0.50400001928E-02 0. -1.
    10030    2    1    2    0    0  0.00000000000E+00  0.00000000000E+00  0.35589559224E+03  0.37418805477E+04  0.37249172287E+04 0.  0.
        1    1    3    3  502    0 -0.50843748216E+03 -0.13633637463E+04 -0.98987927952E+03  0.17598665762E+04  0.50400001928E-02 0. -1.
       -1    1    3    3    0  502  0.50843748216E+03  0.13633637463E+04  0.13457748718E+04  0.19820139715E+04  0.50400001928E-02 0.  1.
</event>
<event>
 5   0  0.5875011E-07  0.2765977E+04  0.7818609E-02  0.8313910E-01
        1   -1    0    0  501    0  0.00000000000E+00  0.00000000000E+00  0.13077943686E+04  0.13077943686E+04  0.50400001928E-02 0.  1.
       -1   -1    0    0    0  501  0.00000000000E+00  0.00000000000E+00 -0.14625055711E+04  0.14625055711E+04  0.50400001928E-02 0. -1.
    10030    2    1    2    0    0  0.00000000000E+00  0.00000000000E+00 -0.15471120251E+03  0.27702999397E+04  0.27659765363E+04 0.  0.
        2    1    3    3  502    0  0.35261855404E+03  0.58624439517E+03  0.11264524651E+04  0.13179216561E+04  0.25500000920E-02 0.  1.
       -2    1    3    3    0  502 -0.35261855404E+03 -0.58624439517E+03 -0.12811636676E+04  0.14523782836E+04  0.25500000920E-02 0. -1.
</event>
<event>
 5   0  0.1685793E-06  0.3643806E+04  0.7818609E-02  0.8080530E-01
       -2   -1    0    0    0  501  0.00000000000E+00  0.00000000000E+00  0.17953450951E+04  0.17953450951E+04  0.25500000920E-02 0.  1.
        2   -1    0    0  501    0  0.00000000000E+00  0.00000000000E+00 -0.18488541730E+04  0.18488541730E+04  0.25500000920E-02 0. -1.
    10030    2    1    2    0    0  0.00000000000E+00  0.00000000000E+00 -0.53509077953E+02  0.36441992681E+04  0.36438064005E+04 0.  0.
        3    1    3    3  502    0 -0.18533986702E+03  0.32251478343E+03 -0.18104727275E+04  0.18482906046E+04  0.10100000352E+00 0. -1.
       -3    1    3    3    0  502  0.18533986702E+03 -0.32251478343E+03  0.17569636495E+04  0.17959086635E+04  0.10100000352E+00 0.  1.
</event>
<event>
 5   0  0.1680194E-06  0.1880571E+04  0.7818609E-02  0.8664588E-01
       -2   -1    0    0    0  501  0.00000000000E+00  0.00000000000E+00  0.30915360969E+03  0.30915360970E+03  0.25500000920E-02 0. -1.
        2   -1    0    0  501    0  0.00000000000E+00  0.00000000000E+00 -0.28598637781E+04  0.28598637781E+04  0.25500000920E-02 0.  1.
    10030    2    1    2    0    0  0.00000000000E+00  0.00000000000E+00 -0.25507101684E+04  0.31690173878E+04  0.18805714134E+04 0.  0.
        2    1    3    3  502    0  0.23784394854E+03  0.10832275276E+03  0.24671832380E+03  0.35940714229E+03  0.25500000920E-02 0. -1.
       -2    1    3    3    0  502 -0.23784394854E+03 -0.10832275276E+03 -0.27974284922E+04  0.28096102455E+04  0.25500000920E-02 0.  1.
</event>
<event>
 5   0  0.5679750E-07  0.2051429E+04  0.7818609E-02  0.8582946E-01
        1   -1    0    0  501    0  0.00000000000E+00  0.00000000000E+00  0.11066053912E+04  0.11066053912E+04  0.50400001928E-02 0. -1.
       -1   -1    0    0    0  501  0.00000000000E+00  0.00000000000E+00 -0.95073638517E+03  0.95073638518E+03  0.50400001928E-02 0.  1.
    10030    2    1    2    0    0  0.00000000000E+00  0.00000000000E+00  0.15586900605E+03  0.20573417764E+04  0.20514287796E+04 0.  0.
        4    1    3    3  502    0 -0.15588799949E+03  0.10814239561E+03 -0.93298513842E+03  0.95208126099E+03  0.12699999809E+01 0.  1.
       -4    1    3    3    0  502  0.15588799949E+03 -0.10814239561E+03  0.10888541445E+04  0.11052605154E+04  0.12699999809E+01 0. -1.
</event>
<event>
 5   0  0.1184684E-06  0.3681238E+04  0.7818609E-02  0.8072133E-01
        2   -1    0    0  501    0  0.00000000000E+00  0.00000000000E+00  0.20826589837E+04  0.20826589837E+04  0.25500000920E-02 0.  1.
       -2   -1    0    0    0  501  0.00000000000E+00  0.00000000000E+00 -0.16267077264E+04  0.16267077264E+04  0.25500000920E-02 0. -1.
    10030    2    1    2    0    0  0.00000000000E+00  0.00000000000E+00  0.45595125728E+03  0.37093667101E+04  0.36812375420E+04 0.  0.
        4    1    3    3  502    0 -0.10091566669E+04  0.89473243830E+03 -0.10341659150E+04  0.16995423111E+04  0.12699999809E+01 0. -1.
       -4    1    3    3    0  502  0.10091566669E+04 -0.89473243830E+03  0.14901171723E+04  0.20098243990E+04  0.12699999809E+01 0.  1.
</event>
<event>
 5   0  0.1151180E-06  0.2848149E+04  0.7818609E-02  0.8288474E-01
        2   -1    0    0  501    0  0.00000000000E+00  0.00000000000E+00  0.15392380752E+04  0.15392380752E+04  0.25500000920E-02 0.  1.
       -2   -1    0    0    0  501  0.00000000000E+00  0.00000000000E+00 -0.13175269348E+04  0.13175269348E+04  0.25500000920E-02 0. -1.
    10030    2    1    2    0    0  0.00000000000E+00  0.00000000000E+00  0.22171114032E+03  0.28567650100E+04  0.28481486079E+04 0.  0.
        5    1    3    3  502    0 -0.10552157466E+04 -0.33594803606E+03 -0.78718772776E+03  0.13586861166E+04  0.46999998093E+01 0. -1.
       -5    1    3    3    0  502  0.10552157466E+04  0.33594803606E+03  0.10088988681E+04  0.14980788934E+04  0.46999998093E+01 0.  1.
</event>
<event>
 5   0  0.1685793E-06  0.3714949E+04  0.7818609E-02  0.8064657E-01
        2   -1    0    0  501    0  0.00000000000E+00  0.00000000000E+00  0.19276484208E+04  0.19276484208E+04  0.25500000920E-02 0. -1.
       -2   -1    0    0    0  501  0.00000000000E+00  0.00000000000E+00 -0.17898555908E+04  0.17898555908E+04  0.25500000920E-02 0.  1.
    10030    2    1    2    0    0  0.00000000000E+00  0.00000000000E+00  0.13779282997E+03  0.37175040116E+04  0.37149494226E+04 0.  0.
        3    1    3    3  502    0 -0.52299592258E+03 -0.17052678166E+04 -0.44987036287E+03  0.18395234206E+04  0.10100000352E+00 0.  1.
       -3    1    3    3    0  502  0.52299592258E+03  0.17052678166E+04  0.58766319285E+03  0.18779805909E+04  0.10100000352E+00 0. -1.
</event>
<event>
 5   0  0.1151180E-06  0.3700030E+04  0.7818609E-02  0.8067955E-01
        2   -1    0    0  501    0  0.00000000000E+00  0.00000000000E+00  0.12261905322E+04  0.12261905322E+04  0.25500000920E-02 0.  1.
       -2   -1    0    0    0  501  0.00000000000E+00  0.00000000000E+00 -0.27912107153E+04  0.27912107153E+04  0.25500000920E-02 0. -1.
    10030    2    1    2    0    0  0.00000000000E+00  0.00000000000E+00 -0.15650201831E+04  0.40174012476E+04  0.37000303526E+04 0.  0.
        5    1    3    3  502    0  0.14260161244E+04  0.24785011921E+03  0.46852838080E+03  0.15213456551E+04  0.46999998093E+01 0.  1.
       -5    1    3    3    0  502 -0.14260161244E+04 -0.24785011921E+03 -0.20335485639E+04  0.24960555924E+04  0.46999998093E+01 0. -1.
</event>
<event>
 5   0  0.6261598E-07  0.3381906E+04  0.7818609E-02  0.8142362E-01
       -1   -1    0    0    0  501  0.00000000000E+00  0.00000000000E+00  0.22511460118E+04  0.22511460118E+04  0.50400001928E-02 0. -1.
        1   -1    0    0  501    0  0.00000000000E+00  0.00000000000E+00 -0.12701627500E+04  0.12701627500E+04  0.50400001928E-02 0.  1.
    10030    2    1    2    0    0  0.00000000000E+00  0.00000000000E+00  0.98098326189E+03  0.35213087618E+04  0.33819058585E+04 0.  0.
        1    1    3    3  502    0 -0.15586660832E+04  0.40817830409E+03 -0.43759186373E+02  0.16118201988E+04  0.50400001928E-02 0.  1.
       -1    1    3    3    0  502  0.15586660832E+04 -0.40817830409E+03  0.10247424483E+04  0.19094885630E+04  0.50400001928E-02 0. -1.
</event>
<event>
 5   0  0.6186440E-07  0.3809974E+04  0.7818609E-02  0.8044018E-01
        1   -1    0    0  501    0  0.00000000000E+00  0.00000000000E+00  0.12957295832E+04  0.12957295832E+04  0.50400001928E-02 0.  1.
       -1   -1    0    0    0  501  0.00000000000E+00  0.00000000000E+00 -0.28007196219E+04  0.28007196219E+04  0.50400001928E-02 0. -1.
    10030    2    1    2    0    0  0.00000000000E+00  0.00000000000E+00 -0.15049900387E+04  0.40964492051E+04  0.38099738940E+04 0.  0.
        3    1    3    3  502    0 -0.87350787465E+03 -0.12606055327E+04  0.46243877812E+03  0.16018713899E+04  0.10100000352E+00 0.  1.
       -3    1    3    3    0  502  0.87350787465E+03  0.12606055327E+04 -0.19674288169E+04  0.24945778151E+04  0.10100000352E+00 0. -1.
</event>
<event>
 5   0  0.1184684E-06  0.3876078E+04  0.7818609E-02  0.8030023E-01
        2   -1    0    0  501    0  0.00000000000E+00  0.00000000000E+00  0.12622164529E+04  0.12622164529E+04  0.25500000920E-02 0. -1.
       -2   -1    0    0    0  501  0.00000000000E+00  0.00000000000E+00 -0.29757138440E+04  0.29757138440E+04  0.25500000920E-02 0.  1.
    10030    2    1    2    0    0  0.00000000000E+00  0.00000000000E+00 -0.17134973912E+04  0.42379302969E+04  0.38760779007E+04 0.  0.
        4    1    3    3  502    0  0.79286335363E+03 -0.62989122265E+03 -0.26634660044E+04  0.28494645145E+04  0.12699999809E+01 0.  1.
       -4    1    3    3    0  502 -0.79286335363E+03  0.62989122265E+03  0.94996861323E+03  0.13884657824E+04  0.12699999809E+01 0. -1.
</event>
<event>
 5   0  0.6261598E-07  0.3843771E+04  0.7818609E-02  0.8036826E-01
       -1   -1    0    0    0  501  0.00000000000E+00  0.00000000000E+00  0.18405853908E+04  0.18405853908E+04  0.50400001928E-02 0.  1.
        1   -1    0    0  501    0  0.00000000000E+00  0.00000000000E+00 -0.20067765401E+04  0.20067765401E+04  0.50400001928E-02 0. -1.
    10030    2    1    2    0    0  0.00000000000E+00  0.00000000000E+00 -0.16619114936E+03  0.38473619309E+04  0.38437708476E+04 0.  0.
        1    1    3    3  502    0 -0.16661253932E+04  0.85302796663E+03  0.35321653125E+03  0.19048339706E+04  0.50400001928E-02 0.  1.
       -1    1    3    3    0  502  0.16661253932E+04 -0.85302796663E+03 -0.51940768061E+03  0.19425279603E+04  0.50400001928E-02 0. -1.
</event>
<event>
 5   0  0.1680194E-06  0.3664542E+04  0.7818609E-02  0.8075865E-01
       -2   -1    0    0    0  501  0.00000000000E+00  0.00000000000E+00  0.12600298717E+04  0.12600298717E+04  0.25500000920E-02 0.  1.
        2   -1    0    0  501    0  0.00000000000E+00  0.00000000000E+00 -0.26643954020E+04  0.26643954020E+04  0.25500000920E-02 0. -1.
    10030    2    1    2    0    0  0.00000000000E+00  0.00000000000E+00 -0.14043655303E+04  0.39244252737E+04  0.36645424252E+04 0.  0.
        2    1    3    3  502    0 -0.59998237941E+03  0.17264535721E+04 -0.84014847554E+03  0.20115840160E+04  0.25500000920E-02 0.  1.
       -2    1    3    3    0  502  0.59998237941E+03 -0.17264535721E+04 -0.56421705472E+03  0.19128412577E+04  0.25500000920E-02 0. -1.
</event>
<event>
 5   0  0.5875011E-07  0.3651493E+04  0.7818609E-02  0.8078797E-01
        1   -1    0    0  501    0  0.00000000000E+00  0.00000000000E+00  0.24920965976E+04  0.24920965976E+04  0.50400001928E-02 0. -1.
       -1   -1    0    0    0  501  0.00000000000E+00  0.00000000000E+00 -0.13375684308E+04  0.13375684308E+04  0.50400001928E-02 0.  1.
    10030    2    1    2    0    0  0.00000000000E+00  0.00000000000E+00  0.11545281668E+04  0.38296650284E+04  0.36514927005E+04 0.  0.
        2    1    3    3  502    0 -0.16875366291E+02 -0.87000328782E+03  0.22606229239E+04  0.24223142866E+04  0.25500000920E-02 0. -1.
       -2    1    3    3    0  502  0.16875366291E+02  0.87000328782E+03 -0.11060947571E+04  0.14073507418E+04  0.25500000920E-02 0.  1.
</event>
<event>
 5   0  0.6186440E-07  0.3840072E+04  0.7818609E-02  0.8037610E-01
       -1   -1    0    0    0  501  0.00000000000E+00  0.00000000000E+00  0.15713606832E+04  0.15713606832E+04  0.50400001928E-02 0. -1.
        1   -1    0    0  501    0  0.00000000000E+00  0.00000000000E+00 -0.23460796767E+04  0.23460796767E+04  0.50400001928E-02 0.  1.
    10030    2    1    2    0    0  0.00000000000E+00  0.00000000000E+00 -0.77471899347E+03  0.39174403599E+04  0.38400715429E+04 0.  0.
        3    1    3    3  502    0 -0.83990974413E+03 -0.17260791813E+04 -0.42990877240E+03  0.19671347898E+04  0.10100000352E+00 0.  1.
       -3    1    3    3    0  502  0.83990974413E+03  0.17260791813E+04 -0.34481022107E+03  0.19503055702E+04  0.10100000352E+00 0. -1.
</event>
<event>
 5   0  0.1151180E-06  0.3717178E+04  0.7818609E-02  0.8064166E-01
       -2   -1    0    0    0  501  0.00000000000E+00  0.00000000000E+00  0.30370948776E+04  0.30370948776E+04  0.25500000920E-02 0. -1.
        2   -1    0    0  501    0  0.00000000000E+00  0.00000000000E+00 -0.11373872892E+04  0.11373872892E+04  0.25500000920E-02 0.  1.
    10030    2    1    2    0    0  0.00000000000E+00  0.00000000000E+00  0.18997075884E+04  0.41744821668E+04  0.37171780210E+04 0.  0.
        5    1    3    3  502    0 -0.17230885135E+04  0.69625513856E+03  0.92410304084E+03  0.20755225278E+04  0.46999998093E+01 0.  1.
       -5    1    3    3    0  502  0.17230885135E+04 -0.69625513856E+03  0.97560454752E+03  0.20989596391E+04  0.46999998093E+01 0. -1.
</event>
<event>
 5   0  0.6186440E-07  0.1923265E+04  0.7818609E-02  0.8643362E-01
        1   -1    0    0  501    0  0.00000000000E+00  0.00000000000E+00  0.84728798220E+03  0.84728798222E+03  0.50400001928E-02 0. -1.
       -1   -1    0    0    0  501  0.00000000000E+00  0.00000000000E+00 -0.10914076537E+04  0.10914076537E+04  0.50400001928E-02 0.  1.
    10030    2    1    2    0    0  0.00000000000E+00  0.00000000000E+00 -0.24411967151E+03  0.19386956359E+04  0.19232645046E+04 0.  0.
        3    1    3    3  502    0  0.67956752712E+03 -0.33944709477E+03  0.47233236435E+03  0.89450222285E+03  0.10100000352E+00 0. -1.
       -3    1    3    3    0  502 -0.67956752712E+03  0.33944709477E+03 -0.71645203586E+03  0.10441934131E+04  0.10100000352E+00 0.  1.
</event>
<event>
 5   0  0.1151180E-06  0.3714558E+04  0.7818609E-02  0.8064743E-01
       -2   -1    0    0    0  501  0.00000000000E+00  0.00000000000E+00  0.13450048003E+04  0.13450048003E+04  0.25500000920E-02 0. -1.
        2   -1    0    0  501    0  0.00000000000E+00  0.00000000000E+00 -0.25646644563E+04  0.25646644563E+04  0.25500000920E-02 0.  1.
    10030    2    1    2    0    0  0.00000000000E+00  0.00000000000E+00 -0.12196596560E+04  0.39096692565E+04  0.37145583882E+04 0.  0.
        5    1    3    3  502    0 -0.11848741099E+04 -0.13685742061E+04 -0.17262986232E+03  0.18184458126E+04  0.46999998093E+01 0. -1.
       -5    1    3    3    0  502  0.11848741099E+04  0.13685742061E+04 -0.10470297937E+04  0.20912234440E+04  0.46999998093E+01 0.  1.
</event>
<event>
 5   0  0.1184684E-06  0.3710428E+04  0.7818609E-02  0.8065655E-01
        2   -1    0    0  501    0  0.00000000000E+00  0.00000000000E+00  0.25908712362E+04  0.25908712362E+04  0.25500000920E-02 0. -1.
       -2   -1    0    0    0  501  0.00000000000E+00  0.00000000000E+00 -0.13284409653E+04  0.13284409653E+04  0.25500000920E-02 0.  1.
    10030    2    1    2    0    0  0.00000000000E+00  0.00000000000E+00  0.12624302709E+04  0.39193122015E+04  0.37104282696E+04 0.  0.
        4    1    3    3  502    0 -0.18282656888E+04  0.21500240126E+03  0.87447635805E+03  0.20380117701E+04  0.12699999809E+01 0. -1.
       -4    1    3    3    0  502  0.18282656888E+04 -0.21500240126E+03  0.38795391280E+03  0.18813004313E+04  0.12699999809E+01 0.  1.
</event>
<event>
 5   0  0.5875011E-07  0.3636756E+04  0.7818609E-02  0.8082124E-01
       -1   -1    0    0    0  501  0.00000000000E+00  0.00000000000E+00  0.17711749865E+04  0.17711749865E+04  0.50400001928E-02 0. -1.
        1   -1    0    0  501    0  0.00000000000E+00  0.00000000000E+00 -0.18668393650E+04  0.18668393650E+04  0.50400001928E-02 0.  1.
    10030    2    1    2    0    0  0.00000000000E+00  0.00000000000E+00 -0.95664378479E+02  0.36380143515E+04  0.36367563498E+04 0.  0.
        2    1    3    3  502    0 -0.13374565191E+04 -0.53974801112E+03 -0.11556362876E+04  0.18481377344E+04  0.25500000920E-02 0.  1.
       -2    1    3    3    0  502  0.13374565191E+04  0.53974801112E+03  0.10599719092E+04  0.17898766170E+04  0.25500000920E-02 0. -1.
</event>
<event>
 5   0  0.1184684E-06  0.3694637E+04  0.7818609E-02  0.8069151E-01
        2   -1    0    0  501    0  0.00000000000E+00  0.00000000000E+00  0.16075999909E+04  0.16075999909E+04  0.25500000920E-02 0.  1.
       -2   -1    0    0    0  501  0.00000000000E+00  0.00000000000E+00 -0.21227828638E+04  0.21227828639E+04  0.25500000920E-02 0. -1.
    10030    2    1    2    0    0  0.00000000000E+00  0.00000000000E+00 -0.51518287294E+03  0.37303828548E+04  0.36946370391E+04 0.  0.
        4    1    3    3  502    0  0.19619912574E+02  0.77097595665E+03  0.14372783650E+04  0.16311221837E+04  0.12699999809E+01 0.  1.
       -4    1    3    3    0  502 -0.19619912574E+02 -0.77097595665E+03 -0.19524612379E+04  0.20992606711E+04  0.12699999809E+01 0. -1.
</event>
<event>
 5   0  0.1184684E-06  0.2988309E+04  0.7818609E-02  0.8247077E-01
       -2   -1    0    0    0  501  0.00000000000E+00  0.00000000000E+00  0.18195189101E+04  0.18195189101E+04  0.25500000920E-02 0.  1.
        2   -1    0    0  501    0  0.00000000000E+00  0.00000000000E+00 -0.12269713680E+04  0.12269713680E+04  0.25500000920E-02 0. -1.
    10030    2    1    2    0    0  0.00000000000E+00  0.00000000000E+00  0.59254754211E+03  0.30464902781E+04  0.29883089574E+04 0.  0.
        4    1    3    3  502    0  0.11354765541E+04 -0.36163588346E+03 -0.62261199232E+03  0.13445202947E+04  0.12699999809E+01 0. -1.
       -4    1    3    3    0  502 -0.11354765541E+04  0.36163588346E+03  0.12151595344E+04  0.17019699833E+04  0.12699999809E+01 0.  1.
</event>
<event>
 5   0  0.5875011E-07  0.3326929E+04  0.7818609E-02  0.8156077E-01
       -1   -1    0    0    0  501  0.00000000000E+00  0.00000000000E+00  0.21021142399E+04  0.21021142399E+04  0.50400001928E-02 0.  1.
        1   -1    0    0  501    0  0.00000000000E+00  0.00000000000E+00 -0.13163480796E+04  0.13163480796E+04  0.50400001928E-02 0. -1.
    10030    2    1    2    0    0  0.00000000000E+00  0.00000000000E+00  0.78576616032E+03  0.34184623195E+04  0.33269289399E+04 0.  0.
        2    1    3    3  502    0  0.15693805092E+04  0.52989622797E+03  0.54995766559E+03  0.17453362510E+04  0.25500000920E-02 0.  1.
       -2    1    3    3    0  502 -0.15693805092E+04 -0.52989622797E+03  0.23580849473E+03  0.16731260685E+04  0.25500000920E-02 0. -1.
</event>
<event>
 5   0  0.6261598E-07  0.3037683E+04  0.7818609E-02  0.8233051E-01
        1   -1    0    0  501    0  0.00000000000E+00  0.00000000000E+00  0.14778667871E+04  0.14778667871E+04  0.50400001928E-02 0.  1.
       -1   -1    0    0    0  501  0.00000000000E+00  0.00000000000E+00 -0.15609523286E+04  0.15609523286E+04  0.50400001928E-02 0. -1.
    10030    2    1    2    0    0  0.00000000000E+00  0.00000000000E+00 -0.83085541508E+02  0.30388191158E+04  0.30376830663E+04 0.  0.
        1    1    3    3  502    0  0.17120907472E+03 -0.41277128536E+03 -0.14937009340E+04  0.15591135820E+04  0.50400001928E-02 0. -1.
       -1    1    3    3    0  502 -0.17120907472E+03  0.41277128536E+03  0.14106153925E+04  0.14797055338E+04  0.50400001928E-02 0.  1.
</event>
<event>
 5   0  0.6287345E-07  0.1869907E+04  0.7818609E-02  0.8669982E-01
        1   -1    0    0  501    0  0.00000000000E+00  0.00000000000E+00  0.14787107485E+04  0.14787107485E+04  0.50400001928E-02 0. -1.
       -1   -1    0    0    0  501  0.00000000000E+00  0.00000000000E+00 -0.59114876430E+03  0.59114876432E+03  0.50400001928E-02 0.  1.
    10030    2    1    2    0    0  0.00000000000E+00  0.00000000000E+00  0.88756198416E+03  0.20698595128E+04  0.18699069835E+04 0.  0.
        5    1    3    3  502    0  0.72548203214E+03 -0.54453672080E+03  0.69442595024E+03  0.11424070683E+04  0.46999998093E+01 0. -1.
       -5    1    3    3    0  502 -0.72548203214E+03  0.54453672080E+03  0.19313603392E+03  0.92745244452E+03  0.46999998093E+01 0.  1.
</event>
<event>
 5   0  0.1184684E-06  0.3659822E+04  0.7818609E-02  0.8076925E-01
        2   -1    0    0  501    0  0.00000000000E+00  0.00000000000E+00  0.17553877143E+04  0.17553877143E+04  0.25500000920E-02 0.  1.
       -2   -1    0    0    0  501  0.00000000000E+00  0.00000000000E+00 -0.19075976982E+04  0.19075976982E+04  0.25500000920E-02 0. -1.
    10030    2    1    2    0    0  0.00000000000E+00  0.00000000000E+00 -0.15220998393E+03  0.36629854125E+04  0.36598216149E+04 0.  0.
        4    1    3    3  502    0 -0.17877571953E+04 -0.47222469332E+02 -0.46408193998E+03  0.18476145190E+04  0.12699999809E+01 0. -1.
       -4    1    3    3    0  502  0.17877571953E+04  0.47222469332E+02  0.31187195605E+03  0.18153708935E+04  0.12699999809E+01 0.  1.
</event>
<event>
 5   0  0.5875011E-07  0.3502727E+04  0.7818609E-02  0.8113144E-01
        1   -1    0    0  501    0  0.00000000000E+00  0.00000000000E+00  0.22463635680E+04  0.22463635680E+04  0.50400001928E-02 0. -1.
       -1   -1    0    0    0  501  0.00000000000E+00  0.00000000000E+00 -0.13654398184E+04  0.13654398184E+04  0.50400001928E-02 0.  1.
    10030    2    1    2    0    0  0.00000000000E+00  0.00000000000E+00  0.88092374960E+03  0.36118033864E+04  0.35027270875E+04 0.  0.
        2    1    3    3  502    0  0.23984580203E+03 -0.13847588230E+04 -0.63716185835E+03  0.15430678016E+04  0.25500000920E-02 0.  1.
       -2    1    3    3    0  502 -0.23984580203E+03  0.13847588230E+04  0.15180856080E+04  0.20687355848E+04  0.25500000920E-02 0. -1.
</event>
<event>
 5   0  0.5679750E-07  0.3064449E+04  0.7818609E-02  0.8225563E-01
        1   -1    0    0  501    0  0.00000000000E+00  0.00000000000E+00  0.15593666765E+04  0.15593666765E+04  0.50400001928E-02 0.  1.
       -1   -1    0    0    0  501  0.00000000000E+00  0.00000000000E+00 -0.15055546920E+04  0.15055546920E+04  0.50400001928E-02 0. -1.
    10030    2    1    2    0    0  0.00000000000E+00  0.00000000000E+00  0.53811984507E+02  0.30649213684E+04  0.30644489333E+04 0.  0.
        4    1    3    3  502    0  0.68639986187E+03  0.86941062901E+03  0.10856959447E+04  0.15510502602E+04  0.12699999809E+01 0.  1.
       -4    1    3    3    0  502 -0.68639986187E+03 -0.86941062901E+03 -0.10318839602E+04  0.15138711083E+04  0.12699999809E+01 0. -1.
</event>
<event>
 5   0  0.6186440E-07  0.3352562E+04  0.7818609E-02  0.8149648E-01
        1   -1    0    0  501    0  0.00000000000E+00  0.00000000000E+00  0.30814926255E+04  0.30814926255E+04  0.50400001928E-02 0.  1.
       -1   -1    0    0    0  501  0.00000000000E+00  0.00000000000E+00 -0.91186925470E+03  0.91186925471E+03  0.50400001928E-02 0. -1.
    10030    2    1    2    0    0  0.00000000000E+00  0.00000000000E+00  0.21696233708E+04  0.39933618802E+04  0.33525622344E+04 0.  0.
        3    1    3    3  502    0  0.50196754485E+03 -0.34168723318E+03  0.29458838550E+04  0.30078153664E+04  0.10100000352E+00 0.  1.
       -3    1    3    3    0  502 -0.50196754485E+03  0.34168723318E+03 -0.77626048415E+03  0.98554651380E+03  0.10100000352E+00 0. -1.
</event>
<event>
 5   0  0.1184684E-06  0.3756417E+04  0.7818609E-02  0.8055573E-01
        2   -1    0    0  501    0  0.00000000000E+00  0.00000000000E+00  0.10739096531E+04  0.10739096531E+04  0.25500000920E-02 0. -1.
       -2   -1    0    0    0  501  0.00000000000E+00  0.00000000000E+00 -0.32848832965E+04  0.32848832965E+04  0.25500000920E-02 0.  1.
    10030    2    1    2    0    0  0.00000000000E+00  0.00000000000E+00 -0.22109736435E+04  0.43587929496E+04  0.37564173790E+04 0.  0.
        4    1    3    3  502    0 -0.95646996405E+03  0.81643928643E+03  0.51331112558E+03  0.13582701591E+04  0.12699999809E+01 0. -1.
       -4    1    3    3    0  502  0.95646996405E+03 -0.81643928643E+03 -0.27242847690E+04  0.30005227905E+04  0.12699999809E+01 0.  1.
</event>
<event>
 5   0  0.5679750E-07  0.3848175E+04  0.7818609E-02  0.8035895E-01
       -3   -1    0    0    0  501  0.00000000000E+00  0.00000000000E+00  0.18830491808E+04  0.18830491835E+04  0.10100000352E+00 0. -1.
        3   -1    0    0  501    0  0.00000000000E+00  0.00000000000E+00 -0.19660203971E+04  0.19660203997E+04  0.10100000352E+00 0.  1.
    10030    2    1    2    0    0  0.00000000000E+00  0.00000000000E+00 -0.82971216321E+02  0.38490695832E+04  0.38481752083E+04 0.  0.
        5    1    3    3  502    0 -0.13922104587E+04 -0.40560901273E+03  0.12234514995E+04  0.18972675864E+04  0.46999998093E+01 0. -1.
       -5    1    3    3    0  502  0.13922104587E+04  0.40560901273E+03 -0.13064227159E+04  0.19518019969E+04  0.46999998093E+01 0.  1.
</event>
<event>
 5   0  0.1680194E-06  0.3715872E+04  0.7818609E-02  0.8064454E-01
       -2   -1    0    0    0  501  0.00000000000E+00  0.00000000000E+00  0.18644984496E+04  0.18644984496E+04  0.25500000920E-02 0.  1.
        2   -1    0    0  501    0  0.00000000000E+00  0.00000000000E+00 -0.18513964360E+04  0.18513964360E+04  0.25500000920E-02 0. -1.
    10030    2    1    2    0    0  0.00000000000E+00  0.00000000000E+00  0.13102013616E+02  0.37158948856E+04  0.37158717871E+04 0.  0.
        2    1    3    3  502    0  0.99912463306E+03  0.70025697066E+03  0.14077434760E+04  0.18628879600E+04  0.25500000920E-02 0.  1.
       -2    1    3    3    0  502 -0.99912463306E+03 -0.70025697066E+03 -0.13946414624E+04  0.18530069255E+04  0.25500000920E-02 0. -1.
</event>
<event>
 5   0  0.7277905E-07  0.1930749E+04  0.7818609E-02  0.8639700E-01
        1   -1    0    0  501    0  0.00000000000E+00  0.00000000000E+00  0.86138484311E+03  0.86138484313E+03  0.50400001928E-02 0.  1.
       -1   -1    0    0    0  501  0.00000000000E+00  0.00000000000E+00 -0.10819182931E+04  0.10819182931E+04  0.50400001928E-02 0. -1.
    10030    2    1    2    0    0  0.00000000000E+00  0.00000000000E+00 -0.22053344996E+03  0.19433031362E+04  0.19307490973E+04 0.  0.
        3    1    3    3  502    0  0.61803083203E+02 -0.80727159143E+03 -0.63946194372E+03  0.10317066594E+04  0.10100000352E+00 0. -1.
       -3    1    3    3    0  502 -0.61803083203E+02  0.80727159143E+03  0.41892849375E+03  0.91159647680E+03  0.10100000352E+00 0.  1.
</event>
<event>
 5   0  0.5679750E-07  0.3704926E+04  0.7818609E-02  0.8066871E-01
        1   -1    0    0  501    0  0.00000000000E+00  0.00000000000E+00  0.19480804473E+04  0.19480804473E+04  0.50400001928E-02 0. -1.
       -1   -1    0    0    0  501  0.00000000000E+00  0.00000000000E+00 -0.17615384908E+04  0.17615384908E+04  0.50400001928E-02 0.  1.
    10030    2    1    2    0    0  0.00000000000E+00  0.00000000000E+00  0.18654195644E+03  0.37096189381E+04  0.37049257434E+04 0.  0.
        4    1    3    3  502    0 -0.16315961205E+04  0.59637760061E+03  0.73739369241E+03  0.18871998340E+04  0.12699999809E+01 0. -1.
       -4    1    3    3    0  502  0.16315961205E+04 -0.59637760061E+03 -0.55085173597E+03  0.18224191041E+04  0.12699999809E+01 0.  1.
</event>
<event>
 5   0  0.1724503E-06  0.3506219E+04  0.7818609E-02  0.8112318E-01
        2   -1    0    0  501    0  0.00000000000E+00  0.00000000000E+00  0.96798948488E+03  0.96798948488E+03  0.25500000920E-02 0. -1.
       -2   -1    0    0    0  501  0.00000000000E+00  0.00000000000E+00 -0.31750266634E+04  0.31750266634E+04  0.25500000920E-02 0.  1.
    10030    2    1    2    0    0  0.00000000000E+00  0.00000000000E+00 -0.22070371785E+04  0.41430161483E+04  0.35062187179E+04 0.  0.
        1    1    3    3  502    0  0.13206255098E+04  0.85577063921E+03 -0.19053324559E+03  0.15851492175E+04  0.50400001928E-02 0. -1.
       -1    1    3    3    0  502 -0.13206255098E+04 -0.85577063921E+03 -0.20165039329E+04  0.25578669308E+04  0.50400001928E-02 0.  1.
</event>
<event>
 5   0  0.1184684E-06  0.1834369E+04  0.7818609E-02  0.8688233E-01
        2   -1    0    0  501    0  0.00000000000E+00  0.00000000000E+00  0.10909961080E+04  0.10909961080E+04  0.25500000920E-02 0. -1.
       -2   -1    0    0    0  501  0.00000000000E+00  0.00000000000E+00 -0.77106394794E+03  0.77106394795E+03  0.25500000920E-02 0.  1.
    10030    2    1    2    0    0  0.00000000000E+00  0.00000000000E+00  0.31993216008E+03  0.18620600560E+04  0.18343693916E+04 0.  0.
        4    1    3    3  502    0  0.22667069327E+03  0.25877031191E+01 -0.74217905331E+03  0.77602684198E+03  0.12699999809E+01 0.  1.
       -4    1    3    3    0  502 -0.22667069327E+03 -0.25877031191E+01  0.10621112134E+04  0.10860332140E+04  0.12699999809E+01 0. -1.
</event>
<event>
 5   0  0.1184684E-06  0.3286929E+04  0.7818609E-02  0.8166229E-01
        2   -1    0    0  501    0  0.00000000000E+00  0.00000000000E+00  0.22519892963E+04  0.22519892964E+04  0.25500000920E-02 0. -1.
       -2   -1    0    0    0  501  0.00000000000E+00  0.00000000000E+00 -0.11993730225E+04  0.11993730225E+04  0.25500000920E-02 0.  1.
    10030    2    1    2    0    0  0.00000000000E+00  0.00000000000E+00  0.10526162738E+04  0.34513623189E+04  0.32869287848E+04 0.  0.
        4    1    3    3  502    0  0.10385931368E+04 -0.10108055519E+04  0.13400414318E+04  0.19738582065E+04  0.12699999809E+01 0. -1.
       -4    1    3    3    0  502 -0.10385931368E+04  0.10108055519E+04 -0.28742515799E+03  0.14775041123E+04  0.12699999809E+01 0.  1.
</event>
<event>
 5   0  0.6261598E-07  0.3664535E+04  0.7818609E-02  0.8075867E-01
       -1   -1    0    0    0  501  0.00000000000E+00  0.00000000000E+00  0.14811342972E+04  0.14811342972E+04  0.50400001928E-02 0.  1.
        1   -1    0    0  501    0  0.00000000000E+00  0.00000000000E+00 -0.22666441663E+04  0.22666441663E+04  0.50400001928E-02 0. -1.
    10030    2    1    2    0    0  0.00000000000E+00  0.00000000000E+00 -0.78550986910E+03  0.37477784635E+04  0.36645351215E+04 0.  0.
        1    1    3    3  502    0 -0.47362309104E+03 -0.16061637832E+04 -0.11533720108E+04  0.20333095992E+04  0.50400001928E-02 0.  1.
       -1    1    3    3    0  502  0.47362309104E+03  0.16061637832E+04  0.36786214175E+03  0.17144688642E+04  0.50400001928E-02 0. -1.
</event>
<event>
 5   0  0.6261598E-07  0.3361346E+04  0.7818609E-02  0.8147459E-01
       -1   -1    0    0    0  501  0.00000000000E+00  0.00000000000E+00  0.13107750193E+04  0.13107750193E+04  0.50400001928E-02 0.  1.
        1   -1    0    0  501    0  0.00000000000E+00  0.00000000000E+00 -0.21549548126E+04  0.21549548126E+04  0.50400001928E-02 0. -1.
    10030    2    1    2    0    0  0.00000000000E+00  0.00000000000E+00 -0.84417979332E+03  0.34657298320E+04  0.33613455259E+04 0.  0.
        1    1    3    3  502    0  0.45956859021E+03  0.45214664785E+03 -0.20223915171E+04  0.21226651476E+04  0.50400001928E-02 0. -1.
       -1    1    3    3    0  502 -0.45956859021E+03 -0.45214664785E+03  0.11782117238E+04  0.13430646844E+04  0.50400001928E-02 0.  1.
</event>
<event>
 5   0  0.5679750E-07  0.3665300E+04  0.7818609E-02  0.8075695E-01
       -1   -1    0    0    0  501  0.00000000000E+00  0.00000000000E+00  0.13428998056E+04  0.13428998056E+04  0.50400001928E-02 0.  1.
        1   -1    0    0  501    0  0.00000000000E+00  0.00000000000E+00 -0.25010106110E+04  0.25010106110E+04  0.50400001928E-02 0. -1.
    10030    2    1    2    0    0  0.00000000000E+00  0.00000000000E+00 -0.11581108054E+04  0.38439104166E+04  0.36653003497E+04 0.  0.
        4    1    3    3  502    0 -0.26855384857E+02 -0.15816143132E+04 -0.15495585505E+04  0.22143528087E+04  0.12699999809E+01 0. -1.
       -4    1    3    3    0  502  0.26855384857E+02  0.15816143132E+04  0.39144774507E+03  0.16295576079E+04  0.12699999809E+01 0.  1.
</event>
<event>
 5   0  0.1151180E-06  0.2258573E+04  0.7818609E-02  0.8494437E-01
       -2   -1    0    0    0  501  0.00000000000E+00  0.00000000000E+00  0.72842038323E+03  0.72842038323E+03  0.25500000920E-02 0.  1.
        2   -1    0    0  501    0  0.00000000000E+00  0.00000000000E+00 -0.17507585399E+04  0.17507585399E+04  0.25500000920E-02 0. -1.
    10030    2    1    2    0    0  0.00000000000E+00  0.00000000000E+00 -0.10223381566E+04  0.24791789231E+04  0.22585731837E+04 0.  0.
        5    1    3    3  502    0 -0.47489440287E+03 -0.58575223786E+03 -0.14338924114E+04  0.16200925639E+04  0.46999998093E+01 0. -1.
       -5    1    3    3    0  502  0.47489440287E+03  0.58575223786E+03  0.41155425475E+03  0.85908635924E+03  0.46999998093E+01 0.  1.
</event>
<event>
 5   0  0.1724503E-06  0.1876727E+04  0.7818609E-02  0.8666528E-01
       -2   -1    0    0    0  501  0.00000000000E+00  0.00000000000E+00  0.47723800737E+03  0.47723800737E+03  0.25500000920E-02 0. -1.
        2   -1    0    0  501    0  0.00000000000E+00  0.00000000000E+00 -0.18450463515E+04  0.18450463515E+04  0.25500000920E-02 0.  1.
    10030    2    1    2    0    0  0.00000000000E+00  0.00000000000E+00 -0.13678083441E+04  0.23222843588E+04  0.18767271984E+04 0.  0.
        1    1    3    3  502    0 -0.53227353491E+03 -0.77235993744E+03 -0.71596377353E+03  0.11800250480E+04  0.50400001928E-02 0. -1.
       -1    1    3    3    0  502  0.53227353491E+03  0.77235993744E+03 -0.65184457056E+03  0.11422593108E+04  0.50400001928E-02 0.  1.
</event>
<event>
 5   0  0.1724503E-06  0.2039231E+04  0.7818609E-02  0.8588495E-01
       -2   -1    0    0    0  501  0.00000000000E+00  0.00000000000E+00  0.17362865267E+04  0.17362865267E+04  0.25500000920E-02 0.  1.
        2   -1    0    0  501    0  0.00000000000E+00  0.00000000000E+00 -0.59875839734E+03  0.59875839734E+03  0.25500000920E-02 0. -1.
    10030    2    1    2    0    0  0.00000000000E+00  0.00000000000E+00  0.11375281294E+04  0.23350449241E+04  0.20392313631E+04 0.  0.
        1    1    3    3  502    0  0.16571150479E+03 -0.72823462729E+03  0.13635967726E+04  0.15547289582E+04  0.50400001928E-02 0.  1.
       -1    1    3    3    0  502 -0.16571150479E+03  0.72823462729E+03 -0.22606864317E+03  0.78031596591E+03  0.50400001928E-02 0. -1.
</event>
<event>
 5   0  0.6287345E-07  0.3751098E+04  0.7818609E-02  0.8056731E-01
        1   -1    0    0  501    0  0.00000000000E+00  0.00000000000E+00  0.23496305781E+04  0.23496305781E+04  0.50400001928E-02 0. -1.
       -1   -1    0    0    0  501  0.00000000000E+00  0.00000000000E+00 -0.14971218659E+04  0.14971218659E+04  0.50400001928E-02 0.  1.
    10030    2    1    2    0    0  0.00000000000E+00  0.00000000000E+00  0.85250871214E+03  0.38467524440E+04  0.37510976075E+04 0.  0.
        5    1    3    3  502    0 -0.11006672369E+03  0.10051348102E+04 -0.11936633550E+04  0.15643736655E+04  0.46999998093E+01 0.  1.
       -5    1    3    3    0  502  0.11006672369E+03 -0.10051348102E+04  0.20461720671E+04  0.22823787785E+04  0.46999998093E+01 0. -1.
</event>
<event>
 5   0  0.6261598E-07  0.2107609E+04  0.7818609E-02  0.8557899E-01
       -1   -1    0    0    0  501  0.00000000000E+00  0.00000000000E+00  0.99928282162E+03  0.99928282163E+03  0.50400001928E-02 0.  1.
        1   -1    0    0  501    0  0.00000000000E+00  0.00000000000E+00 -0.11113014373E+04  0.11113014373E+04  0.50400001928E-02 0. -1.
    10030    2    1    2    0    0  0.00000000000E+00  0.00000000000E+00 -0.11201861565E+03  0.21105842589E+04  0.21076094856E+04 0.  0.
        1    1    3    3  502    0 -0.81927288599E+03  0.49799966177E+03 -0.49399685348E+03  0.10785381848E+04  0.50400001928E-02 0. -1.
       -1    1    3    3    0  502  0.81927288599E+03 -0.49799966177E+03  0.38197823783E+03  0.10320460741E+04  0.50400001928E-02 0.  1.
</event>
<event>
 5   0  0.1680194E-06  0.3516378E+04  0.7818609E-02  0.8109919E-01
        2   -1    0    0  501    0  0.00000000000E+00  0.00000000000E+00  0.16574633223E+04  0.16574633223E+04  0.25500000920E-02 0. -1.
       -2   -1    0    0    0  501  0.00000000000E+00  0.00000000000E+00 -0.18650361341E+04  0.18650361341E+04  0.25500000920E-02 0.  1.
    10030    2    1    2    0    0  0.00000000000E+00  0.00000000000E+00 -0.20757281181E+03  0.35224994564E+04  0.35163782430E+04 0.  0.
        2    1    3    3  502    0  0.27601489462E+03  0.16735048458E+04 -0.56765436152E+03  0.17885844026E+04  0.25500000920E-02 0.  1.
       -2    1    3    3    0  502 -0.27601489462E+03 -0.16735048458E+04  0.36008154971E+03  0.17339150537E+04  0.25500000920E-02 0. -1.
</event>
<event>
 5   0  0.1184684E-06  0.3662627E+04  0.7818609E-02  0.8076295E-01
       -2   -1    0    0    0  501  0.00000000000E+00  0.00000000000E+00  0.13031036385E+04  0.13031036385E+04  0.25500000920E-02 0. -1.
        2   -1    0    0  501    0  0.00000000000E+00  0.00000000000E+00 -0.25736316446E+04  0.25736316446E+04  0.25500000920E-02 0.  1.
    10030    2    1    2    0    0  0.00000000000E+00  0.00000000000E+00 -0.12705280061E+04  0.38767352830E+04  0.36626267951E+04 0.  0.
        4    1    3    3  502    0 -0.10026532369E+04  0.11466230696E+04 -0.17113824067E+04  0.22910454670E+04  0.12699999809E+01 0.  1.
       -4    1    3    3    0  502  0.10026532369E+04 -0.11466230696E+04  0.44085440061E+03  0.15856898160E+04  0.12699999809E+01 0. -1.
</event>
<event>
 5   0  0.1184684E-06  0.1945732E+04  0.7818609E-02  0.8632422E-01
       -2   -1    0    0    0  501  0.00000000000E+00  0.00000000000E+00  0.10966274994E+04  0.10966274994E+04  0.25500000920E-02 0. -1.
        2   -1    0    0  501    0  0.00000000000E+00  0.00000000000E+00 -0.86307177638E+03  0.86307177638E+03  0.25500000920E-02 0.  1.
    10030    2    1    2    0    0  0.00000000000E+00  0.00000000000E+00  0.23355572306E+03  0.19596992758E+04  0.19457319897E+04 0.  0.
        4    1    3    3  502    0  0.23637343860E+03  0.22231643786E+03  0.10405145757E+04  0.10899399966E+04  0.12699999809E+01 0. -1.
       -4    1    3    3    0  502 -0.23637343860E+03 -0.22231643786E+03 -0.80695885265E+03  0.86975927922E+03  0.12699999809E+01 0.  1.
</event>
<event>
 5   0  0.6287345E-07  0.3675585E+04  0.7818609E-02  0.8073394E-01
       -1   -1    0    0    0  501  0.00000000000E+00  0.00000000000E+00  0.14618667415E+04  0.14618667415E+04  0.50400001928E-02 0.  1.
        1   -1    0    0  501    0  0.00000000000E+00  0.00000000000E+00 -0.23103895864E+04  0.23103895864E+04  0.50400001928E-02 0. -1.
    10030    2    1    2    0    0  0.00000000000E+00  0.00000000000E+00 -0.84852284484E+03  0.37722563279E+04  0.36755852303E+04 0.  0.
        5    1    3    3  502    0  0.17794140613E+04  0.10911580705E+03 -0.88236302943E+03  0.19891725080E+04  0.46999998093E+01 0. -1.
       -5    1    3    3    0  502 -0.17794140613E+04 -0.10911580705E+03  0.33840184590E+02  0.17830838199E+04  0.46999998093E+01 0.  1.
</event>
<event>
 5   0  0.6186440E-07  0.3676026E+04  0.7818609E-02  0.8073296E-01
        1   -1    0    0  501    0  0.00000000000E+00  0.00000000000E+00  0.18611761083E+04  0.18611761084E+04  0.50400001928E-02 0. -1.
       -1   -1    0    0    0  501  0.00000000000E+00  0.00000000000E+00 -0.18151380923E+04  0.18151380923E+04  0.50400001928E-02 0.  1.
    10030    2    1    2    0    0  0.00000000000E+00  0.00000000000E+00  0.46038016070E+02  0.36763142006E+04  0.36760259252E+04 0.  0.
        3    1    3    3  502    0 -0.17946762195E+04 -0.39037904149E+03  0.93968998178E+02  0.18390455980E+04  0.10100000352E+00 0. -1.
       -3    1    3    3    0  502  0.17946762195E+04  0.39037904149E+03 -0.47930982109E+02  0.18372686026E+04  0.10100000352E+00 0.  1.
</event>
<event>
 5   0  0.1724503E-06  0.3736773E+04  0.7818609E-02  0.8059861E-01
       -2   -1    0    0    0  501  0.00000000000E+00  0.00000000000E+00  0.17669767634E+04  0.17669767634E+04  0.25500000920E-02 0.  1.
        2   -1    0    0  501    0  0.00000000000E+00  0.00000000000E+00 -0.19756164755E+04  0.19756164755E+04  0.25500000920E-02 0. -1.
    10030    2    1    2    0    0  0.00000000000E+00  0.00000000000E+00 -0.20863971210E+03  0.37425932390E+04  0.37367731565E+04 0.  0.
        1    1    3    3  502    0 -0.96000309612E+03  0.93489279001E+03  0.11997210803E+04  0.17985997732E+04  0.50400001928E-02 0.  1.
       -1    1    3    3    0  502  0.96000309612E+03 -0.93489279001E+03 -0.14083607924E+04  0.19439934658E+04  0.50400001928E-02 0. -1.
</event>
<event>
 5   0  0.1685793E-06  0.3724732E+04  0.7818609E-02  0.8062503E-01
       -2   -1    0    0    0  501  0.00000000000E+00  0.00000000000E+00  0.18543563803E+04  0.18543563803E+04  0.25500000920E-02 0.  1.
        2   -1    0    0  501    0  0.00000000000E+00  0.00000000000E+00 -0.18704097559E+04  0.18704097559E+04  0.25500000920E-02 0. -1.
    10030    2    1    2    0    0  0.00000000000E+00  0.00000000000E+00 -0.16053375593E+02  0.37247661362E+04  0.37247315418E+04 0.  0.
        3    1    3    3  502    0  0.12793184157E+04 -0.35348958232E+03  0.12984293832E+04  0.18567523709E+04  0.10100000352E+00 0.  1.
       -3    1    3    3    0  502 -0.12793184157E+04  0.35348958232E+03 -0.13144827588E+04  0.18680137652E+04  0.10100000352E+00 0. -1.
</event>
<event>
 5   0  0.5875011E-07  0.3678269E+04  0.7818609E-02  0.8072795E-01
        1   -1    0    0  501    0  0.00000000000E+00  0.00000000000E+00  0.18937441106E+04  0.18937441106E+04  0.50400001928E-02 0. -1.
       -1   -1    0    0    0  501  0.00000000000E+00  0.00000000000E+00 -0.17860995812E+04  0.17860995812E+04  0.50400001928E-02 0.  1.
    10030    2    1    2    0    0  0.00000000000E+00  0.00000000000E+00  0.10764452944E+03  0.36798436918E+04  0.36782689204E+04 0.  0.
        2    1    3    3  502    0  0.64951934185E+03  0.22030255456E+03 -0.16533686828E+04  0.17899822882E+04  0.25500000920E-02 0.  1.
       -2    1    3    3    0  502 -0.64951934185E+03 -0.22030255456E+03  0.17610132122E+04  0.18898614035E+04  0.25500000920E-02 0. -1.
</event>
<event>
 5   0  0.6287345E-07  0.3694902E+04  0.7818609E-02  0.8069093E-01
        1   -1    0    0  501    0  0.00000000000E+00  0.00000000000E+00  0.25847689141E+04  0.25847689141E+04  0.50400001928E-02 0.  1.
       -1   -1    0    0    0  501  0.00000000000E+00  0.00000000000E+00 -0.13204563063E+04  0.13204563063E+04  0.50400001928E-02 0. -1.
    10030    2    1    2    0    0  0.00000000000E+00  0.00000000000E+00  0.12643126079E+04  0.39052252204E+04  0.36949015754E+04 0.  0.
        5    1    3    3  502    0  0.18388005086E+04  0.17797760609E+03  0.61762662793E+03  0.19479086427E+04  0.46999998093E+01 0.  1.
       -5    1    3    3    0  502 -0.18388005086E+04 -0.17797760609E+03  0.64668597994E+03  0.19573165777E+04  0.46999998093E+01 0. -1.
</event>
<event>
 5   0  0.1685793E-06  0.2434326E+04  0.7818609E-02  0.8426763E-01
       -2   -1    0    0    0  501  0.00000000000E+00  0.00000000000E+00  0.10921132010E+04  0.10921132010E+04  0.25500000920E-02 0.  1.
        2   -1    0    0  501    0  0.00000000000E+00  0.00000000000E+00 -0.13565312590E+04  0.13565312590E+04  0.25500000920E-02 0. -1.
    10030    2    1    2    0    0  0.00000000000E+00  0.00000000000E+00 -0.26441805799E+03  0.24486444601E+04  0.24343259400E+04 0.  0.
        3    1    3    3  502    0 -0.46749196643E+03 -0.33493640704E+02  0.99770361318E+03  0.11023080661E+04  0.10100000352E+00 0.  1.
       -3    1    3    3    0  502  0.46749196643E+03  0.33493640704E+02 -0.12621216712E+04  0.13463363940E+04  0.10100000352E+00 0. -1.
</event>
<event>
 5   0  0.1680194E-06  0.3905594E+04  0.7818609E-02  0.8023867E-01
       -2   -1    0    0    0  501  0.00000000000E+00  0.00000000000E+00  0.15868888063E+04  0.15868888063E+04  0.25500000920E-02 0.  1.
        2   -1    0    0  501    0  0.00000000000E+00  0.00000000000E+00 -0.24030767897E+04  0.24030767897E+04  0.25500000920E-02 0. -1.
    10030    2    1    2    0    0  0.00000000000E+00  0.00000000000E+00 -0.81618798344E+03  0.39899655959E+04  0.39055937618E+04 0.  0.
        2    1    3    3  502    0 -0.17333397255E+04 -0.83062755143E+03 -0.76052020149E+03  0.20670751583E+04  0.25500000920E-02 0. -1.
       -2    1    3    3    0  502  0.17333397255E+04  0.83062755143E+03 -0.55667781947E+02  0.19228904376E+04  0.25500000920E-02 0.  1.
</event>
<event>
 5   0  0.1680194E-06  0.2458686E+04  0.7818609E-02  0.8417854E-01
        2   -1    0    0  501    0  0.00000000000E+00  0.00000000000E+00  0.11056498713E+04  0.11056498713E+04  0.25500000920E-02 0. -1.
       -2   -1    0    0    0  501  0.00000000000E+00  0.00000000000E+00 -0.13668736780E+04  0.13668736780E+04  0.25500000920E-02 0.  1.
    10030    2    1    2    0    0  0.00000000000E+00  0.00000000000E+00 -0.26122380674E+03  0.24725235494E+04  0.24586855889E+04 0.  0.
        2    1    3    3  502    0 -0.70647841719E+03 -0.51909266921E+03  0.73604752555E+03  0.11446986123E+04  0.25500000920E-02 0. -1.
       -2    1    3    3    0  502  0.70647841719E+03  0.51909266921E+03 -0.99727133229E+03  0.13278249370E+04  0.25500000920E-02 0.  1.
</event>
<event>
 5   0  0.5679750E-07  0.2145830E+04  0.7818609E-02  0.8541319E-01
       -3   -1    0    0    0  501  0.00000000000E+00  0.00000000000E+00  0.10054495911E+04  0.10054495962E+04  0.10100000352E+00 0.  1.
        3   -1    0    0  501    0  0.00000000000E+00  0.00000000000E+00 -0.11449070733E+04  0.11449070777E+04  0.10100000352E+00 0. -1.
    10030    2    1    2    0    0  0.00000000000E+00  0.00000000000E+00 -0.13945748219E+03  0.21503566739E+04  0.21458297779E+04 0.  0.
        1    1    3    3  502    0  0.10231653158E+03 -0.36450412803E+03 -0.10757462027E+04  0.11404217749E+04  0.50400001928E-02 0. -1.
       -1    1    3    3    0  502 -0.10231653158E+03  0.36450412803E+03  0.93628872054E+03  0.10099348990E+04  0.50400001928E-02 0.  1.
</event>
<event>
 5   0  0.6261598E-07  0.2881710E+04  0.7818609E-02  0.8278340E-01
       -1   -1    0    0    0  501  0.00000000000E+00  0.00000000000E+00  0.15676288499E+04  0.15676288499E+04  0.50400001928E-02 0. -1.
        1   -1    0    0  501    0  0.00000000000E+00  0.00000000000E+00 -0.13243331994E+04  0.13243331994E+04  0.50400001928E-02 0.  1.
    10030    2    1    2    0    0  0.00000000000E+00  0.00000000000E+00  0.24329565046E+03  0.28919620493E+04  0.28817098606E+04 0.  0.
        1    1    3    3  502    0 -0.51818033901E+03 -0.20547048421E+03 -0.12117378134E+04  0.13338056500E+04  0.50400001928E-02 0.  1.
       -1    1    3    3    0  502  0.51818033901E+03  0.20547048421E+03  0.14550334638E+04  0.15581563993E+04  0.50400001928E-02 0. -1.
</event>
<event>
 5   0  0.1151180E-06  0.3648147E+04  0.7818609E-02  0.8079551E-01
        2   -1    0    0  501    0  0.00000000000E+00  0.00000000000E+00  0.26437810930E+04  0.26437810930E+04  0.25500000920E-02 0.  1.
       -2   -1    0    0    0  501  0.00000000000E+00  0.00000000000E+00 -0.12585170661E+04  0.12585170661E+04  0.25500000920E-02 0. -1.
    10030    2    1    2    0    0  0.00000000000E+00  0.00000000000E+00  0.13852640269E+04  0.39022981592E+04  0.36481467211E+04 0.  0.
        5    1    3    3  502    0 -0.93568108802E+03 -0.99012741961E+03  0.19901372525E+04  0.24117462095E+04  0.46999998093E+01 0.  1.
       -5    1    3    3    0  502  0.93568108802E+03  0.99012741961E+03 -0.60487322557E+03  0.14905519496E+04  0.46999998093E+01 0. -1.
</event>
<event>
 5   0  0.1184684E-06  0.2220791E+04  0.7818609E-02  0.8509824E-01
       -2   -1    0    0    0  501  0.00000000000E+00  0.00000000000E+00  0.74344833730E+03  0.74344833730E+03  0.25500000920E-02 0. -1.
        2   -1    0    0  501    0  0.00000000000E+00  0.00000000000E+00 -0.16584586693E+04  0.16584586693E+04  0.25500000920E-02 0.  1.
    10030    2    1    2    0    0  0.00000000000E+00  0.00000000000E+00 -0.91501033200E+03  0.24019070066E+04  0.22207911565E+04 0.  0.
        4    1    3    3  502    0  0.97639157200E+03  0.92399639990E+02  0.10562922727E+03  0.98642655170E+03  0.12699999809E+01 0. -1.
       -4    1    3    3    0  502 -0.97639157200E+03 -0.92399639990E+02 -0.10206395593E+04  0.14154804549E+04  0.12699999809E+01 0.  1.
</event>
<event>
 5   0  0.1151180E-06  0.2086949E+04  0.7818609E-02  0.8567014E-01
        2   -1    0    0  501    0  0.00000000000E+00  0.00000000000E+00  0.12135186026E+04  0.12135186026E+04  0.25500000920E-02 0. -1.
       -2   -1    0    0    0  501  0.00000000000E+00  0.00000000000E+00 -0.89725798912E+03  0.89725798912E+03  0.25500000920E-02 0.  1.
    10030    2    1    2    0    0  0.00000000000E+00  0.00000000000E+00  0.31626061345E+03  0.21107765917E+04  0.20869492194E+04 0.  0.
        5    1    3    3  502    0  0.10222746880E+04  0.16738322507E+03  0.28508026214E+03  0.10744093855E+04  0.46999998093E+01 0.  1.
       -5    1    3    3    0  502 -0.10222746880E+04 -0.16738322507E+03  0.31180351307E+02  0.10363672062E+04  0.46999998093E+01 0. -1.
</event>
<event>
 5   0  0.6186440E-07  0.3645927E+04  0.7818609E-02  0.8080052E-01
       -1   -1    0    0    0  501  0.00000000000E+00  0.00000000000E+00  0.14891145041E+04  0.14891145041E+04  0.50400001928E-02 0. -1.
        1   -1    0    0  501    0  0.00000000000E+00  0.00000000000E+00 -0.22316587439E+04  0.22316587439E+04  0.50400001928E-02 0.  1.
    10030    2    1    2    0    0  0.00000000000E+00  0.00000000000E+00 -0.74254423981E+03  0.37207732479E+04  0.36459267154E+04 0.  0.
        3    1    3    3  502    0 -0.60333324674E+03 -0.16633206559E+04  0.76539808023E+02  0.17710180585E+04  0.10100000352E+00 0. -1.
       -3    1    3    3    0  502  0.60333324674E+03  0.16633206559E+04 -0.81908404783E+03  0.19497551894E+04  0.10100000352E+00 0.  1.
</event>
<event>
 5   0  0.1685793E-06  0.2126633E+04  0.7818609E-02  0.8549601E-01
        2   -1    0    0  501    0  0.00000000000E+00  0.00000000000E+00  0.82063597851E+03  0.82063597851E+03  0.25500000920E-02 0. -1.
       -2   -1    0    0    0  501  0.00000000000E+00  0.00000000000E+00 -0.13777634583E+04  0.13777634583E+04  0.25500000920E-02 0.  1.
    10030    2    1    2    0    0  0.00000000000E+00  0.00000000000E+00 -0.55712747976E+03  0.21983994368E+04  0.21266332676E+04 0.  0.
        3    1    3    3  502    0  0.87913199334E+03  0.16234876467E+03  0.31654751204E+03  0.94838416303E+03  0.10100000352E+00 0. -1.
       -3    1    3    3    0  502 -0.87913199334E+03 -0.16234876467E+03 -0.87367499181E+03  0.12500152738E+04  0.10100000352E+00 0.  1.
</event>
<event>
 5   0  0.1151180E-06  0.3312050E+04  0.7818609E-02  0.8159836E-01
        2   -1    0    0  501    0  0.00000000000E+00  0.00000000000E+00  0.12353758305E+04  0.12353758305E+04  0.25500000920E-02 0.  1.
       -2   -1    0    0    0  501  0.00000000000E+00  0.00000000000E+00 -0.22199063632E+04  0.22199063632E+04  0.25500000920E-02 0. -1.
    10030    2    1    2    0    0  0.00000000000E+00  0.00000000000E+00 -0.98453053262E+03  0.34552821937E+04  0.33120499194E+04 0.  0.
        5    1    3    3  502    0  0.59380867103E+03 -0.12125827470E+04 -0.14926019629E+04  0.20126719469E+04  0.46999998093E+01 0. -1.
       -5    1    3    3    0  502 -0.59380867103E+03  0.12125827470E+04  0.50807143028E+03  0.14426102468E+04  0.46999998093E+01 0.  1.
</event>
<event>
 5   0  0.6261598E-07  0.3552169E+04  0.7818609E-02  0.8101537E-01
       -1   -1    0    0    0  501  0.00000000000E+00  0.00000000000E+00  0.20654314143E+04  0.20654314143E+04  0.50400001928E-02 0.  1.
        1   -1    0    0  501    0  0.00000000000E+00  0.00000000000E+00 -0.15272723449E+04  0.15272723449E+04  0.50400001928E-02 0. -1.
    10030    2    1    2    0    0  0.00000000000E+00  0.00000000000E+00  0.53815906940E+03  0.35927037593E+04  0.35521690723E+04 0.  0.
        1    1    3    3  502    0 -0.91118379001E+03  0.68868758898E+03  0.16447214564E+04  0.20024123360E+04  0.50400001928E-02 0.  1.
       -1    1    3    3    0  502  0.91118379001E+03 -0.68868758898E+03 -0.11065623870E+04  0.15902914232E+04  0.50400001928E-02 0. -1.
</event>
<event>
 5   0  0.6261598E-07  0.3747108E+04  0.7818609E-02  0.8057602E-01
        1   -1    0    0  501    0  0.00000000000E+00  0.00000000000E+00  0.17424418585E+04  0.17424418585E+04  0.50400001928E-02 0. -1.
       -1   -1    0    0    0  501  0.00000000000E+00  0.00000000000E+00 -0.20145314884E+04  0.20145314884E+04  0.50400001928E-02 0.  1.
    10030    2    1    2    0    0  0.00000000000E+00  0.00000000000E+00 -0.27208962991E+03  0.37569733469E+04  0.37471076796E+04 0.  0.
        1    1    3    3  502    0  0.17744012668E+04  0.56375575452E+03  0.73990821544E+02  0.18632753548E+04  0.50400001928E-02 0. -1.
       -1    1    3    3    0  502 -0.17744012668E+04 -0.56375575452E+03 -0.34608045145E+03  0.18936979921E+04  0.50400001928E-02 0.  1.
</event>
<event>
 5   0  0.1680194E-06  0.3749041E+04  0.7818609E-02  0.8057180E-01
       -2   -1    0    0    0  501  0.00000000000E+00  0.00000000000E+00  0.19086188927E+04  0.19086188927E+04  0.25500000920E-02 0.  1.
        2   -1    0    0  501    0  0.00000000000E+00  0.00000000000E+00 -0.18410314630E+04  0.18410314630E+04  0.25500000920E-02 0. -1.
    10030    2    1    2    0    0  0.00000000000E+00  0.00000000000E+00  0.67587429772E+02  0.37496503557E+04  0.37490411747E+04 0.  0.
        2    1    3    3  502    0 -0.82005784476E+03 -0.28175559530E+03 -0.16283867799E+04  0.18448643824E+04  0.25500000920E-02 0. -1.
       -2    1    3    3    0  502  0.82005784476E+03  0.28175559530E+03  0.16959742097E+04  0.19047859733E+04  0.25500000920E-02 0.  1.
</event>
<event>
 5   0  0.1724503E-06  0.3352748E+04  0.7818609E-02  0.8149602E-01
       -2   -1    0    0    0  501  0.00000000000E+00  0.00000000000E+00  0.13952065450E+04  0.13952065450E+04  0.25500000920E-02 0.  1.
        2   -1    0    0  501    0  0.00000000000E+00  0.00000000000E+00 -0.20142034524E+04  0.20142034524E+04  0.25500000920E-02 0. -1.
    10030    2    1    2    0    0  0.00000000000E+00  0.00000000000E+00 -0.61899690743E+03  0.34094099974E+04  0.33527480310E+04 0.  0.
        1    1    3    3  502    0  0.28582694119E+03 -0.65227688714E+03 -0.18527320268E+04  0.19848874379E+04  0.50400001928E-02 0. -1.
       -1    1    3    3    0  502 -0.28582694119E+03  0.65227688714E+03  0.12337351194E+04  0.14245225596E+04  0.50400001928E-02 0.  1.
</event>
<event>
 5   0  0.5679750E-07  0.3756633E+04  0.7818609E-02  0.8055526E-01
        1   -1    0    0  501    0  0.00000000000E+00  0.00000000000E+00  0.28062641981E+04  0.28062641981E+04  0.50400001928E-02 0.  1.
       -1   -1    0    0    0  501  0.00000000000E+00  0.00000000000E+00 -0.12572132952E+04  0.12572132952E+04  0.50400001928E-02 0. -1.
    10030    2    1    2    0    0  0.00000000000E+00  0.00000000000E+00  0.15490509028E+04  0.40634774933E+04  0.37566328858E+04 0.  0.
        4    1    3    3  502    0 -0.98937857563E+03  0.15960267446E+04  0.82167123971E+03  0.20497113393E+04  0.12699999809E+01 0.  1.
       -4    1    3    3    0  502  0.98937857563E+03 -0.15960267446E+04  0.72737966314E+03  0.20137661539E+04  0.12699999809E+01 0. -1.
</event>
<event>
 5   0  0.1184684E-06  0.3897267E+04  0.7818609E-02  0.8025598E-01
       -2   -1    0    0    0  501  0.00000000000E+00  0.00000000000E+00  0.16468163000E+04  0.16468163000E+04  0.25500000920E-02 0. -1.
        2   -1    0    0  501    0  0.00000000000E+00  0.00000000000E+00 -0.23057657836E+04  0.23057657836E+04  0.25500000920E-02 0.  1.
    10030    2    1    2    0    0  0.00000000000E+00  0.00000000000E+00 -0.65894948356E+03  0.39525820836E+04  0.38972670817E+04 0.  0.
        4    1    3    3  502    0  0.14904460906E+04 -0.51186977702E+03 -0.14919237923E+04  0.21700871946E+04  0.12699999809E+01 0.  1.
       -4    1    3    3    0  502 -0.14904460906E+04  0.51186977702E+03  0.83297430869E+03  0.17824948890E+04  0.12699999809E+01 0. -1.
</event>
<event>
 5   0  0.1184684E-06  0.3034349E+04  0.7818609E-02  0.8233990E-01
       -2   -1    0    0    0  501  0.00000000000E+00  0.00000000000E+00  0.10073445392E+04  0.10073445392E+04  0.25500000920E-02 0.  1.
        2   -1    0    0  501    0  0.00000000000E+00  0.00000000000E+00 -0.22850357215E+04  0.22850357215E+04  0.25500000920E-02 0. -1.
    10030    2    1    2    0    0  0.00000000000E+00  0.00000000000E+00 -0.12776911823E+04  0.32923802607E+04  0.30343488632E+04 0.  0.
        4    1    3    3  502    0 -0.11150894161E+04  0.27488165994E+03 -0.17145283087E+04  0.20636359338E+04  0.12699999809E+01 0. -1.
       -4    1    3    3    0  502  0.11150894161E+04 -0.27488165994E+03  0.43683712647E+03  0.12287443269E+04  0.12699999809E+01 0.  1.
</event>
<event>
 5   0  0.1685793E-06  0.3664440E+04  0.7818609E-02  0.8075888E-01
        2   -1    0    0  501    0  0.00000000000E+00  0.00000000000E+00  0.27539697791E+04  0.27539697791E+04  0.25500000920E-02 0. -1.
       -2   -1    0    0    0  501  0.00000000000E+00  0.00000000000E+00 -0.12189785173E+04  0.12189785173E+04  0.25500000920E-02 0.  1.
    10030    2    1    2    0    0  0.00000000000E+00  0.00000000000E+00  0.15349912617E+04  0.39729482964E+04  0.36644399289E+04 0.  0.
        3    1    3    3  502    0  0.16263035546E+04 -0.81047431267E+03  0.51254240690E+03  0.18879702308E+04  0.10100000352E+00 0.  1.
       -3    1    3    3    0  502 -0.16263035546E+04  0.81047431267E+03  0.10224488548E+04  0.20849780656E+04  0.10100000352E+00 0. -1.
</event>
<event>
 5   0  0.1724503E-06  0.2186478E+04  0.7818609E-02  0.8524077E-01
        2   -1    0    0  501    0  0.00000000000E+00  0.00000000000E+00  0.10781114515E+04  0.10781114515E+04  0.25500000920E-02 0.  1.
       -2   -1    0    0    0  501  0.00000000000E+00  0.00000000000E+00 -0.11085787358E+04  0.11085787358E+04  0.25500000920E-02 0. -1.
    10030    2    1    2    0    0  0.00000000000E+00  0.00000000000E+00 -0.30467284355E+02  0.21866901873E+04  0.21864779258E+04 0.  0.
        1    1    3    3  502    0  0.56788874518E+03 -0.51122480650E+02 -0.94809442104E+03  0.11063426983E+04  0.50400001928E-02 0. -1.
       -1    1    3    3    0  502 -0.56788874518E+03  0.51122480650E+02  0.91762713668E+03  0.10803474890E+04  0.50400001928E-02 0.  1.
</event>
<event>
 5   0  0.5679750E-07  0.3597666E+04  0.7818609E-02  0.8091027E-01
        1   -1    0    0  501    0  0.00000000000E+00  0.00000000000E+00  0.30847519595E+04  0.30847519595E+04  0.50400001928E-02 0.  1.
       -1   -1    0    0    0  501  0.00000000000E+00  0.00000000000E+00 -0.10489661357E+04  0.10489661357E+04  0.50400001928E-02 0. -1.
    10030    2    1    2    0    0  0.00000000000E+00  0.00000000000E+00  0.20357858238E+04  0.41337180952E+04  0.35976661004E+04 0.  0.
        4    1    3    3  502    0  0.26261132264E+03  0.17366644960E+04  0.14641288224E+04  0.22866226405E+04  0.12699999809E+01 0.  1.
       -4    1    3    3    0  502 -0.26261132264E+03 -0.17366644960E+04  0.57165700144E+03  0.18470954547E+04  0.12699999809E+01 0. -1.
</event>
<event>
 5   0  0.5679750E-07  0.2104977E+04  0.7818609E-02  0.8559054E-01
        1   -1    0    0  501    0  0.00000000000E+00  0.00000000000E+00  0.27708590703E+04  0.27708590703E+04  0.50400001928E-02 0. -1.
       -1   -1    0    0    0  501  0.00000000000E+00  0.00000000000E+00 -0.39977935371E+03  0.39977935374E+03  0.50400001928E-02 0.  1.
    10030    2    1    2    0    0  0.00000000000E+00  0.00000000000E+00  0.23710797166E+04  0.31706384241E+04  0.21049771955E+04 0.  0.
        4    1    3    3  502    0 -0.50751647296E+03 -0.51245467202E+03  0.23401116771E+04  0.24487358035E+04  0.12699999809E+01 0. -1.
       -4    1    3    3    0  502  0.50751647296E+03  0.51245467202E+03  0.30968039515E+02  0.72190262056E+03  0.12699999809E+01 0.  1.
</event>
<event>
 5   0  0.5679750E-07  0.3594508E+04  0.7818609E-02  0.8091751E-01
       -1   -1    0    0    0  501  0.00000000000E+00  0.00000000000E+00  0.12193337896E+04  0.12193337897E+04  0.50400001928E-02 0.  1.
        1   -1    0    0  501    0  0.00000000000E+00  0.00000000000E+00 -0.26490878958E+04  0.26490878959E+04  0.50400001928E-02 0. -1.
    10030    2    1    2    0    0  0.00000000000E+00  0.00000000000E+00 -0.14297541062E+04  0.38684216855E+04  0.35945082463E+04 0.  0.
        4    1    3    3  502    0  0.12269646869E+04  0.11990908186E+04 -0.13847031842E+03  0.17211730814E+04  0.12699999809E+01 0.  1.
       -4    1    3    3    0  502 -0.12269646869E+04 -0.11990908186E+04 -0.12912837878E+04  0.21472486041E+04  0.12699999809E+01 0. -1.
</event>
<event>
 5   0  0.1685793E-06  0.3754495E+04  0.7818609E-02  0.8055991E-01
        2   -1    0    0  501    0  0.00000000000E+00  0.00000000000E+00  0.32077824420E+04  0.32077824420E+04  0.25500000920E-02 0.  1.
       -2   -1    0    0    0  501  0.00000000000E+00  0.00000000000E+00 -0.10985961918E+04  0.10985961918E+04  0.25500000920E-02 0. -1.
    10030    2    1    2    0    0  0.00000000000E+00  0.00000000000E+00  0.21091862502E+04  0.43063786338E+04  0.37544946796E+04 0.  0.
        3    1    3    3  502    0 -0.17411920783E+04 -0.68156802247E+03  0.12457412748E+04  0.22468102182E+04  0.10100000352E+00 0. -1.
       -3    1    3    3    0  502  0.17411920783E+04  0.68156802247E+03  0.86344497540E+03  0.20595684156E+04  0.10100000352E+00 0.  1.
</event>
<event>
 5   0  0.1184684E-06  0.3819262E+04  0.7818609E-02  0.8042034E-01
        2   -1    0    0  501    0  0.00000000000E+00  0.00000000000E+00  0.24748509342E+04  0.24748509342E+04  0.25500000920E-02 0.  1.
       -2   -1    0    0    0  501  0.00000000000E+00  0.00000000000E+00 -0.14734989958E+04  0.14734989958E+04  0.25500000920E-02 0. -1.
    10030    2    1    2    0    0  0.00000000000E+00  0.00000000000E+00  0.10013519383E+04  0.39483499300E+04  0.38192619006E+04 0.  0.
        4    1    3    3  502    0 -0.16050566861E+04 -0.35287838568E+03  0.15061532635E+04  0.22291768406E+04  0.12699999809E+01 0.  1.
       -4    1    3    3    0  502  0.16050566861E+04  0.35287838568E+03 -0.50480132516E+03  0.17191730894E+04  0.12699999809E+01 0. -1.
</event>
<event>
 5   0  0.6287345E-07  0.1868218E+04  0.7818609E-02  0.8670840E-01
       -1   -1    0    0    0  501  0.00000000000E+00  0.00000000000E+00  0.12002356753E+04  0.12002356753E+04  0.50400001928E-02 0.  1.
        1   -1    0    0  501    0  0.00000000000E+00  0.00000000000E+00 -0.72698997062E+03  0.72698997064E+03  0.50400001928E-02 0. -1.
    10030    2    1    2    0    0  0.00000000000E+00  0.00000000000E+00  0.47324570464E+03  0.19272256459E+04  0.18682176515E+04 0.  0.
        5    1    3    3  502    0  0.44018823832E+03 -0.55578030314E+03 -0.39076396520E+03  0.80955296122E+03  0.46999998093E+01 0. -1.
       -5    1    3    3    0  502 -0.44018823832E+03  0.55578030314E+03  0.86400966984E+03  0.11176726847E+04  0.46999998093E+01 0.  1.
</event>
<event>
 5   0  0.6186440E-07  0.2860162E+04  0.7818609E-02  0.8284830E-01
       -1   -1    0    0    0  501  0.00000000000E+00  0.00000000000E+00  0.11354036925E+04  0.11354036925E+04  0.50400001928E-02 0.  1.
        1   -1    0    0  501    0  0.00000000000E+00  0.00000000000E+00 -0.18012373299E+04  0.18012373299E+04  0.50400001928E-02 0. -1.
    10030    2    1    2    0    0  0.00000000000E+00  0.00000000000E+00 -0.66583363741E+03  0.29366410223E+04  0.28601618943E+04 0.  0.
        3    1    3    3  502    0  0.11455761005E+03  0.59062230722E+03  0.99914588281E+03  0.11662978441E+04  0.10100000352E+00 0.  1.
       -3    1    3    3    0  502 -0.11455761005E+03 -0.59062230722E+03 -0.16649795202E+04  0.17703431782E+04  0.10100000352E+00 0. -1.
</event>
<event>
 5   0  0.6261598E-07  0.3404473E+04  0.7818609E-02  0.8136809E-01
       -1   -1    0    0    0  501  0.00000000000E+00  0.00000000000E+00  0.14622658902E+04  0.14622658902E+04  0.50400001928E-02 0. -1.
        1   -1    0    0  501    0  0.00000000000E+00  0.00000000000E+00 -0.19815881747E+04  0.19815881747E+04  0.50400001928E-02 0.  1.
    10030    2    1    2    0    0  0.00000000000E+00  0.00000000000E+00 -0.51932228450E+03  0.34438540649E+04  0.34044728205E+04 0.  0.
        1    1    3    3  502    0 -0.46143774182E+03  0.16341897992E+04 -0.13951133404E+03  0.17038088220E+04  0.50400001928E-02 0. -1.
       -1    1    3    3    0  502  0.46143774182E+03 -0.16341897992E+04 -0.37981095046E+03  0.17400452430E+04  0.50400001928E-02 0.  1.
</event>
<event>
 5   0  0.1184684E-06  0.3647477E+04  0.7818609E-02  0.8079702E-01
       -2   -1    0    0    0  501  0.00000000000E+00  0.00000000000E+00  0.31996729380E+04  0.31996729380E+04  0.25500000920E-02 0. -1.
        2   -1    0    0  501    0  0.00000000000E+00  0.00000000000E+00 -0.10394883356E+04  0.10394883356E+04  0.25500000920E-02 0.  1.
    10030    2    1    2    0    0  0.00000000000E+00  0.00000000000E+00  0.21601846024E+04  0.42391612736E+04  0.36474773182E+04 0.  0.
        4    1    3    3  502    0 -0.17359266157E+03 -0.39525714677E+03  0.31394346125E+04  0.31689767944E+04  0.12699999809E+01 0. -1.
       -4    1    3    3    0  502  0.17359266157E+03  0.39525714677E+03 -0.97925001010E+03  0.10701844791E+04  0.12699999809E+01 0.  1.
</event>
<event>
 5   0  0.6287345E-07  0.3692923E+04  0.7818609E-02  0.8069532E-01
        1   -1    0    0  501    0  0.00000000000E+00  0.00000000000E+00  0.20274126654E+04  0.20274126654E+04  0.50400001928E-02 0. -1.
       -1   -1    0    0    0  501  0.00000000000E+00  0.00000000000E+00 -0.16816604440E+04  0.16816604441E+04  0.50400001928E-02 0.  1.
    10030    2    1    2    0    0  0.00000000000E+00  0.00000000000E+00  0.34575222138E+03  0.37090731095E+04  0.36929227900E+04 0.  0.
        5    1    3    3  502    0  0.28813058356E+03 -0.14675888305E+04  0.12604604865E+04  0.19559189494E+04  0.46999998093E+01 0. -1.
       -5    1    3    3    0  502 -0.28813058356E+03  0.14675888305E+04 -0.91470826517E+03  0.17531541601E+04  0.46999998093E+01 0.  1.
</event>
<event>
 5   0  0.5679750E-07  0.3798406E+04  0.7818609E-02  0.8046497E-01
       -1   -1    0    0    0  501  0.00000000000E+00  0.00000000000E+00  0.23089225670E+04  0.23089225670E+04  0.50400001928E-02 0. -1.
        1   -1    0    0  501    0  0.00000000000E+00  0.00000000000E+00 -0.15621881794E+04  0.15621881794E+04  0.50400001928E-02 0.  1.
    10030    2    1    2    0    0  0.00000000000E+00  0.00000000000E+00  0.74673438756E+03  0.38711107465E+04  0.37984057400E+04 0.  0.
        4    1    3    3  502    0  0.16712482592E+02 -0.10980752804E+04  0.19525165394E+04  0.22401721090E+04  0.12699999809E+01 0. -1.
       -4    1    3    3    0  502 -0.16712482592E+02  0.10980752804E+04 -0.12057821518E+04  0.16309386374E+04  0.12699999809E+01 0.  1.
</event>
<event>
 5   0  0.1151180E-06  0.3952100E+04  0.7818609E-02  0.8014280E-01
       -2   -1    0    0    0  501  0.00000000000E+00  0.00000000000E+00  0.19965013332E+04  0.19965013332E+04  0.25500000920E-02 0. -1.
        2   -1    0    0  501    0  0.00000000000E+00  0.00000000000E+00 -0.19558085181E+04  0.19558085181E+04  0.25500000920E-02 0.  1.
    10030    2    1    2    0    0  0.00000000000E+00  0.00000000000E+00  0.40692815082E+02  0.39523098512E+04  0.39521003599E+04 0.  0.
        5    1    3    3  502    0 -0.12321520847E+04 -0.14494705977E+04 -0.51408668268E+03  0.19706524251E+04  0.46999998093E+01 0. -1.
       -5    1    3    3    0  502  0.12321520847E+04  0.14494705977E+04  0.55477949776E+03  0.19816574261E+04  0.46999998093E+01 0.  1.
</event>
<event>
 5   0  0.5875011E-07  0.3690244E+04  0.7818609E-02  0.8070127E-01
       -1   -1    0    0    0  501  0.00000000000E+00  0.00000000000E+00  0.23060178552E+04  0.23060178553E+04  0.50400001928E-02 0.  1.
        1   -1    0    0  501    0  0.00000000000E+00  0.00000000000E+00 -0.14763435867E+04  0.14763435867E+04  0.50400001928E-02 0. -1.
    10030    2    1    2    0    0  0.00000000000E+00  0.00000000000E+00  0.82967426855E+03  0.37823614420E+04  0.36902437163E+04 0.  0.
        2    1    3    3  502    0 -0.18267245004E+04 -0.16150104967E+03  0.20611268174E+03  0.18453962791E+04  0.25500000920E-02 0. -1.
       -2    1    3    3    0  502  0.18267245004E+04  0.16150104967E+03  0.62356158680E+03  0.19369651628E+04  0.25500000920E-02 0.  1.
</event>
<event>
 5   0  0.5875011E-07  0.1942491E+04  0.7818609E-02  0.8633990E-01
       -1   -1    0    0    0  501  0.00000000000E+00  0.00000000000E+00  0.46582042841E+03  0.46582042844E+03  0.50400001928E-02 0. -1.
        1   -1    0    0  501    0  0.00000000000E+00  0.00000000000E+00 -0.20250679850E+04  0.20250679850E+04  0.50400001928E-02 0.  1.
    10030    2    1    2    0    0  0.00000000000E+00  0.00000000000E+00 -0.15592475566E+04  0.24908884135E+04  0.19424912215E+04 0.  0.
        2    1    3    3  502    0 -0.34891892376E+02 -0.22121077327E+03 -0.19915087301E+04  0.20040605461E+04  0.25500000920E-02 0.  1.
       -2    1    3    3    0  502  0.34891892376E+02  0.22121077327E+03  0.43226117348E+03  0.48682786739E+03  0.25500000920E-02 0. -1.
</event>
<event>
 5   0  0.5679750E-07  0.3411177E+04  0.7818609E-02  0.8135169E-01
        1   -1    0    0  501    0  0.00000000000E+00  0.00000000000E+00  0.27915451917E+04  0.27915451917E+04  0.50400001928E-02 0. -1.
       -1   -1    0    0    0  501  0.00000000000E+00  0.00000000000E+00 -0.10420867708E+04  0.10420867708E+04  0.50400001928E-02 0.  1.
    10030    2    1    2    0    0  0.00000000000E+00  0.00000000000E+00  0.17494584209E+04  0.38336319625E+04  0.34111771074E+04 0.  0.
        4    1    3    3  502    0 -0.55454023774E+03  0.12570992618E+04  0.20104333915E+04  0.24350888000E+04  0.12699999809E+01 0. -1.
       -4    1    3    3    0  502  0.55454023774E+03 -0.12570992618E+04 -0.26097497063E+03  0.13985431625E+04  0.12699999809E+01 0.  1.
</event>
<event>
 5   0  0.6261598E-07  0.2206907E+04  0.7818609E-02  0.8515559E-01
       -1   -1    0    0    0  501  0.00000000000E+00  0.00000000000E+00  0.81763347662E+03  0.81763347663E+03  0.50400001928E-02 0.  1.
        1   -1    0    0  501    0  0.00000000000E+00  0.00000000000E+00 -0.14891869733E+04  0.14891869733E+04  0.50400001928E-02 0. -1.
    10030    2    1    2    0    0  0.00000000000E+00  0.00000000000E+00 -0.67155349667E+03  0.23068204499E+04  0.22069065429E+04 0.  0.
        1    1    3    3  502    0  0.55145561828E+02 -0.73992985578E+03 -0.11894981586E+04  0.14019426143E+04  0.50400001928E-02 0. -1.
       -1    1    3    3    0  502 -0.55145561828E+02  0.73992985578E+03  0.51794466197E+03  0.90487783559E+03  0.50400001928E-02 0.  1.
</event>
<event>
 5   0  0.5875011E-07  0.2090058E+04  0.7818609E-02  0.8565635E-01
       -1   -1    0    0    0  501  0.00000000000E+00  0.00000000000E+00  0.42672409468E+03  0.42672409471E+03  0.50400001928E-02 0. -1.
        1   -1    0    0  501    0  0.00000000000E+00  0.00000000000E+00 -0.25592318345E+04  0.25592318345E+04  0.50400001928E-02 0.  1.
    10030    2    1    2    0    0  0.00000000000E+00  0.00000000000E+00 -0.21325077399E+04  0.29859559293E+04  0.20900582650E+04 0.  0.
        2    1    3    3  502    0  0.41099566668E+02  0.54124335542E+03 -0.23420385117E+04  0.24041168720E+04  0.25500000920E-02 0.  1.
       -2    1    3    3    0  502 -0.41099566668E+02 -0.54124335542E+03  0.20953077182E+03  0.58183905723E+03  0.25500000920E-02 0. -1.
</event>
<event>
 5   0  0.1685793E-06  0.1990953E+04  0.7818609E-02  0.8610862E-01
       -2   -1    0    0    0  501  0.00000000000E+00  0.00000000000E+00  0.48166779510E+03  0.48166779511E+03  0.25500000920E-02 0.  1.
        2   -1    0    0  501    0  0.00000000000E+00  0.00000000000E+00 -0.20573799254E+04  0.20573799254E+04  0.25500000920E-02 0. -1.
    10030    2    1    2    0    0  0.00000000000E+00  0.00000000000E+00 -0.15757121303E+04  0.25390477205E+04  0.19909531912E+04 0.  0.
        3    1    3    3  502    0 -0.69375470229E+03  0.56333082233E+03 -0.13471506318E+04  0.16166174678E+04  0.10100000352E+00 0. -1.
       -3    1    3    3    0  502  0.69375470229E+03 -0.56333082233E+03 -0.22856149855E+03  0.92243025273E+03  0.10100000352E+00 0.  1.
</event>
<event>
 5   0  0.1151180E-06  0.3518794E+04  0.7818609E-02  0.8109350E-01
        2   -1    0    0  501    0  0.00000000000E+00  0.00000000000E+00  0.26735106481E+04  0.26735106481E+04  0.25500000920E-02 0. -1.
       -2   -1    0    0    0  501  0.00000000000E+00  0.00000000000E+00 -0.11578325340E+04  0.11578325340E+04  0.25500000920E-02 0.  1.
    10030    2    1    2    0    0  0.00000000000E+00  0.00000000000E+00  0.15156781141E+04  0.38313431821E+04  0.35187938890E+04 0.  0.
        5    1    3    3  502    0 -0.11687224026E+04 -0.19728711010E+03  0.21735689051E+04  0.24757338575E+04  0.46999998093E+01 0. -1.
       -5    1    3    3    0  502  0.11687224026E+04  0.19728711010E+03 -0.65789079093E+03  0.13556093246E+04  0.46999998093E+01 0.  1.
</event>
<event>
 5   0  0.6261598E-07  0.3703288E+04  0.7818609E-02  0.8067234E-01
       -1   -1    0    0    0  501  0.00000000000E+00  0.00000000000E+00  0.14895567077E+04  0.14895567077E+04  0.50400001928E-02 0.  1.
        1   -1    0    0  501    0  0.00000000000E+00  0.00000000000E+00 -0.23017483081E+04  0.23017483081E+04  0.50400001928E-02 0. -1.
    10030    2    1    2    0    0  0.00000000000E+00  0.00000000000E+00 -0.81219160033E+03  0.37913050158E+04  0.37032875296E+04 0.  0.
        1    1    3    3  502    0 -0.75890504186E+03  0.74373277592E+03  0.11463586995E+04  0.15630782362E+04  0.50400001928E-02 0.  1.
       -1    1    3    3    0  502  0.75890504186E+03 -0.74373277592E+03 -0.19585502998E+04  0.22282267796E+04  0.50400001928E-02 0. -1.
</event>
<event>
 5   0  0.1528757E-06  0.1835078E+04  0.7818609E-02  0.8687865E-01
        2   -1    0    0  501    0  0.00000000000E+00  0.00000000000E+00  0.18287508907E+04  0.18287508907E+04  0.25500000920E-02 0.  1.
       -2   -1    0    0    0  501  0.00000000000E+00  0.00000000000E+00 -0.46035671096E+03  0.46035671097E+03  0.25500000920E-02 0. -1.
    10030    2    1    2    0    0  0.00000000000E+00  0.00000000000E+00  0.13683941798E+04  0.22891076017E+04  0.18350779223E+04 0.  0.
        5    1    3    3  502    0 -0.88457476278E+03  0.23523546742E+03  0.76355693073E+03  0.11919939230E+04  0.46999998093E+01 0. -1.
       -5    1    3    3    0  502  0.88457476278E+03 -0.23523546742E+03  0.60483724903E+03  0.10971136787E+04  0.46999998093E+01 0.  1.
</event>
<event>
 5   0  0.1184684E-06  0.3740886E+04  0.7818609E-02  0.8058961E-01
        2   -1    0    0  501    0  0.00000000000E+00  0.00000000000E+00  0.15815908571E+04  0.15815908571E+04  0.25500000920E-02 0.  1.
       -2   -1    0    0    0  501  0.00000000000E+00  0.00000000000E+00 -0.22120489801E+04  0.22120489801E+04  0.25500000920E-02 0. -1.
    10030    2    1    2    0    0  0.00000000000E+00  0.00000000000E+00 -0.63045812300E+03  0.37936398373E+04  0.37408856932E+04 0.  0.
        4    1    3    3  502    0  0.86308306048E+03 -0.43943058887E+03 -0.19379644763E+04  0.21664993736E+04  0.12699999809E+01 0. -1.
       -4    1    3    3    0  502 -0.86308306048E+03  0.43943058887E+03  0.13075063533E+04  0.16271404636E+04  0.12699999809E+01 0.  1.
</event>
<event>
 5   0  0.6287345E-07  0.2369691E+04  0.7818609E-02  0.8450939E-01
       -1   -1    0    0    0  501  0.00000000000E+00  0.00000000000E+00  0.70768461704E+03  0.70768461706E+03  0.50400001928E-02 0.  1.
        1   -1    0    0  501    0  0.00000000000E+00  0.00000000000E+00 -0.19837345002E+04  0.19837345002E+04  0.50400001928E-02 0. -1.
    10030    2    1    2    0    0  0.00000000000E+00  0.00000000000E+00 -0.12760498832E+04  0.26914191173E+04  0.23696906044E+04 0.  0.
        5    1    3    3  502    0 -0.66067564702E+03 -0.31863486531E+03  0.41879851191E+03  0.84465068018E+03  0.46999998093E+01 0.  1.
       -5    1    3    3    0  502  0.66067564702E+03  0.31863486531E+03 -0.16948483951E+04  0.18467684371E+04  0.46999998093E+01 0. -1.
</event>
<event>
 5   0  0.5679750E-07  0.2881010E+04  0.7818609E-02  0.8278550E-01
        1   -1    0    0  501    0  0.00000000000E+00  0.00000000000E+00  0.26416557441E+04  0.26416557441E+04  0.50400001928E-02 0. -1.
       -1   -1    0    0    0  501  0.00000000000E+00  0.00000000000E+00 -0.78551272343E+03  0.78551272345E+03  0.50400001928E-02 0.  1.
    10030    2    1    2    0    0  0.00000000000E+00  0.00000000000E+00  0.18561430206E+04  0.34271684675E+04  0.28810096827E+04 0.  0.
        4    1    3    3  502    0 -0.88061027261E+03 -0.48942127114E+03  0.21528368192E+04  0.23769130434E+04  0.12699999809E+01 0. -1.
       -4    1    3    3    0  502  0.88061027261E+03  0.48942127114E+03 -0.29669379857E+03  0.10502554241E+04  0.12699999809E+01 0.  1.
</event>
<event>
 5   0  0.1680194E-06  0.3727466E+04  0.7818609E-02  0.8061902E-01
       -2   -1    0    0    0  501  0.00000000000E+00  0.00000000000E+00  0.22105805924E+04  0.22105805924E+04  0.25500000920E-02 0.  1.
        2   -1    0    0  501    0  0.00000000000E+00  0.00000000000E+00 -0.15713071306E+04  0.15713071306E+04  0.25500000920E-02 0. -1.
    10030    2    1    2    0    0  0.00000000000E+00  0.00000000000E+00  0.63927346178E+03  0.37818877230E+04  0.37274661891E+04 0.  0.
        2    1    3    3  502    0 -0.11716705949E+03 -0.15022555350E+04 -0.79319104048E+03  0.17028364099E+04  0.25500000920E-02 0. -1.
       -2    1    3    3    0  502  0.11716705949E+03  0.15022555350E+04  0.14324645023E+04  0.20790513131E+04  0.25500000920E-02 0.  1.
</event>
<event>
 5   0  0.6186440E-07  0.3976189E+04  0.7818609E-02  0.8009367E-01
        1   -1    0    0  501    0  0.00000000000E+00  0.00000000000E+00  0.26413775198E+04  0.26413775198E+04  0.50400001928E-02 0. -1.
       -1   -1    0    0    0  501  0.00000000000E+00  0.00000000000E+00 -0.14963855130E+04  0.14963855130E+04  0.50400001928E-02 0.  1.
    10030    2    1    2    0    0  0.00000000000E+00  0.00000000000E+00  0.11449920068E+04  0.41377630328E+04  0.39761886550E+04 0.  0.
        3    1    3    3  502    0  0.11312418889E+04 -0.16330794141E+04  0.65217403710E+03  0.20909298336E+04  0.10100000352E+00 0.  1.
       -3    1    3    3    0  502 -0.11312418889E+04  0.16330794141E+04  0.49281796972E+03  0.20468331992E+04  0.10100000352E+00 0. -1.
</event>
<event>
 5   0  0.5875011E-07  0.2190057E+04  0.7818609E-02  0.8522578E-01
       -1   -1    0    0    0  501  0.00000000000E+00  0.00000000000E+00  0.16696398984E+04  0.16696398984E+04  0.50400001928E-02 0. -1.
        1   -1    0    0  501    0  0.00000000000E+00  0.00000000000E+00 -0.71817140118E+03  0.71817140120E+03  0.50400001928E-02 0.  1.
    10030    2    1    2    0    0  0.00000000000E+00  0.00000000000E+00  0.95146849720E+03  0.23878112996E+04  0.21900571913E+04 0.  0.
        2    1    3    3  502    0  0.80806744834E+03  0.39893832154E+03 -0.20249915858E+03  0.92365074281E+03  0.25500000920E-02 0.  1.
       -2    1    3    3    0  502 -0.80806744834E+03 -0.39893832154E+03  0.11539676558E+04  0.14641605568E+04  0.25500000920E-02 0. -1.
</event>
<event>
 5   0  0.6261598E-07  0.1877668E+04  0.7818609E-02  0.8666053E-01
        1   -1    0    0  501    0  0.00000000000E+00  0.00000000000E+00  0.13041549705E+04  0.13041549705E+04  0.50400001928E-02 0. -1.
       -1   -1    0    0    0  501  0.00000000000E+00  0.00000000000E+00 -0.67584710358E+03  0.67584710359E+03  0.50400001928E-02 0.  1.
    10030    2    1    2    0    0  0.00000000000E+00  0.00000000000E+00  0.62830786694E+03  0.19800020741E+04  0.18776680851E+04 0.  0.
        1    1    3    3  502    0  0.38136951141E+03  0.74572265159E+03 -0.13306420101E+03  0.84808670485E+03  0.50400001928E-02 0.  1.
       -1    1    3    3    0  502 -0.38136951141E+03 -0.74572265159E+03  0.76137206795E+03  0.11319153693E+04  0.50400001928E-02 0. -1.
</event>
<event>
 5   0  0.6287345E-07  0.3810458E+04  0.7818609E-02  0.8043914E-01
        1   -1    0    0  501    0  0.00000000000E+00  0.00000000000E+00  0.18597687242E+04  0.18597687242E+04  0.50400001928E-02 0. -1.
       -1   -1    0    0    0  501  0.00000000000E+00  0.00000000000E+00 -0.19518001927E+04  0.19518001927E+04  0.50400001928E-02 0.  1.
    10030    2    1    2    0    0  0.00000000000E+00  0.00000000000E+00 -0.92031468498E+02  0.38115689168E+04  0.38104576912E+04 0.  0.
        5    1    3    3  502    0 -0.83714130261E+03 -0.40640741593E+03  0.16169679092E+04  0.18656312223E+04  0.46999998093E+01 0. -1.
       -5    1    3    3    0  502  0.83714130261E+03  0.40640741593E+03 -0.17089993777E+04  0.19459376946E+04  0.46999998093E+01 0.  1.
</event>
<event>
 5   0  0.1685793E-06  0.3688039E+04  0.7818609E-02  0.8070618E-01
        2   -1    0    0  501    0  0.00000000000E+00  0.00000000000E+00  0.12727979022E+04  0.12727979022E+04  0.25500000920E-02 0. -1.
       -2   -1    0    0    0  501  0.00000000000E+00  0.00000000000E+00 -0.26716011257E+04  0.26716011257E+04  0.25500000920E-02 0.  1.
    10030    2    1    2    0    0  0.00000000000E+00  0.00000000000E+00 -0.13988032234E+04  0.39443990279E+04  0.36880392125E+04 0.  0.
        3    1    3    3  502    0  0.10048415430E+04 -0.14194104882E+04 -0.13551921786E+04  0.22047626883E+04  0.10100000352E+00 0. -1.
       -3    1    3    3    0  502 -0.10048415430E+04  0.14194104882E+04 -0.43611044829E+02  0.17396363396E+04  0.10100000352E+00 0.  1.
</event>
<event>
 5   0  0.1184684E-06  0.2347138E+04  0.7818609E-02  0.8459564E-01
        2   -1    0    0  501    0  0.00000000000E+00  0.00000000000E+00  0.89026578704E+03  0.89026578705E+03  0.25500000920E-02 0.  1.
       -2   -1    0    0    0  501  0.00000000000E+00  0.00000000000E+00 -0.15470261175E+04  0.15470261175E+04  0.25500000920E-02 0. -1.
    10030    2    1    2    0    0  0.00000000000E+00  0.00000000000E+00 -0.65676033046E+03  0.24372919046E+04  0.23471381928E+04 0.  0.
        4    1    3    3  502    0 -0.28324538591E+01  0.57197088685E+03 -0.13924865799E+04  0.15053834084E+04  0.12699999809E+01 0. -1.
       -4    1    3    3    0  502  0.28324538591E+01 -0.57197088685E+03  0.73572624943E+03  0.93190849615E+03  0.12699999809E+01 0.  1.
</event>
<event>
 5   0  0.5679750E-07  0.3680687E+04  0.7818609E-02  0.8072255E-01
       -1   -1    0    0    0  501  0.00000000000E+00  0.00000000000E+00  0.19309526598E+04  0.19309526598E+04  0.50400001928E-02 0. -1.
        1   -1    0    0  501    0  0.00000000000E+00  0.00000000000E+00 -0.17539860453E+04  0.17539860454E+04  0.50400001928E-02 0.  1.
    10030    2    1    2    0    0  0.00000000000E+00  0.00000000000E+00  0.17696661443E+03  0.36849387051E+04  0.36806869030E+04 0.  0.
        4    1    3    3  502    0  0.51578439113E+03  0.15101221940E+04 -0.82928706615E+03  0.17983940697E+04  0.12699999809E+01 0.  1.
       -4    1    3    3    0  502 -0.51578439113E+03 -0.15101221940E+04  0.10062536806E+04  0.18865446354E+04  0.12699999809E+01 0. -1.
</event>
<event>
 5   0  0.6186440E-07  0.2485854E+04  0.7818609E-02  0.8408043E-01
        1   -1    0    0  501    0  0.00000000000E+00  0.00000000000E+00  0.24227257649E+04  0.24227257649E+04  0.50400001928E-02 0.  1.
       -1   -1    0    0    0  501  0.00000000000E+00  0.00000000000E+00 -0.63765661318E+03  0.63765661320E+03  0.50400001928E-02 0. -1.
    10030    2    1    2    0    0  0.00000000000E+00  0.00000000000E+00  0.17850691517E+04  0.30603823781E+04  0.24858536610E+04 0.  0.
        3    1    3    3  502    0  0.67735169409E+03  0.99045363103E+03  0.49348594566E+03  0.12974328890E+04  0.10100000352E+00 0. -1.
       -3    1    3    3    0  502 -0.67735169409E+03 -0.99045363103E+03  0.12915832060E+04  0.17629494891E+04  0.10100000352E+00 0.  1.
</event>
<event>
 5   0  0.1724503E-06  0.3734314E+04  0.7818609E-02  0.8060400E-01
       -2   -1    0    0    0  501  0.00000000000E+00  0.00000000000E+00  0.11745132016E+04  0.11745132016E+04  0.25500000920E-02 0.  1.
        2   -1    0    0  501    0  0.00000000000E+00  0.00000000000E+00 -0.29682728340E+04  0.29682728340E+04  0.25500000920E-02 0. -1.
    10030    2    1    2    0    0  0.00000000000E+00  0.00000000000E+00 -0.17937596324E+04  0.41427860355E+04  0.37343141964E+04 0.  0.
        1    1    3    3  502    0 -0.31577249446E+03  0.92394855897E+03  0.86870734846E+03  0.13069222108E+04  0.50400001928E-02 0.  1.
       -1    1    3    3    0  502  0.31577249446E+03 -0.92394855897E+03 -0.26624669809E+04  0.28358638247E+04  0.50400001928E-02 0. -1.
</event>
<event>
 5   0  0.5875011E-07  0.2205192E+04  0.7818609E-02  0.8516270E-01
        1   -1    0    0  501    0  0.00000000000E+00  0.00000000000E+00  0.16681683989E+04  0.16681683989E+04  0.50400001928E-02 0.  1.
       -1   -1    0    0    0  501  0.00000000000E+00  0.00000000000E+00 -0.72877421150E+03  0.72877421152E+03  0.50400001928E-02 0. -1.
    10030    2    1    2    0    0  0.00000000000E+00  0.00000000000E+00  0.93939418741E+03  0.23969426104E+04  0.22051921545E+04 0.  0.
        2    1    3    3  502    0  0.21730173000E+03  0.61088421210E+03 -0.49965544592E+03  0.81856895073E+03  0.25500000920E-02 0. -1.
       -2    1    3    3    0  502 -0.21730173000E+03 -0.61088421210E+03  0.14390496333E+04  0.15783736597E+04  0.25500000920E-02 0.  1.
</event>
<event>
 5   0  0.1685793E-06  0.3707806E+04  0.7818609E-02  0.8066234E-01
        2   -1    0    0  501    0  0.00000000000E+00  0.00000000000E+00  0.26563613720E+04  0.26563613720E+04  0.25500000920E-02 0. -1.
       -2   -1    0    0    0  501  0.00000000000E+00  0.00000000000E+00 -0.12938587851E+04  0.12938587851E+04  0.25500000920E-02 0.  1.
    10030    2    1    2    0    0  0.00000000000E+00  0.00000000000E+00  0.13625025870E+04  0.39502201571E+04  0.37078060885E+04 0.  0.
        3    1    3    3  502    0 -0.51840387840E+03 -0.14235953702E+04  0.18195582496E+04  0.23677327960E+04  0.10100000352E+00 0. -1.
       -3    1    3    3    0  502  0.51840387840E+03  0.14235953702E+04 -0.45705566268E+03  0.15824873611E+04  0.10100000352E+00 0.  1.
</event>
<event>
 5   0  0.6186440E-07  0.2801910E+04  0.7818609E-02  0.8302676E-01
        1   -1    0    0  501    0  0.00000000000E+00  0.00000000000E+00  0.19919824981E+04  0.19919824982E+04  0.50400001928E-02 0.  1.
       -1   -1    0    0    0  501  0.00000000000E+00  0.00000000000E+00 -0.98528722110E+03  0.98528722111E+03  0.50400001928E-02 0. -1.
    10030    2    1    2    0    0  0.00000000000E+00  0.00000000000E+00  0.10066952770E+04  0.29772697193E+04  0.28019099915E+04 0.  0.
        3    1    3    3  502    0 -0.86497765778E+03  0.92848407828E+03 -0.12744346551E+03  0.12753473563E+04  0.10100000352E+00 0. -1.
       -3    1    3    3    0  502  0.86497765778E+03 -0.92848407828E+03  0.11341387426E+04  0.17019223630E+04  0.10100000352E+00 0.  1.
</event>
<event>
 5   0  0.1151180E-06  0.3830106E+04  0.7818609E-02  0.8039725E-01
       -2   -1    0    0    0  501  0.00000000000E+00  0.00000000000E+00  0.17907838619E+04  0.17907838619E+04  0.25500000920E-02 0.  1.
        2   -1    0    0  501    0  0.00000000000E+00  0.00000000000E+00 -0.20479452637E+04  0.20479452637E+04  0.25500000920E-02 0. -1.
    10030    2    1    2    0    0  0.00000000000E+00  0.00000000000E+00 -0.25716140176E+03  0.38387291256E+04  0.38301056530E+04 0.  0.
        5    1    3    3  502    0  0.15810015200E+04  0.10572418663E+04 -0.35286807894E+03  0.19343898627E+04  0.46999998093E+01 0. -1.
       -5    1    3    3    0  502 -0.15810015200E+04 -0.10572418663E+04  0.95706677178E+02  0.19043392628E+04  0.46999998093E+01 0.  1.
</event>
<event>
 5   0  0.1685793E-06  0.2313836E+04  0.7818609E-02  0.8472486E-01
        2   -1    0    0  501    0  0.00000000000E+00  0.00000000000E+00  0.17142810002E+04  0.17142810002E+04  0.25500000920E-02 0.  1.
       -2   -1    0    0    0  501  0.00000000000E+00  0.00000000000E+00 -0.78076979970E+03  0.78076979970E+03  0.25500000920E-02 0. -1.
    10030    2    1    2    0    0  0.00000000000E+00  0.00000000000E+00  0.93351120054E+03  0.24950507999E+04  0.23138356322E+04 0.  0.
        3    1    3    3  502    0  0.95861088971E+03  0.63764943534E+03  0.58935796063E+03  0.12933964807E+04  0.10100000352E+00 0. -1.
       -3    1    3    3    0  502 -0.95861088971E+03 -0.63764943534E+03  0.34415323991E+03  0.12016543193E+04  0.10100000352E+00 0.  1.
</event>
<event>
 5   0  0.5679750E-07  0.3618440E+04  0.7818609E-02  0.8086281E-01
        1   -1    0    0  501    0  0.00000000000E+00  0.00000000000E+00  0.16395223741E+04  0.16395223741E+04  0.50400001928E-02 0. -1.
       -1   -1    0    0    0  501  0.00000000000E+00  0.00000000000E+00 -0.19964825615E+04  0.19964825615E+04  0.50400001928E-02 0.  1.
    10030    2    1    2    0    0  0.00000000000E+00  0.00000000000E+00 -0.35696018738E+03  0.36360049356E+04  0.36184404536E+04 0.  0.
        4    1    3    3  502    0 -0.94381453417E+03  0.90509415356E+03  0.10779070725E+04  0.16946582462E+04  0.12699999809E+01 0. -1.
       -4    1    3    3    0  502  0.94381453417E+03 -0.90509415356E+03 -0.14348672599E+04  0.19413466893E+04  0.12699999809E+01 0.  1.
</event>
<event>
 5   0  0.5679750E-07  0.3710823E+04  0.7818609E-02  0.8065568E-01
        1   -1    0    0  501    0  0.00000000000E+00  0.00000000000E+00  0.15098660806E+04  0.15098660806E+04  0.50400001928E-02 0. -1.
       -1   -1    0    0    0  501  0.00000000000E+00  0.00000000000E+00 -0.22800373432E+04  0.22800373432E+04  0.50400001928E-02 0.  1.
    10030    2    1    2    0    0  0.00000000000E+00  0.00000000000E+00 -0.77017126263E+03  0.37899034238E+04  0.37108225756E+04 0.  0.
        4    1    3    3  502    0 -0.10970760867E+03  0.18510244155E+04 -0.31872173527E+03  0.18814654670E+04  0.12699999809E+01 0. -1.
       -4    1    3    3    0  502  0.10970760867E+03 -0.18510244155E+04 -0.45144952736E+03  0.19084379567E+04  0.12699999809E+01 0.  1.
</event>
<event>
 5   0  0.1685793E-06  0.3705769E+04  0.7818609E-02  0.8066684E-01
       -2   -1    0    0    0  501  0.00000000000E+00  0.00000000000E+00  0.16952397193E+04  0.16952397193E+04  0.25500000920E-02 0.  1.
        2   -1    0    0  501    0  0.00000000000E+00  0.00000000000E+00 -0.20251895665E+04  0.20251895665E+04  0.25500000920E-02 0. -1.
    10030    2    1    2    0    0  0.00000000000E+00  0.00000000000E+00 -0.32994984722E+03  0.37204292858E+04  0.37057694436E+04 0.  0.
        3    1    3    3  502    0 -0.45235390352E+03 -0.35055450458E+03 -0.19342373746E+04  0.20171233840E+04  0.10100000352E+00 0. -1.
       -3    1    3    3    0  502  0.45235390352E+03  0.35055450458E+03  0.16042875274E+04  0.17033059019E+04  0.10100000352E+00 0.  1.
</event>
<event>
 5   0  0.5875011E-07  0.3141391E+04  0.7818609E-02  0.8204470E-01
       -1   -1    0    0    0  501  0.00000000000E+00  0.00000000000E+00  0.84101084702E+03  0.84101084704E+03  0.50400001928E-02 0. -1.
        1   -1    0    0  501    0  0.00000000000E+00  0.00000000000E+00 -0.29334744047E+04  0.29334744047E+04  0.50400001928E-02 0.  1.
    10030    2    1    2    0    0  0.00000000000E+00  0.00000000000E+00 -0.20924635577E+04  0.37744852518E+04  0.31413906436E+04 0.  0.
        2    1    3    3  502    0 -0.56669694218E+02 -0.15695461913E+04 -0.10701749647E+04  0.19005160236E+04  0.25500000920E-02 0. -1.
       -2    1    3    3    0  502  0.56669694218E+02  0.15695461913E+04 -0.10222885930E+04  0.18739692282E+04  0.25500000920E-02 0.  1.
</event>
<event>
 5   0  0.5831722E-07  0.2109737E+04  0.7818609E-02  0.8556966E-01
        1   -1    0    0  501    0  0.00000000000E+00  0.00000000000E+00  0.15494524722E+04  0.15494524722E+04  0.50400001928E-02 0. -1.
       -1   -1    0    0    0  501  0.00000000000E+00  0.00000000000E+00 -0.71815520323E+03  0.71815520324E+03  0.50400001928E-02 0.  1.
    10030    2    1    2    0    0  0.00000000000E+00  0.00000000000E+00  0.83129726899E+03  0.22676076755E+04  0.21097368131E+04 0.  0.
        4    1    3    3  502    0 -0.22674049731E+03  0.71404563837E+03 -0.38253329018E+03  0.84119305620E+03  0.12699999809E+01 0.  1.
       -4    1    3    3    0  502  0.22674049731E+03 -0.71404563837E+03  0.12138305592E+04  0.14264146193E+04  0.12699999809E+01 0. -1.
</event>
<event>
 5   0  0.1685793E-06  0.3446889E+04  0.7818609E-02  0.8126493E-01
        2   -1    0    0  501    0  0.00000000000E+00  0.00000000000E+00  0.24356204858E+04  0.24356204858E+04  0.25500000920E-02 0.  1.
       -2   -1    0    0    0  501  0.00000000000E+00  0.00000000000E+00 -0.12195089208E+04  0.12195089208E+04  0.25500000920E-02 0. -1.
    10030    2    1    2    0    0  0.00000000000E+00  0.00000000000E+00  0.12161115650E+04  0.36551294067E+04  0.34468889801E+04 0.  0.
        3    1    3    3  502    0 -0.37451737886E+03  0.15911487698E+04  0.28946194461E+02  0.16348870197E+04  0.10100000352E+00 0.  1.
       -3    1    3    3    0  502  0.37451737886E+03 -0.15911487698E+04  0.11871653705E+04  0.20202423869E+04  0.10100000352E+00 0. -1.
</event>
<event>
 5   0  0.6186440E-07  0.3739591E+04  0.7818609E-02  0.8059244E-01
       -1   -1    0    0    0  501  0.00000000000E+00  0.00000000000E+00  0.13401442074E+04  0.13401442074E+04  0.50400001928E-02 0. -1.
        1   -1    0    0  501    0  0.00000000000E+00  0.00000000000E+00 -0.26087759546E+04  0.26087759546E+04  0.50400001928E-02 0.  1.
    10030    2    1    2    0    0  0.00000000000E+00  0.00000000000E+00 -0.12686317472E+04  0.39489201621E+04  0.37395914130E+04 0.  0.
        3    1    3    3  502    0 -0.16871579824E+04  0.75562434853E+03 -0.93048996951E+03  0.20696090953E+04  0.10100000352E+00 0.  1.
       -3    1    3    3    0  502  0.16871579824E+04 -0.75562434853E+03 -0.33814177769E+03  0.18793110668E+04  0.10100000352E+00 0. -1.
</event>
<event>
 5   0  0.1724503E-06  0.3048339E+04  0.7818609E-02  0.8230061E-01
        2   -1    0    0  501    0  0.00000000000E+00  0.00000000000E+00  0.18470289715E+04  0.18470289715E+04  0.25500000920E-02 0. -1.
       -2   -1    0    0    0  501  0.00000000000E+00  0.00000000000E+00 -0.12577453882E+04  0.12577453882E+04  0.25500000920E-02 0.  1.
    10030    2    1    2    0    0  0.00000000000E+00  0.00000000000E+00  0.58928358328E+03  0.31047743597E+04  0.30483386759E+04 0.  0.
        1    1    3    3  502    0  0.44335080860E+03 -0.11747789080E+04 -0.58531312872E+03  0.13853724701E+04  0.50400001928E-02 0. -1.
       -1    1    3    3    0  502 -0.44335080860E+03  0.11747789080E+04  0.11745967120E+04  0.17194018896E+04  0.50400001928E-02 0.  1.
</event>
<event>
 5   0  0.1151180E-06  0.3529508E+04  0.7818609E-02  0.8106832E-01
        2   -1    0    0  501    0  0.00000000000E+00  0.00000000000E+00  0.16448265892E+04  0.16448265892E+04  0.25500000920E-02 0.  1.
       -2   -1    0    0    0  501  0.00000000000E+00  0.00000000000E+00 -0.18934260600E+04  0.18934260600E+04  0.25500000920E-02 0. -1.
    10030    2    1    2    0    0  0.00000000000E+00  0.00000000000E+00 -0.24859947072E+03  0.35382526492E+04  0.35295084803E+04 0.  0.
        5    1    3    3  502    0 -0.17448921925E+04 -0.25848054875E+03 -0.70552725110E+02  0.17653500317E+04  0.46999998093E+01 0. -1.
       -5    1    3    3    0  502  0.17448921925E+04  0.25848054875E+03 -0.17804674561E+03  0.17729026175E+04  0.46999998093E+01 0.  1.
</event>
<event>
 5   0  0.7178258E-07  0.1884013E+04  0.7818609E-02  0.8662855E-01
       -1   -1    0    0    0  501  0.00000000000E+00  0.00000000000E+00  0.88669699317E+03  0.88669699319E+03  0.50400001928E-02 0.  1.
        1   -1    0    0  501    0  0.00000000000E+00  0.00000000000E+00 -0.10007662702E+04  0.10007662702E+04  0.50400001928E-02 0. -1.
    10030    2    1    2    0    0  0.00000000000E+00  0.00000000000E+00 -0.11406927705E+03  0.18874632634E+04  0.18840132088E+04 0.  0.
        2    1    3    3  502    0 -0.39507120067E+03  0.23788246596E+03  0.76587511775E+03  0.89399889106E+03  0.25500000920E-02 0.  1.
       -2    1    3    3    0  502  0.39507120067E+03 -0.23788246596E+03 -0.87994439480E+03  0.99346437237E+03  0.25500000920E-02 0. -1.
</event>
<event>
 5   0  0.5679750E-07  0.3678917E+04  0.7818609E-02  0.8072650E-01
       -1   -1    0    0    0  501  0.00000000000E+00  0.00000000000E+00  0.14372448155E+04  0.14372448155E+04  0.50400001928E-02 0.  1.
        1   -1    0    0  501    0  0.00000000000E+00  0.00000000000E+00 -0.23542315302E+04  0.23542315302E+04  0.50400001928E-02 0. -1.
    10030    2    1    2    0    0  0.00000000000E+00  0.00000000000E+00 -0.91698671468E+03  0.37914763457E+04  0.36789167217E+04 0.  0.
        4    1    3    3  502    0  0.55417365134E+03 -0.22879784128E+03  0.13337210113E+04  0.14622825434E+04  0.12699999809E+01 0.  1.
       -4    1    3    3    0  502 -0.55417365134E+03  0.22879784128E+03 -0.22507077259E+04  0.23291938023E+04  0.12699999809E+01 0. -1.
</event>
<event>
 5   0  0.5875011E-07  0.3681075E+04  0.7818609E-02  0.8072169E-01
        1   -1    0    0  501    0  0.00000000000E+00  0.00000000000E+00  0.29666863161E+04  0.29666863161E+04  0.50400001928E-02 0.  1.
       -1   -1    0    0    0  501  0.00000000000E+00  0.00000000000E+00 -0.11418726453E+04  0.11418726453E+04  0.50400001928E-02 0. -1.
    10030    2    1    2    0    0  0.00000000000E+00  0.00000000000E+00  0.18248136708E+04  0.41085589614E+04  0.36810748167E+04 0.  0.
        2    1    3    3  502    0  0.12641254039E+04  0.42054974699E+03 -0.50499193859E+03  0.14247427784E+04  0.25500000920E-02 0.  1.
       -2    1    3    3    0  502 -0.12641254039E+04 -0.42054974699E+03  0.23298056094E+04  0.26838161830E+04  0.25500000920E-02 0. -1.
</event>
<event>
 5   0  0.1680194E-06  0.3714572E+04  0.7818609E-02  0.8064740E-01
       -2   -1    0    0    0  501  0.00000000000E+00  0.00000000000E+00  0.13351083550E+04  0.13351083550E+04  0.25500000920E-02 0. -1.
        2   -1    0    0  501    0  0.00000000000E+00  0.00000000000E+00 -0.25836932926E+04  0.25836932926E+04  0.25500000920E-02 0.  1.
    10030    2    1    2    0    0  0.00000000000E+00  0.00000000000E+00 -0.12485849376E+04  0.39188016476E+04  0.37145715778E+04 0.  0.
        2    1    3    3  502    0 -0.65922403320E+03  0.42644520006E+03  0.11514250016E+04  0.13936324368E+04  0.25500000920E-02 0. -1.
       -2    1    3    3    0  502  0.65922403320E+03 -0.42644520006E+03 -0.24000099392E+04  0.25251692108E+04  0.25500000920E-02 0.  1.
</event>
<event>
 5   0  0.1724503E-06  0.3720068E+04  0.7818609E-02  0.8063529E-01
       -2   -1    0    0    0  501  0.00000000000E+00  0.00000000000E+00  0.20047708383E+04  0.20047708383E+04  0.25500000920E-02 0. -1.
        2   -1    0    0  501    0  0.00000000000E+00  0.00000000000E+00 -0.17257469433E+04  0.17257469433E+04  0.25500000920E-02 0.  1.
    10030    2    1    2    0    0  0.00000000000E+00  0.00000000000E+00  0.27902389502E+03  0.37305177817E+04  0.37200683576E+04 0.  0.
        1    1    3    3  502    0  0.64056216192E+03  0.10081964425E+04 -0.12903076435E+04  0.17583156045E+04  0.50400001928E-02 0.  1.
       -1    1    3    3    0  502 -0.64056216192E+03 -0.10081964425E+04  0.15693315385E+04  0.19722021772E+04  0.50400001928E-02 0. -1.
</event>
<event>
 5   0  0.1724503E-06  0.2293310E+04  0.7818609E-02  0.8480564E-01
       -2   -1    0    0    0  501  0.00000000000E+00  0.00000000000E+00  0.11138246322E+04  0.11138246322E+04  0.25500000920E-02 0.  1.
        2   -1    0    0  501    0  0.00000000000E+00  0.00000000000E+00 -0.11804529062E+04  0.11804529062E+04  0.25500000920E-02 0. -1.
    10030    2    1    2    0    0  0.00000000000E+00  0.00000000000E+00 -0.66628274010E+02  0.22942775384E+04  0.22933098561E+04 0.  0.
        1    1    3    3  502    0  0.10730980424E+04 -0.11270923167E+03  0.35488921700E+03  0.11358649285E+04  0.50400001928E-02 0.  1.
       -1    1    3    3    0  502 -0.10730980424E+04  0.11270923167E+03 -0.42151749101E+03  0.11584126099E+04  0.50400001928E-02 0. -1.
</event>
<event>
 5   0  0.1724503E-06  0.3712436E+04  0.7818609E-02  0.8065211E-01
        2   -1    0    0  501    0  0.00000000000E+00  0.00000000000E+00  0.22008388494E+04  0.22008388494E+04  0.25500000920E-02 0. -1.
       -2   -1    0    0    0  501  0.00000000000E+00  0.00000000000E+00 -0.15655602421E+04  0.15655602421E+04  0.25500000920E-02 0.  1.
    10030    2    1    2    0    0  0.00000000000E+00  0.00000000000E+00  0.63527860725E+03  0.37663990915E+04  0.37124362901E+04 0.  0.
        1    1    3    3  502    0  0.18335897365E+04 -0.22888629585E+03  0.49657056562E+03  0.19133798852E+04  0.50400001928E-02 0. -1.
       -1    1    3    3    0  502 -0.18335897365E+04  0.22888629585E+03  0.13870804163E+03  0.18530192064E+04  0.50400001928E-02 0.  1.
</event>
<event>
 5   0  0.1184684E-06  0.3857016E+04  0.7818609E-02  0.8034029E-01
       -2   -1    0    0    0  501  0.00000000000E+00  0.00000000000E+00  0.13734886866E+04  0.13734886866E+04  0.25500000920E-02 0. -1.
        2   -1    0    0  501    0  0.00000000000E+00  0.00000000000E+00 -0.27078078166E+04  0.27078078166E+04  0.25500000920E-02 0.  1.
    10030    2    1    2    0    0  0.00000000000E+00  0.00000000000E+00 -0.13343191300E+04  0.40812965032E+04  0.38570161533E+04 0.  0.
        4    1    3    3  502    0  0.55997937085E+02 -0.16955750550E+04 -0.16375639641E+04  0.23579075227E+04  0.12699999809E+01 0.  1.
       -4    1    3    3    0  502 -0.55997937085E+02  0.16955750550E+04  0.30324483406E+03  0.17233889806E+04  0.12699999809E+01 0. -1.
</event>
<event>
 5   0  0.6261598E-07  0.2276594E+04  0.7818609E-02  0.8487208E-01
       -1   -1    0    0    0  501  0.00000000000E+00  0.00000000000E+00  0.77221866982E+03  0.77221866984E+03  0.50400001928E-02 0.  1.
        1   -1    0    0  501    0  0.00000000000E+00  0.00000000000E+00 -0.16779178707E+04  0.16779178707E+04  0.50400001928E-02 0. -1.
    10030    2    1    2    0    0  0.00000000000E+00  0.00000000000E+00 -0.90569920088E+03  0.24501365405E+04  0.22765935133E+04 0.  0.
        1    1    3    3  502    0 -0.95708210564E+03 -0.86802452342E+02 -0.11094188533E+04  0.14677707637E+04  0.50400001928E-02 0. -1.
       -1    1    3    3    0  502  0.95708210564E+03  0.86802452342E+02  0.20371965245E+03  0.98236577683E+03  0.50400001928E-02 0.  1.
</event>
<event>
 5   0  0.5679750E-07  0.3698500E+04  0.7818609E-02  0.8068294E-01
       -1   -1    0    0    0  501  0.00000000000E+00  0.00000000000E+00  0.28336400886E+04  0.28336400886E+04  0.50400001928E-02 0.  1.
        1   -1    0    0  501    0  0.00000000000E+00  0.00000000000E+00 -0.12068310764E+04  0.12068310764E+04  0.50400001928E-02 0. -1.
    10030    2    1    2    0    0  0.00000000000E+00  0.00000000000E+00  0.16268090122E+04  0.40404711650E+04  0.36984996516E+04 0.  0.
        4    1    3    3  502    0 -0.51022030525E+03  0.11878243501E+03 -0.11240732579E+04  0.12401517362E+04  0.12699999809E+01 0. -1.
       -4    1    3    3    0  502  0.51022030525E+03 -0.11878243501E+03  0.27508822701E+04  0.28003194289E+04  0.12699999809E+01 0.  1.
</event>
<event>
 5   0  0.8335583E-07  0.1875319E+04  0.7818609E-02  0.8667240E-01
        1   -1    0    0  501    0  0.00000000000E+00  0.00000000000E+00  0.12843009542E+04  0.12843009542E+04  0.50400001928E-02 0. -1.
       -1   -1    0    0    0  501  0.00000000000E+00  0.00000000000E+00 -0.68457924225E+03  0.68457924227E+03  0.50400001928E-02 0.  1.
    10030    2    1    2    0    0  0.00000000000E+00  0.00000000000E+00  0.59972171198E+03  0.19688801965E+04  0.18753194652E+04 0.  0.
        3    1    3    3  502    0 -0.24899236102E+03 -0.82323946806E+03 -0.92249508285E+02  0.86500312115E+03  0.10100000352E+00 0.  1.
       -3    1    3    3    0  502  0.24899236102E+03  0.82323946806E+03  0.69197122027E+03  0.11038770754E+04  0.10100000352E+00 0. -1.
</event>
<event>
 5   0  0.5679750E-07  0.3644637E+04  0.7818609E-02  0.8080343E-01
       -1   -1    0    0    0  501  0.00000000000E+00  0.00000000000E+00  0.15613526572E+04  0.15613526572E+04  0.50400001928E-02 0. -1.
        1   -1    0    0  501    0  0.00000000000E+00  0.00000000000E+00 -0.21269026523E+04  0.21269026523E+04  0.50400001928E-02 0.  1.
    10030    2    1    2    0    0  0.00000000000E+00  0.00000000000E+00 -0.56554999510E+03  0.36882553096E+04  0.36446372154E+04 0.  0.
        4    1    3    3  502    0  0.11189572233E+03 -0.17063319367E+04 -0.92019753914E+03  0.19418688047E+04  0.12699999809E+01 0. -1.
       -4    1    3    3    0  502 -0.11189572233E+03  0.17063319367E+04  0.35464754404E+03  0.17463865048E+04  0.12699999809E+01 0.  1.
</event>
<event>
 5   0  0.5875011E-07  0.2675002E+04  0.7818609E-02  0.8343162E-01
       -1   -1    0    0    0  501  0.00000000000E+00  0.00000000000E+00  0.11553653040E+04  0.11553653040E+04  0.50400001928E-02 0. -1.
        1   -1    0    0  501    0  0.00000000000E+00  0.00000000000E+00 -0.15483489415E+04  0.15483489415E+04  0.50400001928E-02 0.  1.
    10030    2    1    2    0    0  0.00000000000E+00  0.00000000000E+00 -0.39298363752E+03  0.27037142456E+04  0.26750017911E+04 0.  0.
        2    1    3    3  502    0 -0.24707048072E+03 -0.13025871932E+04 -0.37482667181E+03  0.13777780127E+04  0.25500000920E-02 0.  1.
       -2    1    3    3    0  502  0.24707048072E+03  0.13025871932E+04 -0.18156965708E+02  0.13259362329E+04  0.25500000920E-02 0. -1.
</event>
<event>
 5   0  0.6261598E-07  0.2102866E+04  0.7818609E-02  0.8559982E-01
        1   -1    0    0  501    0  0.00000000000E+00  0.00000000000E+00  0.15380163840E+04  0.15380163840E+04  0.50400001928E-02 0. -1.
       -1   -1    0    0    0  501  0.00000000000E+00  0.00000000000E+00 -0.71879020343E+03  0.71879020345E+03  0.50400001928E-02 0.  1.
    10030    2    1    2    0    0  0.00000000000E+00  0.00000000000E+00  0.81922618061E+03  0.22568065875E+04  0.21028657680E+04 0.  0.
        1    1    3    3  502    0 -0.57171590381E+03  0.21103005827E+03  0.13291429345E+04  0.14621948231E+04  0.50400001928E-02 0. -1.
       -1    1    3    3    0  502  0.57171590381E+03 -0.21103005827E+03 -0.50991675394E+03  0.79461176441E+03  0.50400001928E-02 0.  1.
</event>
<event>
 5   0  0.1184684E-06  0.1854152E+04  0.7818609E-02  0.8678020E-01
        2   -1    0    0  501    0  0.00000000000E+00  0.00000000000E+00  0.23404131856E+04  0.23404131856E+04  0.25500000920E-02 0.  1.
       -2   -1    0    0    0  501  0.00000000000E+00  0.00000000000E+00 -0.36723015086E+03  0.36723015086E+03  0.25500000920E-02 0. -1.
    10030    2    1    2    0    0  0.00000000000E+00  0.00000000000E+00  0.19731830347E+04  0.27076433364E+04  0.18541524071E+04 0.  0.
        4    1    3    3  502    0  0.11421148967E+03 -0.65818866706E+03  0.19253038775E+04  0.20379041242E+04  0.12699999809E+01 0.  1.
       -4    1    3    3    0  502 -0.11421148967E+03  0.65818866706E+03  0.47879157219E+02  0.66973921224E+03  0.12699999809E+01 0. -1.
</event>
<event>
 5   0  0.1151180E-06  0.3132928E+04  0.7818609E-02  0.8206759E-01
       -2   -1    0    0    0  501  0.00000000000E+00  0.00000000000E+00  0.87999551952E+03  0.87999551953E+03  0.25500000920E-02 0.  1.
        2   -1    0    0  501    0  0.00000000000E+00  0.00000000000E+00 -0.27884336541E+04  0.27884336541E+04  0.25500000920E-02 0. -1.
    10030    2    1    2    0    0  0.00000000000E+00  0.00000000000E+00 -0.19084381346E+04  0.36684291736E+04  0.31329277822E+04 0.  0.
        5    1    3    3  502    0  0.38517988890E+03  0.14482681608E+04 -0.14881704544E+04  0.21119937509E+04  0.46999998093E+01 0.  1.
       -5    1    3    3    0  502 -0.38517988890E+03 -0.14482681608E+04 -0.42026768015E+03  0.15564354228E+04  0.46999998093E+01 0. -1.
</event>
<event>
 5   0  0.6885379E-07  0.1822494E+04  0.7818609E-02  0.8694428E-01
        1   -1    0    0  501    0  0.00000000000E+00  0.00000000000E+00  0.15916509803E+04  0.15916509803E+04  0.50400001928E-02 0.  1.
       -1   -1    0    0    0  501  0.00000000000E+00  0.00000000000E+00 -0.52170420185E+03  0.52170420187E+03  0.50400001928E-02 0. -1.
    10030    2    1    2    0    0  0.00000000000E+00  0.00000000000E+00  0.10699467785E+04  0.21133551822E+04  0.18224939005E+04 0.  0.
        1    1    3    3  502    0  0.17062002164E+03 -0.66635403580E+03  0.12280506574E+04  0.14075678705E+04  0.50400001928E-02 0.  1.
       -1    1    3    3    0  502 -0.17062002164E+03  0.66635403580E+03 -0.15810387895E+03  0.70578731171E+03  0.50400001928E-02 0. -1.
</event>
<event>
 5   0  0.1685793E-06  0.3616563E+04  0.7818609E-02  0.8086708E-01
       -2   -1    0    0    0  501  0.00000000000E+00  0.00000000000E+00  0.19722871591E+04  0.19722871591E+04  0.25500000920E-02 0.  1.
        2   -1    0    0  501    0  0.00000000000E+00  0.00000000000E+00 -0.16579135919E+04  0.16579135919E+04  0.25500000920E-02 0. -1.
    10030    2    1    2    0    0  0.00000000000E+00  0.00000000000E+00  0.31437356720E+03  0.36302007511E+04  0.36165628369E+04 0.  0.
        3    1    3    3  502    0 -0.15539040990E+03 -0.70720143925E+03 -0.15060473473E+04  0.16710651327E+04  0.10100000352E+00 0. -1.
       -3    1    3    3    0  502  0.15539040990E+03  0.70720143925E+03  0.18204209145E+04  0.19591356184E+04  0.10100000352E+00 0.  1.
</event>
<event>
 5   0  0.1151180E-06  0.2375905E+04  0.7818609E-02  0.8448580E-01
        2   -1    0    0  501    0  0.00000000000E+00  0.00000000000E+00  0.80156633343E+03  0.80156633343E+03  0.25500000920E-02 0. -1.
       -2   -1    0    0    0  501  0.00000000000E+00  0.00000000000E+00 -0.17605925640E+04  0.17605925640E+04  0.25500000920E-02 0.  1.
    10030    2    1    2    0    0  0.00000000000E+00  0.00000000000E+00 -0.95902623060E+03  0.25621588975E+04  0.23759054916E+04 0.  0.
        5    1    3    3  502    0 -0.22579808349E+03 -0.80064617410E+03  0.43501884908E+03  0.93876650966E+03  0.46999998093E+01 0. -1.
       -5    1    3    3    0  502  0.22579808349E+03  0.80064617410E+03 -0.13940450797E+04  0.16233923878E+04  0.46999998093E+01 0.  1.
</event>
<event>
 5   0  0.6261598E-07  0.3633368E+04  0.7818609E-02  0.8082891E-01
        1   -1    0    0  501    0  0.00000000000E+00  0.00000000000E+00  0.20306698023E+04  0.20306698023E+04  0.50400001928E-02 0.  1.
       -1   -1    0    0    0  501  0.00000000000E+00  0.00000000000E+00 -0.16252477176E+04  0.16252477176E+04  0.50400001928E-02 0. -1.
    10030    2    1    2    0    0  0.00000000000E+00  0.00000000000E+00  0.40542208470E+03  0.36559175198E+04  0.36333683883E+04 0.  0.
        1    1    3    3  502    0 -0.17325053671E+04 -0.54446761128E+03  0.15422866980E+03  0.18225823190E+04  0.50400001928E-02 0. -1.
       -1    1    3    3    0  502  0.17325053671E+04  0.54446761128E+03  0.25119341490E+03  0.18333352008E+04  0.50400001928E-02 0.  1.
</event>
<event>
 5   0  0.6186440E-07  0.3638420E+04  0.7818609E-02  0.8081747E-01
        1   -1    0    0  501    0  0.00000000000E+00  0.00000000000E+00  0.21740225289E+04  0.21740225289E+04  0.50400001928E-02 0. -1.
       -1   -1    0    0    0  501  0.00000000000E+00  0.00000000000E+00 -0.15223047941E+04  0.15223047941E+04  0.50400001928E-02 0.  1.
    10030    2    1    2    0    0  0.00000000000E+00  0.00000000000E+00  0.65171773482E+03  0.36963273230E+04  0.36384199418E+04 0.  0.
        3    1    3    3  502    0 -0.83368482366E+03  0.15670186231E+04  0.73088587399E+03  0.19195759744E+04  0.10100000352E+00 0. -1.
       -3    1    3    3    0  502  0.83368482366E+03 -0.15670186231E+04 -0.79168139163E+02  0.17767513486E+04  0.10100000352E+00 0.  1.
</event>
<event>
 5   0  0.6287345E-07  0.3688444E+04  0.7818609E-02  0.8070528E-01
       -1   -1    0    0    0  501  0.00000000000E+00  0.00000000000E+00  0.30639610358E+04  0.30639610358E+04  0.50400001928E-02 0. -1.
        1   -1    0    0  501    0  0.00000000000E+00  0.00000000000E+00 -0.11100514892E+04  0.11100514892E+04  0.50400001928E-02 0.  1.
    10030    2    1    2    0    0  0.00000000000E+00  0.00000000000E+00  0.19539095466E+04  0.41740125250E+04  0.36884438511E+04 0.  0.
        5    1    3    3  502    0 -0.47865946129E+03 -0.13453868867E+04 -0.34370642702E+03  0.14687875792E+04  0.46999998093E+01 0.  1.
       -5    1    3    3    0  502  0.47865946129E+03  0.13453868867E+04  0.22976159736E+04  0.27052249457E+04  0.46999998093E+01 0. -1.
</event>
<event>
 5   0  0.1680194E-06  0.1858533E+04  0.7818609E-02  0.8675777E-01
        2   -1    0    0  501    0  0.00000000000E+00  0.00000000000E+00  0.16065199758E+04  0.16065199758E+04  0.25500000920E-02 0.  1.
       -2   -1    0    0    0  501  0.00000000000E+00  0.00000000000E+00 -0.53751968012E+03  0.53751968012E+03  0.25500000920E-02 0. -1.
    10030    2    1    2    0    0  0.00000000000E+00  0.00000000000E+00  0.10690002957E+04  0.21440396560E+04  0.18585328660E+04 0.  0.
        2    1    3    3  502    0  0.41960572492E+03 -0.79006942956E+03  0.82464733145E+03  0.12166847945E+04  0.25500000920E-02 0.  1.
       -2    1    3    3    0  502 -0.41960572492E+03  0.79006942956E+03  0.24435296428E+03  0.92735486146E+03  0.25500000920E-02 0. -1.
</event>
<event>
 5   0  0.1680194E-06  0.2929747E+04  0.7818609E-02  0.8264081E-01
        2   -1    0    0  501    0  0.00000000000E+00  0.00000000000E+00  0.15887220806E+04  0.15887220806E+04  0.25500000920E-02 0. -1.
       -2   -1    0    0    0  501  0.00000000000E+00  0.00000000000E+00 -0.13506796961E+04  0.13506796961E+04  0.25500000920E-02 0.  1.
    10030    2    1    2    0    0  0.00000000000E+00  0.00000000000E+00  0.23804238449E+03  0.29394017768E+04  0.29297471953E+04 0.  0.
        2    1    3    3  502    0  0.96815869215E+03  0.71013304752E+03  0.96097340179E+03  0.15378849363E+04  0.25500000920E-02 0. -1.
       -2    1    3    3    0  502 -0.96815869215E+03 -0.71013304752E+03 -0.72293101730E+03  0.14015168405E+04  0.25500000920E-02 0.  1.
</event>
<event>
 5   0  0.1685793E-06  0.2963518E+04  0.7818609E-02  0.8254226E-01
       -2   -1    0    0    0  501  0.00000000000E+00  0.00000000000E+00  0.14499986134E+04  0.14499986134E+04  0.25500000920E-02 0. -1.
        2   -1    0    0  501    0  0.00000000000E+00  0.00000000000E+00 -0.15142151675E+04  0.15142151675E+04  0.25500000920E-02 0.  1.
    10030    2    1    2    0    0  0.00000000000E+00  0.00000000000E+00 -0.64216554187E+02  0.29642137809E+04  0.29635181074E+04 0.  0.
        3    1    3    3  502    0 -0.14985691928E+03  0.81871994452E+03  0.11940875057E+04  0.14555426566E+04  0.10100000352E+00 0. -1.
       -3    1    3    3    0  502  0.14985691928E+03 -0.81871994452E+03 -0.12583040599E+04  0.15086711243E+04  0.10100000352E+00 0.  1.
</event>
<event>
 5   0  0.1184684E-06  0.3591766E+04  0.7818609E-02  0.8092381E-01
        2   -1    0    0  501    0  0.00000000000E+00  0.00000000000E+00  0.21976214320E+04  0.21976214320E+04  0.25500000920E-02 0.  1.
       -2   -1    0    0    0  501  0.00000000000E+00  0.00000000000E+00 -0.14675843730E+04  0.14675843730E+04  0.25500000920E-02 0. -1.
    10030    2    1    2    0    0  0.00000000000E+00  0.00000000000E+00  0.73003705896E+03  0.36652058051E+04  0.35917655110E+04 0.  0.
        4    1    3    3  502    0  0.75478376021E+03 -0.11359927106E+04  0.15572460669E+04  0.20700712280E+04  0.12699999809E+01 0.  1.
       -4    1    3    3    0  502 -0.75478376021E+03  0.11359927106E+04 -0.82720900792E+03  0.15951345771E+04  0.12699999809E+01 0. -1.
</event>
<event>
 5   0  0.5679750E-07  0.2150644E+04  0.7818609E-02  0.8539257E-01
        1   -1    0    0  501    0  0.00000000000E+00  0.00000000000E+00  0.96760083533E+03  0.96760083535E+03  0.50400001928E-02 0. -1.
       -1   -1    0    0    0  501  0.00000000000E+00  0.00000000000E+00 -0.11950357656E+04  0.11950357656E+04  0.50400001928E-02 0.  1.
    10030    2    1    2    0    0  0.00000000000E+00  0.00000000000E+00 -0.22743493028E+03  0.21626366010E+04  0.21506441873E+04 0.  0.
        4    1    3    3  502    0 -0.53532889431E+03  0.25987956105E+01 -0.10515121396E+04  0.11799420204E+04  0.12699999809E+01 0.  1.
       -4    1    3    3    0  502  0.53532889431E+03 -0.25987956105E+01  0.82407720934E+03  0.98269458057E+03  0.12699999809E+01 0. -1.
</event>
<event>
 5   0  0.1184684E-06  0.3714186E+04  0.7818609E-02  0.8064825E-01
       -2   -1    0    0    0  501  0.00000000000E+00  0.00000000000E+00  0.14067447489E+04  0.14067447489E+04  0.25500000920E-02 0.  1.
        2   -1    0    0  501    0  0.00000000000E+00  0.00000000000E+00 -0.24516128523E+04  0.24516128523E+04  0.25500000920E-02 0. -1.
    10030    2    1    2    0    0  0.00000000000E+00  0.00000000000E+00 -0.10448681034E+04  0.38583576012E+04  0.37141855131E+04 0.  0.
        4    1    3    3  502    0  0.38163498636E+03  0.12503907158E+04 -0.18925972015E+04  0.23002278115E+04  0.12699999809E+01 0. -1.
       -4    1    3    3    0  502 -0.38163498636E+03 -0.12503907158E+04  0.84772909810E+03  0.15581297897E+04  0.12699999809E+01 0.  1.
</event>
<event>
 5   0  0.5875011E-07  0.2775233E+04  0.7818609E-02  0.8310999E-01
       -1   -1    0    0    0  501  0.00000000000E+00  0.00000000000E+00  0.17495763706E+04  0.17495763706E+04  0.50400001928E-02 0.  1.
        1   -1    0    0  501    0  0.00000000000E+00  0.00000000000E+00 -0.11005407281E+04  0.11005407281E+04  0.50400001928E-02 0. -1.
    10030    2    1    2    0    0  0.00000000000E+00  0.00000000000E+00  0.64903564249E+03  0.28501170987E+04  0.27752333616E+04 0.  0.
        2    1    3    3  502    0 -0.58668635096E+03 -0.82440305642E+03  0.12996859236E+04  0.16471262167E+04  0.25500000920E-02 0.  1.
       -2    1    3    3    0  502  0.58668635096E+03  0.82440305642E+03 -0.65065028110E+03  0.12029908820E+04  0.25500000920E-02 0. -1.
</event>
<event>
 5   0  0.1184684E-06  0.3533497E+04  0.7818609E-02  0.8105897E-01
        2   -1    0    0  501    0  0.00000000000E+00  0.00000000000E+00  0.22851471424E+04  0.22851471424E+04  0.25500000920E-02 0. -1.
       -2   -1    0    0    0  501  0.00000000000E+00  0.00000000000E+00 -0.13659515771E+04  0.13659515771E+04  0.25500000920E-02 0.  1.
    10030    2    1    2    0    0  0.00000000000E+00  0.00000000000E+00  0.91919556526E+03  0.36510987195E+04  0.35334970458E+04 0.  0.
        4    1    3    3  502    0  0.75883731020E+03 -0.83507509668E+03  0.18643347136E+04  0.21792039872E+04  0.12699999809E+01 0. -1.
       -4    1    3    3    0  502 -0.75883731020E+03  0.83507509668E+03 -0.94513914834E+03  0.14718947323E+04  0.12699999809E+01 0.  1.
</event>
<event>
 5   0  0.6261598E-07  0.3763226E+04  0.7818609E-02  0.8054093E-01
        1   -1    0    0  501    0  0.00000000000E+00  0.00000000000E+00  0.20567285934E+04  0.20567285934E+04  0.50400001928E-02 0.  1.
       -1   -1    0    0    0  501  0.00000000000E+00  0.00000000000E+00 -0.17214069947E+04  0.17214069947E+04  0.50400001928E-02 0. -1.
    10030    2    1    2    0    0  0.00000000000E+00  0.00000000000E+00  0.33532159865E+03  0.37781355881E+04  0.37632257370E+04 0.  0.
        1    1    3    3  502    0  0.25815222470E+03 -0.15127668276E+04 -0.92539561138E+03  0.17920555470E+04  0.50400001928E-02 0. -1.
       -1    1    3    3    0  502 -0.25815222470E+03  0.15127668276E+04  0.12607172100E+04  0.19860800411E+04  0.50400001928E-02 0.  1.
</event>
<event>
 5   0  0.1724503E-06  0.2650683E+04  0.7818609E-02  0.8351186E-01
        2   -1    0    0  501    0  0.00000000000E+00  0.00000000000E+00  0.15865416714E+04  0.15865416714E+04  0.25500000920E-02 0. -1.
       -2   -1    0    0    0  501  0.00000000000E+00  0.00000000000E+00 -0.11071436552E+04  0.11071436552E+04  0.25500000920E-02 0.  1.
    10030    2    1    2    0    0  0.00000000000E+00  0.00000000000E+00  0.47939801626E+03  0.26936853266E+04  0.26506825877E+04 0.  0.
        1    1    3    3  502    0 -0.64408108281E+03  0.16651081952E+03  0.14045778171E+04  0.15541573725E+04  0.50400001928E-02 0. -1.
       -1    1    3    3    0  502  0.64408108281E+03 -0.16651081952E+03 -0.92517980083E+03  0.11395279541E+04  0.50400001928E-02 0.  1.
</event>
<event>
 5   0  0.6186440E-07  0.3053897E+04  0.7818609E-02  0.8228506E-01
        1   -1    0    0  501    0  0.00000000000E+00  0.00000000000E+00  0.14126409561E+04  0.14126409561E+04  0.50400001928E-02 0. -1.
       -1   -1    0    0    0  501  0.00000000000E+00  0.00000000000E+00 -0.16505053953E+04  0.16505053953E+04  0.50400001928E-02 0.  1.
    10030    2    1    2    0    0  0.00000000000E+00  0.00000000000E+00 -0.23786443918E+03  0.30631463513E+04  0.30538968677E+04 0.  0.
        3    1    3    3  502    0 -0.14792861080E+04 -0.34166737917E+03  0.44495370273E+02  0.15188824298E+04  0.10100000352E+00 0. -1.
       -3    1    3    3    0  502  0.14792861080E+04  0.34166737917E+03 -0.28235980945E+03  0.15442639216E+04  0.10100000352E+00 0.  1.
</event>
<event>
 5   0  0.1184684E-06  0.3566495E+04  0.7818609E-02  0.8098210E-01
       -2   -1    0    0    0  501  0.00000000000E+00  0.00000000000E+00  0.14599116127E+04  0.14599116127E+04  0.25500000920E-02 0.  1.
        2   -1    0    0  501    0  0.00000000000E+00  0.00000000000E+00 -0.21781943007E+04  0.21781943007E+04  0.25500000920E-02 0. -1.
    10030    2    1    2    0    0  0.00000000000E+00  0.00000000000E+00 -0.71828268803E+03  0.36381059134E+04  0.35664947241E+04 0.  0.
        4    1    3    3  502    0 -0.15854036741E+04  0.74924963822E+03 -0.68982585356E+03  0.18843410390E+04  0.12699999809E+01 0.  1.
       -4    1    3    3    0  502  0.15854036741E+04 -0.74924963822E+03 -0.28456834461E+02  0.17537648744E+04  0.12699999809E+01 0. -1.
</event>
<event>
 5   0  0.1724503E-06  0.3674863E+04  0.7818609E-02  0.8073555E-01
        2   -1    0    0  501    0  0.00000000000E+00  0.00000000000E+00  0.26053771603E+04  0.26053771603E+04  0.25500000920E-02 0.  1.
       -2   -1    0    0    0  501  0.00000000000E+00  0.00000000000E+00 -0.12958410751E+04  0.12958410752E+04  0.25500000920E-02 0. -1.
    10030    2    1    2    0    0  0.00000000000E+00  0.00000000000E+00  0.13095360851E+04  0.39012182354E+04  0.36748631216E+04 0.  0.
        1    1    3    3  502    0 -0.15312640525E+04  0.98269901708E+03  0.92685102724E+03  0.20419402007E+04  0.50400001928E-02 0. -1.
       -1    1    3    3    0  502  0.15312640525E+04 -0.98269901708E+03  0.38268505789E+03  0.18592780347E+04  0.50400001928E-02 0.  1.
</event>
<event>
 5   0  0.6186440E-07  0.2783781E+04  0.7818609E-02  0.8308321E-01
        1   -1    0    0  501    0  0.00000000000E+00  0.00000000000E+00  0.72852754597E+03  0.72852754599E+03  0.50400001928E-02 0.  1.
       -1   -1    0    0    0  501  0.00000000000E+00  0.00000000000E+00 -0.26592813616E+04  0.26592813616E+04  0.50400001928E-02 0. -1.
    10030    2    1    2    0    0  0.00000000000E+00  0.00000000000E+00 -0.19307538156E+04  0.33878089076E+04  0.27837814027E+04 0.  0.
        3    1    3    3  502    0 -0.82934916775E+03 -0.40048655831E+03  0.30469310440E+03  0.97007598852E+03  0.10100000352E+00 0.  1.
       -3    1    3    3    0  502  0.82934916775E+03  0.40048655831E+03 -0.22354469201E+04  0.24177329191E+04  0.10100000352E+00 0. -1.
</event>
<event>
 5   0  0.5875011E-07  0.3703009E+04  0.7818609E-02  0.8067295E-01
       -1   -1    0    0    0  501  0.00000000000E+00  0.00000000000E+00  0.17417053711E+04  0.17417053711E+04  0.50400001928E-02 0.  1.
        1   -1    0    0  501    0  0.00000000000E+00  0.00000000000E+00 -0.19682257795E+04  0.19682257795E+04  0.50400001928E-02 0. -1.
    10030    2    1    2    0    0  0.00000000000E+00  0.00000000000E+00 -0.22652040842E+03  0.37099311506E+04  0.37030092691E+04 0.  0.
        2    1    3    3  502    0  0.15864120337E+04 -0.49541864775E+03 -0.93082887981E+03  0.19048845584E+04  0.25500000920E-02 0. -1.
       -2    1    3    3    0  502 -0.15864120337E+04  0.49541864775E+03  0.70430847140E+03  0.18050465922E+04  0.25500000920E-02 0.  1.
</event>
<event>
 5   0  0.1151180E-06  0.2081874E+04  0.7818609E-02  0.8569270E-01
       -2   -1    0    0    0  501  0.00000000000E+00  0.00000000000E+00  0.86959076050E+03  0.86959076050E+03  0.25500000920E-02 0.  1.
        2   -1    0    0  501    0  0.00000000000E+00  0.00000000000E+00 -0.12460459204E+04  0.12460459204E+04  0.25500000920E-02 0. -1.
    10030    2    1    2    0    0  0.00000000000E+00  0.00000000000E+00 -0.37645515987E+03  0.21156366809E+04  0.20818741744E+04 0.  0.
        5    1    3    3  502    0  0.40543069441E+03  0.85223832649E+03  0.25803385403E+03  0.97841084057E+03  0.46999998093E+01 0.  1.
       -5    1    3    3    0  502 -0.40543069441E+03 -0.85223832649E+03 -0.63448901391E+03  0.11372258403E+04  0.46999998093E+01 0. -1.
</event>
<event>
 5   0  0.1184684E-06  0.2528236E+04  0.7818609E-02  0.8392995E-01
        2   -1    0    0  501    0  0.00000000000E+00  0.00000000000E+00  0.14717074074E+04  0.14717074074E+04  0.25500000920E-02 0. -1.
       -2   -1    0    0    0  501  0.00000000000E+00  0.00000000000E+00 -0.10858093748E+04  0.10858093748E+04  0.25500000920E-02 0.  1.
    10030    2    1    2    0    0  0.00000000000E+00  0.00000000000E+00  0.38589803260E+03  0.25575167823E+04  0.25282355112E+04 0.  0.
        4    1    3    3  502    0  0.37101375430E+03 -0.74256683221E+03 -0.77147378504E+03  0.11332387745E+04  0.12699999809E+01 0.  1.
       -4    1    3    3    0  502 -0.37101375430E+03  0.74256683221E+03  0.11573718176E+04  0.14242780077E+04  0.12699999809E+01 0. -1.
</event>
<event>
 5   0  0.1724503E-06  0.3793537E+04  0.7818609E-02  0.8047543E-01
        2   -1    0    0  501    0  0.00000000000E+00  0.00000000000E+00  0.14588527939E+04  0.14588527939E+04  0.25500000920E-02 0.  1.
       -2   -1    0    0    0  501  0.00000000000E+00  0.00000000000E+00 -0.24661369102E+04  0.24661369102E+04  0.25500000920E-02 0. -1.
    10030    2    1    2    0    0  0.00000000000E+00  0.00000000000E+00 -0.10072841163E+04  0.39249897041E+04  0.37935369889E+04 0.  0.
        1    1    3    3  502    0 -0.15614860028E+04  0.26377389106E+03 -0.15838083418E+04  0.22397017806E+04  0.50400001928E-02 0. -1.
       -1    1    3    3    0  502  0.15614860028E+04 -0.26377389106E+03  0.57652422549E+03  0.16852879235E+04  0.50400001928E-02 0.  1.
</event>
<event>
 5   0  0.5679750E-07  0.3585751E+04  0.7818609E-02  0.8093763E-01
        1   -1    0    0  501    0  0.00000000000E+00  0.00000000000E+00  0.23548911055E+04  0.23548911055E+04  0.50400001928E-02 0.  1.
       -1   -1    0    0    0  501  0.00000000000E+00  0.00000000000E+00 -0.13649901369E+04  0.13649901369E+04  0.50400001928E-02 0. -1.
    10030    2    1    2    0    0  0.00000000000E+00  0.00000000000E+00  0.98990096867E+03  0.37198812424E+04  0.35857513201E+04 0.  0.
        4    1    3    3  502    0 -0.62448601907E+03 -0.60567204021E+03  0.21212583036E+04  0.22927188689E+04  0.12699999809E+01 0.  1.
       -4    1    3    3    0  502  0.62448601907E+03  0.60567204021E+03 -0.11313573349E+04  0.14271623735E+04  0.12699999809E+01 0. -1.
</event>
<event>
 5   0  0.1685793E-06  0.3713940E+04  0.7818609E-02  0.8064879E-01
       -2   -1    0    0    0  501  0.00000000000E+00  0.00000000000E+00  0.15056389304E+04  0.15056389304E+04  0.25500000920E-02 0.  1.
        2   -1    0    0  501    0  0.00000000000E+00  0.00000000000E+00 -0.22902823870E+04  0.22902823870E+04  0.25500000920E-02 0. -1.
    10030    2    1    2    0    0  0.00000000000E+00  0.00000000000E+00 -0.78464345665E+03  0.37959213174E+04  0.37139403999E+04 0.  0.
        3    1    3    3  502    0 -0.18487020330E+04 -0.16638604118E+03 -0.33676384051E+03  0.18864764552E+04  0.10100000352E+00 0. -1.
       -3    1    3    3    0  502  0.18487020330E+04  0.16638604118E+03 -0.44787961614E+03  0.19094448623E+04  0.10100000352E+00 0.  1.
</event>
<event>
 5   0  0.5875011E-07  0.3670874E+04  0.7818609E-02  0.8074447E-01
        1   -1    0    0  501    0  0.00000000000E+00  0.00000000000E+00  0.20945569335E+04  0.20945569335E+04  0.50400001928E-02 0.  1.
       -1   -1    0    0    0  501  0.00000000000E+00  0.00000000000E+00 -0.16083732283E+04  0.16083732283E+04  0.50400001928E-02 0. -1.
    10030    2    1    2    0    0  0.00000000000E+00  0.00000000000E+00  0.48618370521E+03  0.37029301619E+04  0.36708741723E+04 0.  0.
        2    1    3    3  502    0 -0.68173304058E+03  0.16921101681E+04  0.44692706364E+03  0.18782280373E+04  0.25500000920E-02 0. -1.
       -2    1    3    3    0  502  0.68173304058E+03 -0.16921101681E+04  0.39256641564E+02  0.18247021246E+04  0.25500000920E-02 0.  1.
</event>
<event>
 5   0  0.6261598E-07  0.1918956E+04  0.7818609E-02  0.8645478E-01
        1   -1    0    0  501    0  0.00000000000E+00  0.00000000000E+00  0.11522106748E+04  0.11522106748E+04  0.50400001928E-02 0.  1.
       -1   -1    0    0    0  501  0.00000000000E+00  0.00000000000E+00 -0.79898384782E+03  0.79898384784E+03  0.50400001928E-02 0. -1.
    10030    2    1    2    0    0  0.00000000000E+00  0.00000000000E+00  0.35322682700E+03  0.19511945227E+04  0.19189556728E+04 0.  0.
        1    1    3    3  502    0 -0.33723643140E+02 -0.93849225727E+03  0.37662273709E+03  0.10118051627E+04  0.50400001928E-02 0. -1.
       -1    1    3    3    0  502  0.33723643140E+02  0.93849225727E+03 -0.23395910092E+02  0.93938936001E+03  0.50400001928E-02 0.  1.
</event>
<event>
 5   0  0.6287345E-07  0.1829002E+04  0.7818609E-02  0.8691027E-01
        1   -1    0    0  501    0  0.00000000000E+00  0.00000000000E+00  0.92548727555E+03  0.92548727556E+03  0.50400001928E-02 0.  1.
       -1   -1    0    0    0  501  0.00000000000E+00  0.00000000000E+00 -0.90364508369E+03  0.90364508371E+03  0.50400001928E-02 0. -1.
    10030    2    1    2    0    0  0.00000000000E+00  0.00000000000E+00  0.21842191853E+02  0.18291323593E+04  0.18290019427E+04 0.  0.
        5    1    3    3  502    0  0.19044172757E+03 -0.18155746573E+03 -0.86496026901E+03  0.90410703013E+03  0.46999998093E+01 0. -1.
       -5    1    3    3    0  502 -0.19044172757E+03  0.18155746573E+03  0.88680246086E+03  0.92502532914E+03  0.46999998093E+01 0.  1.
</event>
<event>
 5   0  0.1151180E-06  0.3671604E+04  0.7818609E-02  0.8074284E-01
       -2   -1    0    0    0  501  0.00000000000E+00  0.00000000000E+00  0.14617147448E+04  0.14617147448E+04  0.25500000920E-02 0.  1.
        2   -1    0    0  501    0  0.00000000000E+00  0.00000000000E+00 -0.23056266313E+04  0.23056266313E+04  0.25500000920E-02 0. -1.
    10030    2    1    2    0    0  0.00000000000E+00  0.00000000000E+00 -0.84391188648E+03  0.37673413761E+04  0.36716037057E+04 0.  0.
        5    1    3    3  502    0  0.12414203986E+04 -0.46833657199E+03  0.87985914556E+03  0.15920546337E+04  0.46999998093E+01 0.  1.
       -5    1    3    3    0  502 -0.12414203986E+04  0.46833657199E+03 -0.17237710320E+04  0.21752867424E+04  0.46999998093E+01 0. -1.
</event>
<event>
 5   0  0.6287345E-07  0.3947952E+04  0.7818609E-02  0.8015129E-01
        1   -1    0    0  501    0  0.00000000000E+00  0.00000000000E+00  0.23807786848E+04  0.23807786848E+04  0.50400001928E-02 0. -1.
       -1   -1    0    0    0  501  0.00000000000E+00  0.00000000000E+00 -0.16366832548E+04  0.16366832548E+04  0.50400001928E-02 0.  1.
    10030    2    1    2    0    0  0.00000000000E+00  0.00000000000E+00  0.74409542996E+03  0.40174619396E+04  0.39479516749E+04 0.  0.
        5    1    3    3  502    0 -0.14099633641E+04 -0.82878999836E+03  0.14967995596E+04  0.22170522234E+04  0.46999998093E+01 0.  1.
       -5    1    3    3    0  502  0.14099633641E+04  0.82878999836E+03 -0.75270412963E+03  0.18004097162E+04  0.46999998093E+01 0. -1.
</event>
<event>
 5   0  0.1184684E-06  0.2877127E+04  0.7818609E-02  0.8279716E-01
       -2   -1    0    0    0  501  0.00000000000E+00  0.00000000000E+00  0.14277861775E+04  0.14277861775E+04  0.25500000920E-02 0.  1.
        2   -1    0    0  501    0  0.00000000000E+00  0.00000000000E+00 -0.14494216913E+04  0.14494216913E+04  0.25500000920E-02 0. -1.
    10030    2    1    2    0    0  0.00000000000E+00  0.00000000000E+00 -0.21635513797E+02  0.28772078688E+04  0.28771265222E+04 0.  0.
        4    1    3    3  502    0  0.86682623649E+02 -0.14279162685E+04 -0.16249239829E+03  0.14397444703E+04  0.12699999809E+01 0. -1.
       -4    1    3    3    0  502 -0.86682623649E+02  0.14279162685E+04  0.14085688449E+03  0.14374633985E+04  0.12699999809E+01 0.  1.
</event>
<event>
 5   0  0.5679750E-07  0.3708087E+04  0.7818609E-02  0.8066172E-01
        3   -1    0    0  501    0  0.00000000000E+00  0.00000000000E+00  0.18316398815E+04  0.18316398843E+04  0.10100000352E+00 0.  1.
       -3   -1    0    0    0  501  0.00000000000E+00  0.00000000000E+00 -0.18767208587E+04  0.18767208614E+04  0.10100000352E+00 0. -1.
    10030    2    1    2    0    0  0.00000000000E+00  0.00000000000E+00 -0.45080977161E+02  0.37083607457E+04  0.37080867204E+04 0.  0.
        3    1    3    3  502    0 -0.32892038907E+03  0.11707486798E+04 -0.14221565689E+04  0.18711949151E+04  0.10100000352E+00 0. -1.
       -3    1    3    3    0  502  0.32892038907E+03 -0.11707486798E+04  0.13770755918E+04  0.18371658306E+04  0.10100000352E+00 0.  1.
</event>
<event>
 5   0  0.5679750E-07  0.1954689E+04  0.7818609E-02  0.8628103E-01
        1   -1    0    0  501    0  0.00000000000E+00  0.00000000000E+00  0.10823022430E+04  0.10823022430E+04  0.50400001928E-02 0.  1.
       -1   -1    0    0    0  501  0.00000000000E+00  0.00000000000E+00 -0.88256481051E+03  0.88256481053E+03  0.50400001928E-02 0. -1.
    10030    2    1    2    0    0  0.00000000000E+00  0.00000000000E+00  0.19973743247E+03  0.19648670535E+04  0.19546885931E+04 0.  0.
        4    1    3    3  502    0 -0.49669276754E+03 -0.13455225467E+03  0.93509383064E+03  0.10673378563E+04  0.12699999809E+01 0.  1.
       -4    1    3    3    0  502  0.49669276754E+03  0.13455225467E+03 -0.73535639817E+03  0.89752919718E+03  0.12699999809E+01 0. -1.
</event>
<event>
 5   0  0.6261598E-07  0.1826897E+04  0.7818609E-02  0.8692126E-01
       -1   -1    0    0    0  501  0.00000000000E+00  0.00000000000E+00  0.11862120390E+04  0.11862120390E+04  0.50400001928E-02 0. -1.
        1   -1    0    0  501    0  0.00000000000E+00  0.00000000000E+00 -0.70340527419E+03  0.70340527421E+03  0.50400001928E-02 0.  1.
    10030    2    1    2    0    0  0.00000000000E+00  0.00000000000E+00  0.48280676477E+03  0.18896173132E+04  0.18268966085E+04 0.  0.
        1    1    3    3  502    0 -0.34405236529E+02 -0.96287743598E+02  0.11802740564E+04  0.11846948545E+04  0.50400001928E-02 0. -1.
       -1    1    3    3    0  502  0.34405236529E+02  0.96287743598E+02 -0.69746729166E+03  0.70492245873E+03  0.50400001928E-02 0.  1.
</event>
<event>
 5   0  0.1680194E-06  0.2041307E+04  0.7818609E-02  0.8587548E-01
       -2   -1    0    0    0  501  0.00000000000E+00  0.00000000000E+00  0.72144242742E+03  0.72144242743E+03  0.25500000920E-02 0. -1.
        2   -1    0    0  501    0  0.00000000000E+00  0.00000000000E+00 -0.14439599031E+04  0.14439599031E+04  0.25500000920E-02 0.  1.
    10030    2    1    2    0    0  0.00000000000E+00  0.00000000000E+00 -0.72251747571E+03  0.21654023306E+04  0.20413073631E+04 0.  0.
        2    1    3    3  502    0 -0.50987864701E+03  0.52911227366E+03 -0.11126992747E+04  0.13334300539E+04  0.25500000920E-02 0.  1.
       -2    1    3    3    0  502  0.50987864701E+03 -0.52911227366E+03  0.39018179898E+03  0.83197227663E+03  0.25500000920E-02 0. -1.
</event>
<event>
 5   0  0.1184684E-06  0.3083189E+04  0.7818609E-02  0.8220367E-01
       -2   -1    0    0    0  501  0.00000000000E+00  0.00000000000E+00  0.14472936518E+04  0.14472936518E+04  0.25500000920E-02 0. -1.
        2   -1    0    0  501    0  0.00000000000E+00  0.00000000000E+00 -0.16420396672E+04  0.16420396672E+04  0.25500000920E-02 0.  1.
    10030    2    1    2    0    0  0.00000000000E+00  0.00000000000E+00 -0.19474601537E+03  0.30893333190E+04  0.30831889895E+04 0.  0.
        4    1    3    3  502    0 -0.11135288729E+04  0.57822391716E+03 -0.99482669812E+03  0.16012405258E+04  0.12699999809E+01 0.  1.
       -4    1    3    3    0  502  0.11135288729E+04 -0.57822391716E+03  0.80008068275E+03  0.14880927932E+04  0.12699999809E+01 0. -1.
</event>
<event>
 5   0  0.6186440E-07  0.3565182E+04  0.7818609E-02  0.8098514E-01
        1   -1    0    0  501    0  0.00000000000E+00  0.00000000000E+00  0.15357870790E+04  0.15357870791E+04  0.50400001928E-02 0. -1.
       -1   -1    0    0    0  501  0.00000000000E+00  0.00000000000E+00 -0.20690563483E+04  0.20690563483E+04  0.50400001928E-02 0.  1.
    10030    2    1    2    0    0  0.00000000000E+00  0.00000000000E+00 -0.53326926925E+03  0.36048434274E+04  0.35651816254E+04 0.  0.
        3    1    3    3  502    0 -0.27544954408E+02 -0.47140466123E+03  0.14713970465E+04  0.15453123820E+04  0.10100000352E+00 0. -1.
       -3    1    3    3    0  502  0.27544954408E+02  0.47140466123E+03 -0.20046663158E+04  0.20595310454E+04  0.10100000352E+00 0.  1.
</event>
<event>
 5   0  0.1184684E-06  0.3737025E+04  0.7818609E-02  0.8059806E-01
       -2   -1    0    0    0  501  0.00000000000E+00  0.00000000000E+00  0.11233350631E+04  0.11233350631E+04  0.25500000920E-02 0. -1.
        2   -1    0    0  501    0  0.00000000000E+00  0.00000000000E+00 -0.31080126240E+04  0.31080126240E+04  0.25500000920E-02 0.  1.
    10030    2    1    2    0    0  0.00000000000E+00  0.00000000000E+00 -0.19846775609E+04  0.42313476870E+04  0.37370253180E+04 0.  0.
        4    1    3    3  502    0 -0.17068665700E+04  0.44616408256E+03 -0.16892937157E+04  0.24425746144E+04  0.12699999809E+01 0.  1.
       -4    1    3    3    0  502  0.17068665700E+04 -0.44616408256E+03 -0.29538384518E+03  0.17887730726E+04  0.12699999809E+01 0. -1.
</event>
<event>
 5   0  0.1151180E-06  0.3907082E+04  0.7818609E-02  0.8023558E-01
       -2   -1    0    0    0  501  0.00000000000E+00  0.00000000000E+00  0.18358484279E+04  0.18358484279E+04  0.25500000920E-02 0. -1.
        2   -1    0    0  501    0  0.00000000000E+00  0.00000000000E+00 -0.20787780820E+04  0.20787780820E+04  0.25500000920E-02 0.  1.
    10030    2    1    2    0    0  0.00000000000E+00  0.00000000000E+00 -0.24292965405E+03  0.39146265099E+04  0.39070815060E+04 0.  0.
        5    1    3    3  502    0 -0.13741923132E+04 -0.15238905182E+03 -0.15042286584E+04  0.20431233158E+04  0.46999998093E+01 0.  1.
       -5    1    3    3    0  502  0.13741923132E+04  0.15238905182E+03  0.12612990044E+04  0.18715031940E+04  0.46999998093E+01 0. -1.
</event>
<event>
 5   0  0.1685793E-06  0.3706263E+04  0.7818609E-02  0.8066575E-01
        2   -1    0    0  501    0  0.00000000000E+00  0.00000000000E+00  0.20550460786E+04  0.20550460786E+04  0.25500000920E-02 0. -1.
       -2   -1    0    0    0  501  0.00000000000E+00  0.00000000000E+00 -0.16710552661E+04  0.16710552661E+04  0.25500000920E-02 0.  1.
    10030    2    1    2    0    0  0.00000000000E+00  0.00000000000E+00  0.38399081253E+03  0.37261013448E+04  0.37062625767E+04 0.  0.
        3    1    3    3  502    0 -0.17087222007E+04 -0.38671019975E+02  0.91197720015E+03  0.19372479012E+04  0.10100000352E+00 0. -1.
       -3    1    3    3    0  502  0.17087222007E+04  0.38671019975E+02 -0.52798638762E+03  0.17888534436E+04  0.10100000352E+00 0.  1.
</event>
<event>
 5   0  0.5875011E-07  0.3471264E+04  0.7818609E-02  0.8120634E-01
        1   -1    0    0  501    0  0.00000000000E+00  0.00000000000E+00  0.18673814037E+04  0.18673814037E+04  0.50400001928E-02 0.  1.
       -1   -1    0    0    0  501  0.00000000000E+00  0.00000000000E+00 -0.16131778779E+04  0.16131778779E+04  0.50400001928E-02 0. -1.
    10030    2    1    2    0    0  0.00000000000E+00  0.00000000000E+00  0.25420352583E+03  0.34805592816E+04  0.34712639601E+04 0.  0.
        2    1    3    3  502    0 -0.31915122557E+03  0.15153148795E+04  0.91302571543E+03  0.17976797951E+04  0.25500000920E-02 0.  1.
       -2    1    3    3    0  502  0.31915122557E+03 -0.15153148795E+04 -0.65882218959E+03  0.16828794865E+04  0.25500000920E-02 0. -1.
</event>
<event>
 5   0  0.5679750E-07  0.2264720E+04  0.7818609E-02  0.8491963E-01
       -3   -1    0    0    0  501  0.00000000000E+00  0.00000000000E+00  0.22864529817E+04  0.22864529839E+04  0.10100000352E+00 0.  1.
        3   -1    0    0  501    0  0.00000000000E+00  0.00000000000E+00 -0.56079842810E+03  0.56079843719E+03  0.10100000352E+00 0. -1.
    10030    2    1    2    0    0  0.00000000000E+00  0.00000000000E+00  0.17256545536E+04  0.28472514211E+04  0.22647200747E+04 0.  0.
        3    1    3    3  502    0 -0.47105093474E+03  0.37206475063E+03  0.20699667604E+04  0.21552455918E+04  0.10100000352E+00 0.  1.
       -3    1    3    3    0  502  0.47105093474E+03 -0.37206475063E+03 -0.34431220681E+03  0.69200582927E+03  0.10100000352E+00 0. -1.
</event>
<event>
 5   0  0.1724503E-06  0.2830950E+04  0.7818609E-02  0.8293723E-01
        2   -1    0    0  501    0  0.00000000000E+00  0.00000000000E+00  0.15124134749E+04  0.15124134749E+04  0.25500000920E-02 0. -1.
       -2   -1    0    0    0  501  0.00000000000E+00  0.00000000000E+00 -0.13247500870E+04  0.13247500870E+04  0.25500000920E-02 0.  1.
    10030    2    1    2    0    0  0.00000000000E+00  0.00000000000E+00  0.18766338782E+03  0.28371635619E+04  0.28309502874E+04 0.  0.
        1    1    3    3  502    0  0.32464259525E+01 -0.11895216429E+04  0.86271667092E+03  0.14694394620E+04  0.50400001928E-02 0. -1.
       -1    1    3    3    0  502 -0.32464259525E+01  0.11895216429E+04 -0.67505328311E+03  0.13677240999E+04  0.50400001928E-02 0.  1.
</event>
<event>
 5   0  0.1151180E-06  0.3657964E+04  0.7818609E-02  0.8077342E-01
        2   -1    0    0  501    0  0.00000000000E+00  0.00000000000E+00  0.22479206424E+04  0.22479206424E+04  0.25500000920E-02 0.  1.
       -2   -1    0    0    0  501  0.00000000000E+00  0.00000000000E+00 -0.14881195086E+04  0.14881195086E+04  0.25500000920E-02 0. -1.
    10030    2    1    2    0    0  0.00000000000E+00  0.00000000000E+00  0.75980113381E+03  0.37360401510E+04  0.36579636749E+04 0.  0.
        5    1    3    3  502    0 -0.37768287055E+03 -0.17864822662E+04  0.48696762056E+03  0.18897943781E+04  0.46999998093E+01 0.  1.
       -5    1    3    3    0  502  0.37768287055E+03  0.17864822662E+04  0.27283351325E+03  0.18462457729E+04  0.46999998093E+01 0. -1.
</event>
<event>
 5   0  0.6287345E-07  0.3588014E+04  0.7818609E-02  0.8093243E-01
        1   -1    0    0  501    0  0.00000000000E+00  0.00000000000E+00  0.21268326479E+04  0.21268326479E+04  0.50400001928E-02 0. -1.
       -1   -1    0    0    0  501  0.00000000000E+00  0.00000000000E+00 -0.15132650631E+04  0.15132650631E+04  0.50400001928E-02 0.  1.
    10030    2    1    2    0    0  0.00000000000E+00  0.00000000000E+00  0.61356758476E+03  0.36400977110E+04  0.35880142370E+04 0.  0.
        5    1    3    3  502    0  0.40326752426E+03 -0.13156046307E+04  0.14745790137E+04  0.20168900808E+04  0.46999998093E+01 0. -1.
       -5    1    3    3    0  502 -0.40326752426E+03  0.13156046307E+04 -0.86101142889E+03  0.16232076303E+04  0.46999998093E+01 0.  1.
</event>
<event>
 5   0  0.1680194E-06  0.3712049E+04  0.7818609E-02  0.8065297E-01
        2   -1    0    0  501    0  0.00000000000E+00  0.00000000000E+00  0.22358477998E+04  0.22358477998E+04  0.25500000920E-02 0. -1.
       -2   -1    0    0    0  501  0.00000000000E+00  0.00000000000E+00 -0.15407255214E+04  0.15407255214E+04  0.25500000920E-02 0.  1.
    10030    2    1    2    0    0  0.00000000000E+00  0.00000000000E+00  0.69512227839E+03  0.37765733211E+04  0.37120494431E+04 0.  0.
        2    1    3    3  502    0 -0.18043608105E+04 -0.43470680407E+03  0.33553074786E+03  0.18860723270E+04  0.25500000920E-02 0.  1.
       -2    1    3    3    0  502  0.18043608105E+04  0.43470680407E+03  0.35959153053E+03  0.18905009941E+04  0.25500000920E-02 0. -1.
</event>
<event>
 5   0  0.6287345E-07  0.3556866E+04  0.7818609E-02  0.8100444E-01
       -1   -1    0    0    0  501  0.00000000000E+00  0.00000000000E+00  0.14803382596E+04  0.14803382596E+04  0.50400001928E-02 0.  1.
        1   -1    0    0  501    0  0.00000000000E+00  0.00000000000E+00 -0.21365550993E+04  0.21365550993E+04  0.50400001928E-02 0. -1.
    10030    2    1    2    0    0  0.00000000000E+00  0.00000000000E+00 -0.65621683967E+03  0.36168933590E+04  0.35568661810E+04 0.  0.
        5    1    3    3  502    0  0.12286453993E+04  0.17840119102E+03  0.96672536067E+03  0.15735235985E+04  0.46999998093E+01 0.  1.
       -5    1    3    3    0  502 -0.12286453993E+04 -0.17840119102E+03 -0.16229422003E+04  0.20433697604E+04  0.46999998093E+01 0. -1.
</event>
<event>
 5   0  0.1184684E-06  0.2763086E+04  0.7818609E-02  0.8314821E-01
       -2   -1    0    0    0  501  0.00000000000E+00  0.00000000000E+00  0.13777070288E+04  0.13777070288E+04  0.25500000920E-02 0.  1.
        2   -1    0    0  501    0  0.00000000000E+00  0.00000000000E+00 -0.13853893526E+04  0.13853893526E+04  0.25500000920E-02 0. -1.
    10030    2    1    2    0    0  0.00000000000E+00  0.00000000000E+00 -0.76823237983E+01  0.27630963813E+04  0.27630857016E+04 0.  0.
        4    1    3    3  502    0 -0.52214314469E+01 -0.42723174894E+03  0.13099769946E+04  0.13778953407E+04  0.12699999809E+01 0.  1.
       -4    1    3    3    0  502  0.52214314469E+01  0.42723174894E+03 -0.13176593184E+04  0.13852010406E+04  0.12699999809E+01 0. -1.
</event>
<event>
 5   0  0.1985347E-06  0.1988507E+04  0.7818609E-02  0.8612013E-01
        2   -1    0    0  501    0  0.00000000000E+00  0.00000000000E+00  0.18663373841E+04  0.18663373841E+04  0.25500000920E-02 0.  1.
       -2   -1    0    0    0  501  0.00000000000E+00  0.00000000000E+00 -0.52966833360E+03  0.52966833360E+03  0.25500000920E-02 0. -1.
    10030    2    1    2    0    0  0.00000000000E+00  0.00000000000E+00  0.13366690505E+04  0.23960057177E+04  0.19885067887E+04 0.  0.
        3    1    3    3  502    0 -0.27438155746E+02 -0.90735957373E+03  0.17965442706E+03  0.92538098737E+03  0.10100000352E+00 0. -1.
       -3    1    3    3    0  502  0.27438155746E+02  0.90735957373E+03  0.11570146235E+04  0.14706247304E+04  0.10100000352E+00 0.  1.
</event>
<event>
 5   0  0.5875011E-07  0.3774939E+04  0.7818609E-02  0.8051554E-01
       -1   -1    0    0    0  501  0.00000000000E+00  0.00000000000E+00  0.23821876499E+04  0.23821876499E+04  0.50400001928E-02 0. -1.
        1   -1    0    0  501    0  0.00000000000E+00  0.00000000000E+00 -0.14954917592E+04  0.14954917592E+04  0.50400001928E-02 0.  1.
    10030    2    1    2    0    0  0.00000000000E+00  0.00000000000E+00  0.88669589068E+03  0.38776794091E+04  0.37749394693E+04 0.  0.
        2    1    3    3  502    0  0.15481068914E+04 -0.10779563941E+04  0.37905811700E+03  0.19241387660E+04  0.25500000920E-02 0. -1.
       -2    1    3    3    0  502 -0.15481068914E+04  0.10779563941E+04  0.50763777368E+03  0.19535406431E+04  0.25500000920E-02 0.  1.
</event>
<event>
 5   0  0.1151180E-06  0.3663533E+04  0.7818609E-02  0.8076092E-01
       -2   -1    0    0    0  501  0.00000000000E+00  0.00000000000E+00  0.22087280181E+04  0.22087280181E+04  0.25500000920E-02 0.  1.
        2   -1    0    0  501    0  0.00000000000E+00  0.00000000000E+00 -0.15191409385E+04  0.15191409385E+04  0.25500000920E-02 0. -1.
    10030    2    1    2    0    0  0.00000000000E+00  0.00000000000E+00  0.68958707965E+03  0.37278689566E+04  0.36635333515E+04 0.  0.
        5    1    3    3  502    0 -0.55390698668E+03 -0.45155659087E+03  0.20610154372E+04  0.21814039119E+04  0.46999998093E+01 0.  1.
       -5    1    3    3    0  502  0.55390698668E+03  0.45155659087E+03 -0.13714283575E+04  0.15464650447E+04  0.46999998093E+01 0. -1.
</event>
<event>
 5   0  0.1685793E-06  0.3676579E+04  0.7818609E-02  0.8073172E-01
        2   -1    0    0  501    0  0.00000000000E+00  0.00000000000E+00  0.19977228076E+04  0.19977228076E+04  0.25500000920E-02 0.  1.
       -2   -1    0    0    0  501  0.00000000000E+00  0.00000000000E+00 -0.16915797156E+04  0.16915797156E+04  0.25500000920E-02 0. -1.
    10030    2    1    2    0    0  0.00000000000E+00  0.00000000000E+00  0.30614309199E+03  0.36893025232E+04  0.36765785066E+04 0.  0.
        3    1    3    3  502    0  0.17885446152E+04  0.40705718244E+03  0.31325740631E+02  0.18345486373E+04  0.10100000352E+00 0.  1.
       -3    1    3    3    0  502 -0.17885446152E+04 -0.40705718244E+03  0.27481735136E+03  0.18547538859E+04  0.10100000352E+00 0. -1.
</event>
<event>
 5   0  0.6261598E-07  0.2929685E+04  0.7818609E-02  0.8264100E-01
        1   -1    0    0  501    0  0.00000000000E+00  0.00000000000E+00  0.13548278622E+04  0.13548278623E+04  0.50400001928E-02 0.  1.
       -1   -1    0    0    0  501  0.00000000000E+00  0.00000000000E+00 -0.15837900600E+04  0.15837900600E+04  0.50400001928E-02 0. -1.
    10030    2    1    2    0    0  0.00000000000E+00  0.00000000000E+00 -0.22896219778E+03  0.29386179223E+04  0.29296845573E+04 0.  0.
        1    1    3    3  502    0 -0.11771957824E+04  0.85580653052E+03  0.52061852670E+02  0.14563327794E+04  0.50400001928E-02 0. -1.
       -1    1    3    3    0  502  0.11771957824E+04 -0.85580653052E+03 -0.28102405046E+03  0.14822851429E+04  0.50400001928E-02 0.  1.
</event>
<event>
 5   0  0.1184684E-06  0.3761610E+04  0.7818609E-02  0.8054444E-01
       -2   -1    0    0    0  501  0.00000000000E+00  0.00000000000E+00  0.12131466761E+04  0.12131466761E+04  0.25500000920E-02 0. -1.
        2   -1    0    0  501    0  0.00000000000E+00  0.00000000000E+00 -0.29159110781E+04  0.29159110781E+04  0.25500000920E-02 0.  1.
    10030    2    1    2    0    0  0.00000000000E+00  0.00000000000E+00 -0.17027644020E+04  0.41290577542E+04  0.37616102042E+04 0.  0.
        4    1    3    3  502    0 -0.11282903186E+04 -0.11945241491E+04 -0.18559271555E+04  0.24787888586E+04  0.12699999809E+01 0.  1.
       -4    1    3    3    0  502  0.11282903186E+04  0.11945241491E+04  0.15316275351E+03  0.16502688956E+04  0.12699999809E+01 0. -1.
</event>
<event>
 5   0  0.5679750E-07  0.3723764E+04  0.7818609E-02  0.8062716E-01
        1   -1    0    0  501    0  0.00000000000E+00  0.00000000000E+00  0.20780870872E+04  0.20780870873E+04  0.50400001928E-02 0.  1.
       -1   -1    0    0    0  501  0.00000000000E+00  0.00000000000E+00 -0.16681711945E+04  0.16681711945E+04  0.50400001928E-02 0. -1.
    10030    2    1    2    0    0  0.00000000000E+00  0.00000000000E+00  0.40991589276E+03  0.37462582817E+04  0.37237642345E+04 0.  0.
        4    1    3    3  502    0 -0.91883177009E+03 -0.10898218772E+04 -0.10000418852E+04  0.17412779591E+04  0.12699999809E+01 0. -1.
       -4    1    3    3    0  502  0.91883177009E+03  0.10898218772E+04  0.14099577780E+04  0.20049803227E+04  0.12699999809E+01 0.  1.
</event>
<event>
 5   0  0.1184684E-06  0.3637094E+04  0.7818609E-02  0.8082047E-01
        2   -1    0    0  501    0  0.00000000000E+00  0.00000000000E+00  0.17869102540E+04  0.17869102540E+04  0.25500000920E-02 0.  1.
       -2   -1    0    0    0  501  0.00000000000E+00  0.00000000000E+00 -0.18507440773E+04  0.18507440773E+04  0.25500000920E-02 0. -1.
    10030    2    1    2    0    0  0.00000000000E+00  0.00000000000E+00 -0.63833823269E+02  0.36376543313E+04  0.36370942079E+04 0.  0.
        4    1    3    3  502    0 -0.10660723200E+04  0.14731923494E+04 -0.49414364894E+02  0.18191342122E+04  0.12699999809E+01 0.  1.
       -4    1    3    3    0  502  0.10660723200E+04 -0.14731923494E+04 -0.14419458375E+02  0.18185201191E+04  0.12699999809E+01 0. -1.
</event>
<event>
 5   0  0.1724503E-06  0.3055603E+04  0.7818609E-02  0.8228029E-01
       -2   -1    0    0    0  501  0.00000000000E+00  0.00000000000E+00  0.15247311944E+04  0.15247311944E+04  0.25500000920E-02 0. -1.
        2   -1    0    0  501    0  0.00000000000E+00  0.00000000000E+00 -0.15308778942E+04  0.15308778942E+04  0.25500000920E-02 0.  1.
    10030    2    1    2    0    0  0.00000000000E+00  0.00000000000E+00 -0.61466998023E+01  0.30556090885E+04  0.30556029062E+04 0.  0.
        1    1    3    3  502    0  0.15629251416E+03 -0.14605706296E+04 -0.42317343351E+03  0.15286496226E+04  0.50400001928E-02 0.  1.
       -1    1    3    3    0  502 -0.15629251416E+03  0.14605706296E+04  0.41702673371E+03  0.15269594659E+04  0.50400001928E-02 0. -1.
</event>
<event>
 5   0  0.1685793E-06  0.3767342E+04  0.7818609E-02  0.8053200E-01
       -2   -1    0    0    0  501  0.00000000000E+00  0.00000000000E+00  0.12765944021E+04  0.12765944021E+04  0.25500000920E-02 0.  1.
        2   -1    0    0  501    0  0.00000000000E+00  0.00000000000E+00 -0.27794386018E+04  0.27794386018E+04  0.25500000920E-02 0. -1.
    10030    2    1    2    0    0  0.00000000000E+00  0.00000000000E+00 -0.15028441997E+04  0.40560330038E+04  0.37673416409E+04 0.  0.
        3    1    3    3  502    0 -0.10713088118E+03 -0.45494303342E+03  0.12131741142E+04  0.13000929317E+04  0.10100000352E+00 0.  1.
       -3    1    3    3    0  502  0.10713088118E+03  0.45494303342E+03 -0.27160183139E+04  0.27559400721E+04  0.10100000352E+00 0. -1.
</event>
<event>
 5   0  0.1685793E-06  0.2997987E+04  0.7818609E-02  0.8244306E-01
       -2   -1    0    0    0  501  0.00000000000E+00  0.00000000000E+00  0.10574703392E+04  0.10574703392E+04  0.25500000920E-02 0.  1.
        2   -1    0    0  501    0  0.00000000000E+00  0.00000000000E+00 -0.21248643828E+04  0.21248643828E+04  0.25500000920E-02 0. -1.
    10030    2    1    2    0    0  0.00000000000E+00  0.00000000000E+00 -0.10673940436E+04  0.31823347220E+04  0.29979866975E+04 0.  0.
        3    1    3    3  502    0 -0.11368757804E+04 -0.21098688318E+03  0.47888882184E+03  0.12515336667E+04  0.10100000352E+00 0.  1.
       -3    1    3    3    0  502  0.11368757804E+04  0.21098688318E+03 -0.15462828655E+04  0.19308010553E+04  0.10100000352E+00 0. -1.
</event>
<event>
 5   0  0.1151180E-06  0.2863288E+04  0.7818609E-02  0.8283885E-01
        2   -1    0    0  501    0  0.00000000000E+00  0.00000000000E+00  0.17544942315E+04  0.17544942315E+04  0.25500000920E-02 0. -1.
       -2   -1    0    0    0  501  0.00000000000E+00  0.00000000000E+00 -0.11682026236E+04  0.11682026236E+04  0.25500000920E-02 0.  1.
    10030    2    1    2    0    0  0.00000000000E+00  0.00000000000E+00  0.58629160794E+03  0.29226968551E+04  0.28632881548E+04 0.  0.
        5    1    3    3  502    0  0.61296657552E+03 -0.47467792741E+02 -0.10265841881E+04  0.11966112148E+04  0.46999998093E+01 0.  1.
       -5    1    3    3    0  502 -0.61296657552E+03  0.47467792741E+02  0.16128757961E+04  0.17260856403E+04  0.46999998093E+01 0. -1.
</event>
<event>
 5   0  0.6261598E-07  0.2310709E+04  0.7818609E-02  0.8473711E-01
       -1   -1    0    0    0  501  0.00000000000E+00  0.00000000000E+00  0.54502106611E+03  0.54502106613E+03  0.50400001928E-02 0.  1.
        1   -1    0    0  501    0  0.00000000000E+00  0.00000000000E+00 -0.24491607609E+04  0.24491607609E+04  0.50400001928E-02 0. -1.
    10030    2    1    2    0    0  0.00000000000E+00  0.00000000000E+00 -0.19041396948E+04  0.29941818271E+04  0.23107091630E+04 0.  0.
        1    1    3    3  502    0 -0.39767774786E+03 -0.60334346572E+02  0.45136523095E+03  0.60458117425E+03  0.50400001928E-02 0.  1.
       -1    1    3    3    0  502  0.39767774786E+03  0.60334346572E+02 -0.23555049258E+04  0.23896006528E+04  0.50400001928E-02 0. -1.
</event>
<event>
 5   0  0.6287345E-07  0.2742647E+04  0.7818609E-02  0.8321299E-01
        1   -1    0    0  501    0  0.00000000000E+00  0.00000000000E+00  0.10038472060E+04  0.10038472060E+04  0.50400001928E-02 0.  1.
       -1   -1    0    0    0  501  0.00000000000E+00  0.00000000000E+00 -0.18733213904E+04  0.18733213904E+04  0.50400001928E-02 0. -1.
    10030    2    1    2    0    0  0.00000000000E+00  0.00000000000E+00 -0.86947418442E+03  0.28771685964E+04  0.27426472202E+04 0.  0.
        5    1    3    3  502    0  0.68551410784E+03  0.92398035847E+03  0.34807842874E+03  0.12020191252E+04  0.46999998093E+01 0.  1.
       -5    1    3    3    0  502 -0.68551410784E+03 -0.92398035847E+03 -0.12175526132E+04  0.16751494712E+04  0.46999998093E+01 0. -1.
</event>
<event>
 5   0  0.6287345E-07  0.1927199E+04  0.7818609E-02  0.8641435E-01
       -1   -1    0    0    0  501  0.00000000000E+00  0.00000000000E+00  0.98285488016E+03  0.98285488017E+03  0.50400001928E-02 0.  1.
        1   -1    0    0  501    0  0.00000000000E+00  0.00000000000E+00 -0.94472166683E+03  0.94472166685E+03  0.50400001928E-02 0. -1.
    10030    2    1    2    0    0  0.00000000000E+00  0.00000000000E+00  0.38133213326E+02  0.19275765470E+04  0.19271993158E+04 0.  0.
        5    1    3    3  502    0 -0.71502799095E+03 -0.46535133468E+03  0.46713344362E+03  0.97265237196E+03  0.46999998093E+01 0. -1.
       -5    1    3    3    0  502  0.71502799095E+03  0.46535133468E+03 -0.42900023029E+03  0.95492417506E+03  0.46999998093E+01 0.  1.
</event>
<event>
 5   0  0.1151180E-06  0.3826479E+04  0.7818609E-02  0.8040496E-01
       -2   -1    0    0    0  501  0.00000000000E+00  0.00000000000E+00  0.15445023839E+04  0.15445023839E+04  0.25500000920E-02 0.  1.
        2   -1    0    0  501    0  0.00000000000E+00  0.00000000000E+00 -0.23700101360E+04  0.23700101360E+04  0.25500000920E-02 0. -1.
    10030    2    1    2    0    0  0.00000000000E+00  0.00000000000E+00 -0.82550775208E+03  0.39145125199E+04  0.38264794811E+04 0.  0.
        5    1    3    3  502    0  0.10837062314E+04  0.14629063655E+04  0.18895297361E+03  0.18303659597E+04  0.46999998093E+01 0.  1.
       -5    1    3    3    0  502 -0.10837062314E+04 -0.14629063655E+04 -0.10144607257E+04  0.20841465602E+04  0.46999998093E+01 0. -1.
</event>
<event>
 5   0  0.6287345E-07  0.2444922E+04  0.7818609E-02  0.8422874E-01
        1   -1    0    0  501    0  0.00000000000E+00  0.00000000000E+00  0.15665599025E+04  0.15665599025E+04  0.50400001928E-02 0.  1.
       -1   -1    0    0    0  501  0.00000000000E+00  0.00000000000E+00 -0.95394426267E+03  0.95394426269E+03  0.50400001928E-02 0. -1.
    10030    2    1    2    0    0  0.00000000000E+00  0.00000000000E+00  0.61261563978E+03  0.25205041651E+04  0.24449219465E+04 0.  0.
        5    1    3    3  502    0 -0.98225279954E+03 -0.26752507958E+03 -0.39136925621E+03  0.10906797033E+04  0.46999998093E+01 0. -1.
       -5    1    3    3    0  502  0.98225279954E+03  0.26752507958E+03  0.10039848960E+04  0.14298244619E+04  0.46999998093E+01 0.  1.
</event>
<event>
 5   0  0.5679750E-07  0.3951849E+04  0.7818609E-02  0.8014331E-01
       -1   -1    0    0    0  501  0.00000000000E+00  0.00000000000E+00  0.24056268283E+04  0.24056268283E+04  0.50400001928E-02 0. -1.
        1   -1    0    0  501    0  0.00000000000E+00  0.00000000000E+00 -0.16229770959E+04  0.16229770959E+04  0.50400001928E-02 0.  1.
    10030    2    1    2    0    0  0.00000000000E+00  0.00000000000E+00  0.78264973243E+03  0.40286039242E+04  0.39518488046E+04 0.  0.
        4    1    3    3  502    0  0.53629092505E+03  0.14711325833E+04 -0.83725344064E+03  0.17756221362E+04  0.12699999809E+01 0.  1.
       -4    1    3    3    0  502 -0.53629092505E+03 -0.14711325833E+04  0.16199031731E+04  0.22529817880E+04  0.12699999809E+01 0. -1.
</event>
<event>
 5   0  0.1184684E-06  0.2198953E+04  0.7818609E-02  0.8518864E-01
       -2   -1    0    0    0  501  0.00000000000E+00  0.00000000000E+00  0.62942187060E+03  0.62942187060E+03  0.25500000920E-02 0.  1.
        2   -1    0    0  501    0  0.00000000000E+00  0.00000000000E+00 -0.19205702869E+04  0.19205702869E+04  0.25500000920E-02 0. -1.
    10030    2    1    2    0    0  0.00000000000E+00  0.00000000000E+00 -0.12911484163E+04  0.25499921575E+04  0.21989533352E+04 0.  0.
        4    1    3    3  502    0  0.32746419468E+03 -0.10490015728E+04 -0.68591616972E+03  0.12954225964E+04  0.12699999809E+01 0.  1.
       -4    1    3    3    0  502 -0.32746419468E+03  0.10490015728E+04 -0.60523224661E+03  0.12545695611E+04  0.12699999809E+01 0. -1.
</event>
<event>
 5   0  0.6261598E-07  0.3176595E+04  0.7818609E-02  0.8195026E-01
        1   -1    0    0  501    0  0.00000000000E+00  0.00000000000E+00  0.19320574352E+04  0.19320574352E+04  0.50400001928E-02 0. -1.
       -1   -1    0    0    0  501  0.00000000000E+00  0.00000000000E+00 -0.13057007627E+04  0.13057007627E+04  0.50400001928E-02 0.  1.
    10030    2    1    2    0    0  0.00000000000E+00  0.00000000000E+00  0.62635667251E+03  0.32377581980E+04  0.31765949486E+04 0.  0.
        1    1    3    3  502    0 -0.13351012039E+04 -0.82172476492E+03  0.57296236101E+03  0.16691353094E+04  0.50400001928E-02 0. -1.
       -1    1    3    3    0  502  0.13351012039E+04  0.82172476492E+03  0.53394311500E+02  0.15686228886E+04  0.50400001928E-02 0.  1.
</event>
<event>
 5   0  0.1680194E-06  0.3322531E+04  0.7818609E-02  0.8157186E-01
       -2   -1    0    0    0  501  0.00000000000E+00  0.00000000000E+00  0.19519882090E+04  0.19519882090E+04  0.25500000920E-02 0.  1.
        2   -1    0    0  501    0  0.00000000000E+00  0.00000000000E+00 -0.14138420575E+04  0.14138420575E+04  0.25500000920E-02 0. -1.
    10030    2    1    2    0    0  0.00000000000E+00  0.00000000000E+00  0.53814615154E+03  0.33658302665E+04  0.33225309784E+04 0.  0.
        2    1    3    3  502    0 -0.10403181236E+04  0.90555144164E+03  0.12071635973E+04  0.18329018420E+04  0.25500000920E-02 0.  1.
       -2    1    3    3    0  502  0.10403181236E+04 -0.90555144164E+03 -0.66901744573E+03  0.15329284245E+04  0.25500000920E-02 0. -1.
</event>
<event>
 5   0  0.6186440E-07  0.1914893E+04  0.7818609E-02  0.8647478E-01
       -1   -1    0    0    0  501  0.00000000000E+00  0.00000000000E+00  0.89569260351E+03  0.89569260352E+03  0.50400001928E-02 0. -1.
        1   -1    0    0  501    0  0.00000000000E+00  0.00000000000E+00 -0.10234584410E+04  0.10234584410E+04  0.50400001928E-02 0.  1.
    10030    2    1    2    0    0  0.00000000000E+00  0.00000000000E+00 -0.12776583745E+03  0.19191510445E+04  0.19148933710E+04 0.  0.
        3    1    3    3  502    0  0.84242750850E+02 -0.84258057404E+03 -0.51171565534E+03  0.98938960321E+03  0.10100000352E+00 0.  1.
       -3    1    3    3    0  502 -0.84242750850E+02  0.84258057404E+03  0.38394981789E+03  0.92976144128E+03  0.10100000352E+00 0. -1.
</event>
<event>
 5   0  0.1184684E-06  0.2720057E+04  0.7818609E-02  0.8328526E-01
       -2   -1    0    0    0  501  0.00000000000E+00  0.00000000000E+00  0.10380585497E+04  0.10380585497E+04  0.25500000920E-02 0.  1.
        2   -1    0    0  501    0  0.00000000000E+00  0.00000000000E+00 -0.17818623736E+04  0.17818623736E+04  0.25500000920E-02 0. -1.
    10030    2    1    2    0    0  0.00000000000E+00  0.00000000000E+00 -0.74380382385E+03  0.28199209233E+04  0.27200569636E+04 0.  0.
        4    1    3    3  502    0 -0.12327328895E+04  0.55970671609E+02  0.22085260285E+03  0.12536110154E+04  0.12699999809E+01 0.  1.
       -4    1    3    3    0  502  0.12327328895E+04 -0.55970671609E+02 -0.96465642670E+03  0.15663099078E+04  0.12699999809E+01 0. -1.
</event>
<event>
 5   0  0.1184684E-06  0.3381660E+04  0.7818609E-02  0.8142422E-01
       -2   -1    0    0    0  501  0.00000000000E+00  0.00000000000E+00  0.18173409369E+04  0.18173409369E+04  0.25500000920E-02 0. -1.
        2   -1    0    0  501    0  0.00000000000E+00  0.00000000000E+00 -0.15731255791E+04  0.15731255791E+04  0.25500000920E-02 0.  1.
    10030    2    1    2    0    0  0.00000000000E+00  0.00000000000E+00  0.24421535773E+03  0.33904665160E+04  0.33816596599E+04 0.  0.
        4    1    3    3  502    0 -0.21641162286E+03 -0.16055700757E+04 -0.36310996448E+03  0.16602830233E+04  0.12699999809E+01 0.  1.
       -4    1    3    3    0  502  0.21641162286E+03  0.16055700757E+04  0.60732532221E+03  0.17301834927E+04  0.12699999809E+01 0. -1.
</event>
<event>
 5   0  0.1724503E-06  0.3553339E+04  0.7818609E-02  0.8101264E-01
        2   -1    0    0  501    0  0.00000000000E+00  0.00000000000E+00  0.18871867089E+04  0.18871867089E+04  0.25500000920E-02 0. -1.
       -2   -1    0    0    0  501  0.00000000000E+00  0.00000000000E+00 -0.16726244871E+04  0.16726244871E+04  0.25500000920E-02 0.  1.
    10030    2    1    2    0    0  0.00000000000E+00  0.00000000000E+00  0.21456222180E+03  0.35598111960E+04  0.35533391062E+04 0.  0.
        1    1    3    3  502    0 -0.12116055502E+04 -0.11219578260E+04  0.76404922553E+03  0.18194913002E+04  0.50400001928E-02 0. -1.
       -1    1    3    3    0  502  0.12116055502E+04  0.11219578260E+04 -0.54948700373E+03  0.17403198958E+04  0.50400001928E-02 0.  1.
</event>
<event>
 5   0  0.6937301E-07  0.1897548E+04  0.7818609E-02  0.8656078E-01
       -1   -1    0    0    0  501  0.00000000000E+00  0.00000000000E+00  0.72596948586E+03  0.72596948588E+03  0.50400001928E-02 0. -1.
        1   -1    0    0  501    0  0.00000000000E+00  0.00000000000E+00 -0.12399584304E+04  0.12399584304E+04  0.50400001928E-02 0.  1.
    10030    2    1    2    0    0  0.00000000000E+00  0.00000000000E+00 -0.51398894450E+03  0.19659279162E+04  0.18975478747E+04 0.  0.
        2    1    3    3  502    0  0.93130634164E+03 -0.12995707438E+03 -0.38784561862E+03  0.10171747967E+04  0.25500000920E-02 0.  1.
       -2    1    3    3    0  502 -0.93130634164E+03  0.12995707438E+03 -0.12614332588E+03  0.94875311954E+03  0.25500000920E-02 0. -1.
</event>
<event>
 5   0  0.1184684E-06  0.3567277E+04  0.7818609E-02  0.8098029E-01
       -2   -1    0    0    0  501  0.00000000000E+00  0.00000000000E+00  0.20613485820E+04  0.20613485820E+04  0.25500000920E-02 0. -1.
        2   -1    0    0  501    0  0.00000000000E+00  0.00000000000E+00 -0.15433426265E+04  0.15433426265E+04  0.25500000920E-02 0.  1.
    10030    2    1    2    0    0  0.00000000000E+00  0.00000000000E+00  0.51800595548E+03  0.36046912085E+04  0.35672774687E+04 0.  0.
        4    1    3    3  502    0 -0.65930874586E+03 -0.52910566764E+03 -0.13280503393E+04  0.15742808347E+04  0.12699999809E+01 0.  1.
       -4    1    3    3    0  502  0.65930874586E+03  0.52910566764E+03  0.18460562948E+04  0.20304103738E+04  0.12699999809E+01 0. -1.
</event>
<event>
 5   0  0.1184684E-06  0.3643625E+04  0.7818609E-02  0.8080571E-01
        2   -1    0    0  501    0  0.00000000000E+00  0.00000000000E+00  0.23968300237E+04  0.23968300237E+04  0.25500000920E-02 0. -1.
       -2   -1    0    0    0  501  0.00000000000E+00  0.00000000000E+00 -0.13847457827E+04  0.13847457827E+04  0.25500000920E-02 0.  1.
    10030    2    1    2    0    0  0.00000000000E+00  0.00000000000E+00  0.10120842410E+04  0.37815758064E+04  0.36436247157E+04 0.  0.
        4    1    3    3  502    0 -0.38870307747E+03 -0.17701663090E+04  0.31349217190E+03  0.18392546857E+04  0.12699999809E+01 0.  1.
       -4    1    3    3    0  502  0.38870307747E+03  0.17701663090E+04  0.69859206905E+03  0.19423211207E+04  0.12699999809E+01 0. -1.
</event>
<event>
 5   0  0.1151180E-06  0.2628653E+04  0.7818609E-02  0.8358533E-01
        2   -1    0    0  501    0  0.00000000000E+00  0.00000000000E+00  0.17924783545E+04  0.17924783545E+04  0.25500000920E-02 0. -1.
       -2   -1    0    0    0  501  0.00000000000E+00  0.00000000000E+00 -0.96372365763E+03  0.96372365763E+03  0.25500000920E-02 0.  1.
    10030    2    1    2    0    0  0.00000000000E+00  0.00000000000E+00  0.82875469687E+03  0.27562020121E+04  0.26286527317E+04 0.  0.
        5    1    3    3  502    0 -0.63390689993E+02  0.37000528096E+03 -0.90630738322E+03  0.98098799707E+03  0.46999998093E+01 0.  1.
       -5    1    3    3    0  502  0.63390689993E+02 -0.37000528096E+03  0.17350620801E+04  0.17752140151E+04  0.46999998093E+01 0. -1.
</event>
<event>
 5   0  0.1184684E-06  0.3629136E+04  0.7818609E-02  0.8083850E-01
        2   -1    0    0  501    0  0.00000000000E+00  0.00000000000E+00  0.25014478242E+04  0.25014478242E+04  0.25500000920E-02 0.  1.
       -2   -1    0    0    0  501  0.00000000000E+00  0.00000000000E+00 -0.13163006480E+04  0.13163006480E+04  0.25500000920E-02 0. -1.
    10030    2    1    2    0    0  0.00000000000E+00  0.00000000000E+00  0.11851471761E+04  0.38177484722E+04  0.36291362014E+04 0.  0.
        4    1    3    3  502    0  0.13070388615E+04  0.12048976587E+04  0.97553581722E+03  0.20277575538E+04  0.12699999809E+01 0. -1.
       -4    1    3    3    0  502 -0.13070388615E+04 -0.12048976587E+04  0.20961135893E+03  0.17899909184E+04  0.12699999809E+01 0.  1.
</event>
<event>
 5   0  0.6261598E-07  0.2314247E+04  0.7818609E-02  0.8472325E-01
        1   -1    0    0  501    0  0.00000000000E+00  0.00000000000E+00  0.17248999241E+04  0.17248999241E+04  0.50400001928E-02 0. -1.
       -1   -1    0    0    0  501  0.00000000000E+00  0.00000000000E+00 -0.77623920654E+03  0.77623920656E+03  0.50400001928E-02 0.  1.
    10030    2    1    2    0    0  0.00000000000E+00  0.00000000000E+00  0.94866071758E+03  0.25011391307E+04  0.23142471333E+04 0.  0.
        1    1    3    3  502    0  0.90327658829E+03 -0.67345503647E+03  0.75921734301E+03  0.13586247661E+04  0.50400001928E-02 0. -1.
       -1    1    3    3    0  502 -0.90327658829E+03  0.67345503647E+03  0.18944337457E+03  0.11425143646E+04  0.50400001928E-02 0.  1.
</event>
<event>
 5   0  0.6186440E-07  0.3583236E+04  0.7818609E-02  0.8094342E-01
       -1   -1    0    0    0  501  0.00000000000E+00  0.00000000000E+00  0.17243704151E+04  0.17243704151E+04  0.50400001928E-02 0.  1.
        1   -1    0    0  501    0  0.00000000000E+00  0.00000000000E+00 -0.18614886287E+04  0.18614886287E+04  0.50400001928E-02 0. -1.
    10030    2    1    2    0    0  0.00000000000E+00  0.00000000000E+00 -0.13711821354E+03  0.35858590438E+04  0.35832364808E+04 0.  0.
        3    1    3    3  502    0 -0.36911849796E+03  0.47409316275E+03  0.16205397137E+04  0.17283407553E+04  0.10100000352E+00 0.  1.
       -3    1    3    3    0  502  0.36911849796E+03 -0.47409316275E+03 -0.17576579273E+04  0.18575182885E+04  0.10100000352E+00 0. -1.
</event>
<event>
 5   0  0.6186440E-07  0.3667810E+04  0.7818609E-02  0.8075133E-01
        1   -1    0    0  501    0  0.00000000000E+00  0.00000000000E+00  0.16368466980E+04  0.16368466980E+04  0.50400001928E-02 0.  1.
       -1   -1    0    0    0  501  0.00000000000E+00  0.00000000000E+00 -0.20546873336E+04  0.20546873336E+04  0.50400001928E-02 0. -1.
    10030    2    1    2    0    0  0.00000000000E+00  0.00000000000E+00 -0.41784063568E+03  0.36915340316E+04  0.36678103427E+04 0.  0.
        3    1    3    3  502    0 -0.16666838288E+04 -0.25294640343E+03 -0.93566505474E+03  0.19280264451E+04  0.10100000352E+00 0. -1.
       -3    1    3    3    0  502  0.16666838288E+04  0.25294640343E+03  0.51782441906E+03  0.17635075865E+04  0.10100000352E+00 0.  1.
</event>
<event>
 5   0  0.1151180E-06  0.3545179E+04  0.7818609E-02  0.8103166E-01
        2   -1    0    0  501    0  0.00000000000E+00  0.00000000000E+00  0.21253343245E+04  0.21253343245E+04  0.25500000920E-02 0.  1.
       -2   -1    0    0    0  501  0.00000000000E+00  0.00000000000E+00 -0.14783905797E+04  0.14783905797E+04  0.25500000920E-02 0. -1.
    10030    2    1    2    0    0  0.00000000000E+00  0.00000000000E+00  0.64694374484E+03  0.36037249042E+04  0.35451793997E+04 0.  0.
        5    1    3    3  502    0 -0.10252233370E+04  0.73347331372E+03 -0.94329648573E+03  0.15744511243E+04  0.46999998093E+01 0. -1.
       -5    1    3    3    0  502  0.10252233370E+04 -0.73347331372E+03  0.15902402306E+04  0.20292737799E+04  0.46999998093E+01 0.  1.
</event>
<event>
 5   0  0.1724503E-06  0.3765140E+04  0.7818609E-02  0.8053677E-01
       -2   -1    0    0    0  501  0.00000000000E+00  0.00000000000E+00  0.14211811562E+04  0.14211811562E+04  0.25500000920E-02 0.  1.
        2   -1    0    0  501    0  0.00000000000E+00  0.00000000000E+00 -0.24937496358E+04  0.24937496358E+04  0.25500000920E-02 0. -1.
    10030    2    1    2    0    0  0.00000000000E+00  0.00000000000E+00 -0.10725684796E+04  0.39149307920E+04  0.37651400987E+04 0.  0.
        1    1    3    3  502    0 -0.11277353615E+04  0.87910381916E+03  0.73695585662E+03  0.16086374685E+04  0.50400001928E-02 0.  1.
       -1    1    3    3    0  502  0.11277353615E+04 -0.87910381916E+03 -0.18095243362E+04  0.23062933235E+04  0.50400001928E-02 0. -1.
</event>
<event>
 5   0  0.1685793E-06  0.3669990E+04  0.7818609E-02  0.8074645E-01
        2   -1    0    0  501    0  0.00000000000E+00  0.00000000000E+00  0.27413864293E+04  0.27413864293E+04  0.25500000920E-02 0. -1.
       -2   -1    0    0    0  501  0.00000000000E+00  0.00000000000E+00 -0.12282860657E+04  0.12282860657E+04  0.25500000920E-02 0.  1.
    10030    2    1    2    0    0  0.00000000000E+00  0.00000000000E+00  0.15131003636E+04  0.39696724950E+04  0.36699900555E+04 0.  0.
        3    1    3    3  502    0 -0.35147571435E+03  0.50772575059E+03  0.26256238157E+04  0.26972617684E+04  0.10100000352E+00 0. -1.
       -3    1    3    3    0  502  0.35147571435E+03 -0.50772575059E+03 -0.11125234521E+04  0.12724107266E+04  0.10100000352E+00 0.  1.
</event>
<event>
 5   0  0.1680194E-06  0.3781009E+04  0.7818609E-02  0.8050243E-01
       -2   -1    0    0    0  501  0.00000000000E+00  0.00000000000E+00  0.28895232051E+04  0.28895232051E+04  0.25500000920E-02 0. -1.
        2   -1    0    0  501    0  0.00000000000E+00  0.00000000000E+00 -0.12368849995E+04  0.12368849995E+04  0.25500000920E-02 0.  1.
    10030    2    1    2    0    0  0.00000000000E+00  0.00000000000E+00  0.16526382056E+04  0.41264082047E+04  0.37810093405E+04 0.  0.
        2    1    3    3  502    0 -0.16158032552E+04 -0.52186439431E+03  0.17334184253E+04  0.24264999573E+04  0.25500000920E-02 0. -1.
       -2    1    3    3    0  502  0.16158032552E+04  0.52186439431E+03 -0.80780219709E+02  0.16999082474E+04  0.25500000920E-02 0.  1.
</event>
<event>
 5   0  0.5679750E-07  0.3639722E+04  0.7818609E-02  0.8081453E-01
        4   -1    0    0  501    0  0.00000000000E+00  0.00000000000E+00  0.17169253611E+04  0.17169258308E+04  0.12699999809E+01 0.  1.
       -4   -1    0    0    0  501  0.00000000000E+00  0.00000000000E+00 -0.19289666300E+04  0.19289670481E+04  0.12699999809E+01 0. -1.
    10030    2    1    2    0    0  0.00000000000E+00  0.00000000000E+00 -0.21204126893E+03  0.36458928789E+04  0.36397216081E+04 0.  0.
        4    1    3    3  502    0  0.84114787317E+03  0.25337659100E+03 -0.17025116166E+04  0.19157966643E+04  0.12699999809E+01 0. -1.
       -4    1    3    3    0  502 -0.84114787317E+03 -0.25337659100E+03  0.14904703477E+04  0.17300962146E+04  0.12699999809E+01 0.  1.
</event>
<event>
 5   0  0.1184684E-06  0.3509399E+04  0.7818609E-02  0.8111566E-01
       -2   -1    0    0    0  501  0.00000000000E+00  0.00000000000E+00  0.19197792674E+04  0.19197792674E+04  0.25500000920E-02 0. -1.
        2   -1    0    0  501    0  0.00000000000E+00  0.00000000000E+00 -0.16038144154E+04  0.16038144154E+04  0.25500000920E-02 0.  1.
    10030    2    1    2    0    0  0.00000000000E+00  0.00000000000E+00  0.31596485207E+03  0.35235936828E+04  0.35093986171E+04 0.  0.
        4    1    3    3  502    0  0.16876255239E+04  0.22822642111E+03 -0.26657642783E+03  0.17237261421E+04  0.12699999809E+01 0. -1.
       -4    1    3    3    0  502 -0.16876255239E+04 -0.22822642111E+03  0.58254127990E+03  0.17998675407E+04  0.12699999809E+01 0.  1.
</event>
<event>
 5   0  0.6287345E-07  0.3304547E+04  0.7818609E-02  0.8161739E-01
        1   -1    0    0  501    0  0.00000000000E+00  0.00000000000E+00  0.18909470223E+04  0.18909470223E+04  0.50400001928E-02 0. -1.
       -1   -1    0    0    0  501  0.00000000000E+00  0.00000000000E+00 -0.14437250549E+04  0.14437250549E+04  0.50400001928E-02 0.  1.
    10030    2    1    2    0    0  0.00000000000E+00  0.00000000000E+00  0.44722196742E+03  0.33346720772E+04  0.33045469242E+04 0.  0.
        5    1    3    3  502    0  0.20016938670E+03 -0.33410682133E+02  0.18783159728E+04  0.18892530378E+04  0.46999998093E+01 0. -1.
       -5    1    3    3    0  502 -0.20016938670E+03  0.33410682133E+02 -0.14310940054E+04  0.14454190394E+04  0.46999998093E+01 0.  1.
</event>
<event>
 5   0  0.1151180E-06  0.3811624E+04  0.7818609E-02  0.8043665E-01
        2   -1    0    0  501    0  0.00000000000E+00  0.00000000000E+00  0.14765369826E+04  0.14765369826E+04  0.25500000920E-02 0. -1.
       -2   -1    0    0    0  501  0.00000000000E+00  0.00000000000E+00 -0.24598902096E+04  0.24598902096E+04  0.25500000920E-02 0.  1.
    10030    2    1    2    0    0  0.00000000000E+00  0.00000000000E+00 -0.98335322701E+03  0.39364271923E+04  0.38116237316E+04 0.  0.
        5    1    3    3  502    0 -0.13095929164E+04  0.18696255235E+03  0.92514277554E+03  0.16142799781E+04  0.46999998093E+01 0. -1.
       -5    1    3    3    0  502  0.13095929164E+04 -0.18696255235E+03 -0.19084960026E+04  0.23221472142E+04  0.46999998093E+01 0.  1.
</event>
<event>
 5   0  0.5679750E-07  0.3624942E+04  0.7818609E-02  0.8084802E-01
       -1   -1    0    0    0  501  0.00000000000E+00  0.00000000000E+00  0.13917569218E+04  0.13917569218E+04  0.50400001928E-02 0.  1.
        1   -1    0    0  501    0  0.00000000000E+00  0.00000000000E+00 -0.23603625772E+04  0.23603625772E+04  0.50400001928E-02 0. -1.
    10030    2    1    2    0    0  0.00000000000E+00  0.00000000000E+00 -0.96860565537E+03  0.37521194990E+04  0.36249419057E+04 0.  0.
        4    1    3    3  502    0  0.10350504584E+04  0.12215727499E+03  0.10505552601E+04  0.14798377677E+04  0.12699999809E+01 0.  1.
       -4    1    3    3    0  502 -0.10350504584E+04 -0.12215727499E+03 -0.20191609155E+04  0.22722817314E+04  0.12699999809E+01 0. -1.
</event>
<event>
 5   0  0.6287345E-07  0.3629432E+04  0.7818609E-02  0.8083783E-01
       -1   -1    0    0    0  501  0.00000000000E+00  0.00000000000E+00  0.28746466151E+04  0.28746466151E+04  0.50400001928E-02 0.  1.
        1   -1    0    0  501    0  0.00000000000E+00  0.00000000000E+00 -0.11455994675E+04  0.11455994675E+04  0.50400001928E-02 0. -1.
    10030    2    1    2    0    0  0.00000000000E+00  0.00000000000E+00  0.17290471476E+04  0.40202460826E+04  0.36294317085E+04 0.  0.
        5    1    3    3  502    0  0.65535403483E+03 -0.38396539970E+03  0.26900962797E+04  0.27952743020E+04  0.46999998093E+01 0.  1.
       -5    1    3    3    0  502 -0.65535403483E+03  0.38396539970E+03 -0.96104913210E+03  0.12249717807E+04  0.46999998093E+01 0. -1.
</event>
<event>
 5   0  0.6261598E-07  0.1920136E+04  0.7818609E-02  0.8644898E-01
       -1   -1    0    0    0  501  0.00000000000E+00  0.00000000000E+00  0.52508213238E+03  0.52508213241E+03  0.50400001928E-02 0.  1.
        1   -1    0    0  501    0  0.00000000000E+00  0.00000000000E+00 -0.17554018754E+04  0.17554018754E+04  0.50400001928E-02 0. -1.
    10030    2    1    2    0    0  0.00000000000E+00  0.00000000000E+00 -0.12303197430E+04  0.22804840078E+04  0.19201355785E+04 0.  0.
        1    1    3    3  502    0  0.35240925171E+03 -0.21310543375E+03  0.41484634606E+03  0.58455427246E+03  0.50400001928E-02 0.  1.
       -1    1    3    3    0  502 -0.35240925171E+03  0.21310543375E+03 -0.16451660891E+04  0.16959297354E+04  0.50400001928E-02 0. -1.
</event>
<event>
 5   0  0.1151180E-06  0.3402637E+04  0.7818609E-02  0.8137259E-01
       -2   -1    0    0    0  501  0.00000000000E+00  0.00000000000E+00  0.11200681609E+04  0.11200681609E+04  0.25500000920E-02 0. -1.
        2   -1    0    0  501    0  0.00000000000E+00  0.00000000000E+00 -0.25842042551E+04  0.25842042551E+04  0.25500000920E-02 0.  1.
    10030    2    1    2    0    0  0.00000000000E+00  0.00000000000E+00 -0.14641360942E+04  0.37042724160E+04  0.34026371580E+04 0.  0.
        5    1    3    3  502    0 -0.31582738464E+03 -0.81157529464E+03 -0.23231558465E+04  0.24810232915E+04  0.46999998093E+01 0.  1.
       -5    1    3    3    0  502  0.31582738464E+03  0.81157529464E+03  0.85901975227E+03  0.12232491245E+04  0.46999998093E+01 0. -1.
</event>
<event>
 5   0  0.6261598E-07  0.2850336E+04  0.7818609E-02  0.8287809E-01
       -1   -1    0    0    0  501  0.00000000000E+00  0.00000000000E+00  0.14563927542E+04  0.14563927543E+04  0.50400001928E-02 0. -1.
        1   -1    0    0  501    0  0.00000000000E+00  0.00000000000E+00 -0.13946130938E+04  0.13946130938E+04  0.50400001928E-02 0.  1.
    10030    2    1    2    0    0  0.00000000000E+00  0.00000000000E+00  0.61779660483E+02  0.28510058480E+04  0.28503364045E+04 0.  0.
        1    1    3    3  502    0 -0.44400893414E+03  0.13436959710E+04 -0.13779617977E+03  0.14218475950E+04  0.50400001928E-02 0.  1.
       -1    1    3    3    0  502  0.44400893414E+03 -0.13436959710E+04  0.19957584026E+03  0.14291582530E+04  0.50400001928E-02 0. -1.
</event>
<event>
 5   0  0.5875011E-07  0.3573722E+04  0.7818609E-02  0.8096538E-01
        1   -1    0    0  501    0  0.00000000000E+00  0.00000000000E+00  0.18942221335E+04  0.18942221335E+04  0.50400001928E-02 0. -1.
       -1   -1    0    0    0  501  0.00000000000E+00  0.00000000000E+00 -0.16855850056E+04  0.16855850056E+04  0.50400001928E-02 0.  1.
    10030    2    1    2    0    0  0.00000000000E+00  0.00000000000E+00  0.20863712788E+03  0.35798071391E+04  0.35737221076E+04 0.  0.
        2    1    3    3  502    0 -0.19620163222E+03  0.95702935189E+03 -0.13943814115E+04  0.17025568366E+04  0.25500000920E-02 0.  1.
       -2    1    3    3    0  502  0.19620163222E+03 -0.95702935189E+03  0.16030185394E+04  0.18772503026E+04  0.25500000920E-02 0. -1.
</event>
<event>
 5   0  0.1151180E-06  0.2070420E+04  0.7818609E-02  0.8574387E-01
        2   -1    0    0  501    0  0.00000000000E+00  0.00000000000E+00  0.10371317851E+04  0.10371317851E+04  0.25500000920E-02 0. -1.
       -2   -1    0    0    0  501  0.00000000000E+00  0.00000000000E+00 -0.10332921040E+04  0.10332921040E+04  0.25500000920E-02 0.  1.
    10030    2    1    2    0    0  0.00000000000E+00  0.00000000000E+00  0.38396811166E+01  0.20704238891E+04  0.20704203287E+04 0.  0.
        5    1    3    3  502    0  0.51599668386E+03 -0.56721835606E+03  0.69736963498E+03  0.10365016831E+04  0.46999998093E+01 0. -1.
       -5    1    3    3    0  502 -0.51599668386E+03  0.56721835606E+03 -0.69352995386E+03  0.10339222060E+04  0.46999998093E+01 0.  1.
</event>
<event>
 5   0  0.1680194E-06  0.2888541E+04  0.7818609E-02  0.8276295E-01
        2   -1    0    0  501    0  0.00000000000E+00  0.00000000000E+00  0.21563702164E+04  0.21563702164E+04  0.25500000920E-02 0.  1.
       -2   -1    0    0    0  501  0.00000000000E+00  0.00000000000E+00 -0.96732813829E+03  0.96732813829E+03  0.25500000920E-02 0. -1.
    10030    2    1    2    0    0  0.00000000000E+00  0.00000000000E+00  0.11890420781E+04  0.31236983547E+04  0.28885412145E+04 0.  0.
        2    1    3    3  502    0 -0.89532529943E+03  0.51439257441E+03  0.16865369357E+04  0.19775272306E+04  0.25500000920E-02 0.  1.
       -2    1    3    3    0  502  0.89532529943E+03 -0.51439257441E+03 -0.49749485755E+03  0.11461711241E+04  0.25500000920E-02 0. -1.
</event>
<event>
 5   0  0.1151180E-06  0.3922409E+04  0.7818609E-02  0.8020385E-01
       -2   -1    0    0    0  501  0.00000000000E+00  0.00000000000E+00  0.18162935005E+04  0.18162935005E+04  0.25500000920E-02 0.  1.
        2   -1    0    0  501    0  0.00000000000E+00  0.00000000000E+00 -0.21176766830E+04  0.21176766830E+04  0.25500000920E-02 0. -1.
    10030    2    1    2    0    0  0.00000000000E+00  0.00000000000E+00 -0.30138318243E+03  0.39339701835E+04  0.39224086455E+04 0.  0.
        5    1    3    3  502    0 -0.18750453048E+04 -0.53118184057E+03  0.69845750924E+02  0.19500896292E+04  0.46999998093E+01 0. -1.
       -5    1    3    3    0  502  0.18750453048E+04  0.53118184057E+03 -0.37122893335E+03  0.19838805543E+04  0.46999998093E+01 0.  1.
</event>
<event>
 5   0  0.6186440E-07  0.2698411E+04  0.7818609E-02  0.8335521E-01
       -1   -1    0    0    0  501  0.00000000000E+00  0.00000000000E+00  0.12193786246E+04  0.12193786246E+04  0.50400001928E-02 0. -1.
        1   -1    0    0  501    0  0.00000000000E+00  0.00000000000E+00 -0.14928547709E+04  0.14928547709E+04  0.50400001928E-02 0.  1.
    10030    2    1    2    0    0  0.00000000000E+00  0.00000000000E+00 -0.27347614630E+03  0.27122333955E+04  0.26984107895E+04 0.  0.
        3    1    3    3  502    0 -0.99128189266E+03  0.87099417566E+03  0.14592221491E+03  0.13276158886E+04  0.10100000352E+00 0.  1.
       -3    1    3    3    0  502  0.99128189266E+03 -0.87099417566E+03 -0.41939836121E+03  0.13846175069E+04  0.10100000352E+00 0. -1.
</event>
<event>
 5   0  0.6287345E-07  0.3623768E+04  0.7818609E-02  0.8085069E-01
       -1   -1    0    0    0  501  0.00000000000E+00  0.00000000000E+00  0.15741061470E+04  0.15741061470E+04  0.50400001928E-02 0.  1.
        1   -1    0    0  501    0  0.00000000000E+00  0.00000000000E+00 -0.20855801286E+04  0.20855801286E+04  0.50400001928E-02 0. -1.
    10030    2    1    2    0    0  0.00000000000E+00  0.00000000000E+00 -0.51147398163E+03  0.36596862756E+04  0.36237684807E+04 0.  0.
        5    1    3    3  502    0 -0.78569458937E+03  0.32615982018E+03  0.13598712260E+04  0.16040473987E+04  0.46999998093E+01 0.  1.
       -5    1    3    3    0  502  0.78569458937E+03 -0.32615982018E+03 -0.18713452076E+04  0.20556388769E+04  0.46999998093E+01 0. -1.
</event>
<event>
 5   0  0.1724503E-06  0.3697520E+04  0.7818609E-02  0.8068512E-01
       -2   -1    0    0    0  501  0.00000000000E+00  0.00000000000E+00  0.18294213093E+04  0.18294213093E+04  0.25500000920E-02 0.  1.
        2   -1    0    0  501    0  0.00000000000E+00  0.00000000000E+00 -0.18683030405E+04  0.18683030405E+04  0.25500000920E-02 0. -1.
    10030    2    1    2    0    0  0.00000000000E+00  0.00000000000E+00 -0.38881731179E+02  0.36977243498E+04  0.36975199226E+04 0.  0.
        1    1    3    3  502    0 -0.15017402211E+04 -0.70794666182E+03 -0.83281308936E+03  0.18574148189E+04  0.50400001928E-02 0.  1.
       -1    1    3    3    0  502  0.15017402211E+04  0.70794666182E+03  0.79393135818E+03  0.18403095308E+04  0.50400001928E-02 0. -1.
</event>
<event>
 5   0  0.1724503E-06  0.2900758E+04  0.7818609E-02  0.8272652E-01
        2   -1    0    0  501    0  0.00000000000E+00  0.00000000000E+00  0.14978205244E+04  0.14978205244E+04  0.25500000920E-02 0.  1.
       -2   -1    0    0    0  501  0.00000000000E+00  0.00000000000E+00 -0.14044397051E+04  0.14044397051E+04  0.25500000920E-02 0. -1.
    10030    2    1    2    0    0  0.00000000000E+00  0.00000000000E+00  0.93380819381E+02  0.29022602295E+04  0.29007575670E+04 0.  0.
        1    1    3    3  502    0 -0.90755637482E+03  0.15138066369E+03 -0.10750611723E+04  0.14150375271E+04  0.50400001928E-02 0. -1.
       -1    1    3    3    0  502  0.90755637482E+03 -0.15138066369E+03  0.11684419917E+04  0.14872227025E+04  0.50400001928E-02 0.  1.
</event>
<event>
 5   0  0.1184684E-06  0.1911464E+04  0.7818609E-02  0.8649171E-01
        2   -1    0    0  501    0  0.00000000000E+00  0.00000000000E+00  0.14301026338E+04  0.14301026338E+04  0.25500000920E-02 0. -1.
       -2   -1    0    0    0  501  0.00000000000E+00  0.00000000000E+00 -0.63871209883E+03  0.63871209884E+03  0.25500000920E-02 0.  1.
    10030    2    1    2    0    0  0.00000000000E+00  0.00000000000E+00  0.79139053501E+03  0.20688147327E+04  0.19114642082E+04 0.  0.
        4    1    3    3  502    0  0.15374688442E+03  0.93266260340E+03  0.54846956570E+03  0.10928486234E+04  0.12699999809E+01 0. -1.
       -4    1    3    3    0  502 -0.15374688442E+03 -0.93266260340E+03  0.24292096931E+03  0.97596610929E+03  0.12699999809E+01 0.  1.
</event>
<event>
 5   0  0.1724503E-06  0.3603120E+04  0.7818609E-02  0.8089777E-01
       -2   -1    0    0    0  501  0.00000000000E+00  0.00000000000E+00  0.17843324994E+04  0.17843324994E+04  0.25500000920E-02 0. -1.
        2   -1    0    0  501    0  0.00000000000E+00  0.00000000000E+00 -0.18189543224E+04  0.18189543224E+04  0.25500000920E-02 0.  1.
    10030    2    1    2    0    0  0.00000000000E+00  0.00000000000E+00 -0.34621823011E+02  0.36032868218E+04  0.36031204878E+04 0.  0.
        1    1    3    3  502    0  0.78622907385E+03  0.27441915305E+03  0.15803101088E+04  0.17862928282E+04  0.50400001928E-02 0. -1.
       -1    1    3    3    0  502 -0.78622907385E+03 -0.27441915305E+03 -0.16149319318E+04  0.18169939936E+04  0.50400001928E-02 0.  1.
</event>
<event>
 5   0  0.1184684E-06  0.3675833E+04  0.7818609E-02  0.8073339E-01
       -2   -1    0    0    0  501  0.00000000000E+00  0.00000000000E+00  0.15864371130E+04  0.15864371130E+04  0.25500000920E-02 0.  1.
        2   -1    0    0  501    0  0.00000000000E+00  0.00000000000E+00 -0.21292602722E+04  0.21292602722E+04  0.25500000920E-02 0. -1.
    10030    2    1    2    0    0  0.00000000000E+00  0.00000000000E+00 -0.54282315917E+03  0.37156973852E+04  0.36758332492E+04 0.  0.
        4    1    3    3  502    0  0.74421269268E+03 -0.49387760964E+03 -0.18951218997E+04  0.20950551909E+04  0.12699999809E+01 0. -1.
       -4    1    3    3    0  502 -0.74421269268E+03  0.49387760964E+03  0.13522987406E+04  0.16206421943E+04  0.12699999809E+01 0.  1.
</event>
<event>
 5   0  0.1685793E-06  0.2987660E+04  0.7818609E-02  0.8247263E-01
        2   -1    0    0  501    0  0.00000000000E+00  0.00000000000E+00  0.18275369043E+04  0.18275369043E+04  0.25500000920E-02 0. -1.
       -2   -1    0    0    0  501  0.00000000000E+00  0.00000000000E+00 -0.12210576980E+04  0.12210576980E+04  0.25500000920E-02 0.  1.
    10030    2    1    2    0    0  0.00000000000E+00  0.00000000000E+00  0.60647920623E+03  0.30485946023E+04  0.29876599575E+04 0.  0.
        3    1    3    3  502    0 -0.13276762821E+04 -0.27701328085E+03 -0.33568385851E+03  0.13971915871E+04  0.10100000352E+00 0.  1.
       -3    1    3    3    0  502  0.13276762821E+04  0.27701328085E+03  0.94216306474E+03  0.16514030152E+04  0.10100000352E+00 0. -1.
</event>
<event>
 5   0  0.1151180E-06  0.3237900E+04  0.7818609E-02  0.8178879E-01
        2   -1    0    0  501    0  0.00000000000E+00  0.00000000000E+00  0.24042655481E+04  0.24042655481E+04  0.25500000920E-02 0.  1.
       -2   -1    0    0    0  501  0.00000000000E+00  0.00000000000E+00 -0.10901457415E+04  0.10901457415E+04  0.25500000920E-02 0. -1.
    10030    2    1    2    0    0  0.00000000000E+00  0.00000000000E+00  0.13141198066E+04  0.34944112897E+04  0.32379004610E+04 0.  0.
        5    1    3    3  502    0  0.18764573706E+03 -0.11127529985E+04 -0.59574251698E+03  0.12760726448E+04  0.46999998093E+01 0. -1.
       -5    1    3    3    0  502 -0.18764573706E+03  0.11127529985E+04  0.19098623236E+04  0.22183386449E+04  0.46999998093E+01 0.  1.
</event>
<event>
 5   0  0.6261598E-07  0.3971455E+04  0.7818609E-02  0.8010330E-01
        1   -1    0    0  501    0  0.00000000000E+00  0.00000000000E+00  0.29314563582E+04  0.29314563582E+04  0.50400001928E-02 0. -1.
       -1   -1    0    0    0  501  0.00000000000E+00  0.00000000000E+00 -0.13451042947E+04  0.13451042947E+04  0.50400001928E-02 0.  1.
    10030    2    1    2    0    0  0.00000000000E+00  0.00000000000E+00  0.15863520634E+04  0.42765606529E+04  0.39714554195E+04 0.  0.
        1    1    3    3  502    0 -0.15396454081E+04 -0.12104982205E+03 -0.55089490064E+03  0.16397091918E+04  0.50400001928E-02 0.  1.
       -1    1    3    3    0  502  0.15396454081E+04  0.12104982205E+03  0.21372469641E+04  0.26368514611E+04  0.50400001928E-02 0. -1.
</event>
<event>
 5   0  0.6287345E-07  0.2507486E+04  0.7818609E-02  0.8400323E-01
       -1   -1    0    0    0  501  0.00000000000E+00  0.00000000000E+00  0.11842916089E+04  0.11842916090E+04  0.50400001928E-02 0. -1.
        1   -1    0    0  501    0  0.00000000000E+00  0.00000000000E+00 -0.13272675550E+04  0.13272675550E+04  0.50400001928E-02 0.  1.
    10030    2    1    2    0    0  0.00000000000E+00  0.00000000000E+00 -0.14297594606E+03  0.25115591640E+04  0.25074862538E+04 0.  0.
        5    1    3    3  502    0 -0.15502435979E+02  0.70922851320E+02 -0.13251516780E+04  0.13271471041E+04  0.46999998093E+01 0.  1.
       -5    1    3    3    0  502  0.15502435979E+02 -0.70922851320E+02  0.11821757319E+04  0.11844120598E+04  0.46999998093E+01 0. -1.
</event>
<event>
 5   0  0.5679750E-07  0.3701971E+04  0.7818609E-02  0.8067525E-01
        1   -1    0    0  501    0  0.00000000000E+00  0.00000000000E+00  0.28242397310E+04  0.28242397310E+04  0.50400001928E-02 0.  1.
       -1   -1    0    0    0  501  0.00000000000E+00  0.00000000000E+00 -0.12131221845E+04  0.12131221845E+04  0.50400001928E-02 0. -1.
    10030    2    1    2    0    0  0.00000000000E+00  0.00000000000E+00  0.16111175464E+04  0.40373619155E+04  0.37019712976E+04 0.  0.
        4    1    3    3  502    0  0.59294725007E+03  0.76246290366E+02 -0.11049328120E+04  0.12562953753E+04  0.12699999809E+01 0. -1.
       -4    1    3    3    0  502 -0.59294725007E+03 -0.76246290366E+02  0.27160503585E+04  0.27810665401E+04  0.12699999809E+01 0.  1.
</event>
<event>
 5   0  0.6261598E-07  0.2259497E+04  0.7818609E-02  0.8494064E-01
        1   -1    0    0  501    0  0.00000000000E+00  0.00000000000E+00  0.95720304326E+03  0.95720304327E+03  0.50400001928E-02 0.  1.
       -1   -1    0    0    0  501  0.00000000000E+00  0.00000000000E+00 -0.13333965821E+04  0.13333965821E+04  0.50400001928E-02 0. -1.
    10030    2    1    2    0    0  0.00000000000E+00  0.00000000000E+00 -0.37619353886E+03  0.22905996254E+04  0.22594966398E+04 0.  0.
        1    1    3    3  502    0 -0.69136758011E+03  0.80363584751E+03  0.20780629860E+03  0.10802792065E+04  0.50400001928E-02 0.  1.
       -1    1    3    3    0  502  0.69136758011E+03 -0.80363584751E+03 -0.58399983746E+03  0.12103204189E+04  0.50400001928E-02 0. -1.
</event>
<event>
 5   0  0.5679750E-07  0.3682997E+04  0.7818609E-02  0.8071740E-01
       -1   -1    0    0    0  501  0.00000000000E+00  0.00000000000E+00  0.19450170855E+04  0.19450170855E+04  0.50400001928E-02 0.  1.
        1   -1    0    0  501    0  0.00000000000E+00  0.00000000000E+00 -0.17434892385E+04  0.17434892385E+04  0.50400001928E-02 0. -1.
    10030    2    1    2    0    0  0.00000000000E+00  0.00000000000E+00  0.20152784702E+03  0.36885063239E+04  0.36829968000E+04 0.  0.
        4    1    3    3  502    0  0.31963153157E+03  0.13949944441E+04 -0.10598229277E+04  0.17808425158E+04  0.12699999809E+01 0. -1.
       -4    1    3    3    0  502 -0.31963153157E+03 -0.13949944441E+04  0.12613507747E+04  0.19076638081E+04  0.12699999809E+01 0.  1.
</event>
<event>
 5   0  0.5875011E-07  0.3726481E+04  0.7818609E-02  0.8062119E-01
       -1   -1    0    0    0  501  0.00000000000E+00  0.00000000000E+00  0.28537651933E+04  0.28537651933E+04  0.50400001928E-02 0.  1.
        1   -1    0    0  501    0  0.00000000000E+00  0.00000000000E+00 -0.12165207574E+04  0.12165207574E+04  0.50400001928E-02 0. -1.
    10030    2    1    2    0    0  0.00000000000E+00  0.00000000000E+00  0.16372444359E+04  0.40702859508E+04  0.37264806961E+04 0.  0.
        2    1    3    3  502    0 -0.14440272611E+04 -0.41008400224E+03  0.20242126042E+04  0.25200833888E+04  0.25500000920E-02 0.  1.
       -2    1    3    3    0  502  0.14440272611E+04  0.41008400224E+03 -0.38696816824E+03  0.15502025619E+04  0.25500000920E-02 0. -1.
</event>
<event>
 5   0  0.1184684E-06  0.3699314E+04  0.7818609E-02  0.8068114E-01
        2   -1    0    0  501    0  0.00000000000E+00  0.00000000000E+00  0.24855555750E+04  0.24855555750E+04  0.25500000920E-02 0.  1.
       -2   -1    0    0    0  501  0.00000000000E+00  0.00000000000E+00 -0.13764453697E+04  0.13764453697E+04  0.25500000920E-02 0. -1.
    10030    2    1    2    0    0  0.00000000000E+00  0.00000000000E+00  0.11091102053E+04  0.38620009447E+04  0.36993142404E+04 0.  0.
        4    1    3    3  502    0 -0.13534676615E+04  0.11556789141E+04  0.28654194669E+02  0.17799694207E+04  0.12699999809E+01 0.  1.
       -4    1    3    3    0  502  0.13534676615E+04 -0.11556789141E+04  0.10804560106E+04  0.20820315240E+04  0.12699999809E+01 0. -1.
</event>
<event>
 5   0  0.1685793E-06  0.3687535E+04  0.7818609E-02  0.8070730E-01
        2   -1    0    0  501    0  0.00000000000E+00  0.00000000000E+00  0.22821315204E+04  0.22821315204E+04  0.25500000920E-02 0.  1.
       -2   -1    0    0    0  501  0.00000000000E+00  0.00000000000E+00 -0.14896069763E+04  0.14896069763E+04  0.25500000920E-02 0. -1.
    10030    2    1    2    0    0  0.00000000000E+00  0.00000000000E+00  0.79252454409E+03  0.37717384966E+04  0.36875352383E+04 0.  0.
        3    1    3    3  502    0 -0.15765794479E+04 -0.35737100568E+03  0.13031666186E+04  0.20764296370E+04  0.10100000352E+00 0.  1.
       -3    1    3    3    0  502  0.15765794479E+04  0.35737100568E+03 -0.51064207448E+03  0.16953088597E+04  0.10100000352E+00 0. -1.
</event>
<event>
 5   0  0.5679750E-07  0.3668548E+04  0.7818609E-02  0.8074968E-01
        1   -1    0    0  501    0  0.00000000000E+00  0.00000000000E+00  0.24942163309E+04  0.24942163309E+04  0.50400001928E-02 0.  1.
       -1   -1    0    0    0  501  0.00000000000E+00  0.00000000000E+00 -0.13489452986E+04  0.13489452986E+04  0.50400001928E-02 0. -1.
    10030    2    1    2    0    0  0.00000000000E+00  0.00000000000E+00  0.11452710323E+04  0.38431616296E+04  0.36685481561E+04 0.  0.
        4    1    3    3  502    0  0.12009756097E+04 -0.11194771108E+04  0.14294833582E+04  0.21769234486E+04  0.12699999809E+01 0.  1.
       -4    1    3    3    0  502 -0.12009756097E+04  0.11194771108E+04 -0.28421232590E+03  0.16662381810E+04  0.12699999809E+01 0. -1.
</event>
<event>
 5   0  0.1724503E-06  0.3714035E+04  0.7818609E-02  0.8064859E-01
        2   -1    0    0  501    0  0.00000000000E+00  0.00000000000E+00  0.22695982712E+04  0.22695982712E+04  0.25500000920E-02 0.  1.
       -2   -1    0    0    0  501  0.00000000000E+00  0.00000000000E+00 -0.15194377295E+04  0.15194377295E+04  0.25500000920E-02 0. -1.
    10030    2    1    2    0    0  0.00000000000E+00  0.00000000000E+00  0.75016054165E+03  0.37890360007E+04  0.37140345955E+04 0.  0.
        1    1    3    3  502    0  0.66132252070E+03 -0.11882179466E+04 -0.91509371900E+03  0.16390869042E+04  0.50400001928E-02 0. -1.
       -1    1    3    3    0  502 -0.66132252070E+03  0.11882179466E+04  0.16652542606E+04  0.21499490965E+04  0.50400001928E-02 0.  1.
</event>
<event>
 5   0  0.1724503E-06  0.1934867E+04  0.7818609E-02  0.8637693E-01
        2   -1    0    0  501    0  0.00000000000E+00  0.00000000000E+00  0.20219780550E+04  0.20219780550E+04  0.25500000920E-02 0. -1.
       -2   -1    0    0    0  501  0.00000000000E+00  0.00000000000E+00 -0.46287739432E+03  0.46287739433E+03  0.25500000920E-02 0.  1.
    10030    2    1    2    0    0  0.00000000000E+00  0.00000000000E+00  0.15591006607E+04  0.24848554493E+04  0.19348673686E+04 0.  0.
        1    1    3    3  502    0  0.44905941897E+03 -0.84367956531E+03  0.97209534006E+03  0.13632383947E+04  0.50400001928E-02 0.  1.
       -1    1    3    3    0  502 -0.44905941897E+03  0.84367956531E+03  0.58700532063E+03  0.11216170546E+04  0.50400001928E-02 0. -1.
</event>
<event>
 5   0  0.6287345E-07  0.3630229E+04  0.7818609E-02  0.8083602E-01
        1   -1    0    0  501    0  0.00000000000E+00  0.00000000000E+00  0.21311776364E+04  0.21311776364E+04  0.50400001928E-02 0.  1.
       -1   -1    0    0    0  501  0.00000000000E+00  0.00000000000E+00 -0.15459245957E+04  0.15459245957E+04  0.50400001928E-02 0. -1.
    10030    2    1    2    0    0  0.00000000000E+00  0.00000000000E+00  0.58525304065E+03  0.36771022321E+04  0.36302286022E+04 0.  0.
        5    1    3    3  502    0  0.15940003183E+04 -0.14138081213E+03  0.11603039519E+04  0.19766519420E+04  0.46999998093E+01 0. -1.
       -5    1    3    3    0  502 -0.15940003183E+04  0.14138081213E+03 -0.57505091124E+03  0.17004502902E+04  0.46999998093E+01 0.  1.
</event>
<event>
 5   0  0.1680194E-06  0.2209268E+04  0.7818609E-02  0.8514580E-01
       -2   -1    0    0    0  501  0.00000000000E+00  0.00000000000E+00  0.13736243060E+04  0.13736243060E+04  0.25500000920E-02 0.  1.
        2   -1    0    0  501    0  0.00000000000E+00  0.00000000000E+00 -0.88831885152E+03  0.88831885153E+03  0.25500000920E-02 0. -1.
    10030    2    1    2    0    0  0.00000000000E+00  0.00000000000E+00  0.48530545452E+03  0.22619431576E+04  0.22092680833E+04 0.  0.
        2    1    3    3  502    0  0.77096162441E+03 -0.72561946114E+03  0.56530283079E+03  0.12001969502E+04  0.25500000920E-02 0.  1.
       -2    1    3    3    0  502 -0.77096162441E+03  0.72561946114E+03 -0.79997376273E+02  0.10617462074E+04  0.25500000920E-02 0. -1.
</event>
<event>
 5   0  0.1151180E-06  0.2313852E+04  0.7818609E-02  0.8472480E-01
        2   -1    0    0  501    0  0.00000000000E+00  0.00000000000E+00  0.13956292478E+04  0.13956292478E+04  0.25500000920E-02 0. -1.
       -2   -1    0    0    0  501  0.00000000000E+00  0.00000000000E+00 -0.95904947186E+03  0.95904947186E+03  0.25500000920E-02 0.  1.
    10030    2    1    2    0    0  0.00000000000E+00  0.00000000000E+00  0.43657977592E+03  0.23546787196E+04  0.23138517610E+04 0.  0.
        5    1    3    3  502    0 -0.13224104882E+03 -0.92149339894E+03  0.91729959430E+03  0.13069423916E+04  0.46999998093E+01 0.  1.
       -5    1    3    3    0  502  0.13224104882E+03  0.92149339894E+03 -0.48071981838E+03  0.10477363280E+04  0.46999998093E+01 0. -1.
</event>
<event>
 5   0  0.5875011E-07  0.2476656E+04  0.7818609E-02  0.8411349E-01
        1   -1    0    0  501    0  0.00000000000E+00  0.00000000000E+00  0.14333779336E+04  0.14333779336E+04  0.50400001928E-02 0. -1.
       -1   -1    0    0    0  501  0.00000000000E+00  0.00000000000E+00 -0.10698200037E+04  0.10698200037E+04  0.50400001928E-02 0.  1.
    10030    2    1    2    0    0  0.00000000000E+00  0.00000000000E+00  0.36355792989E+03  0.25031979372E+04  0.24766561216E+04 0.  0.
        2    1    3    3  502    0 -0.42314835803E+03 -0.46589100967E+03 -0.89611503837E+03  0.10950484591E+04  0.25500000920E-02 0.  1.
       -2    1    3    3    0  502  0.42314835803E+03  0.46589100967E+03  0.12596729683E+04  0.14081494781E+04  0.25500000920E-02 0. -1.
</event>
<event>
 5   0  0.1685793E-06  0.2207645E+04  0.7818609E-02  0.8515253E-01
       -2   -1    0    0    0  501  0.00000000000E+00  0.00000000000E+00  0.93143936282E+03  0.93143936282E+03  0.25500000920E-02 0.  1.
        2   -1    0    0  501    0  0.00000000000E+00  0.00000000000E+00 -0.13081090128E+04  0.13081090128E+04  0.25500000920E-02 0. -1.
    10030    2    1    2    0    0  0.00000000000E+00  0.00000000000E+00 -0.37666964994E+03  0.22395483756E+04  0.22076451031E+04 0.  0.
        3    1    3    3  502    0  0.45331204826E+03  0.66527041786E+03  0.57779263112E+03  0.99091920799E+03  0.10100000352E+00 0.  1.
       -3    1    3    3    0  502 -0.45331204826E+03 -0.66527041786E+03 -0.95446228106E+03  0.12486291676E+04  0.10100000352E+00 0. -1.
</event>
<event>
 5   0  0.1151180E-06  0.2386581E+04  0.7818609E-02  0.8444545E-01
       -2   -1    0    0    0  501  0.00000000000E+00  0.00000000000E+00  0.67283599254E+03  0.67283599254E+03  0.25500000920E-02 0. -1.
        2   -1    0    0  501    0  0.00000000000E+00  0.00000000000E+00 -0.21163288555E+04  0.21163288555E+04  0.25500000920E-02 0.  1.
    10030    2    1    2    0    0  0.00000000000E+00  0.00000000000E+00 -0.14434928630E+04  0.27891648481E+04  0.23865810073E+04 0.  0.
        5    1    3    3  502    0  0.24867334936E+03  0.48893479978E+03 -0.19602367367E+04  0.20355455847E+04  0.46999998093E+01 0.  1.
       -5    1    3    3    0  502 -0.24867334936E+03 -0.48893479978E+03  0.51674387376E+03  0.75361926341E+03  0.46999998093E+01 0. -1.
</event>
<event>
 5   0  0.6186440E-07  0.3739983E+04  0.7818609E-02  0.8059158E-01
        1   -1    0    0  501    0  0.00000000000E+00  0.00000000000E+00  0.13660186633E+04  0.13660186633E+04  0.50400001928E-02 0.  1.
       -1   -1    0    0    0  501  0.00000000000E+00  0.00000000000E+00 -0.25598978049E+04  0.25598978049E+04  0.50400001928E-02 0. -1.
    10030    2    1    2    0    0  0.00000000000E+00  0.00000000000E+00 -0.11938791416E+04  0.39259164681E+04  0.37399829826E+04 0.  0.
        3    1    3    3  502    0 -0.21006231106E+03 -0.11657995151E+04 -0.21158208552E+04  0.24248531059E+04  0.10100000352E+00 0.  1.
       -3    1    3    3    0  502  0.21006231106E+03  0.11657995151E+04  0.92194171361E+03  0.15010633622E+04  0.10100000352E+00 0. -1.
</event>
<event>
 5   0  0.5875011E-07  0.2410679E+04  0.7818609E-02  0.8435516E-01
        1   -1    0    0  501    0  0.00000000000E+00  0.00000000000E+00  0.20507873839E+04  0.20507873839E+04  0.50400001928E-02 0.  1.
       -1   -1    0    0    0  501  0.00000000000E+00  0.00000000000E+00 -0.70843215562E+03  0.70843215564E+03  0.50400001928E-02 0. -1.
    10030    2    1    2    0    0  0.00000000000E+00  0.00000000000E+00  0.13423552283E+04  0.27592195395E+04  0.24106793459E+04 0.  0.
        2    1    3    3  502    0 -0.24554159456E+03  0.38112716767E+03  0.19494735967E+04  0.20014984129E+04  0.25500000920E-02 0.  1.
       -2    1    3    3    0  502  0.24554159456E+03 -0.38112716767E+03 -0.60711836838E+03  0.75772112669E+03  0.25500000920E-02 0. -1.
</event>
<event>
 5   0  0.6261598E-07  0.3630535E+04  0.7818609E-02  0.8083533E-01
        1   -1    0    0  501    0  0.00000000000E+00  0.00000000000E+00  0.11395572065E+04  0.11395572065E+04  0.50400001928E-02 0.  1.
       -1   -1    0    0    0  501  0.00000000000E+00  0.00000000000E+00 -0.28916452951E+04  0.28916452951E+04  0.50400001928E-02 0. -1.
    10030    2    1    2    0    0  0.00000000000E+00  0.00000000000E+00 -0.17520880886E+04  0.40312025016E+04  0.36305345252E+04 0.  0.
        1    1    3    3  502    0 -0.10388829291E+04  0.13168405512E+03 -0.25224421758E+04  0.27311779439E+04  0.50400001928E-02 0. -1.
       -1    1    3    3    0  502  0.10388829291E+04 -0.13168405512E+03  0.77035408724E+03  0.13000245577E+04  0.50400001928E-02 0.  1.
</event>
<event>
 5   0  0.6287345E-07  0.2860669E+04  0.7818609E-02  0.8284677E-01
        1   -1    0    0  501    0  0.00000000000E+00  0.00000000000E+00  0.18569248727E+04  0.18569248727E+04  0.50400001928E-02 0.  1.
       -1   -1    0    0    0  501  0.00000000000E+00  0.00000000000E+00 -0.11017442939E+04  0.11017442939E+04  0.50400001928E-02 0. -1.
    10030    2    1    2    0    0  0.00000000000E+00  0.00000000000E+00  0.75518057886E+03  0.29586691666E+04  0.28606687209E+04 0.  0.
        5    1    3    3  502    0 -0.83435341962E+03  0.87873988970E+03  0.11635615461E+04  0.16799485064E+04  0.46999998093E+01 0.  1.
       -5    1    3    3    0  502  0.83435341962E+03 -0.87873988970E+03 -0.40838096721E+03  0.12787206603E+04  0.46999998093E+01 0. -1.
</event>
<event>
 5   0  0.6287345E-07  0.2802716E+04  0.7818609E-02  0.8302426E-01
        1   -1    0    0  501    0  0.00000000000E+00  0.00000000000E+00  0.15209629775E+04  0.15209629775E+04  0.50400001928E-02 0. -1.
       -1   -1    0    0    0  501  0.00000000000E+00  0.00000000000E+00 -0.12911585614E+04  0.12911585614E+04  0.50400001928E-02 0.  1.
    10030    2    1    2    0    0  0.00000000000E+00  0.00000000000E+00  0.22980441613E+03  0.28121215389E+04  0.28027160898E+04 0.  0.
        5    1    3    3  502    0  0.33148248291E+03 -0.12769433067E+04 -0.35924838226E+03  0.13673135467E+04  0.46999998093E+01 0.  1.
       -5    1    3    3    0  502 -0.33148248291E+03  0.12769433067E+04  0.58905279839E+03  0.14448079922E+04  0.46999998093E+01 0. -1.
</event>
<event>
 5   0  0.6186440E-07  0.3748634E+04  0.7818609E-02  0.8057269E-01
        1   -1    0    0  501    0  0.00000000000E+00  0.00000000000E+00  0.13258082065E+04  0.13258082065E+04  0.50400001928E-02 0.  1.
       -1   -1    0    0    0  501  0.00000000000E+00  0.00000000000E+00 -0.26497533897E+04  0.26497533897E+04  0.50400001928E-02 0. -1.
    10030    2    1    2    0    0  0.00000000000E+00  0.00000000000E+00 -0.13239451832E+04  0.39755615963E+04  0.37486343057E+04 0.  0.
        3    1    3    3  502    0 -0.16474554422E+04  0.64755292630E+03 -0.13154130037E+04  0.22053901258E+04  0.10100000352E+00 0. -1.
       -3    1    3    3    0  502  0.16474554422E+04 -0.64755292630E+03 -0.85321795011E+01  0.17701714705E+04  0.10100000352E+00 0.  1.
</event>
<event>
 5   0  0.5679750E-07  0.3820941E+04  0.7818609E-02  0.8041676E-01
        1   -1    0    0  501    0  0.00000000000E+00  0.00000000000E+00  0.30546453690E+04  0.30546453690E+04  0.50400001928E-02 0.  1.
       -1   -1    0    0    0  501  0.00000000000E+00  0.00000000000E+00 -0.11948680820E+04  0.11948680820E+04  0.50400001928E-02 0. -1.
    10030    2    1    2    0    0  0.00000000000E+00  0.00000000000E+00  0.18597772870E+04  0.42495134510E+04  0.38209413779E+04 0.  0.
        4    1    3    3  502    0  0.70750959416E+03  0.11288503376E+04 -0.59301427102E+03  0.14582662476E+04  0.12699999809E+01 0. -1.
       -4    1    3    3    0  502 -0.70750959416E+03 -0.11288503376E+04  0.24527915580E+04  0.27912472034E+04  0.12699999809E+01 0.  1.
</event>
<event>
 5   0  0.6287345E-07  0.3705964E+04  0.7818609E-02  0.8066642E-01
        1   -1    0    0  501    0  0.00000000000E+00  0.00000000000E+00  0.20243620476E+04  0.20243620476E+04  0.50400001928E-02 0. -1.
       -1   -1    0    0    0  501  0.00000000000E+00  0.00000000000E+00 -0.16961103865E+04  0.16961103865E+04  0.50400001928E-02 0.  1.
    10030    2    1    2    0    0  0.00000000000E+00  0.00000000000E+00  0.32825166114E+03  0.37204724341E+04  0.37059635697E+04 0.  0.
        5    1    3    3  502    0 -0.15647027019E+04 -0.25255497217E+03 -0.79954935281E+03  0.17752126117E+04  0.46999998093E+01 0.  1.
       -5    1    3    3    0  502  0.15647027019E+04  0.25255497217E+03  0.11278010139E+04  0.19452598223E+04  0.46999998093E+01 0. -1.
</event>
<event>
 5   0  0.1184684E-06  0.3096397E+04  0.7818609E-02  0.8216727E-01
       -2   -1    0    0    0  501  0.00000000000E+00  0.00000000000E+00  0.10061903022E+04  0.10061903022E+04  0.25500000920E-02 0. -1.
        2   -1    0    0  501    0  0.00000000000E+00  0.00000000000E+00 -0.23821726257E+04  0.23821726257E+04  0.25500000920E-02 0.  1.
    10030    2    1    2    0    0  0.00000000000E+00  0.00000000000E+00 -0.13759823235E+04  0.33883629280E+04  0.30963972576E+04 0.  0.
        4    1    3    3  502    0  0.37207982828E+03 -0.14962849209E+04 -0.53476909934E+03  0.16319594252E+04  0.12699999809E+01 0.  1.
       -4    1    3    3    0  502 -0.37207982828E+03  0.14962849209E+04 -0.84121322421E+03  0.17564035028E+04  0.12699999809E+01 0. -1.
</event>
<event>
 5   0  0.5679750E-07  0.3702401E+04  0.7818609E-02  0.8067430E-01
       -1   -1    0    0    0  501  0.00000000000E+00  0.00000000000E+00  0.16710678565E+04  0.16710678565E+04  0.50400001928E-02 0.  1.
        1   -1    0    0  501    0  0.00000000000E+00  0.00000000000E+00 -0.20507508678E+04  0.20507508678E+04  0.50400001928E-02 0. -1.
    10030    2    1    2    0    0  0.00000000000E+00  0.00000000000E+00 -0.37968301133E+03  0.37218187244E+04  0.37024013056E+04 0.  0.
        4    1    3    3  502    0 -0.79284168832E+03 -0.14323605532E+03 -0.18652641498E+04  0.20318283569E+04  0.12699999809E+01 0. -1.
       -4    1    3    3    0  502  0.79284168832E+03  0.14323605532E+03  0.14855811385E+04  0.16899903675E+04  0.12699999809E+01 0.  1.
</event>
<event>
 5   0  0.1184684E-06  0.3719752E+04  0.7818609E-02  0.8063599E-01
        2   -1    0    0  501    0  0.00000000000E+00  0.00000000000E+00  0.20685462864E+04  0.20685462864E+04  0.25500000920E-02 0.  1.
       -2   -1    0    0    0  501  0.00000000000E+00  0.00000000000E+00 -0.16722555623E+04  0.16722555623E+04  0.25500000920E-02 0. -1.
    10030    2    1    2    0    0  0.00000000000E+00  0.00000000000E+00  0.39629072409E+03  0.37408018487E+04  0.37197516226E+04 0.  0.
        4    1    3    3  502    0 -0.96136321218E+03 -0.15526682552E+04 -0.15618142080E+03  0.18328644755E+04  0.12699999809E+01 0.  1.
       -4    1    3    3    0  502  0.96136321218E+03  0.15526682552E+04  0.55247214489E+03  0.19079373732E+04  0.12699999809E+01 0. -1.
</event>
<event>
 5   0  0.1151180E-06  0.3698210E+04  0.7818609E-02  0.8068359E-01
        2   -1    0    0  501    0  0.00000000000E+00  0.00000000000E+00  0.19509458501E+04  0.19509458501E+04  0.25500000920E-02 0.  1.
       -2   -1    0    0    0  501  0.00000000000E+00  0.00000000000E+00 -0.17525799766E+04  0.17525799766E+04  0.25500000920E-02 0. -1.
    10030    2    1    2    0    0  0.00000000000E+00  0.00000000000E+00  0.19836587349E+03  0.37035258268E+04  0.36982096384E+04 0.  0.
        5    1    3    3  502    0 -0.14502583730E+04  0.84296198392E+03  0.87833239140E+03  0.18934952164E+04  0.46999998093E+01 0.  1.
       -5    1    3    3    0  502  0.14502583730E+04 -0.84296198392E+03 -0.67996651792E+03  0.18100306103E+04  0.46999998093E+01 0. -1.
</event>
<event>
 5   0  0.1195307E-06  0.1862519E+04  0.7818609E-02  0.8673741E-01
        2   -1    0    0  501    0  0.00000000000E+00  0.00000000000E+00  0.22647614695E+04  0.22647614695E+04  0.25500000920E-02 0. -1.
       -2   -1    0    0    0  501  0.00000000000E+00  0.00000000000E+00 -0.38292975512E+03  0.38292975513E+03  0.25500000920E-02 0.  1.
    10030    2    1    2    0    0  0.00000000000E+00  0.00000000000E+00  0.18818317144E+04  0.26476912247E+04  0.18625193207E+04 0.  0.
        5    1    3    3  502    0  0.38915548568E+02 -0.40299965341E+03  0.21330816315E+04  0.21711707619E+04  0.46999998093E+01 0. -1.
       -5    1    3    3    0  502 -0.38915548568E+02  0.40299965341E+03 -0.25124991713E+03  0.47652046275E+03  0.46999998093E+01 0.  1.
</event>
<event>
 5   0  0.5679750E-07  0.3662618E+04  0.7818609E-02  0.8076297E-01
        1   -1    0    0  501    0  0.00000000000E+00  0.00000000000E+00  0.18021996699E+04  0.18021996699E+04  0.50400001928E-02 0.  1.
       -1   -1    0    0    0  501  0.00000000000E+00  0.00000000000E+00 -0.18608889877E+04  0.18608889877E+04  0.50400001928E-02 0. -1.
    10030    2    1    2    0    0  0.00000000000E+00  0.00000000000E+00 -0.58689317773E+02  0.36630886576E+04  0.36626184728E+04 0.  0.
        4    1    3    3  502    0 -0.44256404139E+03 -0.16578202945E+03 -0.17988499727E+04  0.18598950102E+04  0.12699999809E+01 0. -1.
       -4    1    3    3    0  502  0.44256404139E+03  0.16578202945E+03  0.17401606549E+04  0.18031936473E+04  0.12699999809E+01 0.  1.
</event>
<event>
 5   0  0.1680194E-06  0.3601486E+04  0.7818609E-02  0.8090151E-01
        2   -1    0    0  501    0  0.00000000000E+00  0.00000000000E+00  0.20390047622E+04  0.20390047622E+04  0.25500000920E-02 0.  1.
       -2   -1    0    0    0  501  0.00000000000E+00  0.00000000000E+00 -0.15903227186E+04  0.15903227186E+04  0.25500000920E-02 0. -1.
    10030    2    1    2    0    0  0.00000000000E+00  0.00000000000E+00  0.44868204366E+03  0.36293274808E+04  0.36014861359E+04 0.  0.
        2    1    3    3  502    0  0.91743380577E+03 -0.43130501575E+03 -0.12754405727E+04  0.16292505821E+04  0.25500000920E-02 0. -1.
       -2    1    3    3    0  502 -0.91743380577E+03  0.43130501575E+03  0.17241226164E+04  0.20000768988E+04  0.25500000920E-02 0.  1.
</event>
<event>
 5   0  0.6261598E-07  0.3676458E+04  0.7818609E-02  0.8073199E-01
       -1   -1    0    0    0  501  0.00000000000E+00  0.00000000000E+00  0.17608180078E+04  0.17608180078E+04  0.50400001928E-02 0. -1.
        1   -1    0    0  501    0  0.00000000000E+00  0.00000000000E+00 -0.19190435432E+04  0.19190435432E+04  0.50400001928E-02 0.  1.
    10030    2    1    2    0    0  0.00000000000E+00  0.00000000000E+00 -0.15822553536E+03  0.36798615510E+04  0.36764583113E+04 0.  0.
        1    1    3    3  502    0  0.10871014013E+04 -0.14737463705E+04  0.80309927157E+02  0.18330759684E+04  0.50400001928E-02 0. -1.
       -1    1    3    3    0  502 -0.10871014013E+04  0.14737463705E+04 -0.23853546252E+03  0.18467855826E+04  0.50400001928E-02 0.  1.
</event>
<event>
 5   0  0.6261598E-07  0.1943823E+04  0.7818609E-02  0.8633345E-01
        1   -1    0    0  501    0  0.00000000000E+00  0.00000000000E+00  0.22216672003E+04  0.22216672003E+04  0.50400001928E-02 0.  1.
       -1   -1    0    0    0  501  0.00000000000E+00  0.00000000000E+00 -0.42518168237E+03  0.42518168240E+03  0.50400001928E-02 0. -1.
    10030    2    1    2    0    0  0.00000000000E+00  0.00000000000E+00  0.17964855179E+04  0.26468488827E+04  0.19438232409E+04 0.  0.
        1    1    3    3  502    0  0.53371695385E+03  0.11921024383E+02  0.20041483813E+04  0.20740314925E+04  0.50400001928E-02 0.  1.
       -1    1    3    3    0  502 -0.53371695385E+03 -0.11921024383E+02 -0.20766286337E+03  0.57281739019E+03  0.50400001928E-02 0. -1.
</event>
<event>
 5   0  0.1680194E-06  0.3709354E+04  0.7818609E-02  0.8065892E-01
        2   -1    0    0  501    0  0.00000000000E+00  0.00000000000E+00  0.12756630646E+04  0.12756630646E+04  0.25500000920E-02 0. -1.
       -2   -1    0    0    0  501  0.00000000000E+00  0.00000000000E+00 -0.26965006811E+04  0.26965006811E+04  0.25500000920E-02 0.  1.
    10030    2    1    2    0    0  0.00000000000E+00  0.00000000000E+00 -0.14208376165E+04  0.39721637457E+04  0.37093537564E+04 0.  0.
        2    1    3    3  502    0 -0.70225107429E+03 -0.44501678611E+03  0.10649435846E+04  0.13510371385E+04  0.25500000920E-02 0. -1.
       -2    1    3    3    0  502  0.70225107429E+03  0.44501678611E+03 -0.24857812011E+04  0.26211266072E+04  0.25500000920E-02 0.  1.
</event>
<event>
 5   0  0.6186440E-07  0.2771356E+04  0.7818609E-02  0.8312217E-01
       -1   -1    0    0    0  501  0.00000000000E+00  0.00000000000E+00  0.13772525566E+04  0.13772525566E+04  0.50400001928E-02 0.  1.
        1   -1    0    0  501    0  0.00000000000E+00  0.00000000000E+00 -0.13941552174E+04  0.13941552174E+04  0.50400001928E-02 0. -1.
    10030    2    1    2    0    0  0.00000000000E+00  0.00000000000E+00 -0.16902660863E+02  0.27714077740E+04  0.27713562293E+04 0.  0.
        3    1    3    3  502    0 -0.10823870577E+04  0.59260118296E+03  0.62193006520E+03  0.13818592262E+04  0.10100000352E+00 0.  1.
       -3    1    3    3    0  502  0.10823870577E+04 -0.59260118296E+03 -0.63883272607E+03  0.13895485478E+04  0.10100000352E+00 0. -1.
</event>
<event>
 5   0  0.1724503E-06  0.3681692E+04  0.7818609E-02  0.8072031E-01
       -2   -1    0    0    0  501  0.00000000000E+00  0.00000000000E+00  0.14750339598E+04  0.14750339598E+04  0.25500000920E-02 0.  1.
        2   -1    0    0  501    0  0.00000000000E+00  0.00000000000E+00 -0.22973802438E+04  0.22973802438E+04  0.25500000920E-02 0. -1.
    10030    2    1    2    0    0  0.00000000000E+00  0.00000000000E+00 -0.82234628401E+03  0.37724142036E+04  0.36816919362E+04 0.  0.
        1    1    3    3  502    0 -0.55398586935E+03 -0.17263236772E+04 -0.84538888423E+02  0.18150042990E+04  0.50400001928E-02 0.  1.
       -1    1    3    3    0  502  0.55398586935E+03  0.17263236772E+04 -0.73780739559E+03  0.19574099046E+04  0.50400001928E-02 0. -1.
</event>
<event>
 5   0  0.1724503E-06  0.3345126E+04  0.7818609E-02  0.8151507E-01
        2   -1    0    0  501    0  0.00000000000E+00  0.00000000000E+00  0.23550781179E+04  0.23550781179E+04  0.25500000920E-02 0.  1.
       -2   -1    0    0    0  501  0.00000000000E+00  0.00000000000E+00 -0.11878445014E+04  0.11878445014E+04  0.25500000920E-02 0. -1.
    10030    2    1    2    0    0  0.00000000000E+00  0.00000000000E+00  0.11672336165E+04  0.35429226194E+04  0.33451257632E+04 0.  0.
        1    1    3    3  502    0  0.78351418897E+03 -0.10200355863E+04 -0.54876070477E+03  0.13983938618E+04  0.50400001928E-02 0. -1.
       -1    1    3    3    0  502 -0.78351418897E+03  0.10200355863E+04  0.17159943213E+04  0.21445287576E+04  0.50400001928E-02 0.  1.
</event>
<event>
 5   0  0.1680194E-06  0.3661625E+04  0.7818609E-02  0.8076520E-01
        2   -1    0    0  501    0  0.00000000000E+00  0.00000000000E+00  0.10967324539E+04  0.10967324539E+04  0.25500000920E-02 0.  1.
       -2   -1    0    0    0  501  0.00000000000E+00  0.00000000000E+00 -0.30562364331E+04  0.30562364331E+04  0.25500000920E-02 0. -1.
    10030    2    1    2    0    0  0.00000000000E+00  0.00000000000E+00 -0.19595039792E+04  0.41529688870E+04  0.36616246028E+04 0.  0.
        2    1    3    3  502    0  0.20686188907E+02 -0.53768039288E+03  0.10050261035E+04  0.11400024526E+04  0.25500000920E-02 0.  1.
       -2    1    3    3    0  502 -0.20686188907E+02  0.53768039288E+03 -0.29645300827E+04  0.30129664343E+04  0.25500000920E-02 0. -1.
</event>
<event>
 5   0  0.5875011E-07  0.3763557E+04  0.7818609E-02  0.8054021E-01
       -1   -1    0    0    0  501  0.00000000000E+00  0.00000000000E+00  0.10476596654E+04  0.10476596654E+04  0.50400001928E-02 0.  1.
        1   -1    0    0  501    0  0.00000000000E+00  0.00000000000E+00 -0.33800006496E+04  0.33800006496E+04  0.50400001928E-02 0. -1.
    10030    2    1    2    0    0  0.00000000000E+00  0.00000000000E+00 -0.23323409842E+04  0.44276603150E+04  0.37635570140E+04 0.  0.
        2    1    3    3  502    0  0.92261197572E+03  0.14294379284E+04 -0.22017621859E+03  0.17155125229E+04  0.25500000920E-02 0.  1.
       -2    1    3    3    0  502 -0.92261197572E+03 -0.14294379284E+04 -0.21121647656E+04  0.27121477921E+04  0.25500000920E-02 0. -1.
</event>
<event>
 5   0  0.1184684E-06  0.3512704E+04  0.7818609E-02  0.8110786E-01
        2   -1    0    0  501    0  0.00000000000E+00  0.00000000000E+00  0.22997997536E+04  0.22997997536E+04  0.25500000920E-02 0.  1.
       -2   -1    0    0    0  501  0.00000000000E+00  0.00000000000E+00 -0.13413218315E+04  0.13413218315E+04  0.25500000920E-02 0. -1.
    10030    2    1    2    0    0  0.00000000000E+00  0.00000000000E+00  0.95847792209E+03  0.36411215851E+04  0.35127035841E+04 0.  0.
        4    1    3    3  502    0 -0.16870224050E+04 -0.38654331887E+03  0.16946641491E+03  0.17390171969E+04  0.12699999809E+01 0.  1.
       -4    1    3    3    0  502  0.16870224050E+04  0.38654331887E+03  0.78901150717E+03  0.19021043882E+04  0.12699999809E+01 0. -1.
</event>
<event>
 5   0  0.1680194E-06  0.3760197E+04  0.7818609E-02  0.8054751E-01
       -2   -1    0    0    0  501  0.00000000000E+00  0.00000000000E+00  0.17686072490E+04  0.17686072490E+04  0.25500000920E-02 0.  1.
        2   -1    0    0  501    0  0.00000000000E+00  0.00000000000E+00 -0.19986183401E+04  0.19986183401E+04  0.25500000920E-02 0. -1.
    10030    2    1    2    0    0  0.00000000000E+00  0.00000000000E+00 -0.23001109109E+03  0.37672255892E+04  0.37601972738E+04 0.  0.
        2    1    3    3  502    0  0.17546124777E+04 -0.33376072569E+03 -0.70322279938E+03  0.19195268882E+04  0.25500000920E-02 0. -1.
       -2    1    3    3    0  502 -0.17546124777E+04  0.33376072569E+03  0.47321170829E+03  0.18476987010E+04  0.25500000920E-02 0.  1.
</event>
<event>
 5   0  0.1184684E-06  0.3057338E+04  0.7818609E-02  0.8227545E-01
        2   -1    0    0  501    0  0.00000000000E+00  0.00000000000E+00  0.30815096067E+04  0.30815096067E+04  0.25500000920E-02 0. -1.
       -2   -1    0    0    0  501  0.00000000000E+00  0.00000000000E+00 -0.75833897217E+03  0.75833897217E+03  0.25500000920E-02 0.  1.
    10030    2    1    2    0    0  0.00000000000E+00  0.00000000000E+00  0.23231706345E+04  0.38398485789E+04  0.30573379453E+04 0.  0.
        4    1    3    3  502    0  0.79306307567E+03 -0.58614121422E+03 -0.30540835932E+03  0.10323693350E+04  0.12699999809E+01 0.  1.
       -4    1    3    3    0  502 -0.79306307567E+03  0.58614121422E+03  0.26285789939E+04  0.28074792439E+04  0.12699999809E+01 0. -1.
</event>
<event>
 5   0  0.1685793E-06  0.1934342E+04  0.7818609E-02  0.8637949E-01
        2   -1    0    0  501    0  0.00000000000E+00  0.00000000000E+00  0.13814519556E+04  0.13814519556E+04  0.25500000920E-02 0. -1.
       -2   -1    0    0    0  501  0.00000000000E+00  0.00000000000E+00 -0.67712770518E+03  0.67712770518E+03  0.25500000920E-02 0.  1.
    10030    2    1    2    0    0  0.00000000000E+00  0.00000000000E+00  0.70432425040E+03  0.20585796608E+04  0.19343416374E+04 0.  0.
        3    1    3    3  502    0 -0.77407589140E+03  0.57426438876E+03  0.43760779106E+03  0.10585242854E+04  0.10100000352E+00 0. -1.
       -3    1    3    3    0  502  0.77407589140E+03 -0.57426438876E+03  0.26671645934E+03  0.10000553753E+04  0.10100000352E+00 0.  1.
</event>
<event>
 5   0  0.1190287E-06  0.1949925E+04  0.7818609E-02  0.8630397E-01
       -2   -1    0    0    0  501  0.00000000000E+00  0.00000000000E+00  0.47783827237E+03  0.47783827238E+03  0.25500000920E-02 0. -1.
        2   -1    0    0  501    0  0.00000000000E+00  0.00000000000E+00 -0.19892745559E+04  0.19892745559E+04  0.25500000920E-02 0.  1.
    10030    2    1    2    0    0  0.00000000000E+00  0.00000000000E+00 -0.15114362835E+04  0.24671128283E+04  0.19499246314E+04 0.  0.
        5    1    3    3  502    0  0.50204484975E+03  0.66551496694E+03 -0.11609184040E+03  0.84169983235E+03  0.46999998093E+01 0.  1.
       -5    1    3    3    0  502 -0.50204484975E+03 -0.66551496694E+03 -0.13953444431E+04  0.16254129959E+04  0.46999998093E+01 0. -1.
</event>
<event>
 5   0  0.1724503E-06  0.1851095E+04  0.7818609E-02  0.8679590E-01
        2   -1    0    0  501    0  0.00000000000E+00  0.00000000000E+00  0.14731112725E+04  0.14731112725E+04  0.25500000920E-02 0. -1.
       -2   -1    0    0    0  501  0.00000000000E+00  0.00000000000E+00 -0.58151604100E+03  0.58151604100E+03  0.25500000920E-02 0.  1.
    10030    2    1    2    0    0  0.00000000000E+00  0.00000000000E+00  0.89159523153E+03  0.20546273135E+04  0.18510946331E+04 0.  0.
        1    1    3    3  502    0  0.31696392588E+03  0.74290914473E+03 -0.55844120280E+02  0.80962873802E+03  0.50400001928E-02 0.  1.
       -1    1    3    3    0  502 -0.31696392588E+03 -0.74290914473E+03  0.94743935181E+03  0.12449985755E+04  0.50400001928E-02 0. -1.
</event>
<event>
 5   0  0.1184684E-06  0.1952538E+04  0.7818609E-02  0.8629138E-01
       -2   -1    0    0    0  501  0.00000000000E+00  0.00000000000E+00  0.51238376688E+03  0.51238376689E+03  0.25500000920E-02 0. -1.
        2   -1    0    0  501    0  0.00000000000E+00  0.00000000000E+00 -0.18601308337E+04  0.18601308337E+04  0.25500000920E-02 0.  1.
    10030    2    1    2    0    0  0.00000000000E+00  0.00000000000E+00 -0.13477470668E+04  0.23725146006E+04  0.19525376754E+04 0.  0.
        4    1    3    3  502    0  0.65485274452E+03 -0.51713575048E+03 -0.58074671560E+02  0.83644233621E+03  0.12699999809E+01 0. -1.
       -4    1    3    3    0  502 -0.65485274452E+03  0.51713575048E+03 -0.12896723952E+04  0.15360722644E+04  0.12699999809E+01 0.  1.
</event>
<event>
 5   0  0.5679750E-07  0.2175649E+04  0.7818609E-02  0.8528632E-01
        1   -1    0    0  501    0  0.00000000000E+00  0.00000000000E+00  0.20150828071E+04  0.20150828071E+04  0.50400001928E-02 0. -1.
       -1   -1    0    0    0  501  0.00000000000E+00  0.00000000000E+00 -0.58725231874E+03  0.58725231876E+03  0.50400001928E-02 0.  1.
    10030    2    1    2    0    0  0.00000000000E+00  0.00000000000E+00  0.14278304884E+04  0.26023351259E+04  0.21756489156E+04 0.  0.
        4    1    3    3  502    0 -0.35766865978E+02  0.62709270020E+03 -0.34843506064E+03  0.71828485138E+03  0.12699999809E+01 0.  1.
       -4    1    3    3    0  502  0.35766865978E+02 -0.62709270020E+03  0.17762655490E+04  0.18840502745E+04  0.12699999809E+01 0. -1.
</event>
<event>
 5   0  0.1151180E-06  0.3693835E+04  0.7818609E-02  0.8069329E-01
        2   -1    0    0  501    0  0.00000000000E+00  0.00000000000E+00  0.17691714078E+04  0.17691714078E+04  0.25500000920E-02 0. -1.
       -2   -1    0    0    0  501  0.00000000000E+00  0.00000000000E+00 -0.19280804669E+04  0.19280804669E+04  0.25500000920E-02 0.  1.
    10030    2    1    2    0    0  0.00000000000E+00  0.00000000000E+00 -0.15890905914E+03  0.36972518747E+04  0.36938353152E+04 0.  0.
        5    1    3    3  502    0 -0.10713348217E+04 -0.14840789603E+04 -0.32632832456E+03  0.18592366514E+04  0.46999998093E+01 0.  1.
       -5    1    3    3    0  502  0.10713348217E+04  0.14840789603E+04  0.16741926542E+03  0.18380152233E+04  0.46999998093E+01 0. -1.
</event>
<event>
 5   0  0.6186440E-07  0.3655372E+04  0.7818609E-02  0.8077925E-01
        1   -1    0    0  501    0  0.00000000000E+00  0.00000000000E+00  0.90204615138E+03  0.90204615139E+03  0.50400001928E-02 0.  1.
       -1   -1    0    0    0  501  0.00000000000E+00  0.00000000000E+00 -0.37031762480E+04  0.37031762480E+04  0.50400001928E-02 0. -1.
    10030    2    1    2    0    0  0.00000000000E+00  0.00000000000E+00 -0.28011300966E+04  0.46052223994E+04  0.36553718730E+04 0.  0.
        3    1    3    3  502    0 -0.33402792331E+03  0.64842675782E+03  0.71072952227E+03  0.10184146394E+04  0.10100000352E+00 0.  1.
       -3    1    3    3    0  502  0.33402792331E+03 -0.64842675782E+03 -0.35118596189E+04  0.35868077600E+04  0.10100000352E+00 0. -1.
</event>
<event>
 5   0  0.6287345E-07  0.2563876E+04  0.7818609E-02  0.8380576E-01
        1   -1    0    0  501    0  0.00000000000E+00  0.00000000000E+00  0.14652276123E+04  0.14652276123E+04  0.50400001928E-02 0.  1.
       -1   -1    0    0    0  501  0.00000000000E+00  0.00000000000E+00 -0.11215765863E+04  0.11215765863E+04  0.50400001928E-02 0. -1.
    10030    2    1    2    0    0  0.00000000000E+00  0.00000000000E+00  0.34365102601E+03  0.25868041986E+04  0.25638759592E+04 0.  0.
        5    1    3    3  502    0  0.65287647912E+02 -0.12146669941E+04 -0.23634704624E+03  0.12391773076E+04  0.46999998093E+01 0. -1.
       -5    1    3    3    0  502 -0.65287647912E+02  0.12146669941E+04  0.57999807225E+03  0.13476268910E+04  0.46999998093E+01 0.  1.
</event>
<event>
 5   0  0.6261598E-07  0.3820242E+04  0.7818609E-02  0.8041825E-01
       -1   -1    0    0    0  501  0.00000000000E+00  0.00000000000E+00  0.13790984901E+04  0.13790984901E+04  0.50400001928E-02 0. -1.
        1   -1    0    0  501    0  0.00000000000E+00  0.00000000000E+00 -0.26456137858E+04  0.26456137858E+04  0.50400001928E-02 0.  1.
    10030    2    1    2    0    0  0.00000000000E+00  0.00000000000E+00 -0.12665152957E+04  0.40247122759E+04  0.38202418653E+04 0.  0.
        1    1    3    3  502    0  0.12850494672E+04 -0.88992978245E+03 -0.17898486652E+04  0.23763176124E+04  0.50400001928E-02 0.  1.
       -1    1    3    3    0  502 -0.12850494672E+04  0.88992978245E+03  0.52333336950E+03  0.16483946634E+04  0.50400001928E-02 0. -1.
</event>
<event>
 5   0  0.1184684E-06  0.3664779E+04  0.7818609E-02  0.8075812E-01
       -2   -1    0    0    0  501  0.00000000000E+00  0.00000000000E+00  0.19761706986E+04  0.19761706986E+04  0.25500000920E-02 0. -1.
        2   -1    0    0  501    0  0.00000000000E+00  0.00000000000E+00 -0.16990695089E+04  0.16990695089E+04  0.25500000920E-02 0.  1.
    10030    2    1    2    0    0  0.00000000000E+00  0.00000000000E+00  0.27710118964E+03  0.36752402075E+04  0.36647790538E+04 0.  0.
        4    1    3    3  502    0 -0.14611451841E+04  0.18088495358E+03 -0.95542769502E+03  0.17551376894E+04  0.12699999809E+01 0.  1.
       -4    1    3    3    0  502  0.14611451841E+04 -0.18088495358E+03  0.12325288847E+04  0.19201025181E+04  0.12699999809E+01 0. -1.
</event>
<event>
 5   0  0.5679750E-07  0.3744110E+04  0.7818609E-02  0.8058256E-01
        1   -1    0    0  501    0  0.00000000000E+00  0.00000000000E+00  0.10965121201E+04  0.10965121201E+04  0.50400001928E-02 0.  1.
       -1   -1    0    0    0  501  0.00000000000E+00  0.00000000000E+00 -0.31961251189E+04  0.31961251189E+04  0.50400001928E-02 0. -1.
    10030    2    1    2    0    0  0.00000000000E+00  0.00000000000E+00 -0.20996129987E+04  0.42926372390E+04  0.37441100039E+04 0.  0.
        4    1    3    3  502    0  0.12189810734E+04  0.79480737866E+03 -0.24000333050E+04  0.28067410113E+04  0.12699999809E+01 0. -1.
       -4    1    3    3    0  502 -0.12189810734E+04 -0.79480737866E+03  0.30042030621E+03  0.14858962278E+04  0.12699999809E+01 0.  1.
</event>
<event>
 5   0  0.1685793E-06  0.3677864E+04  0.7818609E-02  0.8072885E-01
        2   -1    0    0  501    0  0.00000000000E+00  0.00000000000E+00  0.24878321087E+04  0.24878321087E+04  0.25500000920E-02 0. -1.
       -2   -1    0    0    0  501  0.00000000000E+00  0.00000000000E+00 -0.13592843352E+04  0.13592843352E+04  0.25500000920E-02 0.  1.
    10030    2    1    2    0    0  0.00000000000E+00  0.00000000000E+00  0.11285477735E+04  0.38471164439E+04  0.36778641704E+04 0.  0.
        3    1    3    3  502    0  0.10135820810E+02 -0.16608520303E+04 -0.26144479958E+03  0.16813344685E+04  0.10100000352E+00 0.  1.
       -3    1    3    3    0  502 -0.10135820810E+02  0.16608520303E+04  0.13899925731E+04  0.21657819754E+04  0.10100000352E+00 0. -1.
</event>
<event>
 5   0  0.1151180E-06  0.3637473E+04  0.7818609E-02  0.8081962E-01
       -2   -1    0    0    0  501  0.00000000000E+00  0.00000000000E+00  0.25653724409E+04  0.25653724409E+04  0.25500000920E-02 0.  1.
        2   -1    0    0  501    0  0.00000000000E+00  0.00000000000E+00 -0.12894043894E+04  0.12894043894E+04  0.25500000920E-02 0. -1.
    10030    2    1    2    0    0  0.00000000000E+00  0.00000000000E+00  0.12759680515E+04  0.38547768303E+04  0.36374730161E+04 0.  0.
        5    1    3    3  502    0 -0.17073578212E+04  0.61759880148E+03  0.75054314920E+03  0.19646465631E+04  0.46999998093E+01 0. -1.
       -5    1    3    3    0  502  0.17073578212E+04 -0.61759880148E+03  0.52542490228E+03  0.18901302672E+04  0.46999998093E+01 0.  1.
</event>
<event>
 5   0  0.1151180E-06  0.3650100E+04  0.7818609E-02  0.8079111E-01
        2   -1    0    0  501    0  0.00000000000E+00  0.00000000000E+00  0.18433977303E+04  0.18433977303E+04  0.25500000920E-02 0. -1.
       -2   -1    0    0    0  501  0.00000000000E+00  0.00000000000E+00 -0.18068847478E+04  0.18068847478E+04  0.25500000920E-02 0.  1.
    10030    2    1    2    0    0  0.00000000000E+00  0.00000000000E+00  0.36512982538E+02  0.36502824781E+04  0.36500998578E+04 0.  0.
        5    1    3    3  502    0 -0.11135072886E+04 -0.11244278693E+04  0.92744918100E+03  0.18342356960E+04  0.46999998093E+01 0.  1.
       -5    1    3    3    0  502  0.11135072886E+04  0.11244278693E+04 -0.89093619847E+03  0.18160467821E+04  0.46999998093E+01 0. -1.
</event>
<event>
 5   0  0.6287345E-07  0.3686979E+04  0.7818609E-02  0.8070854E-01
        1   -1    0    0  501    0  0.00000000000E+00  0.00000000000E+00  0.23693933997E+04  0.23693933997E+04  0.50400001928E-02 0. -1.
       -1   -1    0    0    0  501  0.00000000000E+00  0.00000000000E+00 -0.14343135056E+04  0.14343135057E+04  0.50400001928E-02 0.  1.
    10030    2    1    2    0    0  0.00000000000E+00  0.00000000000E+00  0.93507989402E+03  0.38037069053E+04  0.36869786836E+04 0.  0.
        5    1    3    3  502    0  0.11789849535E+04 -0.14133167154E+04  0.35952954912E+03  0.18753008412E+04  0.46999998093E+01 0. -1.
       -5    1    3    3    0  502 -0.11789849535E+04  0.14133167154E+04  0.57555034489E+03  0.19284060641E+04  0.46999998093E+01 0.  1.
</event>
<event>
 5   0  0.1680194E-06  0.2451637E+04  0.7818609E-02  0.8420421E-01
       -2   -1    0    0    0  501  0.00000000000E+00  0.00000000000E+00  0.12921458812E+04  0.12921458812E+04  0.25500000920E-02 0. -1.
        2   -1    0    0  501    0  0.00000000000E+00  0.00000000000E+00 -0.11628953308E+04  0.11628953308E+04  0.25500000920E-02 0.  1.
    10030    2    1    2    0    0  0.00000000000E+00  0.00000000000E+00  0.12925055036E+03  0.24550412120E+04  0.24516365244E+04 0.  0.
        2    1    3    3  502    0 -0.59764645082E+03 -0.10500447565E+04 -0.14267704796E+03  0.12166067609E+04  0.25500000920E-02 0.  1.
       -2    1    3    3    0  502  0.59764645082E+03  0.10500447565E+04  0.27192759831E+03  0.12384344510E+04  0.25500000920E-02 0. -1.
</event>
<event>
 5   0  0.5875011E-07  0.3694649E+04  0.7818609E-02  0.8069149E-01
       -1   -1    0    0    0  501  0.00000000000E+00  0.00000000000E+00  0.12017570937E+04  0.12017570937E+04  0.50400001928E-02 0.  1.
        1   -1    0    0  501    0  0.00000000000E+00  0.00000000000E+00 -0.28396812684E+04  0.28396812684E+04  0.50400001928E-02 0. -1.
    10030    2    1    2    0    0  0.00000000000E+00  0.00000000000E+00 -0.16379241747E+04  0.40414383621E+04  0.36946486210E+04 0.  0.
        2    1    3    3  502    0 -0.13108032408E+04 -0.89761430928E+03 -0.18501506632E+04  0.24386418476E+04  0.25500000920E-02 0. -1.
       -2    1    3    3    0  502  0.13108032408E+04  0.89761430928E+03  0.21222648859E+03  0.16027965144E+04  0.25500000920E-02 0.  1.
</event>
<event>
 5   0  0.1184684E-06  0.3701505E+04  0.7818609E-02  0.8067628E-01
        2   -1    0    0  501    0  0.00000000000E+00  0.00000000000E+00  0.13259678525E+04  0.13259678525E+04  0.25500000920E-02 0. -1.
       -2   -1    0    0    0  501  0.00000000000E+00  0.00000000000E+00 -0.25832339298E+04  0.25832339298E+04  0.25500000920E-02 0.  1.
    10030    2    1    2    0    0  0.00000000000E+00  0.00000000000E+00 -0.12572660773E+04  0.39092017823E+04  0.37015051784E+04 0.  0.
        4    1    3    3  502    0 -0.27376871294E+02  0.18136976560E+04 -0.10167232287E+04  0.20794173263E+04  0.12699999809E+01 0. -1.
       -4    1    3    3    0  502  0.27376871294E+02 -0.18136976560E+04 -0.24054284865E+03  0.18297844560E+04  0.12699999809E+01 0.  1.
</event>
<event>
 5   0  0.1685793E-06  0.3680077E+04  0.7818609E-02  0.8072391E-01
       -2   -1    0    0    0  501  0.00000000000E+00  0.00000000000E+00  0.16965209519E+04  0.16965209519E+04  0.25500000920E-02 0.  1.
        2   -1    0    0  501    0  0.00000000000E+00  0.00000000000E+00 -0.19956974749E+04  0.19956974749E+04  0.25500000920E-02 0. -1.
    10030    2    1    2    0    0  0.00000000000E+00  0.00000000000E+00 -0.29917652296E+03  0.36922184268E+04  0.36800774882E+04 0.  0.
        3    1    3    3  502    0  0.13032197739E+04  0.10751491446E+04  0.58179896359E+03  0.17868456863E+04  0.10100000352E+00 0.  1.
       -3    1    3    3    0  502 -0.13032197739E+04 -0.10751491446E+04 -0.88097548654E+03  0.19053727405E+04  0.10100000352E+00 0. -1.
</event>
<event>
 5   0  0.1184684E-06  0.3746575E+04  0.7818609E-02  0.8057718E-01
        2   -1    0    0  501    0  0.00000000000E+00  0.00000000000E+00  0.31846419327E+04  0.31846419327E+04  0.25500000920E-02 0.  1.
       -2   -1    0    0    0  501  0.00000000000E+00  0.00000000000E+00 -0.11019154659E+04  0.11019154659E+04  0.25500000920E-02 0. -1.
    10030    2    1    2    0    0  0.00000000000E+00  0.00000000000E+00  0.20827264668E+04  0.42865573985E+04  0.37465750754E+04 0.  0.
        4    1    3    3  502    0  0.59159310712E+03 -0.17773989273E+04  0.10512871678E+04  0.21481004802E+04  0.12699999809E+01 0.  1.
       -4    1    3    3    0  502 -0.59159310712E+03  0.17773989273E+04  0.10314392990E+04  0.21384569183E+04  0.12699999809E+01 0. -1.
</event>
<event>
 5   0  0.1685793E-06  0.2324648E+04  0.7818609E-02  0.8468266E-01
       -2   -1    0    0    0  501  0.00000000000E+00  0.00000000000E+00  0.87140860808E+03  0.87140860809E+03  0.25500000920E-02 0.  1.
        2   -1    0    0  501    0  0.00000000000E+00  0.00000000000E+00 -0.15503606947E+04  0.15503606947E+04  0.25500000920E-02 0. -1.
    10030    2    1    2    0    0  0.00000000000E+00  0.00000000000E+00 -0.67895208663E+03  0.24217693028E+04  0.23246484939E+04 0.  0.
        3    1    3    3  502    0  0.51269270527E+03 -0.60792486788E+03 -0.12225770444E+04  0.14584653217E+04  0.10100000352E+00 0. -1.
       -3    1    3    3    0  502 -0.51269270527E+03  0.60792486788E+03  0.54362495777E+03  0.96330398106E+03  0.10100000352E+00 0.  1.
</event>
<event>
 5   0  0.1685793E-06  0.3539002E+04  0.7818609E-02  0.8104609E-01
        2   -1    0    0  501    0  0.00000000000E+00  0.00000000000E+00  0.21356073787E+04  0.21356073787E+04  0.25500000920E-02 0. -1.
       -2   -1    0    0    0  501  0.00000000000E+00  0.00000000000E+00 -0.14661557409E+04  0.14661557409E+04  0.25500000920E-02 0.  1.
    10030    2    1    2    0    0  0.00000000000E+00  0.00000000000E+00  0.66945163777E+03  0.36017631196E+04  0.35390015646E+04 0.  0.
        3    1    3    3  502    0  0.80550614177E+03 -0.15729703418E+04  0.24337223447E+03  0.17839018738E+04  0.10100000352E+00 0. -1.
       -3    1    3    3    0  502 -0.80550614177E+03  0.15729703418E+04  0.42607940329E+03  0.18178612458E+04  0.10100000352E+00 0.  1.
</event>
<event>
 5   0  0.5875011E-07  0.1878515E+04  0.7818609E-02  0.8665626E-01
        1   -1    0    0  501    0  0.00000000000E+00  0.00000000000E+00  0.14740405564E+04  0.14740405564E+04  0.50400001928E-02 0.  1.
       -1   -1    0    0    0  501  0.00000000000E+00  0.00000000000E+00 -0.59849393705E+03  0.59849393707E+03  0.50400001928E-02 0. -1.
    10030    2    1    2    0    0  0.00000000000E+00  0.00000000000E+00  0.87554661930E+03  0.20725344934E+04  0.18785146643E+04 0.  0.
        2    1    3    3  502    0 -0.54802995465E+03 -0.51178180471E+03 -0.18628636964E+03  0.77263190352E+03  0.25500000920E-02 0. -1.
       -2    1    3    3    0  502  0.54802995465E+03  0.51178180471E+03  0.10618329889E+04  0.12999025899E+04  0.25500000920E-02 0.  1.
</event>
<event>
 5   0  0.6261598E-07  0.2536322E+04  0.7818609E-02  0.8390159E-01
        1   -1    0    0  501    0  0.00000000000E+00  0.00000000000E+00  0.16699707307E+04  0.16699707307E+04  0.50400001928E-02 0.  1.
       -1   -1    0    0    0  501  0.00000000000E+00  0.00000000000E+00 -0.96303045220E+03  0.96303045221E+03  0.50400001928E-02 0. -1.
    10030    2    1    2    0    0  0.00000000000E+00  0.00000000000E+00  0.70694027851E+03  0.26330011829E+04  0.25363222729E+04 0.  0.
        1    1    3    3  502    0  0.18237263424E+02 -0.31509705413E+03  0.16285449713E+04  0.16588482375E+04  0.50400001928E-02 0.  1.
       -1    1    3    3    0  502 -0.18237263424E+02  0.31509705413E+03 -0.92160469281E+03  0.97415294546E+03  0.50400001928E-02 0. -1.
</event>
<event>
 5   0  0.6186440E-07  0.3614640E+04  0.7818609E-02  0.8087146E-01
        1   -1    0    0  501    0  0.00000000000E+00  0.00000000000E+00  0.21756237209E+04  0.21756237209E+04  0.50400001928E-02 0.  1.
       -1   -1    0    0    0  501  0.00000000000E+00  0.00000000000E+00 -0.15013649373E+04  0.15013649373E+04  0.50400001928E-02 0. -1.
    10030    2    1    2    0    0  0.00000000000E+00  0.00000000000E+00  0.67425878366E+03  0.36769886582E+04  0.36146397726E+04 0.  0.
        3    1    3    3  502    0 -0.71769711963E+03 -0.16579825768E+04  0.28719313104E+03  0.18293373897E+04  0.10100000352E+00 0.  1.
       -3    1    3    3    0  502  0.71769711963E+03  0.16579825768E+04  0.38706565262E+03  0.18476512685E+04  0.10100000352E+00 0. -1.
</event>
<event>
 5   0  0.1724503E-06  0.2332024E+04  0.7818609E-02  0.8465400E-01
        2   -1    0    0  501    0  0.00000000000E+00  0.00000000000E+00  0.27339716218E+04  0.27339716218E+04  0.25500000920E-02 0. -1.
       -2   -1    0    0    0  501  0.00000000000E+00  0.00000000000E+00 -0.49729278879E+03  0.49729278879E+03  0.25500000920E-02 0.  1.
    10030    2    1    2    0    0  0.00000000000E+00  0.00000000000E+00  0.22366788330E+04  0.32312644106E+04  0.23320243329E+04 0.  0.
        1    1    3    3  502    0  0.62019788441E+03  0.43109702837E+03 -0.11250702708E+03  0.76364120820E+03  0.50400001928E-02 0.  1.
       -1    1    3    3    0  502 -0.62019788441E+03 -0.43109702837E+03  0.23491858601E+04  0.24676232024E+04  0.50400001928E-02 0. -1.
</event>
<event>
 5   0  0.1151180E-06  0.3702284E+04  0.7818609E-02  0.8067456E-01
       -2   -1    0    0    0  501  0.00000000000E+00  0.00000000000E+00  0.34498372391E+04  0.34498372391E+04  0.25500000920E-02 0.  1.
        2   -1    0    0  501    0  0.00000000000E+00  0.00000000000E+00 -0.99330102982E+03  0.99330102982E+03  0.25500000920E-02 0. -1.
    10030    2    1    2    0    0  0.00000000000E+00  0.00000000000E+00  0.24565362093E+04  0.44431382689E+04  0.37022840962E+04 0.  0.
        5    1    3    3  502    0 -0.37216775609E+03 -0.20732442690E+03 -0.93366205213E+03  0.10262744147E+04  0.46999998093E+01 0. -1.
       -5    1    3    3    0  502  0.37216775609E+03  0.20732442690E+03  0.33901982614E+04  0.34168638542E+04  0.46999998093E+01 0.  1.
</event>
<event>
 5   0  0.6186440E-07  0.2479931E+04  0.7818609E-02  0.8410170E-01
        1   -1    0    0  501    0  0.00000000000E+00  0.00000000000E+00  0.14907377415E+04  0.14907377415E+04  0.50400001928E-02 0. -1.
       -1   -1    0    0    0  501  0.00000000000E+00  0.00000000000E+00 -0.10313785139E+04  0.10313785139E+04  0.50400001928E-02 0.  1.
    10030    2    1    2    0    0  0.00000000000E+00  0.00000000000E+00  0.45935922763E+03  0.25221162554E+04  0.24799313510E+04 0.  0.
        3    1    3    3  502    0 -0.69826986468E+03  0.26863927869E+03 -0.77596175418E+03  0.10778981956E+04  0.10100000352E+00 0.  1.
       -3    1    3    3    0  502  0.69826986468E+03 -0.26863927869E+03  0.12353209818E+04  0.14442180598E+04  0.10100000352E+00 0. -1.
</event>
<event>
 5   0  0.5679750E-07  0.3854685E+04  0.7818609E-02  0.8034520E-01
       -1   -1    0    0    0  501  0.00000000000E+00  0.00000000000E+00  0.15779474208E+04  0.15779474208E+04  0.50400001928E-02 0.  1.
        1   -1    0    0  501    0  0.00000000000E+00  0.00000000000E+00 -0.23541018367E+04  0.23541018367E+04  0.50400001928E-02 0. -1.
    10030    2    1    2    0    0  0.00000000000E+00  0.00000000000E+00 -0.77615441586E+03  0.39320492576E+04  0.38546849011E+04 0.  0.
        4    1    3    3  502    0 -0.16359746762E+04  0.85530027411E+03  0.17683875378E+03  0.18545148308E+04  0.12699999809E+01 0.  1.
       -4    1    3    3    0  502  0.16359746762E+04 -0.85530027411E+03 -0.95299316964E+03  0.20775344267E+04  0.12699999809E+01 0. -1.
</event>
<event>
 5   0  0.6287345E-07  0.2088713E+04  0.7818609E-02  0.8566232E-01
        1   -1    0    0  501    0  0.00000000000E+00  0.00000000000E+00  0.96090133573E+03  0.96090133574E+03  0.50400001928E-02 0.  1.
       -1   -1    0    0    0  501  0.00000000000E+00  0.00000000000E+00 -0.11350602315E+04  0.11350602316E+04  0.50400001928E-02 0. -1.
    10030    2    1    2    0    0  0.00000000000E+00  0.00000000000E+00 -0.17415889582E+03  0.20959615673E+04  0.20887133768E+04 0.  0.
        5    1    3    3  502    0 -0.10005233281E+04 -0.50946273452E+02  0.20892953955E+03  0.10233846273E+04  0.46999998093E+01 0.  1.
       -5    1    3    3    0  502  0.10005233281E+04  0.50946273452E+02 -0.38308843537E+03  0.10725769400E+04  0.46999998093E+01 0. -1.
</event>
<event>
 5   0  0.1680194E-06  0.2256827E+04  0.7818609E-02  0.8495141E-01
        2   -1    0    0  501    0  0.00000000000E+00  0.00000000000E+00  0.14988441876E+04  0.14988441876E+04  0.25500000920E-02 0. -1.
       -2   -1    0    0    0  501  0.00000000000E+00  0.00000000000E+00 -0.84953231799E+03  0.84953231799E+03  0.25500000920E-02 0.  1.
    10030    2    1    2    0    0  0.00000000000E+00  0.00000000000E+00  0.64931186957E+03  0.23483765056E+04  0.22568266012E+04 0.  0.
        2    1    3    3  502    0  0.13296991034E+03 -0.91818905644E+03 -0.34371172706E+03  0.98938864545E+03  0.25500000920E-02 0.  1.
       -2    1    3    3    0  502 -0.13296991034E+03  0.91818905644E+03  0.99302359663E+03  0.13589878601E+04  0.25500000920E-02 0. -1.
</event>
<event>
 5   0  0.5679750E-07  0.3681846E+04  0.7818609E-02  0.8071997E-01
        1   -1    0    0  501    0  0.00000000000E+00  0.00000000000E+00  0.15682673276E+04  0.15682673276E+04  0.50400001928E-02 0. -1.
       -1   -1    0    0    0  501  0.00000000000E+00  0.00000000000E+00 -0.21609821037E+04  0.21609821037E+04  0.50400001928E-02 0.  1.
    10030    2    1    2    0    0  0.00000000000E+00  0.00000000000E+00 -0.59271477614E+03  0.37292494313E+04  0.36818460744E+04 0.  0.
        4    1    3    3  502    0 -0.59019761795E+03  0.17377445745E+04 -0.14990471039E+03  0.18413480034E+04  0.12699999809E+01 0.  1.
       -4    1    3    3    0  502  0.59019761795E+03 -0.17377445745E+04 -0.44281006575E+03  0.18879014280E+04  0.12699999809E+01 0. -1.
</event>
<event>
 5   0  0.1184684E-06  0.3685493E+04  0.7818609E-02  0.8071184E-01
       -2   -1    0    0    0  501  0.00000000000E+00  0.00000000000E+00  0.15377592972E+04  0.15377592972E+04  0.25500000920E-02 0.  1.
        2   -1    0    0  501    0  0.00000000000E+00  0.00000000000E+00 -0.22082219085E+04  0.22082219085E+04  0.25500000920E-02 0. -1.
    10030    2    1    2    0    0  0.00000000000E+00  0.00000000000E+00 -0.67046261130E+03  0.37459812057E+04  0.36854925153E+04 0.  0.
        4    1    3    3  502    0 -0.40684775158E+03 -0.52404484897E+03  0.14121603159E+04  0.15602392340E+04  0.12699999809E+01 0.  1.
       -4    1    3    3    0  502  0.40684775158E+03  0.52404484897E+03 -0.20826229272E+04  0.21857419716E+04  0.12699999809E+01 0. -1.
</event>
<event>
 5   0  0.1724503E-06  0.3824847E+04  0.7818609E-02  0.8040844E-01
       -2   -1    0    0    0  501  0.00000000000E+00  0.00000000000E+00  0.15312575699E+04  0.15312575699E+04  0.25500000920E-02 0. -1.
        2   -1    0    0  501    0  0.00000000000E+00  0.00000000000E+00 -0.23884704358E+04  0.23884704358E+04  0.25500000920E-02 0.  1.
    10030    2    1    2    0    0  0.00000000000E+00  0.00000000000E+00 -0.85721286594E+03  0.39197280057E+04  0.38248468912E+04 0.  0.
        1    1    3    3  502    0  0.85414738272E+03  0.16900125203E+04 -0.70292813850E+03  0.20198559449E+04  0.50400001928E-02 0.  1.
       -1    1    3    3    0  502 -0.85414738272E+03 -0.16900125203E+04 -0.15428472744E+03  0.18998720608E+04  0.50400001928E-02 0. -1.
</event>
<event>
 5   0  0.1151180E-06  0.2563192E+04  0.7818609E-02  0.8380813E-01
        2   -1    0    0  501    0  0.00000000000E+00  0.00000000000E+00  0.24361566086E+04  0.24361566087E+04  0.25500000920E-02 0. -1.
       -2   -1    0    0    0  501  0.00000000000E+00  0.00000000000E+00 -0.67421289264E+03  0.67421289265E+03  0.25500000920E-02 0.  1.
    10030    2    1    2    0    0  0.00000000000E+00  0.00000000000E+00  0.17619437160E+04  0.31103695013E+04  0.25631919117E+04 0.  0.
        5    1    3    3  502    0  0.42364179453E+03  0.87295617068E+03  0.18969203094E+04  0.21306932197E+04  0.46999998093E+01 0. -1.
       -5    1    3    3    0  502 -0.42364179453E+03 -0.87295617068E+03 -0.13497659343E+03  0.97967628163E+03  0.46999998093E+01 0.  1.
</event>
<event>
 5   0  0.5679750E-07  0.1920291E+04  0.7818609E-02  0.8644821E-01
       -1   -1    0    0    0  501  0.00000000000E+00  0.00000000000E+00  0.92035683386E+03  0.92035683387E+03  0.50400001928E-02 0. -1.
        1   -1    0    0  501    0  0.00000000000E+00  0.00000000000E+00 -0.10016547609E+04  0.10016547609E+04  0.50400001928E-02 0.  1.
    10030    2    1    2    0    0  0.00000000000E+00  0.00000000000E+00 -0.81297927006E+02  0.19220115947E+04  0.19202914407E+04 0.  0.
        4    1    3    3  502    0 -0.76282132231E+03  0.42872053146E+03 -0.43619979327E+03  0.97773694643E+03  0.12699999809E+01 0.  1.
       -4    1    3    3    0  502  0.76282132231E+03 -0.42872053146E+03  0.35490186627E+03  0.94427464831E+03  0.12699999809E+01 0. -1.
</event>
<event>
 5   0  0.6287345E-07  0.3803024E+04  0.7818609E-02  0.8045506E-01
       -1   -1    0    0    0  501  0.00000000000E+00  0.00000000000E+00  0.16442136801E+04  0.16442136801E+04  0.50400001928E-02 0. -1.
        1   -1    0    0  501    0  0.00000000000E+00  0.00000000000E+00 -0.21990737040E+04  0.21990737041E+04  0.50400001928E-02 0.  1.
    10030    2    1    2    0    0  0.00000000000E+00  0.00000000000E+00 -0.55486002400E+03  0.38432873841E+04  0.38030235696E+04 0.  0.
        5    1    3    3  502    0  0.61975342992E+03  0.11128401968E+04 -0.17041908290E+04  0.21276268679E+04  0.46999998093E+01 0.  1.
       -5    1    3    3    0  502 -0.61975342992E+03 -0.11128401968E+04  0.11493308050E+04  0.17156605162E+04  0.46999998093E+01 0. -1.
</event>
<event>
 5   0  0.1184684E-06  0.3791102E+04  0.7818609E-02  0.8048067E-01
        2   -1    0    0  501    0  0.00000000000E+00  0.00000000000E+00  0.21903294356E+04  0.21903294356E+04  0.25500000920E-02 0. -1.
       -2   -1    0    0    0  501  0.00000000000E+00  0.00000000000E+00 -0.16404440152E+04  0.16404440152E+04  0.25500000920E-02 0.  1.
    10030    2    1    2    0    0  0.00000000000E+00  0.00000000000E+00  0.54988542046E+03  0.38307734508E+04  0.37911015887E+04 0.  0.
        4    1    3    3  502    0 -0.11651122322E+04 -0.99216707638E+03 -0.85534623157E+03  0.17531402710E+04  0.12699999809E+01 0.  1.
       -4    1    3    3    0  502  0.11651122322E+04  0.99216707638E+03  0.14052316520E+04  0.20776331798E+04  0.12699999809E+01 0. -1.
</event>
<event>
 5   0  0.6287345E-07  0.3656590E+04  0.7818609E-02  0.8077651E-01
        1   -1    0    0  501    0  0.00000000000E+00  0.00000000000E+00  0.13327055557E+04  0.13327055557E+04  0.50400001928E-02 0.  1.
       -1   -1    0    0    0  501  0.00000000000E+00  0.00000000000E+00 -0.25081776465E+04  0.25081776465E+04  0.50400001928E-02 0. -1.
    10030    2    1    2    0    0  0.00000000000E+00  0.00000000000E+00 -0.11754720908E+04  0.38408832022E+04  0.36565898234E+04 0.  0.
        5    1    3    3  502    0  0.13322898441E+04 -0.11362900653E+04 -0.11400597313E+04  0.20894759205E+04  0.46999998093E+01 0.  1.
       -5    1    3    3    0  502 -0.13322898441E+04  0.11362900653E+04 -0.35412359510E+02  0.17514072817E+04  0.46999998093E+01 0. -1.
</event>
<event>
 5   0  0.5875011E-07  0.3666097E+04  0.7818609E-02  0.8075517E-01
        1   -1    0    0  501    0  0.00000000000E+00  0.00000000000E+00  0.16168247075E+04  0.16168247075E+04  0.50400001928E-02 0.  1.
       -1   -1    0    0    0  501  0.00000000000E+00  0.00000000000E+00 -0.20781883605E+04  0.20781883605E+04  0.50400001928E-02 0. -1.
    10030    2    1    2    0    0  0.00000000000E+00  0.00000000000E+00 -0.46136365299E+03  0.36950130680E+04  0.36660967189E+04 0.  0.
        2    1    3    3  502    0  0.11834437059E+04  0.13726797592E+04  0.45849815442E+02  0.18129784698E+04  0.25500000920E-02 0. -1.
       -2    1    3    3    0  502 -0.11834437059E+04 -0.13726797592E+04 -0.50721346843E+03  0.18820345982E+04  0.25500000920E-02 0.  1.
</event>
<event>
 5   0  0.1184684E-06  0.2402463E+04  0.7818609E-02  0.8438582E-01
        2   -1    0    0  501    0  0.00000000000E+00  0.00000000000E+00  0.99566321996E+03  0.99566321996E+03  0.25500000920E-02 0.  1.
       -2   -1    0    0    0  501  0.00000000000E+00  0.00000000000E+00 -0.14492421614E+04  0.14492421614E+04  0.25500000920E-02 0. -1.
    10030    2    1    2    0    0  0.00000000000E+00  0.00000000000E+00 -0.45357894145E+03  0.24449053814E+04  0.24024630003E+04 0.  0.
        4    1    3    3  502    0  0.90880555439E+02  0.11228042637E+04 -0.65130000929E+03  0.13012079023E+04  0.12699999809E+01 0. -1.
       -4    1    3    3    0  502 -0.90880555439E+02 -0.11228042637E+04  0.19772106784E+03  0.11436974791E+04  0.12699999809E+01 0.  1.
</event>
<event>
 5   0  0.1151180E-06  0.3752369E+04  0.7818609E-02  0.8056454E-01
       -2   -1    0    0    0  501  0.00000000000E+00  0.00000000000E+00  0.13763495429E+04  0.13763495429E+04  0.25500000920E-02 0.  1.
        2   -1    0    0  501    0  0.00000000000E+00  0.00000000000E+00 -0.25575394213E+04  0.25575394213E+04  0.25500000920E-02 0. -1.
    10030    2    1    2    0    0  0.00000000000E+00  0.00000000000E+00 -0.11811898784E+04  0.39338889642E+04  0.37523689656E+04 0.  0.
        5    1    3    3  502    0 -0.52563753571E+03 -0.67607037881E+03 -0.23406838945E+04  0.24924263600E+04  0.46999998093E+01 0. -1.
       -5    1    3    3    0  502  0.52563753571E+03  0.67607037881E+03  0.11594940161E+04  0.14414626042E+04  0.46999998093E+01 0.  1.
</event>
<event>
 5   0  0.1184684E-06  0.2082826E+04  0.7818609E-02  0.8568846E-01
       -2   -1    0    0    0  501  0.00000000000E+00  0.00000000000E+00  0.19467977875E+04  0.19467977875E+04  0.25500000920E-02 0. -1.
        2   -1    0    0  501    0  0.00000000000E+00  0.00000000000E+00 -0.55708990629E+03  0.55708990629E+03  0.25500000920E-02 0.  1.
    10030    2    1    2    0    0  0.00000000000E+00  0.00000000000E+00  0.13897078812E+04  0.25038876938E+04  0.20828263461E+04 0.  0.
        4    1    3    3  502    0 -0.10176662388E+04  0.59681076603E+02  0.95081319222E+03  0.13940063644E+04  0.12699999809E+01 0. -1.
       -4    1    3    3    0  502  0.10176662388E+04 -0.59681076603E+02  0.43889468897E+03  0.11098813294E+04  0.12699999809E+01 0.  1.
</event>
<event>
 5   0  0.5679750E-07  0.2794861E+04  0.7818609E-02  0.8304866E-01
        1   -1    0    0  501    0  0.00000000000E+00  0.00000000000E+00  0.18617460276E+04  0.18617460276E+04  0.50400001928E-02 0. -1.
       -1   -1    0    0    0  501  0.00000000000E+00  0.00000000000E+00 -0.10489143812E+04  0.10489143812E+04  0.50400001928E-02 0.  1.
    10030    2    1    2    0    0  0.00000000000E+00  0.00000000000E+00  0.81283164643E+03  0.29106604088E+04  0.27948611290E+04 0.  0.
        4    1    3    3  502    0  0.82910532503E+02 -0.73558926781E+03  0.16407861859E+04  0.18000407351E+04  0.12699999809E+01 0. -1.
       -4    1    3    3    0  502 -0.82910532503E+02  0.73558926781E+03 -0.82795453948E+03  0.11106196737E+04  0.12699999809E+01 0.  1.
</event>
<event>
 5   0  0.5679750E-07  0.3680423E+04  0.7818609E-02  0.8072314E-01
        1   -1    0    0  501    0  0.00000000000E+00  0.00000000000E+00  0.25722537410E+04  0.25722537411E+04  0.50400001928E-02 0. -1.
       -1   -1    0    0    0  501  0.00000000000E+00  0.00000000000E+00 -0.13165021395E+04  0.13165021395E+04  0.50400001928E-02 0.  1.
    10030    2    1    2    0    0  0.00000000000E+00  0.00000000000E+00  0.12557516016E+04  0.38887558805E+04  0.36804225591E+04 0.  0.
        4    1    3    3  502    0  0.10809523354E+04  0.98154435881E+03  0.18113161349E+04  0.23265328352E+04  0.12699999809E+01 0. -1.
       -4    1    3    3    0  502 -0.10809523354E+04 -0.98154435881E+03 -0.55556453334E+03  0.15622230453E+04  0.12699999809E+01 0.  1.
</event>
<event>
 5   0  0.6261598E-07  0.3444040E+04  0.7818609E-02  0.8127181E-01
       -1   -1    0    0    0  501  0.00000000000E+00  0.00000000000E+00  0.17216369357E+04  0.17216369357E+04  0.50400001928E-02 0. -1.
        1   -1    0    0  501    0  0.00000000000E+00  0.00000000000E+00 -0.17224033823E+04  0.17224033823E+04  0.50400001928E-02 0.  1.
    10030    2    1    2    0    0  0.00000000000E+00  0.00000000000E+00 -0.76644659734E+00  0.34440403179E+04  0.34440402326E+04 0.  0.
        1    1    3    3  502    0  0.92541372123E+02 -0.54786175304E+03  0.16295361019E+04  0.17216574321E+04  0.50400001928E-02 0. -1.
       -1    1    3    3    0  502 -0.92541372123E+02  0.54786175304E+03 -0.16303025485E+04  0.17223828859E+04  0.50400001928E-02 0.  1.
</event>
<event>
 5   0  0.1724503E-06  0.3568086E+04  0.7818609E-02  0.8097841E-01
        2   -1    0    0  501    0  0.00000000000E+00  0.00000000000E+00  0.23433280464E+04  0.23433280464E+04  0.25500000920E-02 0. -1.
       -2   -1    0    0    0  501  0.00000000000E+00  0.00000000000E+00 -0.13582431246E+04  0.13582431246E+04  0.25500000920E-02 0.  1.
    10030    2    1    2    0    0  0.00000000000E+00  0.00000000000E+00  0.98508492186E+03  0.37015711710E+04  0.35680858778E+04 0.  0.
        1    1    3    3  502    0 -0.12926089025E+04  0.68810109716E+03  0.15497289696E+04  0.21321305715E+04  0.50400001928E-02 0. -1.
       -1    1    3    3    0  502  0.12926089025E+04 -0.68810109716E+03 -0.56464404773E+03  0.15694405995E+04  0.50400001928E-02 0.  1.
</event>
<event>
 5   0  0.1680194E-06  0.1868642E+04  0.7818609E-02  0.8670624E-01
       -2   -1    0    0    0  501  0.00000000000E+00  0.00000000000E+00  0.18798142107E+04  0.18798142107E+04  0.25500000920E-02 0.  1.
        2   -1    0    0  501    0  0.00000000000E+00  0.00000000000E+00 -0.46438427638E+03  0.46438427639E+03  0.25500000920E-02 0. -1.
    10030    2    1    2    0    0  0.00000000000E+00  0.00000000000E+00  0.14154299343E+04  0.23441984871E+04  0.18686424612E+04 0.  0.
        2    1    3    3  502    0  0.45058156046E+03 -0.16829751050E+03 -0.29713952354E+03  0.56536686419E+03  0.25500000920E-02 0. -1.
       -2    1    3    3    0  502 -0.45058156046E+03  0.16829751050E+03  0.17125694579E+04  0.17788316229E+04  0.25500000920E-02 0.  1.
</event>
<event>
 5   0  0.5875011E-07  0.2063145E+04  0.7818609E-02  0.8577654E-01
       -1   -1    0    0    0  501  0.00000000000E+00  0.00000000000E+00  0.88801534766E+03  0.88801534767E+03  0.50400001928E-02 0.  1.
        1   -1    0    0  501    0  0.00000000000E+00  0.00000000000E+00 -0.11983377697E+04  0.11983377697E+04  0.50400001928E-02 0. -1.
    10030    2    1    2    0    0  0.00000000000E+00  0.00000000000E+00 -0.31032242207E+03  0.20863531174E+04  0.20631454929E+04 0.  0.
        2    1    3    3  502    0 -0.90947289761E+02  0.32154365814E+03 -0.11420904791E+04  0.11899715947E+04  0.25500000920E-02 0. -1.
       -2    1    3    3    0  502  0.90947289761E+02 -0.32154365814E+03  0.83176805705E+03  0.89638152275E+03  0.25500000920E-02 0.  1.
</event>
<event>
 5   0  0.1184684E-06  0.3612765E+04  0.7818609E-02  0.8087574E-01
        2   -1    0    0  501    0  0.00000000000E+00  0.00000000000E+00  0.26818015250E+04  0.26818015250E+04  0.25500000920E-02 0. -1.
       -2   -1    0    0    0  501  0.00000000000E+00  0.00000000000E+00 -0.12167263348E+04  0.12167263348E+04  0.25500000920E-02 0.  1.
    10030    2    1    2    0    0  0.00000000000E+00  0.00000000000E+00  0.14650751902E+04  0.38985278598E+04  0.36127654450E+04 0.  0.
        4    1    3    3  502    0 -0.27370199095E+02 -0.90708692099E+03 -0.95288117361E+03  0.13158799162E+04  0.12699999809E+01 0.  1.
       -4    1    3    3    0  502  0.27370199095E+02  0.90708692099E+03  0.24179563639E+04  0.25826479436E+04  0.12699999809E+01 0. -1.
</event>
<event>
 5   0  0.1151180E-06  0.3628173E+04  0.7818609E-02  0.8084069E-01
       -2   -1    0    0    0  501  0.00000000000E+00  0.00000000000E+00  0.15547602568E+04  0.15547602568E+04  0.25500000920E-02 0.  1.
        2   -1    0    0  501    0  0.00000000000E+00  0.00000000000E+00 -0.21166674372E+04  0.21166674372E+04  0.25500000920E-02 0. -1.
    10030    2    1    2    0    0  0.00000000000E+00  0.00000000000E+00 -0.56190718050E+03  0.36714276940E+04  0.36281733190E+04 0.  0.
        5    1    3    3  502    0 -0.12311187946E+04 -0.59237070140E+03 -0.14886354337E+04  0.20205479650E+04  0.46999998093E+01 0. -1.
       -5    1    3    3    0  502  0.12311187946E+04  0.59237070140E+03  0.92672825321E+03  0.16508797290E+04  0.46999998093E+01 0.  1.
</event>
<event>
 5   0  0.5875011E-07  0.3681514E+04  0.7818609E-02  0.8072071E-01
       -1   -1    0    0    0  501  0.00000000000E+00  0.00000000000E+00  0.18015603405E+04  0.18015603405E+04  0.50400001928E-02 0. -1.
        1   -1    0    0  501    0  0.00000000000E+00  0.00000000000E+00 -0.18808066387E+04  0.18808066387E+04  0.50400001928E-02 0.  1.
    10030    2    1    2    0    0  0.00000000000E+00  0.00000000000E+00 -0.79246298223E+02  0.36823669792E+04  0.36815141714E+04 0.  0.
        2    1    3    3  502    0  0.96411354842E+03  0.15680789875E+04 -0.39680558345E+02  0.18411847251E+04  0.25500000920E-02 0. -1.
       -2    1    3    3    0  502 -0.96411354842E+03 -0.15680789875E+04 -0.39565739879E+02  0.18411822541E+04  0.25500000920E-02 0.  1.
</event>
<event>
 5   0  0.1184684E-06  0.3765333E+04  0.7818609E-02  0.8053635E-01
        2   -1    0    0  501    0  0.00000000000E+00  0.00000000000E+00  0.21243324755E+04  0.21243324756E+04  0.25500000920E-02 0.  1.
       -2   -1    0    0    0  501  0.00000000000E+00  0.00000000000E+00 -0.16684928310E+04  0.16684928311E+04  0.25500000920E-02 0. -1.
    10030    2    1    2    0    0  0.00000000000E+00  0.00000000000E+00  0.45583964450E+03  0.37928253066E+04  0.37653331891E+04 0.  0.
        4    1    3    3  502    0 -0.14132762029E+04  0.90840285030E+02  0.14774731449E+04  0.20465898685E+04  0.12699999809E+01 0.  1.
       -4    1    3    3    0  502  0.14132762029E+04 -0.90840285030E+02 -0.10216335004E+04  0.17462354381E+04  0.12699999809E+01 0. -1.
</event>
<event>
 5   0  0.5679750E-07  0.3729742E+04  0.7818609E-02  0.8061402E-01
        1   -1    0    0  501    0  0.00000000000E+00  0.00000000000E+00  0.18430292345E+04  0.18430292345E+04  0.50400001928E-02 0. -1.
       -1   -1    0    0    0  501  0.00000000000E+00  0.00000000000E+00 -0.18869714720E+04  0.18869714720E+04  0.50400001928E-02 0.  1.
    10030    2    1    2    0    0  0.00000000000E+00  0.00000000000E+00 -0.43942237512E+02  0.37300007065E+04  0.37297418610E+04 0.  0.
        4    1    3    3  502    0 -0.37130399971E+03  0.14174296048E+03 -0.18441250782E+04  0.18864667090E+04  0.12699999809E+01 0.  1.
       -4    1    3    3    0  502  0.37130399971E+03 -0.14174296048E+03  0.18001828407E+04  0.18435339975E+04  0.12699999809E+01 0. -1.
</event>
<event>
 5   0  0.1724503E-06  0.2623468E+04  0.7818609E-02  0.8360273E-01
       -2   -1    0    0    0  501  0.00000000000E+00  0.00000000000E+00  0.16349347839E+04  0.16349347839E+04  0.25500000920E-02 0. -1.
        2   -1    0    0  501    0  0.00000000000E+00  0.00000000000E+00 -0.10524251139E+04  0.10524251139E+04  0.25500000920E-02 0.  1.
    10030    2    1    2    0    0  0.00000000000E+00  0.00000000000E+00  0.58250967006E+03  0.26873598978E+04  0.26234682588E+04 0.  0.
        1    1    3    3  502    0 -0.38149362032E+03  0.11792708527E+04 -0.14865632214E+03  0.12483252094E+04  0.50400001928E-02 0.  1.
       -1    1    3    3    0  502  0.38149362032E+03 -0.11792708527E+04  0.73116599220E+03  0.14390346884E+04  0.50400001928E-02 0. -1.
</event>
<event>
 5   0  0.6287345E-07  0.3728687E+04  0.7818609E-02  0.8061634E-01
        1   -1    0    0  501    0  0.00000000000E+00  0.00000000000E+00  0.13765539939E+04  0.13765539939E+04  0.50400001928E-02 0.  1.
       -1   -1    0    0    0  501  0.00000000000E+00  0.00000000000E+00 -0.25249832760E+04  0.25249832760E+04  0.50400001928E-02 0. -1.
    10030    2    1    2    0    0  0.00000000000E+00  0.00000000000E+00 -0.11484292821E+04  0.39015372700E+04  0.37286865319E+04 0.  0.
        5    1    3    3  502    0  0.96136297046E+03  0.13076976841E+04  0.38562143717E+03  0.16682379857E+04  0.46999998093E+01 0. -1.
       -5    1    3    3    0  502 -0.96136297046E+03 -0.13076976841E+04 -0.15340507193E+04  0.22332992843E+04  0.46999998093E+01 0.  1.
</event>
<event>
 5   0  0.5875011E-07  0.3644962E+04  0.7818609E-02  0.8080270E-01
       -1   -1    0    0    0  501  0.00000000000E+00  0.00000000000E+00  0.13732502027E+04  0.13732502027E+04  0.50400001928E-02 0.  1.
        1   -1    0    0  501    0  0.00000000000E+00  0.00000000000E+00 -0.24186687609E+04  0.24186687609E+04  0.50400001928E-02 0. -1.
    10030    2    1    2    0    0  0.00000000000E+00  0.00000000000E+00 -0.10454185582E+04  0.37919189636E+04  0.36449622034E+04 0.  0.
        2    1    3    3  502    0 -0.95490952807E+03 -0.73220926931E+03 -0.19466359403E+04  0.22885309928E+04  0.25500000920E-02 0. -1.
       -2    1    3    3    0  502  0.95490952807E+03  0.73220926931E+03  0.90121738210E+03  0.15033879708E+04  0.25500000920E-02 0.  1.
</event>
<event>
 5   0  0.1680194E-06  0.3668917E+04  0.7818609E-02  0.8074885E-01
       -2   -1    0    0    0  501  0.00000000000E+00  0.00000000000E+00  0.14000410860E+04  0.14000410860E+04  0.25500000920E-02 0. -1.
        2   -1    0    0  501    0  0.00000000000E+00  0.00000000000E+00 -0.24036703169E+04  0.24036703169E+04  0.25500000920E-02 0.  1.
    10030    2    1    2    0    0  0.00000000000E+00  0.00000000000E+00 -0.10036292309E+04  0.38037114029E+04  0.36689165708E+04 0.  0.
        2    1    3    3  502    0  0.76644031654E+03 -0.10470190551E+04 -0.18462055914E+04  0.22565803212E+04  0.25500000920E-02 0.  1.
       -2    1    3    3    0  502 -0.76644031654E+03  0.10470190551E+04  0.84257636045E+03  0.15471310817E+04  0.25500000920E-02 0. -1.
</event>
<event>
 5   0  0.1680194E-06  0.3591238E+04  0.7818609E-02  0.8092502E-01
       -2   -1    0    0    0  501  0.00000000000E+00  0.00000000000E+00  0.16490608102E+04  0.16490608102E+04  0.25500000920E-02 0. -1.
        2   -1    0    0  501    0  0.00000000000E+00  0.00000000000E+00 -0.19552020302E+04  0.19552020302E+04  0.25500000920E-02 0.  1.
    10030    2    1    2    0    0  0.00000000000E+00  0.00000000000E+00 -0.30614121993E+03  0.36042628404E+04  0.35912376942E+04 0.  0.
        2    1    3    3  502    0 -0.12714000322E+04  0.80423733682E+03  0.83078651107E+03  0.17185639245E+04  0.25500000920E-02 0. -1.
       -2    1    3    3    0  502  0.12714000322E+04 -0.80423733682E+03 -0.11369277310E+04  0.18856989159E+04  0.25500000920E-02 0.  1.
</event>
<event>
 5   0  0.5875011E-07  0.2165266E+04  0.7818609E-02  0.8533026E-01
        1   -1    0    0  501    0  0.00000000000E+00  0.00000000000E+00  0.21319733916E+04  0.21319733916E+04  0.50400001928E-02 0.  1.
       -1   -1    0    0    0  501  0.00000000000E+00  0.00000000000E+00 -0.54976939341E+03  0.54976939343E+03  0.50400001928E-02 0. -1.
    10030    2    1    2    0    0  0.00000000000E+00  0.00000000000E+00  0.15822039982E+04  0.26817427850E+04  0.21652655434E+04 0.  0.
        2    1    3    3  502    0 -0.32035248497E+03 -0.10627329230E+03 -0.48294220760E+03  0.58919682889E+03  0.25500000920E-02 0. -1.
       -2    1    3    3    0  502  0.32035248497E+03  0.10627329230E+03  0.20651462058E+04  0.20925459562E+04  0.25500000920E-02 0.  1.
</event>
<event>
 5   0  0.6186440E-07  0.3491383E+04  0.7818609E-02  0.8115835E-01
        1   -1    0    0  501    0  0.00000000000E+00  0.00000000000E+00  0.19503576257E+04  0.19503576257E+04  0.50400001928E-02 0. -1.
       -1   -1    0    0    0  501  0.00000000000E+00  0.00000000000E+00 -0.15625030174E+04  0.15625030174E+04  0.50400001928E-02 0.  1.
    10030    2    1    2    0    0  0.00000000000E+00  0.00000000000E+00  0.38785460827E+03  0.35128606431E+04  0.34913834938E+04 0.  0.
        3    1    3    3  502    0 -0.21887930768E+03  0.98938146239E+03 -0.12363147438E+04  0.15985174336E+04  0.10100000352E+00 0.  1.
       -3    1    3    3    0  502  0.21887930768E+03 -0.98938146239E+03  0.16241693521E+04  0.19143432096E+04  0.10100000352E+00 0. -1.
</event>
<event>
 5   0  0.1151180E-06  0.3740480E+04  0.7818609E-02  0.8059050E-01
        2   -1    0    0  501    0  0.00000000000E+00  0.00000000000E+00  0.13243532491E+04  0.13243532491E+04  0.25500000920E-02 0.  1.
       -2   -1    0    0    0  501  0.00000000000E+00  0.00000000000E+00 -0.26411364288E+04  0.26411364288E+04  0.25500000920E-02 0. -1.
    10030    2    1    2    0    0  0.00000000000E+00  0.00000000000E+00 -0.13167831797E+04  0.39654896779E+04  0.37404799750E+04 0.  0.
        5    1    3    3  502    0  0.35666360899E+03 -0.10882500967E+04 -0.22259445178E+04  0.25032675225E+04  0.46999998093E+01 0. -1.
       -5    1    3    3    0  502 -0.35666360899E+03  0.10882500967E+04  0.90916133815E+03  0.14622221554E+04  0.46999998093E+01 0.  1.
</event>
<event>
 5   0  0.1685793E-06  0.3534050E+04  0.7818609E-02  0.8105768E-01
       -2   -1    0    0    0  501  0.00000000000E+00  0.00000000000E+00  0.11700466475E+04  0.11700466475E+04  0.25500000920E-02 0.  1.
        2   -1    0    0  501    0  0.00000000000E+00  0.00000000000E+00 -0.26685918106E+04  0.26685918106E+04  0.25500000920E-02 0. -1.
    10030    2    1    2    0    0  0.00000000000E+00  0.00000000000E+00 -0.14985451631E+04  0.38386384581E+04  0.35340497458E+04 0.  0.
        3    1    3    3  502    0 -0.15088153031E+04 -0.13919367171E+03  0.23818921869E+03  0.15338293944E+04  0.10100000352E+00 0.  1.
       -3    1    3    3    0  502  0.15088153031E+04  0.13919367171E+03 -0.17367343817E+04  0.23048090637E+04  0.10100000352E+00 0. -1.
</event>
<event>
 5   0  0.1151180E-06  0.3720757E+04  0.7818609E-02  0.8063377E-01
       -2   -1    0    0    0  501  0.00000000000E+00  0.00000000000E+00  0.13970179384E+04  0.13970179384E+04  0.25500000920E-02 0.  1.
        2   -1    0    0  501    0  0.00000000000E+00  0.00000000000E+00 -0.24774254784E+04  0.24774254784E+04  0.25500000920E-02 0. -1.
    10030    2    1    2    0    0  0.00000000000E+00  0.00000000000E+00 -0.10804075400E+04  0.38744434168E+04  0.37207568232E+04 0.  0.
        5    1    3    3  502    0  0.11273156966E+04  0.14050439081E+04 -0.56252565949E+02  0.18022695427E+04  0.46999998093E+01 0.  1.
       -5    1    3    3    0  502 -0.11273156966E+04 -0.14050439081E+04 -0.10241549740E+04  0.20721738741E+04  0.46999998093E+01 0. -1.
</event>
<event>
 5   0  0.5679750E-07  0.3758078E+04  0.7818609E-02  0.8055212E-01
        1   -1    0    0  501    0  0.00000000000E+00  0.00000000000E+00  0.23885747989E+04  0.23885747989E+04  0.50400001928E-02 0. -1.
       -1   -1    0    0    0  501  0.00000000000E+00  0.00000000000E+00 -0.14781983717E+04  0.14781983718E+04  0.50400001928E-02 0.  1.
    10030    2    1    2    0    0  0.00000000000E+00  0.00000000000E+00  0.91037642711E+03  0.38667731706E+04  0.37580779015E+04 0.  0.
        4    1    3    3  502    0 -0.91460135776E+03  0.12055743828E+04 -0.69097879443E+03  0.16635379597E+04  0.12699999809E+01 0. -1.
       -4    1    3    3    0  502  0.91460135776E+03 -0.12055743828E+04  0.16013552215E+04  0.22032352109E+04  0.12699999809E+01 0.  1.
</event>
<event>
 5   0  0.1724503E-06  0.3701306E+04  0.7818609E-02  0.8067673E-01
        2   -1    0    0  501    0  0.00000000000E+00  0.00000000000E+00  0.15665210242E+04  0.15665210242E+04  0.25500000920E-02 0. -1.
       -2   -1    0    0    0  501  0.00000000000E+00  0.00000000000E+00 -0.21863197112E+04  0.21863197112E+04  0.25500000920E-02 0.  1.
    10030    2    1    2    0    0  0.00000000000E+00  0.00000000000E+00 -0.61979868700E+03  0.37528407354E+04  0.37013056038E+04 0.  0.
        1    1    3    3  502    0 -0.49628415186E+03 -0.15336976182E+04 -0.12316162875E+04  0.20286461060E+04  0.50400001928E-02 0.  1.
       -1    1    3    3    0  502  0.49628415186E+03  0.15336976182E+04  0.61181760055E+03  0.17241946294E+04  0.50400001928E-02 0. -1.
</event>
<event>
 5   0  0.6186440E-07  0.2554712E+04  0.7818609E-02  0.8383749E-01
       -1   -1    0    0    0  501  0.00000000000E+00  0.00000000000E+00  0.15051892086E+04  0.15051892086E+04  0.50400001928E-02 0. -1.
        1   -1    0    0  501    0  0.00000000000E+00  0.00000000000E+00 -0.10840088236E+04  0.10840088236E+04  0.50400001928E-02 0.  1.
    10030    2    1    2    0    0  0.00000000000E+00  0.00000000000E+00  0.42118038502E+03  0.25891980322E+04  0.25547120255E+04 0.  0.
        3    1    3    3  502    0  0.60522348589E+03 -0.96389472320E+03 -0.37710802990E+03  0.11989991583E+04  0.10100000352E+00 0.  1.
       -3    1    3    3    0  502 -0.60522348589E+03  0.96389472320E+03  0.79828841493E+03  0.13901988739E+04  0.10100000352E+00 0. -1.
</event>
<event>
 5   0  0.6186440E-07  0.2488825E+04  0.7818609E-02  0.8406977E-01
        1   -1    0    0  501    0  0.00000000000E+00  0.00000000000E+00  0.12275967621E+04  0.12275967621E+04  0.50400001928E-02 0.  1.
       -1   -1    0    0    0  501  0.00000000000E+00  0.00000000000E+00 -0.12614590551E+04  0.12614590551E+04  0.50400001928E-02 0. -1.
    10030    2    1    2    0    0  0.00000000000E+00  0.00000000000E+00 -0.33862292981E+02  0.24890558172E+04  0.24888254673E+04 0.  0.
        3    1    3    3  502    0 -0.42512738222E+03 -0.75407517093E+03  0.87713167660E+03  0.12323646550E+04  0.10100000352E+00 0.  1.
       -3    1    3    3    0  502  0.42512738222E+03  0.75407517093E+03 -0.91099396958E+03  0.12566911623E+04  0.10100000352E+00 0. -1.
</event>
<event>
 5   0  0.1680194E-06  0.3705428E+04  0.7818609E-02  0.8066760E-01
       -2   -1    0    0    0  501  0.00000000000E+00  0.00000000000E+00  0.20516719504E+04  0.20516719504E+04  0.25500000920E-02 0.  1.
        2   -1    0    0  501    0  0.00000000000E+00  0.00000000000E+00 -0.16730500182E+04  0.16730500182E+04  0.25500000920E-02 0. -1.
    10030    2    1    2    0    0  0.00000000000E+00  0.00000000000E+00  0.37862193216E+03  0.37247219686E+04  0.37054283390E+04 0.  0.
        2    1    3    3  502    0  0.10236785492E+04 -0.14846788294E+04  0.61621131805E+03  0.19057558571E+04  0.25500000920E-02 0.  1.
       -2    1    3    3    0  502 -0.10236785492E+04  0.14846788294E+04 -0.23758938589E+03  0.18189661115E+04  0.25500000920E-02 0. -1.
</event>
<event>
 5   0  0.1680194E-06  0.3735953E+04  0.7818609E-02  0.8060041E-01
        2   -1    0    0  501    0  0.00000000000E+00  0.00000000000E+00  0.18194998232E+04  0.18194998232E+04  0.25500000920E-02 0. -1.
       -2   -1    0    0    0  501  0.00000000000E+00  0.00000000000E+00 -0.19177450014E+04  0.19177450014E+04  0.25500000920E-02 0.  1.
    10030    2    1    2    0    0  0.00000000000E+00  0.00000000000E+00 -0.98245178172E+02  0.37372448245E+04  0.37359532603E+04 0.  0.
        2    1    3    3  502    0  0.12604913344E+04  0.12601101848E+04 -0.60844074503E+03  0.18833258407E+04  0.25500000920E-02 0.  1.
       -2    1    3    3    0  502 -0.12604913344E+04 -0.12601101848E+04  0.51019556686E+03  0.18539189838E+04  0.25500000920E-02 0. -1.
</event>
<event>
 5   0  0.7457081E-07  0.2148637E+04  0.7818609E-02  0.8540116E-01
        1   -1    0    0  501    0  0.00000000000E+00  0.00000000000E+00  0.13778080935E+04  0.13778080935E+04  0.50400001928E-02 0.  1.
       -1   -1    0    0    0  501  0.00000000000E+00  0.00000000000E+00 -0.83767885834E+03  0.83767885836E+03  0.50400001928E-02 0. -1.
    10030    2    1    2    0    0  0.00000000000E+00  0.00000000000E+00  0.54012923511E+03  0.22154869518E+04  0.21486374387E+04 0.  0.
        1    1    3    3  502    0  0.24293737411E+02 -0.16233096495E+03  0.13648027434E+04  0.13746374272E+04  0.50400001928E-02 0.  1.
       -1    1    3    3    0  502 -0.24293737411E+02  0.16233096495E+03 -0.82467350826E+03  0.84084952465E+03  0.50400001928E-02 0. -1.
</event>
<event>
 5   0  0.1151180E-06  0.3532094E+04  0.7818609E-02  0.8106226E-01
        2   -1    0    0  501    0  0.00000000000E+00  0.00000000000E+00  0.13452935563E+04  0.13452935563E+04  0.25500000920E-02 0.  1.
       -2   -1    0    0    0  501  0.00000000000E+00  0.00000000000E+00 -0.23183956729E+04  0.23183956729E+04  0.25500000920E-02 0. -1.
    10030    2    1    2    0    0  0.00000000000E+00  0.00000000000E+00 -0.97310211657E+03  0.36636892291E+04  0.35320944266E+04 0.  0.
        5    1    3    3  502    0 -0.37105398992E+03 -0.12533335544E+04  0.74528684321E+03  0.15046596395E+04  0.46999998093E+01 0.  1.
       -5    1    3    3    0  502  0.37105398992E+03  0.12533335544E+04 -0.17183889598E+04  0.21590295897E+04  0.46999998093E+01 0. -1.
</event>
<event>
 5   0  0.5875011E-07  0.2571308E+04  0.7818609E-02  0.8378013E-01
       -1   -1    0    0    0  501  0.00000000000E+00  0.00000000000E+00  0.15327780002E+04  0.15327780002E+04  0.50400001928E-02 0.  1.
        1   -1    0    0  501    0  0.00000000000E+00  0.00000000000E+00 -0.10783726821E+04  0.10783726821E+04  0.50400001928E-02 0. -1.
    10030    2    1    2    0    0  0.00000000000E+00  0.00000000000E+00  0.45440531812E+03  0.26111506823E+04  0.25713077787E+04 0.  0.
        2    1    3    3  502    0 -0.23433876612E+03  0.11952459204E+03 -0.10507507877E+04  0.10831795804E+04  0.25500000920E-02 0. -1.
       -2    1    3    3    0  502  0.23433876612E+03 -0.11952459204E+03  0.15051561059E+04  0.15279711020E+04  0.25500000920E-02 0.  1.
</event>
<event>
 5   0  0.1680194E-06  0.3630257E+04  0.7818609E-02  0.8083596E-01
        2   -1    0    0  501    0  0.00000000000E+00  0.00000000000E+00  0.12847495834E+04  0.12847495834E+04  0.25500000920E-02 0. -1.
       -2   -1    0    0    0  501  0.00000000000E+00  0.00000000000E+00 -0.25644624483E+04  0.25644624483E+04  0.25500000920E-02 0.  1.
    10030    2    1    2    0    0  0.00000000000E+00  0.00000000000E+00 -0.12797128649E+04  0.38492120317E+04  0.36302573253E+04 0.  0.
        2    1    3    3  502    0  0.79524637170E+03  0.14796104066E+04  0.89396179313E+02  0.16821579664E+04  0.25500000920E-02 0. -1.
       -2    1    3    3    0  502 -0.79524637170E+03 -0.14796104066E+04 -0.13691090442E+04  0.21670540653E+04  0.25500000920E-02 0.  1.
</event>
<event>
 5   0  0.6261598E-07  0.3705676E+04  0.7818609E-02  0.8066705E-01
       -1   -1    0    0    0  501  0.00000000000E+00  0.00000000000E+00  0.17583217686E+04  0.17583217686E+04  0.50400001928E-02 0.  1.
        1   -1    0    0  501    0  0.00000000000E+00  0.00000000000E+00 -0.19524350540E+04  0.19524350540E+04  0.50400001928E-02 0. -1.
    10030    2    1    2    0    0  0.00000000000E+00  0.00000000000E+00 -0.19411328539E+03  0.37107568226E+04  0.37056762175E+04 0.  0.
        1    1    3    3  502    0 -0.57221642270E+03  0.43402850485E+03 -0.18073786330E+04  0.19448470121E+04  0.50400001928E-02 0. -1.
       -1    1    3    3    0  502  0.57221642270E+03 -0.43402850485E+03  0.16132653476E+04  0.17659098106E+04  0.50400001928E-02 0.  1.
</event>
<event>
 5   0  0.6186440E-07  0.3652247E+04  0.7818609E-02  0.8078628E-01
       -1   -1    0    0    0  501  0.00000000000E+00  0.00000000000E+00  0.11956335199E+04  0.11956335199E+04  0.50400001928E-02 0. -1.
        1   -1    0    0  501    0  0.00000000000E+00  0.00000000000E+00 -0.27890881241E+04  0.27890881241E+04  0.50400001928E-02 0.  1.
    10030    2    1    2    0    0  0.00000000000E+00  0.00000000000E+00 -0.15934546042E+04  0.39847216440E+04  0.36522471172E+04 0.  0.
        3    1    3    3  502    0 -0.11377979074E+04  0.13279310712E+04 -0.22277532760E+03  0.17628425525E+04  0.10100000352E+00 0. -1.
       -3    1    3    3    0  502  0.11377979074E+04 -0.13279310712E+04 -0.13706792766E+04  0.22218790916E+04  0.10100000352E+00 0.  1.
</event>
<event>
 5   0  0.1151180E-06  0.3740807E+04  0.7818609E-02  0.8058978E-01
       -2   -1    0    0    0  501  0.00000000000E+00  0.00000000000E+00  0.12165894203E+04  0.12165894203E+04  0.25500000920E-02 0. -1.
        2   -1    0    0  501    0  0.00000000000E+00  0.00000000000E+00 -0.28755871768E+04  0.28755871768E+04  0.25500000920E-02 0.  1.
    10030    2    1    2    0    0  0.00000000000E+00  0.00000000000E+00 -0.16589977565E+04  0.40921765970E+04  0.37408068308E+04 0.  0.
        5    1    3    3  502    0 -0.10040453541E+04 -0.70143681339E+03 -0.23758772000E+04  0.26730011665E+04  0.46999998093E+01 0.  1.
       -5    1    3    3    0  502  0.10040453541E+04  0.70143681339E+03  0.71687944352E+03  0.14191754306E+04  0.46999998093E+01 0. -1.
</event>
<event>
 5   0  0.6186440E-07  0.3641750E+04  0.7818609E-02  0.8080995E-01
        1   -1    0    0  501    0  0.00000000000E+00  0.00000000000E+00  0.15966103563E+04  0.15966103563E+04  0.50400001928E-02 0. -1.
       -1   -1    0    0    0  501  0.00000000000E+00  0.00000000000E+00 -0.20766409502E+04  0.20766409502E+04  0.50400001928E-02 0.  1.
    10030    2    1    2    0    0  0.00000000000E+00  0.00000000000E+00 -0.48003059390E+03  0.36732513065E+04  0.36417503744E+04 0.  0.
        3    1    3    3  502    0 -0.10547364350E+04  0.52349310363E+03 -0.16409398234E+04  0.20197023274E+04  0.10100000352E+00 0.  1.
       -3    1    3    3    0  502  0.10547364350E+04 -0.52349310363E+03  0.11609092295E+04  0.16535489791E+04  0.10100000352E+00 0. -1.
</event>
<event>
 5   0  0.1680194E-06  0.3564140E+04  0.7818609E-02  0.8098756E-01
        2   -1    0    0  501    0  0.00000000000E+00  0.00000000000E+00  0.29206619862E+04  0.29206619862E+04  0.25500000920E-02 0. -1.
       -2   -1    0    0    0  501  0.00000000000E+00  0.00000000000E+00 -0.10873470042E+04  0.10873470042E+04  0.25500000920E-02 0.  1.
    10030    2    1    2    0    0  0.00000000000E+00  0.00000000000E+00  0.18333149819E+04  0.40080089904E+04  0.35641397621E+04 0.  0.
        2    1    3    3  502    0  0.25511230101E+03  0.51909455797E+03  0.28121727304E+04  0.28710376020E+04  0.25500000920E-02 0. -1.
       -2    1    3    3    0  502 -0.25511230101E+03 -0.51909455797E+03 -0.97885774850E+03  0.11369713884E+04  0.25500000920E-02 0.  1.
</event>
<event>
 5   0  0.1680194E-06  0.3569322E+04  0.7818609E-02  0.8097555E-01
       -2   -1    0    0    0  501  0.00000000000E+00  0.00000000000E+00  0.26364344458E+04  0.26364344458E+04  0.25500000920E-02 0. -1.
        2   -1    0    0  501    0  0.00000000000E+00  0.00000000000E+00 -0.12080769370E+04  0.12080769370E+04  0.25500000920E-02 0.  1.
    10030    2    1    2    0    0  0.00000000000E+00  0.00000000000E+00  0.14283575088E+04  0.38445113828E+04  0.35693224287E+04 0.  0.
        2    1    3    3  502    0  0.11976488282E+04 -0.10404261893E+04  0.15946144604E+04  0.22493653879E+04  0.25500000920E-02 0. -1.
       -2    1    3    3    0  502 -0.11976488282E+04  0.10404261893E+04 -0.16625695152E+03  0.15951459949E+04  0.25500000920E-02 0.  1.
</event>
<event>
 5   0  0.5875011E-07  0.3726954E+04  0.7818609E-02  0.8062015E-01
       -1   -1    0    0    0  501  0.00000000000E+00  0.00000000000E+00  0.15462018912E+04  0.15462018912E+04  0.50400001928E-02 0.  1.
        1   -1    0    0  501    0  0.00000000000E+00  0.00000000000E+00 -0.22458560674E+04  0.22458560674E+04  0.50400001928E-02 0. -1.
    10030    2    1    2    0    0  0.00000000000E+00  0.00000000000E+00 -0.69965417615E+03  0.37920579586E+04  0.37269541982E+04 0.  0.
        2    1    3    3  502    0 -0.75479455954E+03  0.40592050002E+03 -0.20334407470E+04  0.22066643494E+04  0.25500000920E-02 0. -1.
       -2    1    3    3    0  502  0.75479455954E+03 -0.40592050002E+03  0.13337865708E+04  0.15853936092E+04  0.25500000920E-02 0.  1.
</event>
<event>
 5   0  0.1184684E-06  0.3820463E+04  0.7818609E-02  0.8041778E-01
        2   -1    0    0  501    0  0.00000000000E+00  0.00000000000E+00  0.11558574704E+04  0.11558574704E+04  0.25500000920E-02 0.  1.
       -2   -1    0    0    0  501  0.00000000000E+00  0.00000000000E+00 -0.31569495848E+04  0.31569495848E+04  0.25500000920E-02 0. -1.
    10030    2    1    2    0    0  0.00000000000E+00  0.00000000000E+00 -0.20010921143E+04  0.43128070552E+04  0.38204626742E+04 0.  0.
        4    1    3    3  502    0  0.10541373005E+04 -0.12914756456E+04 -0.20534059571E+04  0.26449182272E+04  0.12699999809E+01 0. -1.
       -4    1    3    3    0  502 -0.10541373005E+04  0.12914756456E+04  0.52313842737E+02  0.16678888280E+04  0.12699999809E+01 0.  1.
</event>
<event>
 5   0  0.6287345E-07  0.2597234E+04  0.7818609E-02  0.8369141E-01
        1   -1    0    0  501    0  0.00000000000E+00  0.00000000000E+00  0.70455932718E+03  0.70455932719E+03  0.50400001928E-02 0.  1.
       -1   -1    0    0    0  501  0.00000000000E+00  0.00000000000E+00 -0.23935619896E+04  0.23935619896E+04  0.50400001928E-02 0. -1.
    10030    2    1    2    0    0  0.00000000000E+00  0.00000000000E+00 -0.16890026624E+04  0.30981213168E+04  0.25972342405E+04 0.  0.
        5    1    3    3  502    0  0.83641938244E+03  0.91663541399E+03 -0.13011735721E+04  0.17980246439E+04  0.46999998093E+01 0. -1.
       -5    1    3    3    0  502 -0.83641938244E+03 -0.91663541399E+03 -0.38782909034E+03  0.13000966729E+04  0.46999998093E+01 0.  1.
</event>
<event>
 5   0  0.6186440E-07  0.2533817E+04  0.7818609E-02  0.8391036E-01
        1   -1    0    0  501    0  0.00000000000E+00  0.00000000000E+00  0.17882355168E+04  0.17882355168E+04  0.50400001928E-02 0. -1.
       -1   -1    0    0    0  501  0.00000000000E+00  0.00000000000E+00 -0.89756488438E+03  0.89756488440E+03  0.50400001928E-02 0.  1.
    10030    2    1    2    0    0  0.00000000000E+00  0.00000000000E+00  0.89067063239E+03  0.26858004012E+04  0.25338172033E+04 0.  0.
        3    1    3    3  502    0  0.75824917454E+03 -0.11893428434E+03 -0.62307714085E+03  0.98859107235E+03  0.10100000352E+00 0.  1.
       -3    1    3    3    0  502 -0.75824917454E+03  0.11893428434E+03  0.15137477732E+04  0.16972093288E+04  0.10100000352E+00 0. -1.
</event>
<event>
 5   0  0.6261598E-07  0.3656923E+04  0.7818609E-02  0.8077576E-01
        1   -1    0    0  501    0  0.00000000000E+00  0.00000000000E+00  0.17921866266E+04  0.17921866266E+04  0.50400001928E-02 0. -1.
       -1   -1    0    0    0  501  0.00000000000E+00  0.00000000000E+00 -0.18654707100E+04  0.18654707100E+04  0.50400001928E-02 0.  1.
    10030    2    1    2    0    0  0.00000000000E+00  0.00000000000E+00 -0.73284083358E+02  0.36576573366E+04  0.36569231104E+04 0.  0.
        1    1    3    3  502    0  0.11598233511E+04 -0.16466596630E+02 -0.14503650038E+04  0.18571537359E+04  0.50400001928E-02 0.  1.
       -1    1    3    3    0  502 -0.11598233511E+04  0.16466596630E+02  0.13770809205E+04  0.18005036007E+04  0.50400001928E-02 0. -1.
</event>
<event>
 5   0  0.1680194E-06  0.3719942E+04  0.7818609E-02  0.8063557E-01
       -2   -1    0    0    0  501  0.00000000000E+00  0.00000000000E+00  0.19010575685E+04  0.19010575685E+04  0.25500000920E-02 0.  1.
        2   -1    0    0  501    0  0.00000000000E+00  0.00000000000E+00 -0.18197722760E+04  0.18197722760E+04  0.25500000920E-02 0. -1.
    10030    2    1    2    0    0  0.00000000000E+00  0.00000000000E+00  0.81285292432E+02  0.37208298445E+04  0.37199418588E+04 0.  0.
        2    1    3    3  502    0 -0.58947106216E+03  0.14463788192E+04  0.10508362237E+04  0.18824836230E+04  0.25500000920E-02 0.  1.
       -2    1    3    3    0  502  0.58947106216E+03 -0.14463788192E+04 -0.96955093127E+03  0.18383462215E+04  0.25500000920E-02 0. -1.
</event>
<event>
 5   0  0.5679750E-07  0.3750965E+04  0.7818609E-02  0.8056760E-01
        1   -1    0    0  501    0  0.00000000000E+00  0.00000000000E+00  0.16385518027E+04  0.16385518027E+04  0.50400001928E-02 0.  1.
       -1   -1    0    0    0  501  0.00000000000E+00  0.00000000000E+00 -0.21466732922E+04  0.21466732922E+04  0.50400001928E-02 0. -1.
    10030    2    1    2    0    0  0.00000000000E+00  0.00000000000E+00 -0.50812148948E+03  0.37852250949E+04  0.37509654185E+04 0.  0.
        4    1    3    3  502    0  0.63883092528E+03  0.76814943259E+03 -0.18557802446E+04  0.21076243572E+04  0.12699999809E+01 0. -1.
       -4    1    3    3    0  502 -0.63883092528E+03 -0.76814943259E+03  0.13476587551E+04  0.16776007377E+04  0.12699999809E+01 0.  1.
</event>
<event>
 5   0  0.1680194E-06  0.2554210E+04  0.7818609E-02  0.8383924E-01
        2   -1    0    0  501    0  0.00000000000E+00  0.00000000000E+00  0.18286219410E+04  0.18286219410E+04  0.25500000920E-02 0. -1.
       -2   -1    0    0    0  501  0.00000000000E+00  0.00000000000E+00 -0.89192675917E+03  0.89192675917E+03  0.25500000920E-02 0.  1.
    10030    2    1    2    0    0  0.00000000000E+00  0.00000000000E+00  0.93669518178E+03  0.27205487001E+04  0.25542097342E+04 0.  0.
        2    1    3    3  502    0  0.81674379040E+03  0.11184707398E+03  0.15072752860E+04  0.17179810752E+04  0.25500000920E-02 0. -1.
       -2    1    3    3    0  502 -0.81674379040E+03 -0.11184707398E+03 -0.57058010422E+03  0.10025676249E+04  0.25500000920E-02 0.  1.
</event>
<event>
 5   0  0.1680194E-06  0.3504431E+04  0.7818609E-02  0.8112741E-01
        2   -1    0    0  501    0  0.00000000000E+00  0.00000000000E+00  0.20106380461E+04  0.20106380461E+04  0.25500000920E-02 0. -1.
       -2   -1    0    0    0  501  0.00000000000E+00  0.00000000000E+00 -0.15270077925E+04  0.15270077925E+04  0.25500000920E-02 0.  1.
    10030    2    1    2    0    0  0.00000000000E+00  0.00000000000E+00  0.48363025366E+03  0.35376458386E+04  0.35044314599E+04 0.  0.
        2    1    3    3  502    0  0.58329018338E+03 -0.15827186083E+04 -0.23705877997E+03  0.17033562447E+04  0.25500000920E-02 0.  1.
       -2    1    3    3    0  502 -0.58329018338E+03  0.15827186083E+04  0.72068903363E+03  0.18342895939E+04  0.25500000920E-02 0. -1.
</event>
<event>
 5   0  0.6261598E-07  0.3708400E+04  0.7818609E-02  0.8066103E-01
       -1   -1    0    0    0  501  0.00000000000E+00  0.00000000000E+00  0.12103503702E+04  0.12103503703E+04  0.50400001928E-02 0. -1.
        1   -1    0    0  501    0  0.00000000000E+00  0.00000000000E+00 -0.28405469290E+04  0.28405469291E+04  0.50400001928E-02 0.  1.
    10030    2    1    2    0    0  0.00000000000E+00  0.00000000000E+00 -0.16301965588E+04  0.40508972993E+04  0.37083996696E+04 0.  0.
        1    1    3    3  502    0  0.10481473797E+04  0.14199426763E+04 -0.14361174500E+04  0.22753644683E+04  0.50400001928E-02 0.  1.
       -1    1    3    3    0  502 -0.10481473797E+04 -0.14199426763E+04 -0.19407910884E+03  0.17755328310E+04  0.50400001928E-02 0. -1.
</event>
<event>
 5   0  0.5679750E-07  0.1944262E+04  0.7818609E-02  0.8633133E-01
        1   -1    0    0  501    0  0.00000000000E+00  0.00000000000E+00  0.72039865238E+03  0.72039865239E+03  0.50400001928E-02 0. -1.
       -1   -1    0    0    0  501  0.00000000000E+00  0.00000000000E+00 -0.13118275416E+04  0.13118275416E+04  0.50400001928E-02 0.  1.
    10030    2    1    2    0    0  0.00000000000E+00  0.00000000000E+00 -0.59142888917E+03  0.20322261940E+04  0.19442621152E+04 0.  0.
        4    1    3    3  502    0  0.93736093072E+01  0.80356808546E+03 -0.86748013350E+03  0.11825112800E+04  0.12699999809E+01 0.  1.
       -4    1    3    3    0  502 -0.93736093072E+01 -0.80356808546E+03  0.27605124432E+03  0.84971491391E+03  0.12699999809E+01 0. -1.
</event>
<event>
 5   0  0.6261598E-07  0.3766538E+04  0.7818609E-02  0.8053374E-01
       -1   -1    0    0    0  501  0.00000000000E+00  0.00000000000E+00  0.18213539075E+04  0.18213539075E+04  0.50400001928E-02 0.  1.
        1   -1    0    0  501    0  0.00000000000E+00  0.00000000000E+00 -0.19472887317E+04  0.19472887317E+04  0.50400001928E-02 0. -1.
    10030    2    1    2    0    0  0.00000000000E+00  0.00000000000E+00 -0.12593482419E+03  0.37686426392E+04  0.37665379013E+04 0.  0.
        1    1    3    3  502    0 -0.89981699089E+03 -0.10064109219E+04 -0.13767770807E+04  0.19282242325E+04  0.50400001928E-02 0. -1.
       -1    1    3    3    0  502  0.89981699089E+03  0.10064109219E+04  0.12508422565E+04  0.18404184067E+04  0.50400001928E-02 0.  1.
</event>
<event>
 5   0  0.6287345E-07  0.3729818E+04  0.7818609E-02  0.8061386E-01
       -1   -1    0    0    0  501  0.00000000000E+00  0.00000000000E+00  0.18136872439E+04  0.18136872439E+04  0.50400001928E-02 0. -1.
        1   -1    0    0  501    0  0.00000000000E+00  0.00000000000E+00 -0.19175775650E+04  0.19175775650E+04  0.50400001928E-02 0.  1.
    10030    2    1    2    0    0  0.00000000000E+00  0.00000000000E+00 -0.10389032114E+03  0.37312648089E+04  0.37298182095E+04 0.  0.
        5    1    3    3  502    0  0.53314897527E+03 -0.90373642440E+03 -0.15942553147E+04  0.19085752417E+04  0.46999998093E+01 0.  1.
       -5    1    3    3    0  502 -0.53314897527E+03  0.90373642440E+03  0.14903649936E+04  0.18226895673E+04  0.46999998093E+01 0. -1.
</event>
<event>
 5   0  0.5875011E-07  0.3642397E+04  0.7818609E-02  0.8080849E-01
       -1   -1    0    0    0  501  0.00000000000E+00  0.00000000000E+00  0.15222837159E+04  0.15222837159E+04  0.50400001928E-02 0. -1.
        1   -1    0    0  501    0  0.00000000000E+00  0.00000000000E+00 -0.21788083964E+04  0.21788083964E+04  0.50400001928E-02 0.  1.
    10030    2    1    2    0    0  0.00000000000E+00  0.00000000000E+00 -0.65652468055E+03  0.37010921123E+04  0.36423973105E+04 0.  0.
        2    1    3    3  502    0  0.15812160187E+04  0.85589267259E+03 -0.62270446269E+03  0.19027761856E+04  0.25500000920E-02 0. -1.
       -2    1    3    3    0  502 -0.15812160187E+04 -0.85589267259E+03 -0.33820217860E+02  0.17983159266E+04  0.25500000920E-02 0.  1.
</event>
<event>
 5   0  0.5875011E-07  0.3572609E+04  0.7818609E-02  0.8096795E-01
        1   -1    0    0  501    0  0.00000000000E+00  0.00000000000E+00  0.23761975576E+04  0.23761975576E+04  0.50400001928E-02 0. -1.
       -1   -1    0    0    0  501  0.00000000000E+00  0.00000000000E+00 -0.13428532237E+04  0.13428532237E+04  0.50400001928E-02 0.  1.
    10030    2    1    2    0    0  0.00000000000E+00  0.00000000000E+00  0.10333443339E+04  0.37190507813E+04  0.35726094387E+04 0.  0.
        2    1    3    3  502    0 -0.74313537128E+03 -0.12234224658E+04 -0.59571315235E+03  0.15504473128E+04  0.25500000920E-02 0.  1.
       -2    1    3    3    0  502  0.74313537128E+03  0.12234224658E+04  0.16290574862E+04  0.21686034685E+04  0.25500000920E-02 0. -1.
</event>
<event>
 5   0  0.1184684E-06  0.3431785E+04  0.7818609E-02  0.8130149E-01
        2   -1    0    0  501    0  0.00000000000E+00  0.00000000000E+00  0.25178143549E+04  0.25178143549E+04  0.25500000920E-02 0.  1.
       -2   -1    0    0    0  501  0.00000000000E+00  0.00000000000E+00 -0.11693818162E+04  0.11693818162E+04  0.25500000920E-02 0. -1.
    10030    2    1    2    0    0  0.00000000000E+00  0.00000000000E+00  0.13484325387E+04  0.36871961711E+04  0.34317845639E+04 0.  0.
        4    1    3    3  502    0  0.38711961489E+03  0.39740353436E+03 -0.10703584863E+04  0.12055953166E+04  0.12699999809E+01 0. -1.
       -4    1    3    3    0  502 -0.38711961489E+03 -0.39740353436E+03  0.24187910250E+04  0.24816008545E+04  0.12699999809E+01 0.  1.
</event>
<event>
 5   0  0.5679750E-07  0.3174357E+04  0.7818609E-02  0.8195622E-01
        3   -1    0    0  501    0  0.00000000000E+00  0.00000000000E+00  0.23444973203E+04  0.23444973225E+04  0.10100000352E+00 0.  1.
       -3   -1    0    0    0  501  0.00000000000E+00  0.00000000000E+00 -0.10744884200E+04  0.10744884247E+04  0.10100000352E+00 0. -1.
    10030    2    1    2    0    0  0.00000000000E+00  0.00000000000E+00  0.12700089003E+04  0.34189857472E+04  0.31743567746E+04 0.  0.
        2    1    3    3  502    0 -0.58757976988E+03 -0.13905024193E+03 -0.94595186654E+03  0.11222343292E+04  0.25500000920E-02 0. -1.
       -2    1    3    3    0  502  0.58757976988E+03  0.13905024193E+03  0.22159607669E+04  0.22967514180E+04  0.25500000920E-02 0.  1.
</event>
<event>
 5   0  0.1685793E-06  0.2008192E+04  0.7818609E-02  0.8602800E-01
       -2   -1    0    0    0  501  0.00000000000E+00  0.00000000000E+00  0.68809523667E+03  0.68809523668E+03  0.25500000920E-02 0. -1.
        2   -1    0    0  501    0  0.00000000000E+00  0.00000000000E+00 -0.14652169889E+04  0.14652169889E+04  0.25500000920E-02 0.  1.
    10030    2    1    2    0    0  0.00000000000E+00  0.00000000000E+00 -0.77712175220E+03  0.21533122256E+04  0.20081920533E+04 0.  0.
        3    1    3    3  502    0 -0.64948970533E+02  0.44360113801E+03  0.57481245659E+03  0.72897853800E+03  0.10100000352E+00 0. -1.
       -3    1    3    3    0  502  0.64948970533E+02 -0.44360113801E+03 -0.13519342088E+04  0.14243336876E+04  0.10100000352E+00 0.  1.
</event>
<event>
 5   0  0.6186440E-07  0.3775217E+04  0.7818609E-02  0.8051494E-01
       -1   -1    0    0    0  501  0.00000000000E+00  0.00000000000E+00  0.12995204930E+04  0.12995204930E+04  0.50400001928E-02 0. -1.
        1   -1    0    0  501    0  0.00000000000E+00  0.00000000000E+00 -0.27418310277E+04  0.27418310278E+04  0.50400001928E-02 0.  1.
    10030    2    1    2    0    0  0.00000000000E+00  0.00000000000E+00 -0.14423105348E+04  0.40413515207E+04  0.37752168726E+04 0.  0.
        3    1    3    3  502    0 -0.13170987407E+04 -0.23806916135E+03  0.70370543648E+03  0.15121598361E+04  0.10100000352E+00 0. -1.
       -3    1    3    3    0  502  0.13170987407E+04  0.23806916135E+03 -0.21460159713E+04  0.25291916846E+04  0.10100000352E+00 0.  1.
</event>
<event>
 5   0  0.1680194E-06  0.3591357E+04  0.7818609E-02  0.8092474E-01
       -2   -1    0    0    0  501  0.00000000000E+00  0.00000000000E+00  0.17202738740E+04  0.17202738740E+04  0.25500000920E-02 0.  1.
        2   -1    0    0  501    0  0.00000000000E+00  0.00000000000E+00 -0.18743879426E+04  0.18743879426E+04  0.25500000920E-02 0. -1.
    10030    2    1    2    0    0  0.00000000000E+00  0.00000000000E+00 -0.15411406858E+03  0.35946618167E+04  0.35913566281E+04 0.  0.
        2    1    3    3  502    0  0.94097353593E+03 -0.72609664109E+03 -0.14243318768E+04  0.18550926723E+04  0.25500000920E-02 0. -1.
       -2    1    3    3    0  502 -0.94097353593E+03  0.72609664109E+03  0.12702178083E+04  0.17395691443E+04  0.25500000920E-02 0.  1.
</event>
<event>
 5   0  0.1184684E-06  0.2503548E+04  0.7818609E-02  0.8401723E-01
        2   -1    0    0  501    0  0.00000000000E+00  0.00000000000E+00  0.10053218748E+04  0.10053218748E+04  0.25500000920E-02 0. -1.
       -2   -1    0    0    0  501  0.00000000000E+00  0.00000000000E+00 -0.15586428622E+04  0.15586428622E+04  0.25500000920E-02 0.  1.
    10030    2    1    2    0    0  0.00000000000E+00  0.00000000000E+00 -0.55332098734E+03  0.25639647370E+04  0.25035476943E+04 0.  0.
        4    1    3    3  502    0 -0.45392031094E+03 -0.62482199751E+03 -0.12855688174E+04  0.14997116304E+04  0.12699999809E+01 0.  1.
       -4    1    3    3    0  502  0.45392031094E+03  0.62482199751E+03  0.73224783007E+03  0.10642531065E+04  0.12699999809E+01 0. -1.
</event>
<event>
 5   0  0.5679750E-07  0.3138440E+04  0.7818609E-02  0.8205267E-01
       -3   -1    0    0    0  501  0.00000000000E+00  0.00000000000E+00  0.22839488711E+04  0.22839488733E+04  0.10100000352E+00 0. -1.
        3   -1    0    0  501    0  0.00000000000E+00  0.00000000000E+00 -0.10781551140E+04  0.10781551187E+04  0.10100000352E+00 0.  1.
    10030    2    1    2    0    0  0.00000000000E+00  0.00000000000E+00  0.12057937571E+04  0.33621039920E+04  0.31384398462E+04 0.  0.
        1    1    3    3  502    0 -0.23395098014E+03  0.51916900580E+03  0.21693580426E+04  0.22428517193E+04  0.50400001928E-02 0. -1.
       -1    1    3    3    0  502  0.23395098014E+03 -0.51916900580E+03 -0.96356428547E+03  0.11192522727E+04  0.50400001928E-02 0.  1.
</event>
<event>
 5   0  0.5875011E-07  0.3662104E+04  0.7818609E-02  0.8076412E-01
        1   -1    0    0  501    0  0.00000000000E+00  0.00000000000E+00  0.20698748687E+04  0.20698748687E+04  0.50400001928E-02 0.  1.
       -1   -1    0    0    0  501  0.00000000000E+00  0.00000000000E+00 -0.16197848224E+04  0.16197848224E+04  0.50400001928E-02 0. -1.
    10030    2    1    2    0    0  0.00000000000E+00  0.00000000000E+00  0.45009004627E+03  0.36896596911E+04  0.36621042566E+04 0.  0.
        2    1    3    3  502    0  0.13112506055E+04  0.12901304657E+03  0.15061191877E+04  0.20011040763E+04  0.25500000920E-02 0.  1.
       -2    1    3    3    0  502 -0.13112506055E+04 -0.12901304657E+03 -0.10560291415E+04  0.16885556148E+04  0.25500000920E-02 0. -1.
</event>
<event>
 5   0  0.1685793E-06  0.2511239E+04  0.7818609E-02  0.8398992E-01
        2   -1    0    0  501    0  0.00000000000E+00  0.00000000000E+00  0.17149867458E+04  0.17149867458E+04  0.25500000920E-02 0.  1.
       -2   -1    0    0    0  501  0.00000000000E+00  0.00000000000E+00 -0.91929606207E+03  0.91929606207E+03  0.25500000920E-02 0. -1.
    10030    2    1    2    0    0  0.00000000000E+00  0.00000000000E+00  0.79569068372E+03  0.26342828079E+04  0.25112391857E+04 0.  0.
        3    1    3    3  502    0 -0.48341096701E+03  0.10114449556E+04 -0.19543975993E+03  0.11379383864E+04  0.10100000352E+00 0. -1.
       -3    1    3    3    0  502  0.48341096701E+03 -0.10114449556E+04  0.99113044365E+03  0.14963444215E+04  0.10100000352E+00 0.  1.
</event>
<event>
 5   0  0.1724503E-06  0.3669679E+04  0.7818609E-02  0.8074715E-01
        2   -1    0    0  501    0  0.00000000000E+00  0.00000000000E+00  0.13740115014E+04  0.13740115014E+04  0.25500000920E-02 0. -1.
       -2   -1    0    0    0  501  0.00000000000E+00  0.00000000000E+00 -0.24502238650E+04  0.24502238650E+04  0.25500000920E-02 0.  1.
    10030    2    1    2    0    0  0.00000000000E+00  0.00000000000E+00 -0.10762123636E+04  0.38242353664E+04  0.36696788805E+04 0.  0.
        1    1    3    3  502    0 -0.61967919763E+03  0.82981265847E+03  0.10402952351E+04  0.14679255881E+04  0.50400001928E-02 0. -1.
       -1    1    3    3    0  502  0.61967919763E+03 -0.82981265847E+03 -0.21165075986E+04  0.23563097783E+04  0.50400001928E-02 0.  1.
</event>
<event>
 5   0  0.6552387E-07  0.2030658E+04  0.7818609E-02  0.8592420E-01
       -1   -1    0    0    0  501  0.00000000000E+00  0.00000000000E+00  0.11178713671E+04  0.11178713671E+04  0.50400001928E-02 0.  1.
        1   -1    0    0  501    0  0.00000000000E+00  0.00000000000E+00 -0.92219281505E+03  0.92219281506E+03  0.50400001928E-02 0. -1.
    10030    2    1    2    0    0  0.00000000000E+00  0.00000000000E+00  0.19567855206E+03  0.20400641822E+04  0.20306579652E+04 0.  0.
        2    1    3    3  502    0 -0.51111619948E+03 -0.54721466571E+03  0.78673367133E+03  0.10861093542E+04  0.25500000920E-02 0.  1.
       -2    1    3    3    0  502  0.51111619948E+03  0.54721466571E+03 -0.59105511927E+03  0.95395482795E+03  0.25500000920E-02 0. -1.
</event>
<event>
 5   0  0.6287345E-07  0.3729032E+04  0.7818609E-02  0.8061558E-01
       -1   -1    0    0    0  501  0.00000000000E+00  0.00000000000E+00  0.36056695484E+04  0.36056695484E+04  0.50400001928E-02 0. -1.
        1   -1    0    0  501    0  0.00000000000E+00  0.00000000000E+00 -0.96415380375E+03  0.96415380376E+03  0.50400001928E-02 0.  1.
    10030    2    1    2    0    0  0.00000000000E+00  0.00000000000E+00  0.26415157447E+04  0.45698233522E+04  0.37290320515E+04 0.  0.
        5    1    3    3  502    0 -0.15993842483E+04 -0.52737865665E+03  0.34019691693E+03  0.17181135741E+04  0.46999998093E+01 0.  1.
       -5    1    3    3    0  502  0.15993842483E+04  0.52737865665E+03  0.23013188278E+04  0.28517097781E+04  0.46999998093E+01 0. -1.
</event>
<event>
 5   0  0.5679750E-07  0.3699120E+04  0.7818609E-02  0.8068157E-01
        1   -1    0    0  501    0  0.00000000000E+00  0.00000000000E+00  0.20597629752E+04  0.20597629752E+04  0.50400001928E-02 0. -1.
       -1   -1    0    0    0  501  0.00000000000E+00  0.00000000000E+00 -0.16608082805E+04  0.16608082805E+04  0.50400001928E-02 0.  1.
    10030    2    1    2    0    0  0.00000000000E+00  0.00000000000E+00  0.39895469470E+03  0.37205712557E+04  0.36991195736E+04 0.  0.
        4    1    3    3  502    0 -0.60020807908E+03  0.15599762298E+04  0.99596244428E+03  0.19456922621E+04  0.12699999809E+01 0. -1.
       -4    1    3    3    0  502  0.60020807908E+03 -0.15599762298E+04 -0.59700774958E+03  0.17748789935E+04  0.12699999809E+01 0.  1.
</event>
<event>
 5   0  0.1184684E-06  0.3709602E+04  0.7818609E-02  0.8065837E-01
        2   -1    0    0  501    0  0.00000000000E+00  0.00000000000E+00  0.18106841205E+04  0.18106841205E+04  0.25500000920E-02 0. -1.
       -2   -1    0    0    0  501  0.00000000000E+00  0.00000000000E+00 -0.18999922750E+04  0.18999922750E+04  0.25500000920E-02 0.  1.
    10030    2    1    2    0    0  0.00000000000E+00  0.00000000000E+00 -0.89308154456E+02  0.37106763955E+04  0.37096015104E+04 0.  0.
        4    1    3    3  502    0 -0.15374351055E+04 -0.12524583038E+03  0.98564000622E+03  0.18305411922E+04  0.12699999809E+01 0. -1.
       -4    1    3    3    0  502  0.15374351055E+04  0.12524583038E+03 -0.10749481607E+04  0.18801352033E+04  0.12699999809E+01 0.  1.
</event>
<event>
 5   0  0.1685793E-06  0.3453244E+04  0.7818609E-02  0.8124961E-01
       -2   -1    0    0    0  501  0.00000000000E+00  0.00000000000E+00  0.14602023399E+04  0.14602023399E+04  0.25500000920E-02 0. -1.
        2   -1    0    0  501    0  0.00000000000E+00  0.00000000000E+00 -0.20416512418E+04  0.20416512418E+04  0.25500000920E-02 0.  1.
    10030    2    1    2    0    0  0.00000000000E+00  0.00000000000E+00 -0.58144890194E+03  0.35018535817E+04  0.34532442257E+04 0.  0.
        3    1    3    3  502    0  0.48858234004E+03 -0.14633463342E+04 -0.10769631674E+04  0.18814741218E+04  0.10100000352E+00 0.  1.
       -3    1    3    3    0  502 -0.48858234004E+03  0.14633463342E+04  0.49551426550E+03  0.16203794600E+04  0.10100000352E+00 0. -1.
</event>
<event>
 5   0  0.1680194E-06  0.3691574E+04  0.7818609E-02  0.8069832E-01
        2   -1    0    0  501    0  0.00000000000E+00  0.00000000000E+00  0.20669651807E+04  0.20669651807E+04  0.25500000920E-02 0. -1.
       -2   -1    0    0    0  501  0.00000000000E+00  0.00000000000E+00 -0.16482761511E+04  0.16482761511E+04  0.25500000920E-02 0.  1.
    10030    2    1    2    0    0  0.00000000000E+00  0.00000000000E+00  0.41868902955E+03  0.37152413318E+04  0.36915738717E+04 0.  0.
        2    1    3    3  502    0 -0.13162234278E+04 -0.24354800806E+03 -0.10696967065E+04  0.17134791473E+04  0.25500000920E-02 0.  1.
       -2    1    3    3    0  502  0.13162234278E+04  0.24354800806E+03  0.14883857360E+04  0.20017621845E+04  0.25500000920E-02 0. -1.
</event>
<event>
 5   0  0.5679750E-07  0.1819099E+04  0.7818609E-02  0.8696208E-01
        3   -1    0    0  501    0  0.00000000000E+00  0.00000000000E+00  0.94213423691E+03  0.94213424232E+03  0.10100000352E+00 0.  1.
       -3   -1    0    0    0  501  0.00000000000E+00  0.00000000000E+00 -0.87809151735E+03  0.87809152316E+03  0.10100000352E+00 0. -1.
    10030    2    1    2    0    0  0.00000000000E+00  0.00000000000E+00  0.64042719561E+02  0.18202257655E+04  0.18190987789E+04 0.  0.
        5    1    3    3  502    0  0.28939314420E+03 -0.72834521545E+03 -0.42980857322E+03  0.89386388471E+03  0.46999998093E+01 0.  1.
       -5    1    3    3    0  502 -0.28939314420E+03  0.72834521545E+03  0.49385129278E+03  0.92636188077E+03  0.46999998093E+01 0. -1.
</event>
<event>
 5   0  0.1680194E-06  0.3520269E+04  0.7818609E-02  0.8109003E-01
       -2   -1    0    0    0  501  0.00000000000E+00  0.00000000000E+00  0.14740255244E+04  0.14740255244E+04  0.25500000920E-02 0.  1.
        2   -1    0    0  501    0  0.00000000000E+00  0.00000000000E+00 -0.21017773280E+04  0.21017773280E+04  0.25500000920E-02 0. -1.
    10030    2    1    2    0    0  0.00000000000E+00  0.00000000000E+00 -0.62775180362E+03  0.35758028525E+04  0.35202689830E+04 0.  0.
        2    1    3    3  502    0  0.17092089575E+04 -0.83817476821E+02  0.10451114578E+03  0.17144512852E+04  0.25500000920E-02 0.  1.
       -2    1    3    3    0  502 -0.17092089575E+04  0.83817476821E+02 -0.73226294939E+03  0.18613515672E+04  0.25500000920E-02 0. -1.
</event>
<event>
 5   0  0.1184684E-06  0.3581269E+04  0.7818609E-02  0.8094796E-01
       -2   -1    0    0    0  501  0.00000000000E+00  0.00000000000E+00  0.16280260065E+04  0.16280260065E+04  0.25500000920E-02 0.  1.
        2   -1    0    0  501    0  0.00000000000E+00  0.00000000000E+00 -0.19694843876E+04  0.19694843876E+04  0.25500000920E-02 0. -1.
    10030    2    1    2    0    0  0.00000000000E+00  0.00000000000E+00 -0.34145838115E+03  0.35975103941E+04  0.35812689385E+04 0.  0.
        4    1    3    3  502    0  0.68569769895E+03 -0.13474964964E+03  0.14853929193E+04  0.16415640530E+04  0.12699999809E+01 0.  1.
       -4    1    3    3    0  502 -0.68569769895E+03  0.13474964964E+03 -0.18268513005E+04  0.19559463411E+04  0.12699999809E+01 0. -1.
</event>
<event>
 5   0  0.1151180E-06  0.2776971E+04  0.7818609E-02  0.8310454E-01
        2   -1    0    0  501    0  0.00000000000E+00  0.00000000000E+00  0.21067566339E+04  0.21067566339E+04  0.25500000920E-02 0. -1.
       -2   -1    0    0    0  501  0.00000000000E+00  0.00000000000E+00 -0.91509920411E+03  0.91509920411E+03  0.25500000920E-02 0.  1.
    10030    2    1    2    0    0  0.00000000000E+00  0.00000000000E+00  0.11916574298E+04  0.30218558380E+04  0.27769705212E+04 0.  0.
        5    1    3    3  502    0  0.13419256814E+04  0.10533381481E+03  0.96646609393E+03  0.16570873687E+04  0.46999998093E+01 0. -1.
       -5    1    3    3    0  502 -0.13419256814E+04 -0.10533381481E+03  0.22519133583E+03  0.13647684692E+04  0.46999998093E+01 0.  1.
</event>
<event>
 5   0  0.1151180E-06  0.3666485E+04  0.7818609E-02  0.8075430E-01
       -2   -1    0    0    0  501  0.00000000000E+00  0.00000000000E+00  0.11279967889E+04  0.11279967889E+04  0.25500000920E-02 0.  1.
        2   -1    0    0  501    0  0.00000000000E+00  0.00000000000E+00 -0.29794218611E+04  0.29794218611E+04  0.25500000920E-02 0. -1.
    10030    2    1    2    0    0  0.00000000000E+00  0.00000000000E+00 -0.18514250722E+04  0.41074186500E+04  0.36664851245E+04 0.  0.
        5    1    3    3  502    0 -0.14903473266E+04  0.10177522402E+04 -0.12866406423E+04  0.22163982063E+04  0.46999998093E+01 0.  1.
       -5    1    3    3    0  502  0.14903473266E+04 -0.10177522402E+04 -0.56478442990E+03  0.18910204437E+04  0.46999998093E+01 0. -1.
</event>
<event>
 5   0  0.1685793E-06  0.3754731E+04  0.7818609E-02  0.8055940E-01
       -2   -1    0    0    0  501  0.00000000000E+00  0.00000000000E+00  0.21338918853E+04  0.21338918853E+04  0.25500000920E-02 0.  1.
        2   -1    0    0  501    0  0.00000000000E+00  0.00000000000E+00 -0.16516775215E+04  0.16516775215E+04  0.25500000920E-02 0. -1.
    10030    2    1    2    0    0  0.00000000000E+00  0.00000000000E+00  0.48221436377E+03  0.37855694068E+04  0.37547310211E+04 0.  0.
        3    1    3    3  502    0 -0.35752818090E+03  0.18316242876E+04  0.44730420761E+03  0.19190505453E+04  0.10100000352E+00 0. -1.
       -3    1    3    3    0  502  0.35752818090E+03 -0.18316242876E+04  0.34910156157E+02  0.18665188615E+04  0.10100000352E+00 0.  1.
</event>
<event>
 5   0  0.5679750E-07  0.2931885E+04  0.7818609E-02  0.8263454E-01
        1   -1    0    0  501    0  0.00000000000E+00  0.00000000000E+00  0.11807052248E+04  0.11807052248E+04  0.50400001928E-02 0. -1.
       -1   -1    0    0    0  501  0.00000000000E+00  0.00000000000E+00 -0.18200876371E+04  0.18200876371E+04  0.50400001928E-02 0.  1.
    10030    2    1    2    0    0  0.00000000000E+00  0.00000000000E+00 -0.63938241228E+03  0.30007928619E+04  0.29318847063E+04 0.  0.
        4    1    3    3  502    0  0.12564082328E+03 -0.53491721704E+03  0.10713180582E+04  0.12040124752E+04  0.12699999809E+01 0. -1.
       -4    1    3    3    0  502 -0.12564082328E+03  0.53491721704E+03 -0.17107004705E+04  0.17967803868E+04  0.12699999809E+01 0.  1.
</event>
<event>
 5   0  0.5679750E-07  0.3786150E+04  0.7818609E-02  0.8049134E-01
       -1   -1    0    0    0  501  0.00000000000E+00  0.00000000000E+00  0.13374579950E+04  0.13374579950E+04  0.50400001928E-02 0.  1.
        1   -1    0    0  501    0  0.00000000000E+00  0.00000000000E+00 -0.26795100797E+04  0.26795100797E+04  0.50400001928E-02 0. -1.
    10030    2    1    2    0    0  0.00000000000E+00  0.00000000000E+00 -0.13420520846E+04  0.40169680747E+04  0.37861495897E+04 0.  0.
        4    1    3    3  502    0  0.20498240927E+03  0.11670325674E+04 -0.22374298559E+04  0.25318129422E+04  0.12699999809E+01 0. -1.
       -4    1    3    3    0  502 -0.20498240927E+03 -0.11670325674E+04  0.89537777121E+03  0.14851551325E+04  0.12699999809E+01 0.  1.
</event>
<event>
 5   0  0.1680194E-06  0.3649421E+04  0.7818609E-02  0.8079264E-01
        2   -1    0    0  501    0  0.00000000000E+00  0.00000000000E+00  0.25790989493E+04  0.25790989493E+04  0.25500000920E-02 0. -1.
       -2   -1    0    0    0  501  0.00000000000E+00  0.00000000000E+00 -0.12909810892E+04  0.12909810892E+04  0.25500000920E-02 0.  1.
    10030    2    1    2    0    0  0.00000000000E+00  0.00000000000E+00  0.12881178601E+04  0.38700800385E+04  0.36494207600E+04 0.  0.
        2    1    3    3  502    0 -0.70258262638E+03 -0.60529490919E+03  0.23105620260E+04  0.24897190906E+04  0.25500000920E-02 0. -1.
       -2    1    3    3    0  502  0.70258262638E+03  0.60529490919E+03 -0.10224441660E+04  0.13803609479E+04  0.25500000920E-02 0.  1.
</event>
<event>
 5   0  0.1184684E-06  0.1828723E+04  0.7818609E-02  0.8691172E-01
       -2   -1    0    0    0  501  0.00000000000E+00  0.00000000000E+00  0.43722136508E+03  0.43722136509E+03  0.25500000920E-02 0. -1.
        2   -1    0    0  501    0  0.00000000000E+00  0.00000000000E+00 -0.19122057638E+04  0.19122057638E+04  0.25500000920E-02 0.  1.
    10030    2    1    2    0    0  0.00000000000E+00  0.00000000000E+00 -0.14749843987E+04  0.23494271289E+04  0.18287232862E+04 0.  0.
        4    1    3    3  502    0  0.31485974995E+02 -0.71349127900E+03 -0.39601836194E+01  0.71419777918E+03  0.12699999809E+01 0.  1.
       -4    1    3    3    0  502 -0.31485974995E+02  0.71349127900E+03 -0.14710242151E+04  0.16352293497E+04  0.12699999809E+01 0. -1.
</event>
<event>
 5   0  0.6186440E-07  0.3073490E+04  0.7818609E-02  0.8223051E-01
        1   -1    0    0  501    0  0.00000000000E+00  0.00000000000E+00  0.25138501902E+04  0.25138501902E+04  0.50400001928E-02 0.  1.
       -1   -1    0    0    0  501  0.00000000000E+00  0.00000000000E+00 -0.93942980790E+03  0.93942980791E+03  0.50400001928E-02 0. -1.
    10030    2    1    2    0    0  0.00000000000E+00  0.00000000000E+00  0.15744203823E+04  0.34532799981E+04  0.30734903945E+04 0.  0.
        3    1    3    3  502    0 -0.59924973025E+03 -0.27876809411E+03 -0.77158764284E+03  0.10159524547E+04  0.10100000352E+00 0. -1.
       -3    1    3    3    0  502  0.59924973025E+03  0.27876809411E+03  0.23460080251E+04  0.24373275434E+04  0.10100000352E+00 0.  1.
</event>
<event>
 5   0  0.6287345E-07  0.2059636E+04  0.7818609E-02  0.8579235E-01
        1   -1    0    0  501    0  0.00000000000E+00  0.00000000000E+00  0.63183299951E+03  0.63183299953E+03  0.50400001928E-02 0. -1.
       -1   -1    0    0    0  501  0.00000000000E+00  0.00000000000E+00 -0.16784900593E+04  0.16784900594E+04  0.50400001928E-02 0.  1.
    10030    2    1    2    0    0  0.00000000000E+00  0.00000000000E+00 -0.10466570598E+04  0.23103230589E+04  0.20596362872E+04 0.  0.
        5    1    3    3  502    0  0.49792195149E+03 -0.59285804485E+03 -0.12850181512E+04  0.15002335385E+04  0.46999998093E+01 0.  1.
       -5    1    3    3    0  502 -0.49792195149E+03  0.59285804485E+03  0.23836109138E+03  0.81008952037E+03  0.46999998093E+01 0. -1.
</event>
<event>
 5   0  0.1184684E-06  0.3706054E+04  0.7818609E-02  0.8066621E-01
       -2   -1    0    0    0  501  0.00000000000E+00  0.00000000000E+00  0.15261556593E+04  0.15261556593E+04  0.25500000920E-02 0.  1.
        2   -1    0    0  501    0  0.00000000000E+00  0.00000000000E+00 -0.22499078579E+04  0.22499078579E+04  0.25500000920E-02 0. -1.
    10030    2    1    2    0    0  0.00000000000E+00  0.00000000000E+00 -0.72375219853E+03  0.37760635172E+04  0.37060542955E+04 0.  0.
        4    1    3    3  502    0  0.11627300563E+04  0.11382535001E+04  0.54152176165E+03  0.17148789011E+04  0.12699999809E+01 0. -1.
       -4    1    3    3    0  502 -0.11627300563E+04 -0.11382535001E+04 -0.12652739602E+04  0.20611846161E+04  0.12699999809E+01 0.  1.
</event>
<event>
 5   0  0.6287345E-07  0.3110170E+04  0.7818609E-02  0.8212952E-01
       -1   -1    0    0    0  501  0.00000000000E+00  0.00000000000E+00  0.13510488577E+04  0.13510488577E+04  0.50400001928E-02 0. -1.
        1   -1    0    0  501    0  0.00000000000E+00  0.00000000000E+00 -0.17899349226E+04  0.17899349226E+04  0.50400001928E-02 0.  1.
    10030    2    1    2    0    0  0.00000000000E+00  0.00000000000E+00 -0.43888606494E+03  0.31409837803E+04  0.31101701128E+04 0.  0.
        5    1    3    3  502    0 -0.12613761835E+04  0.84847726857E+03 -0.55023031782E+03  0.16167124186E+04  0.46999998093E+01 0.  1.
       -5    1    3    3    0  502  0.12613761835E+04 -0.84847726857E+03  0.11134425288E+03  0.15242713618E+04  0.46999998093E+01 0. -1.
</event>
<event>
 5   0  0.6186440E-07  0.2340647E+04  0.7818609E-02  0.8462065E-01
       -1   -1    0    0    0  501  0.00000000000E+00  0.00000000000E+00  0.69675947898E+03  0.69675947900E+03  0.50400001928E-02 0. -1.
        1   -1    0    0  501    0  0.00000000000E+00  0.00000000000E+00 -0.19657534126E+04  0.19657534126E+04  0.50400001928E-02 0.  1.
    10030    2    1    2    0    0  0.00000000000E+00  0.00000000000E+00 -0.12689939336E+04  0.26625128916E+04  0.23406471956E+04 0.  0.
        3    1    3    3  502    0 -0.52295483641E+03 -0.65509697433E+03  0.29452574474E+03  0.88847016338E+03  0.10100000352E+00 0. -1.
       -3    1    3    3    0  502  0.52295483641E+03  0.65509697433E+03 -0.15635196783E+04  0.17740427282E+04  0.10100000352E+00 0.  1.
</event>
<event>
 5   0  0.5875011E-07  0.3707728E+04  0.7818609E-02  0.8066251E-01
        1   -1    0    0  501    0  0.00000000000E+00  0.00000000000E+00  0.21295125738E+04  0.21295125738E+04  0.50400001928E-02 0. -1.
       -1   -1    0    0    0  501  0.00000000000E+00  0.00000000000E+00 -0.16138960987E+04  0.16138960987E+04  0.50400001928E-02 0.  1.
    10030    2    1    2    0    0  0.00000000000E+00  0.00000000000E+00  0.51561647516E+03  0.37434086725E+04  0.37077281642E+04 0.  0.
        2    1    3    3  502    0 -0.48610035504E+03  0.14381138302E+04  0.13321665309E+04  0.20196862652E+04  0.25500000920E-02 0. -1.
       -2    1    3    3    0  502  0.48610035504E+03 -0.14381138302E+04 -0.81655005575E+03  0.17237224073E+04  0.25500000920E-02 0.  1.
</event>
<event>
 5   0  0.5679750E-07  0.2512096E+04  0.7818609E-02  0.8398689E-01
        1   -1    0    0  501    0  0.00000000000E+00  0.00000000000E+00  0.13524102111E+04  0.13524102111E+04  0.50400001928E-02 0. -1.
       -1   -1    0    0    0  501  0.00000000000E+00  0.00000000000E+00 -0.11665513540E+04  0.11665513540E+04  0.50400001928E-02 0.  1.
    10030    2    1    2    0    0  0.00000000000E+00  0.00000000000E+00  0.18585885709E+03  0.25189615651E+04  0.25120955101E+04 0.  0.
        4    1    3    3  502    0  0.70471053071E+03  0.73239724813E+02 -0.94705203927E+03  0.11827468737E+04  0.12699999809E+01 0.  1.
       -4    1    3    3    0  502 -0.70471053071E+03 -0.73239724813E+02  0.11329108964E+04  0.13362146913E+04  0.12699999809E+01 0. -1.
</event>
<event>
 5   0  0.5679750E-07  0.2650364E+04  0.7818609E-02  0.8351292E-01
       -1   -1    0    0    0  501  0.00000000000E+00  0.00000000000E+00  0.14925571185E+04  0.14925571185E+04  0.50400001928E-02 0.  1.
        1   -1    0    0  501    0  0.00000000000E+00  0.00000000000E+00 -0.11765764505E+04  0.11765764505E+04  0.50400001928E-02 0. -1.
    10030    2    1    2    0    0  0.00000000000E+00  0.00000000000E+00  0.31598066801E+03  0.26691335690E+04  0.26503641687E+04 0.  0.
        4    1    3    3  502    0 -0.23386473198E+03  0.37553307538E+02  0.14710655287E+04  0.14900128746E+04  0.12699999809E+01 0.  1.
       -4    1    3    3    0  502  0.23386473198E+03 -0.37553307538E+02 -0.11550848607E+04  0.11791206944E+04  0.12699999809E+01 0. -1.
</event>
<event>
 5   0  0.5679750E-07  0.3626001E+04  0.7818609E-02  0.8084562E-01
       -1   -1    0    0    0  501  0.00000000000E+00  0.00000000000E+00  0.14421532715E+04  0.14421532715E+04  0.50400001928E-02 0.  1.
        1   -1    0    0  501    0  0.00000000000E+00  0.00000000000E+00 -0.22792101817E+04  0.22792101817E+04  0.50400001928E-02 0. -1.
    10030    2    1    2    0    0  0.00000000000E+00  0.00000000000E+00 -0.83705691021E+03  0.37213634532E+04  0.36260007832E+04 0.  0.
        4    1    3    3  502    0  0.16143391398E+04  0.28688636820E+03  0.37549471796E+03  0.16820798265E+04  0.12699999809E+01 0.  1.
       -4    1    3    3    0  502 -0.16143391398E+04 -0.28688636820E+03 -0.12125516282E+04  0.20392836268E+04  0.12699999809E+01 0. -1.
</event>
<event>
 5   0  0.1151180E-06  0.3742528E+04  0.7818609E-02  0.8058602E-01
        2   -1    0    0  501    0  0.00000000000E+00  0.00000000000E+00  0.19684941131E+04  0.19684941131E+04  0.25500000920E-02 0. -1.
       -2   -1    0    0    0  501  0.00000000000E+00  0.00000000000E+00 -0.17788364831E+04  0.17788364831E+04  0.25500000920E-02 0.  1.
    10030    2    1    2    0    0  0.00000000000E+00  0.00000000000E+00  0.18965762997E+03  0.37473305962E+04  0.37425281002E+04 0.  0.
        5    1    3    3  502    0 -0.95610540024E+03  0.66670036269E+03 -0.13709418064E+04  0.17994806018E+04  0.46999998093E+01 0.  1.
       -5    1    3    3    0  502  0.95610540024E+03 -0.66670036269E+03  0.15605994363E+04  0.19478499944E+04  0.46999998093E+01 0. -1.
</event>
<event>
 5   0  0.6186440E-07  0.3053847E+04  0.7818609E-02  0.8228520E-01
        1   -1    0    0  501    0  0.00000000000E+00  0.00000000000E+00  0.13940712923E+04  0.13940712923E+04  0.50400001928E-02 0. -1.
       -1   -1    0    0    0  501  0.00000000000E+00  0.00000000000E+00 -0.16724359899E+04  0.16724359899E+04  0.50400001928E-02 0.  1.
    10030    2    1    2    0    0  0.00000000000E+00  0.00000000000E+00 -0.27836469753E+03  0.30665072822E+04  0.30538467556E+04 0.  0.
        3    1    3    3  502    0  0.96550850608E+03 -0.10054694292E+04 -0.76491869844E+03  0.15900553682E+04  0.10100000352E+00 0.  1.
       -3    1    3    3    0  502 -0.96550850608E+03  0.10054694292E+04  0.48655400091E+03  0.14764519140E+04  0.10100000352E+00 0. -1.
</event>
<event>
 5   0  0.1724503E-06  0.3715306E+04  0.7818609E-02  0.8064578E-01
        2   -1    0    0  501    0  0.00000000000E+00  0.00000000000E+00  0.17426446346E+04  0.17426446346E+04  0.25500000920E-02 0. -1.
       -2   -1    0    0    0  501  0.00000000000E+00  0.00000000000E+00 -0.19802510274E+04  0.19802510274E+04  0.25500000920E-02 0.  1.
    10030    2    1    2    0    0  0.00000000000E+00  0.00000000000E+00 -0.23760639280E+03  0.37228956620E+04  0.37153055477E+04 0.  0.
        1    1    3    3  502    0  0.72052946243E+03  0.69770191119E+03 -0.16856225828E+04  0.19614469544E+04  0.50400001928E-02 0.  1.
       -1    1    3    3    0  502 -0.72052946243E+03 -0.69770191119E+03  0.14480161900E+04  0.17614487077E+04  0.50400001928E-02 0. -1.
</event>
<event>
 5   0  0.6261598E-07  0.2695003E+04  0.7818609E-02  0.8336628E-01
       -1   -1    0    0    0  501  0.00000000000E+00  0.00000000000E+00  0.98290679750E+03  0.98290679751E+03  0.50400001928E-02 0. -1.
        1   -1    0    0  501    0  0.00000000000E+00  0.00000000000E+00 -0.18473374101E+04  0.18473374102E+04  0.50400001928E-02 0.  1.
    10030    2    1    2    0    0  0.00000000000E+00  0.00000000000E+00 -0.86443061265E+03  0.28302442077E+04  0.26950031523E+04 0.  0.
        1    1    3    3  502    0  0.46711928695E+03 -0.28870590760E+03  0.86006742163E+03  0.10204251560E+04  0.50400001928E-02 0. -1.
       -1    1    3    3    0  502 -0.46711928695E+03  0.28870590760E+03 -0.17244980343E+04  0.18098190516E+04  0.50400001928E-02 0.  1.
</event>
<event>
 5   0  0.6287345E-07  0.1839119E+04  0.7818609E-02  0.8685769E-01
        1   -1    0    0  501    0  0.00000000000E+00  0.00000000000E+00  0.42407862475E+03  0.42407862478E+03  0.50400001928E-02 0.  1.
       -1   -1    0    0    0  501  0.00000000000E+00  0.00000000000E+00 -0.19939460709E+04  0.19939460709E+04  0.50400001928E-02 0. -1.
    10030    2    1    2    0    0  0.00000000000E+00  0.00000000000E+00 -0.15698674462E+04  0.24180246957E+04  0.18391192540E+04 0.  0.
        5    1    3    3  502    0 -0.42087702920E+03 -0.38821403911E+03 -0.17309495401E+04  0.18231993896E+04  0.46999998093E+01 0. -1.
       -5    1    3    3    0  502  0.42087702920E+03  0.38821403911E+03  0.16108209388E+03  0.59482530615E+03  0.46999998093E+01 0.  1.
</event>
<event>
 5   0  0.1151180E-06  0.3616813E+04  0.7818609E-02  0.8086651E-01
        2   -1    0    0  501    0  0.00000000000E+00  0.00000000000E+00  0.29302511907E+04  0.29302511907E+04  0.25500000920E-02 0.  1.
       -2   -1    0    0    0  501  0.00000000000E+00  0.00000000000E+00 -0.11160592554E+04  0.11160592554E+04  0.25500000920E-02 0. -1.
    10030    2    1    2    0    0  0.00000000000E+00  0.00000000000E+00  0.18141919353E+04  0.40463104461E+04  0.36168129408E+04 0.  0.
        5    1    3    3  502    0 -0.10397682068E+03 -0.17058629003E+04  0.15685153356E+04  0.23197072794E+04  0.46999998093E+01 0. -1.
       -5    1    3    3    0  502  0.10397682068E+03  0.17058629003E+04  0.24567659966E+03  0.17266031668E+04  0.46999998093E+01 0.  1.
</event>
<event>
 5   0  0.1685793E-06  0.3686469E+04  0.7818609E-02  0.8070967E-01
        2   -1    0    0  501    0  0.00000000000E+00  0.00000000000E+00  0.20531950691E+04  0.20531950691E+04  0.25500000920E-02 0. -1.
       -2   -1    0    0    0  501  0.00000000000E+00  0.00000000000E+00 -0.16547449416E+04  0.16547449416E+04  0.25500000920E-02 0.  1.
    10030    2    1    2    0    0  0.00000000000E+00  0.00000000000E+00  0.39845012753E+03  0.37079400107E+04  0.36864693975E+04 0.  0.
        3    1    3    3  502    0  0.10920044270E+04  0.29494561495E+03 -0.12646024983E+04  0.16966691113E+04  0.10100000352E+00 0.  1.
       -3    1    3    3    0  502 -0.10920044270E+04 -0.29494561495E+03  0.16630526258E+04  0.20112708994E+04  0.10100000352E+00 0. -1.
</event>
<event>
 5   0  0.1724503E-06  0.3644537E+04  0.7818609E-02  0.8080366E-01
        2   -1    0    0  501    0  0.00000000000E+00  0.00000000000E+00  0.22035149990E+04  0.22035149990E+04  0.25500000920E-02 0.  1.
       -2   -1    0    0    0  501  0.00000000000E+00  0.00000000000E+00 -0.15069839954E+04  0.15069839954E+04  0.25500000920E-02 0. -1.
    10030    2    1    2    0    0  0.00000000000E+00  0.00000000000E+00  0.69653100354E+03  0.37104989944E+04  0.36445366439E+04 0.  0.
        1    1    3    3  502    0  0.74953438320E+03  0.59931318743E+03 -0.12288627163E+04  0.15591926320E+04  0.50400001928E-02 0. -1.
       -1    1    3    3    0  502 -0.74953438320E+03 -0.59931318743E+03  0.19253937199E+04  0.21513063624E+04  0.50400001928E-02 0.  1.
</event>
<event>
 5   0  0.5679750E-07  0.3134949E+04  0.7818609E-02  0.8206212E-01
        1   -1    0    0  501    0  0.00000000000E+00  0.00000000000E+00  0.14504463002E+04  0.14504463002E+04  0.50400001928E-02 0. -1.
       -1   -1    0    0    0  501  0.00000000000E+00  0.00000000000E+00 -0.16939445412E+04  0.16939445412E+04  0.50400001928E-02 0.  1.
    10030    2    1    2    0    0  0.00000000000E+00  0.00000000000E+00 -0.24349824097E+03  0.31443908414E+04  0.31349485435E+04 0.  0.
        4    1    3    3  502    0 -0.50407284799E+03 -0.14418198753E+04  0.23150478200E+03  0.15448398189E+04  0.12699999809E+01 0. -1.
       -4    1    3    3    0  502  0.50407284799E+03  0.14418198753E+04 -0.47500302297E+03  0.15995510225E+04  0.12699999809E+01 0.  1.
</event>
<event>
 5   0  0.1184684E-06  0.3672350E+04  0.7818609E-02  0.8074117E-01
        2   -1    0    0  501    0  0.00000000000E+00  0.00000000000E+00  0.21167358661E+04  0.21167358661E+04  0.25500000920E-02 0. -1.
       -2   -1    0    0    0  501  0.00000000000E+00  0.00000000000E+00 -0.15928007091E+04  0.15928007091E+04  0.25500000920E-02 0.  1.
    10030    2    1    2    0    0  0.00000000000E+00  0.00000000000E+00  0.52393515703E+03  0.37095365752E+04  0.36723498682E+04 0.  0.
        4    1    3    3  502    0 -0.89285265452E+03  0.15777926971E+04  0.55633073987E+03  0.18963441573E+04  0.12699999809E+01 0. -1.
       -4    1    3    3    0  502  0.89285265452E+03 -0.15777926971E+04 -0.32395582842E+02  0.18131924180E+04  0.12699999809E+01 0.  1.
</event>
<event>
 5   0  0.1724503E-06  0.3833068E+04  0.7818609E-02  0.8039096E-01
       -2   -1    0    0    0  501  0.00000000000E+00  0.00000000000E+00  0.17368777584E+04  0.17368777584E+04  0.25500000920E-02 0.  1.
        2   -1    0    0  501    0  0.00000000000E+00  0.00000000000E+00 -0.21147727046E+04  0.21147727046E+04  0.25500000920E-02 0. -1.
    10030    2    1    2    0    0  0.00000000000E+00  0.00000000000E+00 -0.37789494614E+03  0.38516504630E+04  0.38330675312E+04 0.  0.
        1    1    3    3  502    0  0.29294854738E+03 -0.18738321663E+04  0.88135321554E+02  0.18986399537E+04  0.50400001928E-02 0. -1.
       -1    1    3    3    0  502 -0.29294854738E+03  0.18738321663E+04 -0.46603026770E+03  0.19530105093E+04  0.50400001928E-02 0.  1.
</event>
<event>
 5   0  0.1685793E-06  0.3955563E+04  0.7818609E-02  0.8013571E-01
       -2   -1    0    0    0  501  0.00000000000E+00  0.00000000000E+00  0.20857670065E+04  0.20857670065E+04  0.25500000920E-02 0. -1.
        2   -1    0    0  501    0  0.00000000000E+00  0.00000000000E+00 -0.18753870271E+04  0.18753870271E+04  0.25500000920E-02 0.  1.
    10030    2    1    2    0    0  0.00000000000E+00  0.00000000000E+00  0.21037997937E+03  0.39611540335E+04  0.39555633659E+04 0.  0.
        3    1    3    3  502    0 -0.16625664966E+04  0.23802659574E+03 -0.94071729357E+03  0.19250280654E+04  0.10100000352E+00 0.  1.
       -3    1    3    3    0  502  0.16625664966E+04 -0.23802659574E+03  0.11510972729E+04  0.20361259681E+04  0.10100000352E+00 0. -1.
</event>
<event>
 5   0  0.6186440E-07  0.2609369E+04  0.7818609E-02  0.8365026E-01
        1   -1    0    0  501    0  0.00000000000E+00  0.00000000000E+00  0.20338980709E+04  0.20338980709E+04  0.50400001928E-02 0.  1.
       -1   -1    0    0    0  501  0.00000000000E+00  0.00000000000E+00 -0.83691571007E+03  0.83691571009E+03  0.50400001928E-02 0. -1.
    10030    2    1    2    0    0  0.00000000000E+00  0.00000000000E+00  0.11969823608E+04  0.28708137810E+04  0.26093686962E+04 0.  0.
        3    1    3    3  502    0 -0.77680578439E+03  0.67831450374E+03 -0.28074510772E+03  0.10688103753E+04  0.10100000352E+00 0. -1.
       -3    1    3    3    0  502  0.77680578439E+03 -0.67831450374E+03  0.14777274685E+04  0.18020034057E+04  0.10100000352E+00 0.  1.
</event>
<event>
 5   0  0.1151180E-06  0.2811612E+04  0.7818609E-02  0.8299672E-01
       -2   -1    0    0    0  501  0.00000000000E+00  0.00000000000E+00  0.82145480586E+03  0.82145480586E+03  0.25500000920E-02 0.  1.
        2   -1    0    0  501    0  0.00000000000E+00  0.00000000000E+00 -0.24058424495E+04  0.24058424495E+04  0.25500000920E-02 0. -1.
    10030    2    1    2    0    0  0.00000000000E+00  0.00000000000E+00 -0.15843876437E+04  0.32272972554E+04  0.28116122366E+04 0.  0.
        5    1    3    3  502    0  0.28488533543E+03 -0.13766115622E+04 -0.80028632960E+03  0.16176215091E+04  0.46999998093E+01 0.  1.
       -5    1    3    3    0  502 -0.28488533543E+03  0.13766115622E+04 -0.78410131406E+03  0.16096757463E+04  0.46999998093E+01 0. -1.
</event>
<event>
 5   0  0.5679750E-07  0.3586148E+04  0.7818609E-02  0.8093672E-01
       -1   -1    0    0    0  501  0.00000000000E+00  0.00000000000E+00  0.14655614855E+04  0.14655614855E+04  0.50400001928E-02 0. -1.
        1   -1    0    0  501    0  0.00000000000E+00  0.00000000000E+00 -0.21937771140E+04  0.21937771140E+04  0.50400001928E-02 0.  1.
    10030    2    1    2    0    0  0.00000000000E+00  0.00000000000E+00 -0.72821562845E+03  0.36593385995E+04  0.35861484889E+04 0.  0.
        4    1    3    3  502    0 -0.97370843440E+03 -0.10936148656E+04 -0.14201262642E+04  0.20398190627E+04  0.12699999809E+01 0.  1.
       -4    1    3    3    0  502  0.97370843440E+03  0.10936148656E+04  0.69191063572E+03  0.16195195368E+04  0.12699999809E+01 0. -1.
</event>
<event>
 5   0  0.1821746E-06  0.2175581E+04  0.7818609E-02  0.8528661E-01
        2   -1    0    0  501    0  0.00000000000E+00  0.00000000000E+00  0.18882251863E+04  0.18882251863E+04  0.25500000920E-02 0.  1.
       -2   -1    0    0    0  501  0.00000000000E+00  0.00000000000E+00 -0.62666693173E+03  0.62666693174E+03  0.25500000920E-02 0. -1.
    10030    2    1    2    0    0  0.00000000000E+00  0.00000000000E+00  0.12615582545E+04  0.25148921180E+04  0.21755811030E+04 0.  0.
        2    1    3    3  502    0 -0.75648877644E+02 -0.39328942534E+03 -0.53833881961E+03  0.67097541645E+03  0.25500000920E-02 0. -1.
       -2    1    3    3    0  502  0.75648877644E+02  0.39328942534E+03  0.17998970741E+04  0.18439167015E+04  0.25500000920E-02 0.  1.
</event>
<event>
 5   0  0.1184684E-06  0.3574474E+04  0.7818609E-02  0.8096364E-01
        2   -1    0    0  501    0  0.00000000000E+00  0.00000000000E+00  0.16541710412E+04  0.16541710412E+04  0.25500000920E-02 0.  1.
       -2   -1    0    0    0  501  0.00000000000E+00  0.00000000000E+00 -0.19310069842E+04  0.19310069842E+04  0.25500000920E-02 0. -1.
    10030    2    1    2    0    0  0.00000000000E+00  0.00000000000E+00 -0.27683594305E+03  0.35851780254E+04  0.35744738542E+04 0.  0.
        4    1    3    3  502    0  0.10862443936E+04  0.56756675738E+03 -0.14431421548E+04  0.18933356275E+04  0.12699999809E+01 0. -1.
       -4    1    3    3    0  502 -0.10862443936E+04 -0.56756675738E+03  0.11663062117E+04  0.16918423979E+04  0.12699999809E+01 0.  1.
</event>
<event>
 5   0  0.1151180E-06  0.2079613E+04  0.7818609E-02  0.8570277E-01
        2   -1    0    0  501    0  0.00000000000E+00  0.00000000000E+00  0.91914021364E+03  0.91914021364E+03  0.25500000920E-02 0.  1.
       -2   -1    0    0    0  501  0.00000000000E+00  0.00000000000E+00 -0.11763142534E+04  0.11763142534E+04  0.25500000920E-02 0. -1.
    10030    2    1    2    0    0  0.00000000000E+00  0.00000000000E+00 -0.25717403976E+03  0.20954544670E+04  0.20796131700E+04 0.  0.
        5    1    3    3  502    0 -0.53982919072E+03 -0.22298267907E+03  0.73822099512E+03  0.94134433548E+03  0.46999998093E+01 0.  1.
       -5    1    3    3    0  502  0.53982919072E+03  0.22298267907E+03 -0.99539503487E+03  0.11541101316E+04  0.46999998093E+01 0. -1.
</event>
<event>
 5   0  0.6287345E-07  0.2325221E+04  0.7818609E-02  0.8468043E-01
        1   -1    0    0  501    0  0.00000000000E+00  0.00000000000E+00  0.10382614330E+04  0.10382614330E+04  0.50400001928E-02 0. -1.
       -1   -1    0    0    0  501  0.00000000000E+00  0.00000000000E+00 -0.13018524017E+04  0.13018524017E+04  0.50400001928E-02 0.  1.
    10030    2    1    2    0    0  0.00000000000E+00  0.00000000000E+00 -0.26359096869E+03  0.23401138347E+04  0.23252209703E+04 0.  0.
        5    1    3    3  502    0  0.38342550332E+02 -0.11612812359E+04 -0.17201128158E+03  0.11745868341E+04  0.46999998093E+01 0. -1.
       -5    1    3    3    0  502 -0.38342550332E+02  0.11612812359E+04 -0.91579687112E+02  0.11655270006E+04  0.46999998093E+01 0.  1.
</event>
<event>
 5   0  0.6186440E-07  0.3288564E+04  0.7818609E-02  0.8165811E-01
       -1   -1    0    0    0  501  0.00000000000E+00  0.00000000000E+00  0.15587842313E+04  0.15587842313E+04  0.50400001928E-02 0. -1.
        1   -1    0    0  501    0  0.00000000000E+00  0.00000000000E+00 -0.17344688175E+04  0.17344688175E+04  0.50400001928E-02 0.  1.
    10030    2    1    2    0    0  0.00000000000E+00  0.00000000000E+00 -0.17568458613E+03  0.32932530488E+04  0.32885636028E+04 0.  0.
        3    1    3    3  502    0  0.11300889455E+04  0.74820428095E+03 -0.10201650250E+04  0.16963629798E+04  0.10100000352E+00 0.  1.
       -3    1    3    3    0  502 -0.11300889455E+04 -0.74820428095E+03  0.84448043890E+03  0.15968900690E+04  0.10100000352E+00 0. -1.
</event>
<event>
 5   0  0.1151180E-06  0.3737102E+04  0.7818609E-02  0.8059789E-01
        2   -1    0    0  501    0  0.00000000000E+00  0.00000000000E+00  0.21498178622E+04  0.21498178622E+04  0.25500000920E-02 0.  1.
       -2   -1    0    0    0  501  0.00000000000E+00  0.00000000000E+00 -0.16240832696E+04  0.16240832696E+04  0.25500000920E-02 0. -1.
    10030    2    1    2    0    0  0.00000000000E+00  0.00000000000E+00  0.52573459259E+03  0.37739011319E+04  0.37371022051E+04 0.  0.
        5    1    3    3  502    0  0.53943877037E+03  0.17887626394E+04  0.23439094212E+03  0.18829835822E+04  0.46999998093E+01 0. -1.
       -5    1    3    3    0  502 -0.53943877037E+03 -0.17887626394E+04  0.29134365047E+03  0.18909175497E+04  0.46999998093E+01 0.  1.
</event>
<event>
 5   0  0.6287345E-07  0.2242897E+04  0.7818609E-02  0.8500783E-01
       -1   -1    0    0    0  501  0.00000000000E+00  0.00000000000E+00  0.11499946662E+04  0.11499946662E+04  0.50400001928E-02 0.  1.
        1   -1    0    0  501    0  0.00000000000E+00  0.00000000000E+00 -0.10936106435E+04  0.10936106435E+04  0.50400001928E-02 0. -1.
    10030    2    1    2    0    0  0.00000000000E+00  0.00000000000E+00  0.56384022682E+02  0.22436053097E+04  0.22428967047E+04 0.  0.
        5    1    3    3  502    0  0.39360098316E+03  0.30863478599E+03  0.10322257877E+04  0.11470350177E+04  0.46999998093E+01 0.  1.
       -5    1    3    3    0  502 -0.39360098316E+03 -0.30863478599E+03 -0.97584176500E+03  0.10965702920E+04  0.46999998093E+01 0. -1.
</event>
<event>
 5   0  0.5679750E-07  0.3932515E+04  0.7818609E-02  0.8018300E-01
        3   -1    0    0  501    0  0.00000000000E+00  0.00000000000E+00  0.17937947757E+04  0.17937947785E+04  0.10100000352E+00 0. -1.
       -3   -1    0    0    0  501  0.00000000000E+00  0.00000000000E+00 -0.21553019321E+04  0.21553019344E+04  0.10100000352E+00 0.  1.
    10030    2    1    2    0    0  0.00000000000E+00  0.00000000000E+00 -0.36150715638E+03  0.39490967130E+04  0.39325154068E+04 0.  0.
        4    1    3    3  502    0  0.98237368673E+03  0.12654007974E+04  0.96417232625E+03  0.18697398552E+04  0.12699999809E+01 0. -1.
       -4    1    3    3    0  502 -0.98237368673E+03 -0.12654007974E+04 -0.13256794826E+04  0.20793568578E+04  0.12699999809E+01 0.  1.
</event>
<event>
 5   0  0.1680194E-06  0.3480915E+04  0.7818609E-02  0.8118328E-01
        2   -1    0    0  501    0  0.00000000000E+00  0.00000000000E+00  0.12753412368E+04  0.12753412368E+04  0.25500000920E-02 0. -1.
       -2   -1    0    0    0  501  0.00000000000E+00  0.00000000000E+00 -0.23752011382E+04  0.23752011382E+04  0.25500000920E-02 0.  1.
    10030    2    1    2    0    0  0.00000000000E+00  0.00000000000E+00 -0.10998599013E+04  0.36505423750E+04  0.34809147978E+04 0.  0.
        2    1    3    3  502    0  0.45302781894E+03 -0.13409462877E+04 -0.16121139440E+04  0.21452931081E+04  0.25500000920E-02 0.  1.
       -2    1    3    3    0  502 -0.45302781894E+03  0.13409462877E+04  0.51225404266E+03  0.15052492669E+04  0.25500000920E-02 0. -1.
</event>
<event>
 5   0  0.1685793E-06  0.3764705E+04  0.7818609E-02  0.8053772E-01
        2   -1    0    0  501    0  0.00000000000E+00  0.00000000000E+00  0.25735923821E+04  0.25735923821E+04  0.25500000920E-02 0.  1.
       -2   -1    0    0    0  501  0.00000000000E+00  0.00000000000E+00 -0.13767725267E+04  0.13767725267E+04  0.25500000920E-02 0. -1.
    10030    2    1    2    0    0  0.00000000000E+00  0.00000000000E+00  0.11968198554E+04  0.39503649088E+04  0.37647051872E+04 0.  0.
        3    1    3    3  502    0 -0.85523218217E+03  0.16606679131E+04  0.84227435315E+03  0.20490646889E+04  0.10100000352E+00 0.  1.
       -3    1    3    3    0  502  0.85523218217E+03 -0.16606679131E+04  0.35454550221E+03  0.19013002200E+04  0.10100000352E+00 0. -1.
</event>
<event>
 5   0  0.1680194E-06  0.3664761E+04  0.7818609E-02  0.8075816E-01
       -2   -1    0    0    0  501  0.00000000000E+00  0.00000000000E+00  0.25205114602E+04  0.25205114602E+04  0.25500000920E-02 0. -1.
        2   -1    0    0  501    0  0.00000000000E+00  0.00000000000E+00 -0.13321181436E+04  0.13321181436E+04  0.25500000920E-02 0.  1.
    10030    2    1    2    0    0  0.00000000000E+00  0.00000000000E+00  0.11883933166E+04  0.38526296038E+04  0.36647614096E+04 0.  0.
        2    1    3    3  502    0 -0.11158974945E+03 -0.12679169996E+02  0.25168899156E+04  0.25193943481E+04  0.25500000920E-02 0. -1.
       -2    1    3    3    0  502  0.11158974945E+03  0.12679169996E+02 -0.13284965990E+04  0.13332352557E+04  0.25500000920E-02 0.  1.
</event>
<event>
 5   0  0.6261598E-07  0.3679677E+04  0.7818609E-02  0.8072481E-01
        1   -1    0    0  501    0  0.00000000000E+00  0.00000000000E+00  0.14443461684E+04  0.14443461684E+04  0.50400001928E-02 0.  1.
       -1   -1    0    0    0  501  0.00000000000E+00  0.00000000000E+00 -0.23436250268E+04  0.23436250268E+04  0.50400001928E-02 0. -1.
    10030    2    1    2    0    0  0.00000000000E+00  0.00000000000E+00 -0.89927885844E+03  0.37879711952E+04  0.36796770660E+04 0.  0.
        1    1    3    3  502    0 -0.55309705762E+03  0.87751603235E+03 -0.20139180460E+04  0.22653513278E+04  0.50400001928E-02 0. -1.
       -1    1    3    3    0  502  0.55309705762E+03 -0.87751603235E+03  0.11146391876E+04  0.15226198674E+04  0.50400001928E-02 0.  1.
</event>
<event>
 5   0  0.6186440E-07  0.2498476E+04  0.7818609E-02  0.8403529E-01
        1   -1    0    0  501    0  0.00000000000E+00  0.00000000000E+00  0.19462043336E+04  0.19462043336E+04  0.50400001928E-02 0.  1.
       -1   -1    0    0    0  501  0.00000000000E+00  0.00000000000E+00 -0.80186648439E+03  0.80186648440E+03  0.50400001928E-02 0. -1.
    10030    2    1    2    0    0  0.00000000000E+00  0.00000000000E+00  0.11443378492E+04  0.27480708180E+04  0.24984763572E+04 0.  0.
        3    1    3    3  502    0 -0.66660320680E+03 -0.92875228162E+03  0.11261242170E+04  0.16047106899E+04  0.10100000352E+00 0.  1.
       -3    1    3    3    0  502  0.66660320680E+03  0.92875228162E+03  0.18213632194E+02  0.11433601281E+04  0.10100000352E+00 0. -1.
</event>
<event>
 5   0  0.1685793E-06  0.2252195E+04  0.7818609E-02  0.8497012E-01
       -2   -1    0    0    0  501  0.00000000000E+00  0.00000000000E+00  0.10836903326E+04  0.10836903326E+04  0.25500000920E-02 0. -1.
        2   -1    0    0  501    0  0.00000000000E+00  0.00000000000E+00 -0.11701638888E+04  0.11701638888E+04  0.25500000920E-02 0.  1.
    10030    2    1    2    0    0  0.00000000000E+00  0.00000000000E+00 -0.86473556178E+02  0.22538542215E+04  0.22521947464E+04 0.  0.
        3    1    3    3  502    0  0.42158563702E+03 -0.86215771742E+03 -0.63277601879E+03  0.11495459448E+04  0.10100000352E+00 0.  1.
       -3    1    3    3    0  502 -0.42158563702E+03  0.86215771742E+03  0.54630246261E+03  0.11043082767E+04  0.10100000352E+00 0. -1.
</event>
<event>
 5   0  0.6186440E-07  0.3865408E+04  0.7818609E-02  0.8032262E-01
       -1   -1    0    0    0  501  0.00000000000E+00  0.00000000000E+00  0.20839702873E+04  0.20839702874E+04  0.50400001928E-02 0.  1.
        1   -1    0    0  501    0  0.00000000000E+00  0.00000000000E+00 -0.17924172775E+04  0.17924172775E+04  0.50400001928E-02 0. -1.
    10030    2    1    2    0    0  0.00000000000E+00  0.00000000000E+00  0.29155300984E+03  0.38763875649E+04  0.38654077916E+04 0.  0.
        3    1    3    3  502    0  0.53022898482E+03 -0.16935458763E+04  0.91352538158E+03  0.19959381364E+04  0.10100000352E+00 0.  1.
       -3    1    3    3    0  502 -0.53022898482E+03  0.16935458763E+04 -0.62197237173E+03  0.18804494284E+04  0.10100000352E+00 0. -1.
</event>
<event>
 5   0  0.1151180E-06  0.3745544E+04  0.7818609E-02  0.8057943E-01
       -2   -1    0    0    0  501  0.00000000000E+00  0.00000000000E+00  0.13391572922E+04  0.13391572922E+04  0.25500000920E-02 0. -1.
        2   -1    0    0  501    0  0.00000000000E+00  0.00000000000E+00 -0.26190160880E+04  0.26190160880E+04  0.25500000920E-02 0.  1.
    10030    2    1    2    0    0  0.00000000000E+00  0.00000000000E+00 -0.12798587959E+04  0.39581733802E+04  0.37455437483E+04 0.  0.
        5    1    3    3  502    0  0.77179308567E+03 -0.10972347199E+04 -0.20208894841E+04  0.24256143541E+04  0.46999998093E+01 0.  1.
       -5    1    3    3    0  502 -0.77179308567E+03  0.10972347199E+04  0.74103068826E+03  0.15325590261E+04  0.46999998093E+01 0. -1.
</event>
<event>
 5   0  0.1151180E-06  0.3663374E+04  0.7818609E-02  0.8076127E-01
        2   -1    0    0  501    0  0.00000000000E+00  0.00000000000E+00  0.24542008733E+04  0.24542008733E+04  0.25500000920E-02 0.  1.
       -2   -1    0    0    0  501  0.00000000000E+00  0.00000000000E+00 -0.13670754314E+04  0.13670754314E+04  0.25500000920E-02 0. -1.
    10030    2    1    2    0    0  0.00000000000E+00  0.00000000000E+00  0.10871254419E+04  0.38212763047E+04  0.36633742466E+04 0.  0.
        5    1    3    3  502    0 -0.10412406378E+04  0.14909707474E+04  0.77180877701E+03  0.19755725028E+04  0.46999998093E+01 0.  1.
       -5    1    3    3    0  502  0.10412406378E+04 -0.14909707474E+04  0.31531666484E+03  0.18457038020E+04  0.46999998093E+01 0. -1.
</event>
<event>
 5   0  0.5679750E-07  0.3740042E+04  0.7818609E-02  0.8059145E-01
        1   -1    0    0  501    0  0.00000000000E+00  0.00000000000E+00  0.32097736020E+04  0.32097736020E+04  0.50400001928E-02 0.  1.
       -1   -1    0    0    0  501  0.00000000000E+00  0.00000000000E+00 -0.10894783380E+04  0.10894783380E+04  0.50400001928E-02 0. -1.
    10030    2    1    2    0    0  0.00000000000E+00  0.00000000000E+00  0.21202952639E+04  0.42992519400E+04  0.37400421438E+04 0.  0.
        4    1    3    3  502    0 -0.11896173669E+04 -0.12363234583E+04  0.20509351070E+03  0.17279323291E+04  0.12699999809E+01 0. -1.
       -4    1    3    3    0  502  0.11896173669E+04  0.12363234583E+04  0.19152017532E+04  0.25713196109E+04  0.12699999809E+01 0.  1.
</event>
<event>
 5   0  0.1685793E-06  0.3688912E+04  0.7818609E-02  0.8070424E-01
        2   -1    0    0  501    0  0.00000000000E+00  0.00000000000E+00  0.27089214833E+04  0.27089214833E+04  0.25500000920E-02 0.  1.
       -2   -1    0    0    0  501  0.00000000000E+00  0.00000000000E+00 -0.12558568903E+04  0.12558568903E+04  0.25500000920E-02 0. -1.
    10030    2    1    2    0    0  0.00000000000E+00  0.00000000000E+00  0.14530645929E+04  0.39647783736E+04  0.36889118776E+04 0.  0.
        3    1    3    3  502    0 -0.80620399086E+02 -0.18040190126E+04  0.11301606859E+04  0.21303162753E+04  0.10100000352E+00 0.  1.
       -3    1    3    3    0  502  0.80620399086E+02  0.18040190126E+04  0.32290390706E+03  0.18344620983E+04  0.10100000352E+00 0. -1.
</event>
<event>
 5   0  0.1184684E-06  0.3860906E+04  0.7818609E-02  0.8033209E-01
        2   -1    0    0  501    0  0.00000000000E+00  0.00000000000E+00  0.18222404837E+04  0.18222404837E+04  0.25500000920E-02 0.  1.
       -2   -1    0    0    0  501  0.00000000000E+00  0.00000000000E+00 -0.20450917713E+04  0.20450917713E+04  0.25500000920E-02 0. -1.
    10030    2    1    2    0    0  0.00000000000E+00  0.00000000000E+00 -0.22285128760E+03  0.38673322550E+04  0.38609061208E+04 0.  0.
        4    1    3    3  502    0 -0.96329782611E+03  0.16341069976E+04  0.24749885699E+03  0.19129834496E+04  0.12699999809E+01 0. -1.
       -4    1    3    3    0  502  0.96329782611E+03 -0.16341069976E+04 -0.47035014459E+03  0.19543488053E+04  0.12699999809E+01 0.  1.
</event>
<event>
 5   0  0.1685793E-06  0.3598532E+04  0.7818609E-02  0.8090828E-01
       -2   -1    0    0    0  501  0.00000000000E+00  0.00000000000E+00  0.27420358813E+04  0.27420358813E+04  0.25500000920E-02 0.  1.
        2   -1    0    0  501    0  0.00000000000E+00  0.00000000000E+00 -0.11806402076E+04  0.11806402076E+04  0.25500000920E-02 0. -1.
    10030    2    1    2    0    0  0.00000000000E+00  0.00000000000E+00  0.15613956737E+04  0.39226760889E+04  0.35985318184E+04 0.  0.
        3    1    3    3  502    0  0.17394856257E+04 -0.17264006896E+03  0.12454119985E+04  0.21463144904E+04  0.10100000352E+00 0.  1.
       -3    1    3    3    0  502 -0.17394856257E+04  0.17264006896E+03  0.31598367518E+03  0.17763615985E+04  0.10100000352E+00 0. -1.
</event>
<event>
 5   0  0.1151180E-06  0.2063361E+04  0.7818609E-02  0.8577557E-01
       -2   -1    0    0    0  501  0.00000000000E+00  0.00000000000E+00  0.75799712179E+03  0.75799712179E+03  0.25500000920E-02 0. -1.
        2   -1    0    0  501    0  0.00000000000E+00  0.00000000000E+00 -0.14041801092E+04  0.14041801092E+04  0.25500000920E-02 0.  1.
    10030    2    1    2    0    0  0.00000000000E+00  0.00000000000E+00 -0.64618298741E+03  0.21621772310E+04  0.20633608325E+04 0.  0.
        5    1    3    3  502    0 -0.27613356439E+03 -0.41832146615E+03  0.62181325938E+03  0.79869669710E+03  0.46999998093E+01 0. -1.
       -5    1    3    3    0  502  0.27613356439E+03  0.41832146615E+03 -0.12679962468E+04  0.13634805339E+04  0.46999998093E+01 0.  1.
</event>
<event>
 5   0  0.1184684E-06  0.3682714E+04  0.7818609E-02  0.8071803E-01
       -2   -1    0    0    0  501  0.00000000000E+00  0.00000000000E+00  0.12463893598E+04  0.12463893598E+04  0.25500000920E-02 0. -1.
        2   -1    0    0  501    0  0.00000000000E+00  0.00000000000E+00 -0.27203341925E+04  0.27203341925E+04  0.25500000920E-02 0.  1.
    10030    2    1    2    0    0  0.00000000000E+00  0.00000000000E+00 -0.14739448326E+04  0.39667235523E+04  0.36827139952E+04 0.  0.
        4    1    3    3  502    0 -0.13173012605E+04  0.41237562275E+02 -0.21220707183E+04  0.24980330049E+04  0.12699999809E+01 0.  1.
       -4    1    3    3    0  502  0.13173012605E+04 -0.41237562275E+02  0.64812588565E+03  0.14686905474E+04  0.12699999809E+01 0. -1.
</event>
<event>
 5   0  0.6186440E-07  0.3659556E+04  0.7818609E-02  0.8076984E-01
       -1   -1    0    0    0  501  0.00000000000E+00  0.00000000000E+00  0.20510798300E+04  0.20510798300E+04  0.50400001928E-02 0. -1.
        1   -1    0    0  501    0  0.00000000000E+00  0.00000000000E+00 -0.16323539893E+04  0.16323539893E+04  0.50400001928E-02 0.  1.
    10030    2    1    2    0    0  0.00000000000E+00  0.00000000000E+00  0.41872584067E+03  0.36834338193E+04  0.36595564447E+04 0.  0.
        3    1    3    3  502    0 -0.74296755677E+03 -0.16702075621E+04  0.12825025992E+03  0.18324961747E+04  0.10100000352E+00 0. -1.
       -3    1    3    3    0  502  0.74296755677E+03  0.16702075621E+04  0.29047558075E+03  0.18509376446E+04  0.10100000352E+00 0.  1.
</event>
<event>
 5   0  0.1151180E-06  0.3690446E+04  0.7818609E-02  0.8070083E-01
       -2   -1    0    0    0  501  0.00000000000E+00  0.00000000000E+00  0.14971049968E+04  0.14971049968E+04  0.25500000920E-02 0.  1.
        2   -1    0    0  501    0  0.00000000000E+00  0.00000000000E+00 -0.22742874809E+04  0.22742874809E+04  0.25500000920E-02 0. -1.
    10030    2    1    2    0    0  0.00000000000E+00  0.00000000000E+00 -0.77718248407E+03  0.37713924777E+04  0.36904455839E+04 0.  0.
        5    1    3    3  502    0  0.28284270674E+03 -0.58464744243E+03 -0.21536145966E+04  0.22494200473E+04  0.46999998093E+01 0. -1.
       -5    1    3    3    0  502 -0.28284270674E+03  0.58464744243E+03  0.13764321125E+04  0.15219724304E+04  0.46999998093E+01 0.  1.
</event>
<event>
 5   0  0.6287345E-07  0.3763836E+04  0.7818609E-02  0.8053960E-01
        1   -1    0    0  501    0  0.00000000000E+00  0.00000000000E+00  0.22118836034E+04  0.22118836034E+04  0.50400001928E-02 0.  1.
       -1   -1    0    0    0  501  0.00000000000E+00  0.00000000000E+00 -0.16011761502E+04  0.16011761502E+04  0.50400001928E-02 0. -1.
    10030    2    1    2    0    0  0.00000000000E+00  0.00000000000E+00  0.61070745313E+03  0.38130597536E+04  0.37638359543E+04 0.  0.
        5    1    3    3  502    0  0.28801126411E+02  0.99965658521E+03  0.19203954359E+04  0.21651982620E+04  0.46999998093E+01 0.  1.
       -5    1    3    3    0  502 -0.28801126411E+02 -0.99965658521E+03 -0.13096879828E+04  0.16478614916E+04  0.46999998093E+01 0. -1.
</event>
<event>
 5   0  0.6287345E-07  0.3673952E+04  0.7818609E-02  0.8073759E-01
        1   -1    0    0  501    0  0.00000000000E+00  0.00000000000E+00  0.14413587310E+04  0.14413587310E+04  0.50400001928E-02 0.  1.
       -1   -1    0    0    0  501  0.00000000000E+00  0.00000000000E+00 -0.23411804540E+04  0.23411804540E+04  0.50400001928E-02 0. -1.
    10030    2    1    2    0    0  0.00000000000E+00  0.00000000000E+00 -0.89982172296E+03  0.37825391850E+04  0.36739520347E+04 0.  0.
        5    1    3    3  502    0 -0.17376708137E+04 -0.24325701048E+03  0.11002463956E+03  0.17580675019E+04  0.46999998093E+01 0.  1.
       -5    1    3    3    0  502  0.17376708137E+04  0.24325701048E+03 -0.10098463625E+04  0.20244716831E+04  0.46999998093E+01 0. -1.
</event>
<event>
 5   0  0.6287345E-07  0.3775813E+04  0.7818609E-02  0.8051365E-01
       -1   -1    0    0    0  501  0.00000000000E+00  0.00000000000E+00  0.17072340555E+04  0.17072340555E+04  0.50400001928E-02 0.  1.
        1   -1    0    0  501    0  0.00000000000E+00  0.00000000000E+00 -0.20876995576E+04  0.20876995577E+04  0.50400001928E-02 0. -1.
    10030    2    1    2    0    0  0.00000000000E+00  0.00000000000E+00 -0.38046550218E+03  0.37949336131E+04  0.37758134395E+04 0.  0.
        5    1    3    3  502    0 -0.18333004841E+04 -0.18643860724E+03  0.22223506307E+03  0.18561143641E+04  0.46999998093E+01 0.  1.
       -5    1    3    3    0  502  0.18333004841E+04  0.18643860724E+03 -0.60270056525E+03  0.19388192491E+04  0.46999998093E+01 0. -1.
</event>
<event>
 5   0  0.1151180E-06  0.3734501E+04  0.7818609E-02  0.8060359E-01
        2   -1    0    0  501    0  0.00000000000E+00  0.00000000000E+00  0.24995538022E+04  0.24995538022E+04  0.25500000920E-02 0.  1.
       -2   -1    0    0    0  501  0.00000000000E+00  0.00000000000E+00 -0.13948985695E+04  0.13948985695E+04  0.25500000920E-02 0. -1.
    10030    2    1    2    0    0  0.00000000000E+00  0.00000000000E+00  0.11046552327E+04  0.38944523716E+04  0.37345007821E+04 0.  0.
        5    1    3    3  502    0 -0.15556184015E+04  0.48645568099E+03  0.15023997965E+04  0.22167126515E+04  0.46999998093E+01 0.  1.
       -5    1    3    3    0  502  0.15556184015E+04 -0.48645568099E+03 -0.39774456381E+03  0.16777397202E+04  0.46999998093E+01 0. -1.
</event>
<event>
 5   0  0.6261598E-07  0.2445193E+04  0.7818609E-02  0.8422775E-01
       -1   -1    0    0    0  501  0.00000000000E+00  0.00000000000E+00  0.65094777246E+03  0.65094777248E+03  0.50400001928E-02 0. -1.
        1   -1    0    0  501    0  0.00000000000E+00  0.00000000000E+00 -0.22962549842E+04  0.22962549842E+04  0.50400001928E-02 0.  1.
    10030    2    1    2    0    0  0.00000000000E+00  0.00000000000E+00 -0.16453072117E+04  0.29472027567E+04  0.24451928897E+04 0.  0.
        1    1    3    3  502    0 -0.31597516491E+03  0.95228790748E+02 -0.22415555291E+04  0.22657184330E+04  0.50400001928E-02 0.  1.
       -1    1    3    3    0  502  0.31597516491E+03 -0.95228790748E+02  0.59624831739E+03  0.68148432370E+03  0.50400001928E-02 0. -1.
</event>
<event>
 5   0  0.6186440E-07  0.3062304E+04  0.7818609E-02  0.8226160E-01
       -1   -1    0    0    0  501  0.00000000000E+00  0.00000000000E+00  0.13720778842E+04  0.13720778842E+04  0.50400001928E-02 0.  1.
        1   -1    0    0  501    0  0.00000000000E+00  0.00000000000E+00 -0.17086691103E+04  0.17086691103E+04  0.50400001928E-02 0. -1.
    10030    2    1    2    0    0  0.00000000000E+00  0.00000000000E+00 -0.33659122613E+03  0.30807469945E+04  0.30623044249E+04 0.  0.
        3    1    3    3  502    0  0.45938742143E+03  0.13201050028E+04 -0.79713051642E+03  0.16090777146E+04  0.10100000352E+00 0. -1.
       -3    1    3    3    0  502 -0.45938742143E+03 -0.13201050028E+04  0.46053929028E+03  0.14716692799E+04  0.10100000352E+00 0.  1.
</event>
<event>
 5   0  0.1151180E-06  0.3637830E+04  0.7818609E-02  0.8081881E-01
        2   -1    0    0  501    0  0.00000000000E+00  0.00000000000E+00  0.15413352262E+04  0.15413352262E+04  0.25500000920E-02 0.  1.
       -2   -1    0    0    0  501  0.00000000000E+00  0.00000000000E+00 -0.21464839659E+04  0.21464839659E+04  0.25500000920E-02 0. -1.
    10030    2    1    2    0    0  0.00000000000E+00  0.00000000000E+00 -0.60514873971E+03  0.36878191922E+04  0.36378297647E+04 0.  0.
        5    1    3    3  502    0 -0.15804018108E+04  0.70671993227E+03  0.26304101252E+03  0.17510955458E+04  0.46999998093E+01 0.  1.
       -5    1    3    3    0  502  0.15804018108E+04 -0.70671993227E+03 -0.86818975223E+03  0.19367236463E+04  0.46999998093E+01 0. -1.
</event>
<event>
 5   0  0.5679750E-07  0.2056607E+04  0.7818609E-02  0.8580603E-01
       -1   -1    0    0    0  501  0.00000000000E+00  0.00000000000E+00  0.11594931606E+04  0.11594931606E+04  0.50400001928E-02 0.  1.
        1   -1    0    0  501    0  0.00000000000E+00  0.00000000000E+00 -0.91195735476E+03  0.91195735477E+03  0.50400001928E-02 0. -1.
    10030    2    1    2    0    0  0.00000000000E+00  0.00000000000E+00  0.24753580582E+03  0.20714505154E+04  0.20566072212E+04 0.  0.
        4    1    3    3  502    0 -0.91933695046E+03  0.36316377954E+03  0.40925378932E+03  0.10698404723E+04  0.12699999809E+01 0.  1.
       -4    1    3    3    0  502  0.91933695046E+03 -0.36316377954E+03 -0.16171798349E+03  0.10016100430E+04  0.12699999809E+01 0. -1.
</event>
<event>
 5   0  0.6186440E-07  0.2835003E+04  0.7818609E-02  0.8292483E-01
        1   -1    0    0  501    0  0.00000000000E+00  0.00000000000E+00  0.24832858133E+04  0.24832858133E+04  0.50400001928E-02 0.  1.
       -1   -1    0    0    0  501  0.00000000000E+00  0.00000000000E+00 -0.80913401108E+03  0.80913401110E+03  0.50400001928E-02 0. -1.
    10030    2    1    2    0    0  0.00000000000E+00  0.00000000000E+00  0.16741518022E+04  0.32924198244E+04  0.28350033586E+04 0.  0.
        3    1    3    3  502    0 -0.11119425833E+04  0.77169853221E+03  0.34796297397E+03  0.13975024775E+04  0.10100000352E+00 0.  1.
       -3    1    3    3    0  502  0.11119425833E+04 -0.77169853221E+03  0.13261888282E+04  0.18949173469E+04  0.10100000352E+00 0. -1.
</event>
<event>
 5   0  0.5875011E-07  0.3736519E+04  0.7818609E-02  0.8059917E-01
        1   -1    0    0  501    0  0.00000000000E+00  0.00000000000E+00  0.21561085900E+04  0.21561085900E+04  0.50400001928E-02 0.  1.
       -1   -1    0    0    0  501  0.00000000000E+00  0.00000000000E+00 -0.16188392063E+04  0.16188392063E+04  0.50400001928E-02 0. -1.
    10030    2    1    2    0    0  0.00000000000E+00  0.00000000000E+00  0.53726938369E+03  0.37749477963E+04  0.37365187640E+04 0.  0.
        2    1    3    3  502    0  0.10204725902E+04 -0.14965588964E+04  0.73087752228E+03  0.19532626015E+04  0.25500000920E-02 0.  1.
       -2    1    3    3    0  502 -0.10204725902E+04  0.14965588964E+04 -0.19360813859E+03  0.18216851948E+04  0.25500000920E-02 0. -1.
</event>
<event>
 5   0  0.1151180E-06  0.3760431E+04  0.7818609E-02  0.8054700E-01
        2   -1    0    0  501    0  0.00000000000E+00  0.00000000000E+00  0.16528043191E+04  0.16528043191E+04  0.25500000920E-02 0. -1.
       -2   -1    0    0    0  501  0.00000000000E+00  0.00000000000E+00 -0.21389162055E+04  0.21389162055E+04  0.25500000920E-02 0.  1.
    10030    2    1    2    0    0  0.00000000000E+00  0.00000000000E+00 -0.48611188637E+03  0.37917205246E+04  0.37604307959E+04 0.  0.
        5    1    3    3  502    0 -0.67465509051E+03  0.30567789141E+03 -0.19856108750E+04  0.21192619238E+04  0.46999998093E+01 0.  1.
       -5    1    3    3    0  502  0.67465509051E+03 -0.30567789141E+03  0.14994989887E+04  0.16724586008E+04  0.46999998093E+01 0. -1.
</event>
<event>
 5   0  0.1680194E-06  0.3704188E+04  0.7818609E-02  0.8067034E-01
        2   -1    0    0  501    0  0.00000000000E+00  0.00000000000E+00  0.23299398665E+04  0.23299398665E+04  0.25500000920E-02 0. -1.
       -2   -1    0    0    0  501  0.00000000000E+00  0.00000000000E+00 -0.14722495519E+04  0.14722495519E+04  0.25500000920E-02 0.  1.
    10030    2    1    2    0    0  0.00000000000E+00  0.00000000000E+00  0.85769031463E+03  0.38021894184E+04  0.37041883993E+04 0.  0.
        2    1    3    3  502    0  0.78231488757E+03  0.10951223879E+04  0.17348852242E+04  0.21957086257E+04  0.25500000920E-02 0. -1.
       -2    1    3    3    0  502 -0.78231488757E+03 -0.10951223879E+04 -0.87719490957E+03  0.16064807927E+04  0.25500000920E-02 0.  1.
</event>
<event>
 5   0  0.1685793E-06  0.3623334E+04  0.7818609E-02  0.8085168E-01
       -2   -1    0    0    0  501  0.00000000000E+00  0.00000000000E+00  0.22582645026E+04  0.22582645026E+04  0.25500000920E-02 0.  1.
        2   -1    0    0  501    0  0.00000000000E+00  0.00000000000E+00 -0.14533891710E+04  0.14533891710E+04  0.25500000920E-02 0. -1.
    10030    2    1    2    0    0  0.00000000000E+00  0.00000000000E+00  0.80487533159E+03  0.37116536736E+04  0.36233339196E+04 0.  0.
        3    1    3    3  502    0 -0.10714716656E+04  0.90175060210E+03  0.15797704364E+04  0.21111324734E+04  0.10100000352E+00 0.  1.
       -3    1    3    3    0  502  0.10714716656E+04 -0.90175060210E+03 -0.77489510478E+03  0.16005212001E+04  0.10100000352E+00 0. -1.
</event>
<event>
 5   0  0.1184684E-06  0.2199727E+04  0.7818609E-02  0.8518542E-01
       -2   -1    0    0    0  501  0.00000000000E+00  0.00000000000E+00  0.12971081576E+04  0.12971081576E+04  0.25500000920E-02 0.  1.
        2   -1    0    0  501    0  0.00000000000E+00  0.00000000000E+00 -0.93261253796E+03  0.93261253797E+03  0.25500000920E-02 0. -1.
    10030    2    1    2    0    0  0.00000000000E+00  0.00000000000E+00  0.36449561959E+03  0.22297206955E+04  0.21997266474E+04 0.  0.
        4    1    3    3  502    0 -0.21123239971E+03  0.38781971144E+03  0.12032933532E+04  0.12817721178E+04  0.12699999809E+01 0.  1.
       -4    1    3    3    0  502  0.21123239971E+03 -0.38781971144E+03 -0.83879773358E+03  0.94794857773E+03  0.12699999809E+01 0. -1.
</event>
<event>
 5   0  0.6186440E-07  0.3682080E+04  0.7818609E-02  0.8071945E-01
       -1   -1    0    0    0  501  0.00000000000E+00  0.00000000000E+00  0.17436610132E+04  0.17436610132E+04  0.50400001928E-02 0. -1.
        1   -1    0    0  501    0  0.00000000000E+00  0.00000000000E+00 -0.19438569295E+04  0.19438569296E+04  0.50400001928E-02 0.  1.
    10030    2    1    2    0    0  0.00000000000E+00  0.00000000000E+00 -0.20019591636E+03  0.36875179427E+04  0.36820795990E+04 0.  0.
        3    1    3    3  502    0  0.13516653034E+04 -0.10117620704E+04 -0.83518884903E+03  0.18836671689E+04  0.10100000352E+00 0.  1.
       -3    1    3    3    0  502 -0.13516653034E+04  0.10117620704E+04  0.63499293266E+03  0.18038507738E+04  0.10100000352E+00 0. -1.
</event>
<event>
 5   0  0.1184684E-06  0.3100789E+04  0.7818609E-02  0.8215521E-01
       -2   -1    0    0    0  501  0.00000000000E+00  0.00000000000E+00  0.12013549810E+04  0.12013549810E+04  0.25500000920E-02 0. -1.
        2   -1    0    0  501    0  0.00000000000E+00  0.00000000000E+00 -0.20008430240E+04  0.20008430240E+04  0.25500000920E-02 0.  1.
    10030    2    1    2    0    0  0.00000000000E+00  0.00000000000E+00 -0.79948804302E+03  0.32021980050E+04  0.31007887597E+04 0.  0.
        4    1    3    3  502    0  0.49889912245E+03 -0.16130604445E+03 -0.19065021714E+04  0.19772890828E+04  0.12699999809E+01 0.  1.
       -4    1    3    3    0  502 -0.49889912245E+03  0.16130604445E+03  0.11070141284E+04  0.12249089222E+04  0.12699999809E+01 0. -1.
</event>
<event>
 5   0  0.1685793E-06  0.3842950E+04  0.7818609E-02  0.8037000E-01
        2   -1    0    0  501    0  0.00000000000E+00  0.00000000000E+00  0.19465375211E+04  0.19465375211E+04  0.25500000920E-02 0. -1.
       -2   -1    0    0    0  501  0.00000000000E+00  0.00000000000E+00 -0.18967347249E+04  0.18967347249E+04  0.25500000920E-02 0.  1.
    10030    2    1    2    0    0  0.00000000000E+00  0.00000000000E+00  0.49802796190E+02  0.38432722460E+04  0.38429495492E+04 0.  0.
        3    1    3    3  502    0  0.22891224528E+03 -0.10388849487E+04 -0.15753525070E+04  0.19008993357E+04  0.10100000352E+00 0.  1.
       -3    1    3    3    0  502 -0.22891224528E+03  0.10388849487E+04  0.16251553032E+04  0.19423729103E+04  0.10100000352E+00 0. -1.
</event>
<event>
 5   0  0.5875011E-07  0.2371608E+04  0.7818609E-02  0.8450210E-01
        1   -1    0    0  501    0  0.00000000000E+00  0.00000000000E+00  0.15930597245E+04  0.15930597245E+04  0.50400001928E-02 0.  1.
       -1   -1    0    0    0  501  0.00000000000E+00  0.00000000000E+00 -0.88266041086E+03  0.88266041088E+03  0.50400001928E-02 0. -1.
    10030    2    1    2    0    0  0.00000000000E+00  0.00000000000E+00  0.71039931362E+03  0.24757201354E+04  0.23716076834E+04 0.  0.
        2    1    3    3  502    0 -0.11244821877E+04 -0.36859974374E+03  0.27566581919E+03  0.12150381086E+04  0.25500000920E-02 0.  1.
       -2    1    3    3    0  502  0.11244821877E+04  0.36859974374E+03  0.43473349443E+03  0.12606820268E+04  0.25500000920E-02 0. -1.
</event>
<event>
 5   0  0.1151180E-06  0.3786754E+04  0.7818609E-02  0.8049003E-01
       -2   -1    0    0    0  501  0.00000000000E+00  0.00000000000E+00  0.14970465000E+04  0.14970465000E+04  0.25500000920E-02 0.  1.
        2   -1    0    0  501    0  0.00000000000E+00  0.00000000000E+00 -0.23946325185E+04  0.23946325185E+04  0.25500000920E-02 0. -1.
    10030    2    1    2    0    0  0.00000000000E+00  0.00000000000E+00 -0.89758601851E+03  0.38916790184E+04  0.37867538766E+04 0.  0.
        5    1    3    3  502    0 -0.68907398078E+03  0.49058201276E+03 -0.21896475729E+04  0.23473543076E+04  0.46999998093E+01 0. -1.
       -5    1    3    3    0  502  0.68907398078E+03 -0.49058201276E+03  0.12920615543E+04  0.15443247108E+04  0.46999998093E+01 0.  1.
</event>
<event>
 5   0  0.1151180E-06  0.3702721E+04  0.7818609E-02  0.8067359E-01
        2   -1    0    0  501    0  0.00000000000E+00  0.00000000000E+00  0.11020443507E+04  0.11020443507E+04  0.25500000920E-02 0. -1.
       -2   -1    0    0    0  501  0.00000000000E+00  0.00000000000E+00 -0.31101609834E+04  0.31101609834E+04  0.25500000920E-02 0.  1.
    10030    2    1    2    0    0  0.00000000000E+00  0.00000000000E+00 -0.20081166327E+04  0.42122053340E+04  0.37027208058E+04 0.  0.
        5    1    3    3  502    0 -0.22370285777E+03  0.95962959157E+03 -0.27870698019E+04  0.29561312711E+04  0.46999998093E+01 0.  1.
       -5    1    3    3    0  502  0.22370285777E+03 -0.95962959157E+03  0.77895316922E+03  0.12560740629E+04  0.46999998093E+01 0. -1.
</event>
<event>
 5   0  0.6261598E-07  0.3735666E+04  0.7818609E-02  0.8060103E-01
        1   -1    0    0  501    0  0.00000000000E+00  0.00000000000E+00  0.24920779056E+04  0.24920779056E+04  0.50400001928E-02 0. -1.
       -1   -1    0    0    0  501  0.00000000000E+00  0.00000000000E+00 -0.13999566552E+04  0.13999566552E+04  0.50400001928E-02 0.  1.
    10030    2    1    2    0    0  0.00000000000E+00  0.00000000000E+00  0.10921212504E+04  0.38920345607E+04  0.37356664996E+04 0.  0.
        1    1    3    3  502    0 -0.49784251345E+03  0.16607601002E+04  0.12700056875E+04  0.21491593066E+04  0.50400001928E-02 0.  1.
       -1    1    3    3    0  502  0.49784251345E+03 -0.16607601002E+04 -0.17788443708E+03  0.17428752542E+04  0.50400001928E-02 0. -1.
</event>
<event>
 5   0  0.1151180E-06  0.3077807E+04  0.7818609E-02  0.8221855E-01
       -2   -1    0    0    0  501  0.00000000000E+00  0.00000000000E+00  0.12049948619E+04  0.12049948619E+04  0.25500000920E-02 0. -1.
        2   -1    0    0  501    0  0.00000000000E+00  0.00000000000E+00 -0.19653398668E+04  0.19653398668E+04  0.25500000920E-02 0.  1.
    10030    2    1    2    0    0  0.00000000000E+00  0.00000000000E+00 -0.76034500490E+03  0.31703347286E+04  0.30778072982E+04 0.  0.
        5    1    3    3  502    0  0.15283610999E+04 -0.15092280931E+03 -0.27957905234E+03  0.15610419221E+04  0.46999998093E+01 0.  1.
       -5    1    3    3    0  502 -0.15283610999E+04  0.15092280931E+03 -0.48076595256E+03  0.16092928065E+04  0.46999998093E+01 0. -1.
</event>
<event>
 5   0  0.1680194E-06  0.3730844E+04  0.7818609E-02  0.8061161E-01
        2   -1    0    0  501    0  0.00000000000E+00  0.00000000000E+00  0.15917271180E+04  0.15917271180E+04  0.25500000920E-02 0. -1.
       -2   -1    0    0    0  501  0.00000000000E+00  0.00000000000E+00 -0.21861787499E+04  0.21861787499E+04  0.25500000920E-02 0.  1.
    10030    2    1    2    0    0  0.00000000000E+00  0.00000000000E+00 -0.59445163194E+03  0.37779058679E+04  0.37308444089E+04 0.  0.
        2    1    3    3  502    0  0.11013258357E+04  0.14955194325E+04 -0.12095231315E+03  0.18612163849E+04  0.25500000920E-02 0. -1.
       -2    1    3    3    0  502 -0.11013258357E+04 -0.14955194325E+04 -0.47349931880E+03  0.19166894830E+04  0.25500000920E-02 0.  1.
</event>
<event>
 5   0  0.1680194E-06  0.3569752E+04  0.7818609E-02  0.8097456E-01
        2   -1    0    0  501    0  0.00000000000E+00  0.00000000000E+00  0.24737715379E+04  0.24737715379E+04  0.25500000920E-02 0.  1.
       -2   -1    0    0    0  501  0.00000000000E+00  0.00000000000E+00 -0.12878241281E+04  0.12878241281E+04  0.25500000920E-02 0. -1.
    10030    2    1    2    0    0  0.00000000000E+00  0.00000000000E+00  0.11859474098E+04  0.37615956660E+04  0.35697521896E+04 0.  0.
        2    1    3    3  502    0  0.25008001610E+03  0.67925708952E+03 -0.11262248331E+04  0.13387727899E+04  0.25500000920E-02 0. -1.
       -2    1    3    3    0  502 -0.25008001610E+03 -0.67925708952E+03  0.23121722429E+04  0.24228228761E+04  0.25500000920E-02 0.  1.
</event>
<event>
 5   0  0.1685793E-06  0.3059527E+04  0.7818609E-02  0.8226934E-01
        2   -1    0    0  501    0  0.00000000000E+00  0.00000000000E+00  0.24714910469E+04  0.24714910469E+04  0.25500000920E-02 0.  1.
       -2   -1    0    0    0  501  0.00000000000E+00  0.00000000000E+00 -0.94686818003E+03  0.94686818004E+03  0.25500000920E-02 0. -1.
    10030    2    1    2    0    0  0.00000000000E+00  0.00000000000E+00  0.15246228669E+04  0.34183592269E+04  0.30595269108E+04 0.  0.
        3    1    3    3  502    0 -0.49832337810E+03  0.12763837092E+04  0.15223063098E+04  0.20481450323E+04  0.10100000352E+00 0.  1.
       -3    1    3    3    0  502  0.49832337810E+03 -0.12763837092E+04  0.23165570346E+01  0.13702141946E+04  0.10100000352E+00 0. -1.
</event>
<event>
 5   0  0.6287345E-07  0.3598050E+04  0.7818609E-02  0.8090938E-01
        1   -1    0    0  501    0  0.00000000000E+00  0.00000000000E+00  0.14552855676E+04  0.14552855676E+04  0.50400001928E-02 0.  1.
       -1   -1    0    0    0  501  0.00000000000E+00  0.00000000000E+00 -0.22239560631E+04  0.22239560631E+04  0.50400001928E-02 0. -1.
    10030    2    1    2    0    0  0.00000000000E+00  0.00000000000E+00 -0.76867049552E+03  0.36792416307E+04  0.35980501173E+04 0.  0.
        5    1    3    3  502    0 -0.95173472260E+03  0.60308587307E+03  0.10497949893E+04  0.15400010267E+04  0.46999998093E+01 0.  1.
       -5    1    3    3    0  502  0.95173472260E+03 -0.60308587307E+03 -0.18184654849E+04  0.21392406041E+04  0.46999998093E+01 0. -1.
</event>
<event>
 5   0  0.5679750E-07  0.3671377E+04  0.7818609E-02  0.8074335E-01
        1   -1    0    0  501    0  0.00000000000E+00  0.00000000000E+00  0.24843715872E+04  0.24843715872E+04  0.50400001928E-02 0. -1.
       -1   -1    0    0    0  501  0.00000000000E+00  0.00000000000E+00 -0.13563799542E+04  0.13563799542E+04  0.50400001928E-02 0.  1.
    10030    2    1    2    0    0  0.00000000000E+00  0.00000000000E+00  0.11279916330E+04  0.38407515414E+04  0.36713767552E+04 0.  0.
        4    1    3    3  502    0  0.18026803781E+04  0.34622886993E+03  0.54850629708E+03  0.19158266484E+04  0.12699999809E+01 0. -1.
       -4    1    3    3    0  502 -0.18026803781E+04 -0.34622886993E+03  0.57948533597E+03  0.19249248930E+04  0.12699999809E+01 0.  1.
</event>
<event>
 5   0  0.1151180E-06  0.3686979E+04  0.7818609E-02  0.8070854E-01
       -2   -1    0    0    0  501  0.00000000000E+00  0.00000000000E+00  0.13986934250E+04  0.13986934250E+04  0.25500000920E-02 0.  1.
        2   -1    0    0  501    0  0.00000000000E+00  0.00000000000E+00 -0.24297345014E+04  0.24297345014E+04  0.25500000920E-02 0. -1.
    10030    2    1    2    0    0  0.00000000000E+00  0.00000000000E+00 -0.10310410764E+04  0.38284279263E+04  0.36869790732E+04 0.  0.
        5    1    3    3  502    0 -0.18130199243E+04  0.32694825218E+03 -0.44590228012E+03  0.18954649400E+04  0.46999998093E+01 0. -1.
       -5    1    3    3    0  502  0.18130199243E+04 -0.32694825218E+03 -0.58513879628E+03  0.19329629863E+04  0.46999998093E+01 0.  1.
</event>
<event>
 5   0  0.6287345E-07  0.3690561E+04  0.7818609E-02  0.8070057E-01
       -1   -1    0    0    0  501  0.00000000000E+00  0.00000000000E+00  0.19753300387E+04  0.19753300387E+04  0.50400001928E-02 0.  1.
        1   -1    0    0  501    0  0.00000000000E+00  0.00000000000E+00 -0.17237929503E+04  0.17237929503E+04  0.50400001928E-02 0. -1.
    10030    2    1    2    0    0  0.00000000000E+00  0.00000000000E+00  0.25153708835E+03  0.36991229890E+04  0.36905609304E+04 0.  0.
        5    1    3    3  502    0 -0.10071832658E+04  0.95278967892E+03 -0.10947640423E+04  0.17665663592E+04  0.46999998093E+01 0. -1.
       -5    1    3    3    0  502  0.10071832658E+04 -0.95278967892E+03  0.13463011306E+04  0.19325566298E+04  0.46999998093E+01 0.  1.
</event>
<event>
 5   0  0.1151180E-06  0.2328472E+04  0.7818609E-02  0.8466779E-01
        2   -1    0    0  501    0  0.00000000000E+00  0.00000000000E+00  0.10294854654E+04  0.10294854654E+04  0.25500000920E-02 0.  1.
       -2   -1    0    0    0  501  0.00000000000E+00  0.00000000000E+00 -0.13166240934E+04  0.13166240934E+04  0.25500000920E-02 0. -1.
    10030    2    1    2    0    0  0.00000000000E+00  0.00000000000E+00 -0.28713862801E+03  0.23461095588E+04  0.23284719174E+04 0.  0.
        5    1    3    3  502    0 -0.63209508662E+03  0.20532413759E+03 -0.11066975298E+04  0.12909313353E+04  0.46999998093E+01 0. -1.
       -5    1    3    3    0  502  0.63209508662E+03 -0.20532413759E+03  0.81955890176E+03  0.10551782236E+04  0.46999998093E+01 0.  1.
</event>
<event>
 5   0  0.1724503E-06  0.3675236E+04  0.7818609E-02  0.8073472E-01
       -2   -1    0    0    0  501  0.00000000000E+00  0.00000000000E+00  0.26834588853E+04  0.26834588853E+04  0.25500000920E-02 0.  1.
        2   -1    0    0  501    0  0.00000000000E+00  0.00000000000E+00 -0.12583909982E+04  0.12583909982E+04  0.25500000920E-02 0. -1.
    10030    2    1    2    0    0  0.00000000000E+00  0.00000000000E+00  0.14250678872E+04  0.39418498835E+04  0.36752363218E+04 0.  0.
        1    1    3    3  502    0  0.61538612714E+02 -0.34623533202E+03  0.26470328900E+04  0.26702900642E+04  0.50400001928E-02 0.  1.
       -1    1    3    3    0  502 -0.61538612714E+02  0.34623533202E+03 -0.12219650028E+04  0.12715598193E+04  0.50400001928E-02 0. -1.
</event>
<event>
 5   0  0.1680194E-06  0.3705212E+04  0.7818609E-02  0.8066808E-01
       -2   -1    0    0    0  501  0.00000000000E+00  0.00000000000E+00  0.14777530709E+04  0.14777530709E+04  0.25500000920E-02 0.  1.
        2   -1    0    0  501    0  0.00000000000E+00  0.00000000000E+00 -0.23225453118E+04  0.23225453118E+04  0.25500000920E-02 0. -1.
    10030    2    1    2    0    0  0.00000000000E+00  0.00000000000E+00 -0.84479224087E+03  0.38002983827E+04  0.37052117169E+04 0.  0.
        2    1    3    3  502    0 -0.54632872114E+03 -0.70759429343E+03 -0.20866851646E+04  0.22701144755E+04  0.25500000920E-02 0. -1.
       -2    1    3    3    0  502  0.54632872114E+03  0.70759429343E+03  0.12418929238E+04  0.15301839072E+04  0.25500000920E-02 0.  1.
</event>
<event>
 5   0  0.1680194E-06  0.2357366E+04  0.7818609E-02  0.8455640E-01
       -2   -1    0    0    0  501  0.00000000000E+00  0.00000000000E+00  0.13068200927E+04  0.13068200927E+04  0.25500000920E-02 0.  1.
        2   -1    0    0  501    0  0.00000000000E+00  0.00000000000E+00 -0.10631101293E+04  0.10631101293E+04  0.25500000920E-02 0. -1.
    10030    2    1    2    0    0  0.00000000000E+00  0.00000000000E+00  0.24370996340E+03  0.23699302220E+04  0.23573660536E+04 0.  0.
        2    1    3    3  502    0 -0.39683901870E+03 -0.68523830118E+03  0.99958381954E+03  0.12752256853E+04  0.25500000920E-02 0.  1.
       -2    1    3    3    0  502  0.39683901870E+03  0.68523830118E+03 -0.75587385615E+03  0.10947045367E+04  0.25500000920E-02 0. -1.
</event>
<event>
 5   0  0.5875011E-07  0.3491931E+04  0.7818609E-02  0.8115705E-01
        1   -1    0    0  501    0  0.00000000000E+00  0.00000000000E+00  0.15113861408E+04  0.15113861408E+04  0.50400001928E-02 0. -1.
       -1   -1    0    0    0  501  0.00000000000E+00  0.00000000000E+00 -0.20169540161E+04  0.20169540161E+04  0.50400001928E-02 0.  1.
    10030    2    1    2    0    0  0.00000000000E+00  0.00000000000E+00 -0.50556787529E+03  0.35283401570E+04  0.34919314694E+04 0.  0.
        2    1    3    3  502    0  0.58231348114E+03  0.72373207614E+03 -0.17465481573E+04  0.19782081726E+04  0.25500000920E-02 0.  1.
       -2    1    3    3    0  502 -0.58231348114E+03 -0.72373207614E+03  0.12409802821E+04  0.15501319843E+04  0.25500000920E-02 0. -1.
</event>
<event>
 5   0  0.6287345E-07  0.3579950E+04  0.7818609E-02  0.8095100E-01
        1   -1    0    0  501    0  0.00000000000E+00  0.00000000000E+00  0.15097240534E+04  0.15097240534E+04  0.50400001928E-02 0. -1.
       -1   -1    0    0    0  501  0.00000000000E+00  0.00000000000E+00 -0.21222495982E+04  0.21222495982E+04  0.50400001928E-02 0.  1.
    10030    2    1    2    0    0  0.00000000000E+00  0.00000000000E+00 -0.61252554475E+03  0.36319736516E+04  0.35799504275E+04 0.  0.
        5    1    3    3  502    0  0.16964809972E+04  0.50437431576E+03 -0.57763429941E+03  0.18617531249E+04  0.46999998093E+01 0. -1.
       -5    1    3    3    0  502 -0.16964809972E+04 -0.50437431576E+03 -0.34891245331E+02  0.17702205267E+04  0.46999998093E+01 0.  1.
</event>
<event>
 5   0  0.6287345E-07  0.3543244E+04  0.7818609E-02  0.8103618E-01
       -1   -1    0    0    0  501  0.00000000000E+00  0.00000000000E+00  0.20484340507E+04  0.20484340507E+04  0.50400001928E-02 0.  1.
        1   -1    0    0  501    0  0.00000000000E+00  0.00000000000E+00 -0.15322161972E+04  0.15322161972E+04  0.50400001928E-02 0. -1.
    10030    2    1    2    0    0  0.00000000000E+00  0.00000000000E+00  0.51621785350E+03  0.35806502479E+04  0.35432436164E+04 0.  0.
        5    1    3    3  502    0 -0.16979516383E+04  0.49185856009E+03  0.37620641001E+03  0.18073510899E+04  0.46999998093E+01 0.  1.
       -5    1    3    3    0  502  0.16979516383E+04 -0.49185856009E+03  0.14001144348E+03  0.17732991579E+04  0.46999998093E+01 0. -1.
</event>
<event>
 5   0  0.1184684E-06  0.4091746E+04  0.7818609E-02  0.7986290E-01
       -2   -1    0    0    0  501  0.00000000000E+00  0.00000000000E+00  0.16468299051E+04  0.16468299051E+04  0.25500000920E-02 0.  1.
        2   -1    0    0  501    0  0.00000000000E+00  0.00000000000E+00 -0.25416080189E+04  0.25416080189E+04  0.25500000920E-02 0. -1.
    10030    2    1    2    0    0  0.00000000000E+00  0.00000000000E+00 -0.89477811384E+03  0.41884379240E+04  0.40917458829E+04 0.  0.
        4    1    3    3  502    0  0.19286421644E+03  0.15489130940E+04  0.90646349875E+03  0.18049947552E+04  0.12699999809E+01 0.  1.
       -4    1    3    3    0  502 -0.19286421644E+03 -0.15489130940E+04 -0.18012416126E+04  0.23834431688E+04  0.12699999809E+01 0. -1.
</event>
<event>
 5   0  0.1685793E-06  0.3685468E+04  0.7818609E-02  0.8071190E-01
       -2   -1    0    0    0  501  0.00000000000E+00  0.00000000000E+00  0.12448339976E+04  0.12448339976E+04  0.25500000920E-02 0.  1.
        2   -1    0    0  501    0  0.00000000000E+00  0.00000000000E+00 -0.27278089090E+04  0.27278089090E+04  0.25500000920E-02 0. -1.
    10030    2    1    2    0    0  0.00000000000E+00  0.00000000000E+00 -0.14829749114E+04  0.39726429066E+04  0.36854683658E+04 0.  0.
        3    1    3    3  502    0  0.12630410084E+04  0.92688154910E+03 -0.17872857576E+04  0.23767146199E+04  0.10100000352E+00 0. -1.
       -3    1    3    3    0  502 -0.12630410084E+04 -0.92688154910E+03  0.30431084622E+03  0.15959282867E+04  0.10100000352E+00 0.  1.
</event>
<event>
 5   0  0.1151180E-06  0.3446941E+04  0.7818609E-02  0.8126481E-01
        2   -1    0    0  501    0  0.00000000000E+00  0.00000000000E+00  0.26073982152E+04  0.26073982152E+04  0.25500000920E-02 0. -1.
       -2   -1    0    0    0  501  0.00000000000E+00  0.00000000000E+00 -0.11392007625E+04  0.11392007625E+04  0.25500000920E-02 0.  1.
    10030    2    1    2    0    0  0.00000000000E+00  0.00000000000E+00  0.14681974527E+04  0.37465989777E+04  0.34469406928E+04 0.  0.
        5    1    3    3  502    0  0.12086706104E+04 -0.11831523056E+04  0.37426933490E+03  0.17322914442E+04  0.46999998093E+01 0. -1.
       -5    1    3    3    0  502 -0.12086706104E+04  0.11831523056E+04  0.10939281178E+04  0.20143075335E+04  0.46999998093E+01 0.  1.
</event>
<event>
 5   0  0.6287345E-07  0.3699290E+04  0.7818609E-02  0.8068119E-01
       -1   -1    0    0    0  501  0.00000000000E+00  0.00000000000E+00  0.19343034102E+04  0.19343034102E+04  0.50400001928E-02 0.  1.
        1   -1    0    0  501    0  0.00000000000E+00  0.00000000000E+00 -0.17686918991E+04  0.17686918991E+04  0.50400001928E-02 0. -1.
    10030    2    1    2    0    0  0.00000000000E+00  0.00000000000E+00  0.16561151108E+03  0.37029953094E+04  0.36992900790E+04 0.  0.
        5    1    3    3  502    0 -0.58653331119E+03  0.32808194711E+03 -0.16421455829E+04  0.17743515138E+04  0.46999998093E+01 0. -1.
       -5    1    3    3    0  502  0.58653331119E+03 -0.32808194711E+03  0.18077570940E+04  0.19286437955E+04  0.46999998093E+01 0.  1.
</event>
<event>
 5   0  0.1685793E-06  0.2540431E+04  0.7818609E-02  0.8388722E-01
       -2   -1    0    0    0  501  0.00000000000E+00  0.00000000000E+00  0.13073529314E+04  0.13073529314E+04  0.25500000920E-02 0. -1.
        2   -1    0    0  501    0  0.00000000000E+00  0.00000000000E+00 -0.12341332963E+04  0.12341332963E+04  0.25500000920E-02 0.  1.
    10030    2    1    2    0    0  0.00000000000E+00  0.00000000000E+00  0.73219635142E+02  0.25414862278E+04  0.25404312884E+04 0.  0.
        3    1    3    3  502    0  0.11363433020E+04 -0.33183814520E+03  0.49729547012E+03  0.12840153618E+04  0.10100000352E+00 0. -1.
       -3    1    3    3    0  502 -0.11363433020E+04  0.33183814520E+03 -0.42407583498E+03  0.12574708659E+04  0.10100000352E+00 0.  1.
</event>
<event>
 5   0  0.1680194E-06  0.3759250E+04  0.7818609E-02  0.8054957E-01
        2   -1    0    0  501    0  0.00000000000E+00  0.00000000000E+00  0.23053421395E+04  0.23053421395E+04  0.25500000920E-02 0. -1.
       -2   -1    0    0    0  501  0.00000000000E+00  0.00000000000E+00 -0.15325235315E+04  0.15325235315E+04  0.25500000920E-02 0.  1.
    10030    2    1    2    0    0  0.00000000000E+00  0.00000000000E+00  0.77281860798E+03  0.38378656709E+04  0.37592504981E+04 0.  0.
        2    1    3    3  502    0  0.98142477014E+03 -0.12785910730E+04 -0.60076678280E+03  0.17201483770E+04  0.25500000920E-02 0.  1.
       -2    1    3    3    0  502 -0.98142477014E+03  0.12785910730E+04  0.13735853908E+04  0.21177172940E+04  0.25500000920E-02 0. -1.
</event>
<event>
 5   0  0.1685793E-06  0.3756085E+04  0.7818609E-02  0.8055645E-01
       -2   -1    0    0    0  501  0.00000000000E+00  0.00000000000E+00  0.14052562138E+04  0.14052562138E+04  0.25500000920E-02 0.  1.
        2   -1    0    0  501    0  0.00000000000E+00  0.00000000000E+00 -0.25098930396E+04  0.25098930396E+04  0.25500000920E-02 0. -1.
    10030    2    1    2    0    0  0.00000000000E+00  0.00000000000E+00 -0.11046368258E+04  0.39151492534E+04  0.37560845516E+04 0.  0.
        3    1    3    3  502    0  0.35014148061E+02  0.65952500953E+02 -0.25083451096E+04  0.25094563000E+04  0.10100000352E+00 0. -1.
       -3    1    3    3    0  502 -0.35014148061E+02 -0.65952500953E+02  0.14037082838E+04  0.14056929533E+04  0.10100000352E+00 0.  1.
</event>
<event>
 5   0  0.6261598E-07  0.3757315E+04  0.7818609E-02  0.8055378E-01
        1   -1    0    0  501    0  0.00000000000E+00  0.00000000000E+00  0.17250366464E+04  0.17250366464E+04  0.50400001928E-02 0.  1.
       -1   -1    0    0    0  501  0.00000000000E+00  0.00000000000E+00 -0.20459586579E+04  0.20459586579E+04  0.50400001928E-02 0. -1.
    10030    2    1    2    0    0  0.00000000000E+00  0.00000000000E+00 -0.32092201143E+03  0.37709953043E+04  0.37573148188E+04 0.  0.
        1    1    3    3  502    0  0.86672958649E+03  0.93482246490E+03  0.12245055903E+04  0.17676332079E+04  0.50400001928E-02 0.  1.
       -1    1    3    3    0  502 -0.86672958649E+03 -0.93482246490E+03 -0.15454276018E+04  0.20033620964E+04  0.50400001928E-02 0. -1.
</event>
<event>
 5   0  0.6186440E-07  0.3686312E+04  0.7818609E-02  0.8071002E-01
       -1   -1    0    0    0  501  0.00000000000E+00  0.00000000000E+00  0.12641794793E+04  0.12641794793E+04  0.50400001928E-02 0. -1.
        1   -1    0    0  501    0  0.00000000000E+00  0.00000000000E+00 -0.26872951631E+04  0.26872951631E+04  0.50400001928E-02 0.  1.
    10030    2    1    2    0    0  0.00000000000E+00  0.00000000000E+00 -0.14231156838E+04  0.39514746425E+04  0.36863116526E+04 0.  0.
        3    1    3    3  502    0 -0.13919152508E+04 -0.22486434716E+03 -0.19840593281E+04  0.24340261846E+04  0.10100000352E+00 0.  1.
       -3    1    3    3    0  502  0.13919152508E+04  0.22486434716E+03  0.56094364424E+03  0.15174484578E+04  0.10100000352E+00 0. -1.
</event>
<event>
 5   0  0.1184684E-06  0.3686352E+04  0.7818609E-02  0.8070993E-01
        2   -1    0    0  501    0  0.00000000000E+00  0.00000000000E+00  0.14613839581E+04  0.14613839581E+04  0.25500000920E-02 0.  1.
       -2   -1    0    0    0  501  0.00000000000E+00  0.00000000000E+00 -0.23247124422E+04  0.23247124422E+04  0.25500000920E-02 0. -1.
    10030    2    1    2    0    0  0.00000000000E+00  0.00000000000E+00 -0.86332848415E+03  0.37860964003E+04  0.36863518390E+04 0.  0.
        4    1    3    3  502    0  0.12913841478E+03  0.78509193707E+03 -0.21392539390E+04  0.22824230783E+04  0.12699999809E+01 0. -1.
       -4    1    3    3    0  502 -0.12913841478E+03 -0.78509193707E+03  0.12759254549E+04  0.15036733220E+04  0.12699999809E+01 0.  1.
</event>
<event>
 5   0  0.5679750E-07  0.1930015E+04  0.7818609E-02  0.8640058E-01
        4   -1    0    0  501    0  0.00000000000E+00  0.00000000000E+00  0.83000453091E+03  0.83000550253E+03  0.12699999809E+01 0. -1.
       -4   -1    0    0    0  501  0.00000000000E+00  0.00000000000E+00 -0.11219673596E+04  0.11219680783E+04  0.12699999809E+01 0.  1.
    10030    2    1    2    0    0  0.00000000000E+00  0.00000000000E+00 -0.29196282864E+03  0.19519735809E+04  0.19300151728E+04 0.  0.
        5    1    3    3  502    0 -0.17032470103E+03 -0.48230972086E+03  0.68160979607E+03  0.85220136982E+03  0.46999998093E+01 0. -1.
       -5    1    3    3    0  502  0.17032470103E+03  0.48230972086E+03 -0.97357262471E+03  0.10997722111E+04  0.46999998093E+01 0.  1.
</event>
<event>
 5   0  0.1680194E-06  0.3678185E+04  0.7818609E-02  0.8072813E-01
        2   -1    0    0  501    0  0.00000000000E+00  0.00000000000E+00  0.22808194150E+04  0.22808194150E+04  0.25500000920E-02 0. -1.
       -2   -1    0    0    0  501  0.00000000000E+00  0.00000000000E+00 -0.14829153201E+04  0.14829153201E+04  0.25500000920E-02 0.  1.
    10030    2    1    2    0    0  0.00000000000E+00  0.00000000000E+00  0.79790409485E+03  0.37637347351E+04  0.36781854509E+04 0.  0.
        2    1    3    3  502    0  0.27553776108E+03  0.95822891531E+03  0.19802551589E+04  0.22171004051E+04  0.25500000920E-02 0. -1.
       -2    1    3    3    0  502 -0.27553776108E+03 -0.95822891531E+03 -0.11823510641E+04  0.15466343300E+04  0.25500000920E-02 0.  1.
</event>
<event>
 5   0  0.5679750E-07  0.2374681E+04  0.7818609E-02  0.8449044E-01
       -1   -1    0    0    0  501  0.00000000000E+00  0.00000000000E+00  0.80884602589E+03  0.80884602590E+03  0.50400001928E-02 0.  1.
        1   -1    0    0  501    0  0.00000000000E+00  0.00000000000E+00 -0.17429483965E+04  0.17429483965E+04  0.50400001928E-02 0. -1.
    10030    2    1    2    0    0  0.00000000000E+00  0.00000000000E+00 -0.93410237063E+03  0.25517944224E+04  0.23746805123E+04 0.  0.
        4    1    3    3  502    0  0.93013605840E+03  0.54263747918E+03 -0.10045224980E+04  0.14726423812E+04  0.12699999809E+01 0. -1.
       -4    1    3    3    0  502 -0.93013605840E+03 -0.54263747918E+03  0.70420127342E+02  0.10791520413E+04  0.12699999809E+01 0.  1.
</event>
<event>
 5   0  0.1184684E-06  0.3598481E+04  0.7818609E-02  0.8090840E-01
        2   -1    0    0  501    0  0.00000000000E+00  0.00000000000E+00  0.12317728033E+04  0.12317728033E+04  0.25500000920E-02 0. -1.
       -2   -1    0    0    0  501  0.00000000000E+00  0.00000000000E+00 -0.26281354134E+04  0.26281354134E+04  0.25500000920E-02 0.  1.
    10030    2    1    2    0    0  0.00000000000E+00  0.00000000000E+00 -0.13963626101E+04  0.38599082166E+04  0.35984806380E+04 0.  0.
        4    1    3    3  502    0  0.67828372056E+03 -0.59171265483E+03 -0.23692684087E+04  0.25344875373E+04  0.12699999809E+01 0.  1.
       -4    1    3    3    0  502 -0.67828372056E+03  0.59171265483E+03  0.97290579855E+03  0.13254206793E+04  0.12699999809E+01 0. -1.
</event>
<event>
 5   0  0.5875011E-07  0.3705599E+04  0.7818609E-02  0.8066722E-01
        1   -1    0    0  501    0  0.00000000000E+00  0.00000000000E+00  0.25174813550E+04  0.25174813550E+04  0.50400001928E-02 0. -1.
       -1   -1    0    0    0  501  0.00000000000E+00  0.00000000000E+00 -0.13636112035E+04  0.13636112035E+04  0.50400001928E-02 0.  1.
    10030    2    1    2    0    0  0.00000000000E+00  0.00000000000E+00  0.11538701515E+04  0.38810925585E+04  0.37055988883E+04 0.  0.
        2    1    3    3  502    0  0.92814282557E+03  0.44728229965E+02  0.22557886128E+04  0.24396786643E+04  0.25500000920E-02 0. -1.
       -2    1    3    3    0  502 -0.92814282557E+03 -0.44728229965E+02 -0.11019184613E+04  0.14414138943E+04  0.25500000920E-02 0.  1.
</event>
<event>
 5   0  0.1151180E-06  0.3661670E+04  0.7818609E-02  0.8076510E-01
       -2   -1    0    0    0  501  0.00000000000E+00  0.00000000000E+00  0.10485744075E+04  0.10485744075E+04  0.25500000920E-02 0.  1.
        2   -1    0    0  501    0  0.00000000000E+00  0.00000000000E+00 -0.31966805931E+04  0.31966805931E+04  0.25500000920E-02 0. -1.
    10030    2    1    2    0    0  0.00000000000E+00  0.00000000000E+00 -0.21481061856E+04  0.42452550007E+04  0.36616703615E+04 0.  0.
        5    1    3    3  502    0  0.15315066788E+04  0.65387065042E+03 -0.19195425983E+03  0.16762840041E+04  0.46999998093E+01 0.  1.
       -5    1    3    3    0  502 -0.15315066788E+04 -0.65387065042E+03 -0.19561519258E+04  0.25689709966E+04  0.46999998093E+01 0. -1.
</event>
<event>
 5   0  0.5875011E-07  0.3665121E+04  0.7818609E-02  0.8075736E-01
        1   -1    0    0  501    0  0.00000000000E+00  0.00000000000E+00  0.26388446799E+04  0.26388446799E+04  0.50400001928E-02 0.  1.
       -1   -1    0    0    0  501  0.00000000000E+00  0.00000000000E+00 -0.12726317375E+04  0.12726317376E+04  0.50400001928E-02 0. -1.
    10030    2    1    2    0    0  0.00000000000E+00  0.00000000000E+00  0.13662129424E+04  0.39114764175E+04  0.36651207294E+04 0.  0.
        2    1    3    3  502    0  0.67532819258E+03 -0.10467103178E+04 -0.75133969981E+03  0.14547102810E+04  0.25500000920E-02 0. -1.
       -2    1    3    3    0  502 -0.67532819258E+03  0.10467103178E+04  0.21175526422E+04  0.24567661365E+04  0.25500000920E-02 0.  1.
</event>
<event>
 5   0  0.6261598E-07  0.3543197E+04  0.7818609E-02  0.8103628E-01
        1   -1    0    0  501    0  0.00000000000E+00  0.00000000000E+00  0.22967355645E+04  0.22967355645E+04  0.50400001928E-02 0. -1.
       -1   -1    0    0    0  501  0.00000000000E+00  0.00000000000E+00 -0.13665315571E+04  0.13665315571E+04  0.50400001928E-02 0.  1.
    10030    2    1    2    0    0  0.00000000000E+00  0.00000000000E+00  0.93020400745E+03  0.36632671216E+04  0.35431972156E+04 0.  0.
        1    1    3    3  502    0  0.40463249918E+03 -0.16729963053E+04  0.31463515663E+02  0.17215208538E+04  0.50400001928E-02 0.  1.
       -1    1    3    3    0  502 -0.40463249918E+03  0.16729963053E+04  0.89874049179E+03  0.19417462678E+04  0.50400001928E-02 0. -1.
</event>
<event>
 5   0  0.1184684E-06  0.3473918E+04  0.7818609E-02  0.8119999E-01
        2   -1    0    0  501    0  0.00000000000E+00  0.00000000000E+00  0.26705178724E+04  0.26705178724E+04  0.25500000920E-02 0. -1.
       -2   -1    0    0    0  501  0.00000000000E+00  0.00000000000E+00 -0.11297531188E+04  0.11297531188E+04  0.25500000920E-02 0.  1.
    10030    2    1    2    0    0  0.00000000000E+00  0.00000000000E+00  0.15407647536E+04  0.38002709912E+04  0.34739176128E+04 0.  0.
        4    1    3    3  502    0 -0.92014766349E+02 -0.86277634092E+03  0.24164588370E+04  0.25675133214E+04  0.12699999809E+01 0. -1.
       -4    1    3    3    0  502  0.92014766349E+02  0.86277634092E+03 -0.87569408346E+03  0.12327576698E+04  0.12699999809E+01 0.  1.
</event>
<event>
 5   0  0.6261598E-07  0.3715862E+04  0.7818609E-02  0.8064456E-01
       -1   -1    0    0    0  501  0.00000000000E+00  0.00000000000E+00  0.14881084077E+04  0.14881084077E+04  0.50400001928E-02 0.  1.
        1   -1    0    0  501    0  0.00000000000E+00  0.00000000000E+00 -0.23196607859E+04  0.23196607859E+04  0.50400001928E-02 0. -1.
    10030    2    1    2    0    0  0.00000000000E+00  0.00000000000E+00 -0.83155237814E+03  0.38077691936E+04  0.37158615252E+04 0.  0.
        1    1    3    3  502    0 -0.56691571864E+03 -0.42431984610E+03  0.13444010407E+04  0.15194916657E+04  0.50400001928E-02 0.  1.
       -1    1    3    3    0  502  0.56691571864E+03  0.42431984610E+03 -0.21759534188E+04  0.22882775279E+04  0.50400001928E-02 0. -1.
</event>
<event>
 5   0  0.1724503E-06  0.3510350E+04  0.7818609E-02  0.8111342E-01
       -2   -1    0    0    0  501  0.00000000000E+00  0.00000000000E+00  0.17769366730E+04  0.17769366730E+04  0.25500000920E-02 0.  1.
        2   -1    0    0  501    0  0.00000000000E+00  0.00000000000E+00 -0.17336798017E+04  0.17336798017E+04  0.25500000920E-02 0. -1.
    10030    2    1    2    0    0  0.00000000000E+00  0.00000000000E+00  0.43256871373E+02  0.35106164747E+04  0.35103499648E+04 0.  0.
        1    1    3    3  502    0 -0.94290798888E+03 -0.81728977492E+03 -0.12128076798E+04  0.17400978478E+04  0.50400001928E-02 0. -1.
       -1    1    3    3    0  502  0.94290798888E+03  0.81728977492E+03  0.12560645511E+04  0.17705186269E+04  0.50400001928E-02 0.  1.
</event>
<event>
 5   0  0.6261598E-07  0.2027588E+04  0.7818609E-02  0.8593830E-01
       -1   -1    0    0    0  501  0.00000000000E+00  0.00000000000E+00  0.63322458045E+03  0.63322458047E+03  0.50400001928E-02 0. -1.
        1   -1    0    0  501    0  0.00000000000E+00  0.00000000000E+00 -0.16230871354E+04  0.16230871354E+04  0.50400001928E-02 0.  1.
    10030    2    1    2    0    0  0.00000000000E+00  0.00000000000E+00 -0.98986255493E+03  0.22563117159E+04  0.20275883905E+04 0.  0.
        1    1    3    3  502    0 -0.32051731877E+03 -0.70928424672E+03  0.22793269299E+03  0.81102947347E+03  0.50400001928E-02 0. -1.
       -1    1    3    3    0  502  0.32051731877E+03  0.70928424672E+03 -0.12177952479E+04  0.14452822424E+04  0.50400001928E-02 0.  1.
</event>
<event>
 5   0  0.6186440E-07  0.1925032E+04  0.7818609E-02  0.8642496E-01
       -1   -1    0    0    0  501  0.00000000000E+00  0.00000000000E+00  0.37924913755E+03  0.37924913758E+03  0.50400001928E-02 0.  1.
        1   -1    0    0  501    0  0.00000000000E+00  0.00000000000E+00 -0.24428197349E+04  0.24428197349E+04  0.50400001928E-02 0. -1.
    10030    2    1    2    0    0  0.00000000000E+00  0.00000000000E+00 -0.20635705973E+04  0.28220688725E+04  0.19250322363E+04 0.  0.
        3    1    3    3  502    0  0.35687533271E+03  0.68153758452E+03 -0.18381225418E+03  0.79097435938E+03  0.10100000352E+00 0.  1.
       -3    1    3    3    0  502 -0.35687533271E+03 -0.68153758452E+03 -0.18797583431E+04  0.20310945131E+04  0.10100000352E+00 0. -1.
</event>
<event>
 5   0  0.1184684E-06  0.3663818E+04  0.7818609E-02  0.8076028E-01
        2   -1    0    0  501    0  0.00000000000E+00  0.00000000000E+00  0.23709755518E+04  0.23709755518E+04  0.25500000920E-02 0.  1.
       -2   -1    0    0    0  501  0.00000000000E+00  0.00000000000E+00 -0.14154052232E+04  0.14154052232E+04  0.25500000920E-02 0. -1.
    10030    2    1    2    0    0  0.00000000000E+00  0.00000000000E+00  0.95557032856E+03  0.37863807751E+04  0.36638183253E+04 0.  0.
        4    1    3    3  502    0 -0.10388389074E+03 -0.10484865283E+04 -0.10709364235E+04  0.15023389427E+04  0.12699999809E+01 0. -1.
       -4    1    3    3    0  502  0.10388389074E+03  0.10484865283E+04  0.20265067521E+04  0.22840418323E+04  0.12699999809E+01 0.  1.
</event>
<event>
 5   0  0.1680194E-06  0.3458100E+04  0.7818609E-02  0.8123792E-01
       -2   -1    0    0    0  501  0.00000000000E+00  0.00000000000E+00  0.14042430739E+04  0.14042430739E+04  0.25500000920E-02 0. -1.
        2   -1    0    0  501    0  0.00000000000E+00  0.00000000000E+00 -0.21289861024E+04  0.21289861024E+04  0.25500000920E-02 0.  1.
    10030    2    1    2    0    0  0.00000000000E+00  0.00000000000E+00 -0.72474302846E+03  0.35332291764E+04  0.34581000499E+04 0.  0.
        2    1    3    3  502    0 -0.68021471488E+03 -0.94763547518E+03 -0.16663867238E+04  0.20340967935E+04  0.25500000920E-02 0.  1.
       -2    1    3    3    0  502  0.68021471488E+03  0.94763547518E+03  0.94164369537E+03  0.14991323828E+04  0.25500000920E-02 0. -1.
</event>
<event>
 5   0  0.5875011E-07  0.3006510E+04  0.7818609E-02  0.8241874E-01
        1   -1    0    0  501    0  0.00000000000E+00  0.00000000000E+00  0.20426111902E+04  0.20426111902E+04  0.50400001928E-02 0.  1.
       -1   -1    0    0    0  501  0.00000000000E+00  0.00000000000E+00 -0.11063171677E+04  0.11063171677E+04  0.50400001928E-02 0. -1.
    10030    2    1    2    0    0  0.00000000000E+00  0.00000000000E+00  0.93629402253E+03  0.31489283579E+04  0.30065101541E+04 0.  0.
        2    1    3    3  502    0 -0.87109565212E+03  0.24245830114E+03  0.17259428834E+04  0.19484538741E+04  0.25500000920E-02 0.  1.
       -2    1    3    3    0  502  0.87109565212E+03 -0.24245830114E+03 -0.78964886083E+03  0.12004744838E+04  0.25500000920E-02 0. -1.
</event>
<event>
 5   0  0.6287345E-07  0.2147045E+04  0.7818609E-02  0.8540798E-01
       -1   -1    0    0    0  501  0.00000000000E+00  0.00000000000E+00  0.53172089880E+03  0.53172089883E+03  0.50400001928E-02 0. -1.
        1   -1    0    0  501    0  0.00000000000E+00  0.00000000000E+00 -0.21673965293E+04  0.21673965293E+04  0.50400001928E-02 0.  1.
    10030    2    1    2    0    0  0.00000000000E+00  0.00000000000E+00 -0.16356756305E+04  0.26991174281E+04  0.21470445088E+04 0.  0.
        5    1    3    3  502    0  0.10399403521E+04 -0.18654163566E+03 -0.57880350254E+03  0.12047029934E+04  0.46999998093E+01 0. -1.
       -5    1    3    3    0  502 -0.10399403521E+04  0.18654163566E+03 -0.10568721279E+04  0.14944144347E+04  0.46999998093E+01 0.  1.
</event>
<event>
 5   0  0.1685793E-06  0.3758359E+04  0.7818609E-02  0.8055151E-01
        2   -1    0    0  501    0  0.00000000000E+00  0.00000000000E+00  0.20141126727E+04  0.20141126727E+04  0.25500000920E-02 0. -1.
       -2   -1    0    0    0  501  0.00000000000E+00  0.00000000000E+00 -0.17532856286E+04  0.17532856286E+04  0.25500000920E-02 0.  1.
    10030    2    1    2    0    0  0.00000000000E+00  0.00000000000E+00  0.26082704407E+03  0.37673983013E+04  0.37583585797E+04 0.  0.
        3    1    3    3  502    0  0.11555673875E+03  0.12591669290E+04  0.15238866236E+04  0.19801730143E+04  0.10100000352E+00 0. -1.
       -3    1    3    3    0  502 -0.11555673875E+03 -0.12591669290E+04 -0.12630595795E+04  0.17872252870E+04  0.10100000352E+00 0.  1.
</event>
<event>
 5   0  0.5679750E-07  0.1971612E+04  0.7818609E-02  0.8620009E-01
        1   -1    0    0  501    0  0.00000000000E+00  0.00000000000E+00  0.77307159031E+03  0.77307159032E+03  0.50400001928E-02 0. -1.
       -1   -1    0    0    0  501  0.00000000000E+00  0.00000000000E+00 -0.12570811057E+04  0.12570811057E+04  0.50400001928E-02 0.  1.
    10030    2    1    2    0    0  0.00000000000E+00  0.00000000000E+00 -0.48400951539E+03  0.20301526960E+04  0.19716122231E+04 0.  0.
        4    1    3    3  502    0 -0.74027064078E+03  0.48638963279E+03  0.20355150496E+03  0.90885110142E+03  0.12699999809E+01 0. -1.
       -4    1    3    3    0  502  0.74027064078E+03 -0.48638963279E+03 -0.68756102035E+03  0.11213015946E+04  0.12699999809E+01 0.  1.
</event>
<event>
 5   0  0.1184684E-06  0.2838248E+04  0.7818609E-02  0.8291491E-01
       -2   -1    0    0    0  501  0.00000000000E+00  0.00000000000E+00  0.86556176464E+03  0.86556176464E+03  0.25500000920E-02 0.  1.
        2   -1    0    0  501    0  0.00000000000E+00  0.00000000000E+00 -0.23267121890E+04  0.23267121890E+04  0.25500000920E-02 0. -1.
    10030    2    1    2    0    0  0.00000000000E+00  0.00000000000E+00 -0.14611504243E+04  0.31922739536E+04  0.28382481273E+04 0.  0.
        4    1    3    3  502    0 -0.21476558455E+03 -0.11377894157E+04  0.19227050389E+03  0.11737370108E+04  0.12699999809E+01 0.  1.
       -4    1    3    3    0  502  0.21476558455E+03  0.11377894157E+04 -0.16534209282E+04  0.20185369428E+04  0.12699999809E+01 0. -1.
</event>
<event>
 5   0  0.1151180E-06  0.2855582E+04  0.7818609E-02  0.8286217E-01
       -2   -1    0    0    0  501  0.00000000000E+00  0.00000000000E+00  0.12605874615E+04  0.12605874615E+04  0.25500000920E-02 0. -1.
        2   -1    0    0  501    0  0.00000000000E+00  0.00000000000E+00 -0.16171720413E+04  0.16171720413E+04  0.25500000920E-02 0.  1.
    10030    2    1    2    0    0  0.00000000000E+00  0.00000000000E+00 -0.35658457972E+03  0.28777595028E+04  0.28555817609E+04 0.  0.
        5    1    3    3  502    0  0.11502756071E+04 -0.62627832377E+03 -0.75121988031E+03  0.15098714878E+04  0.46999998093E+01 0. -1.
       -5    1    3    3    0  502 -0.11502756071E+04  0.62627832377E+03  0.39463530059E+03  0.13678880150E+04  0.46999998093E+01 0.  1.
</event>
<event>
 5   0  0.1151180E-06  0.3549919E+04  0.7818609E-02  0.8102061E-01
        2   -1    0    0  501    0  0.00000000000E+00  0.00000000000E+00  0.13805427294E+04  0.13805427294E+04  0.25500000920E-02 0.  1.
       -2   -1    0    0    0  501  0.00000000000E+00  0.00000000000E+00 -0.22820602094E+04  0.22820602094E+04  0.25500000920E-02 0. -1.
    10030    2    1    2    0    0  0.00000000000E+00  0.00000000000E+00 -0.90151747993E+03  0.36626029388E+04  0.35499192273E+04 0.  0.
        5    1    3    3  502    0  0.59645264083E+03 -0.99003958094E+03 -0.18405606233E+04  0.21733889717E+04  0.46999998093E+01 0. -1.
       -5    1    3    3    0  502 -0.59645264083E+03  0.99003958094E+03  0.93904314333E+03  0.14892139670E+04  0.46999998093E+01 0.  1.
</event>
<event>
 5   0  0.1680194E-06  0.2229272E+04  0.7818609E-02  0.8506342E-01
       -2   -1    0    0    0  501  0.00000000000E+00  0.00000000000E+00  0.61947291209E+03  0.61947291209E+03  0.25500000920E-02 0.  1.
        2   -1    0    0  501    0  0.00000000000E+00  0.00000000000E+00 -0.20055984152E+04  0.20055984152E+04  0.25500000920E-02 0. -1.
    10030    2    1    2    0    0  0.00000000000E+00  0.00000000000E+00 -0.13861255031E+04  0.26250713273E+04  0.22292724290E+04 0.  0.
        2    1    3    3  502    0  0.62206798601E+03  0.17637050587E+03  0.37606800353E+03  0.74799884883E+03  0.25500000920E-02 0.  1.
       -2    1    3    3    0  502 -0.62206798601E+03 -0.17637050587E+03 -0.17621935066E+04  0.18770724784E+04  0.25500000920E-02 0. -1.
</event>
<event>
 5   0  0.6186440E-07  0.3357869E+04  0.7818609E-02  0.8148325E-01
       -1   -1    0    0    0  501  0.00000000000E+00  0.00000000000E+00  0.17361327441E+04  0.17361327441E+04  0.50400001928E-02 0.  1.
        1   -1    0    0  501    0  0.00000000000E+00  0.00000000000E+00 -0.16236205858E+04  0.16236205858E+04  0.50400001928E-02 0. -1.
    10030    2    1    2    0    0  0.00000000000E+00  0.00000000000E+00  0.11251215832E+03  0.33597533299E+04  0.33578688855E+04 0.  0.
        3    1    3    3  502    0  0.89314675998E+03 -0.10299149631E+04  0.10367983424E+04  0.17127132799E+04  0.10100000352E+00 0.  1.
       -3    1    3    3    0  502 -0.89314675998E+03  0.10299149631E+04 -0.92428618409E+03  0.16470400500E+04  0.10100000352E+00 0. -1.
</event>
<event>
 5   0  0.5875011E-07  0.4114408E+04  0.7818609E-02  0.7981856E-01
       -1   -1    0    0    0  501  0.00000000000E+00  0.00000000000E+00  0.26232992489E+04  0.26232992489E+04  0.50400001928E-02 0.  1.
        1   -1    0    0  501    0  0.00000000000E+00  0.00000000000E+00 -0.16132696037E+04  0.16132696037E+04  0.50400001928E-02 0. -1.
    10030    2    1    2    0    0  0.00000000000E+00  0.00000000000E+00  0.10100296452E+04  0.42365688526E+04  0.41144083120E+04 0.  0.
        2    1    3    3  502    0 -0.14477632949E+04  0.81453769191E+03  0.17545517378E+04  0.24161833561E+04  0.25500000920E-02 0.  1.
       -2    1    3    3    0  502  0.14477632949E+04 -0.81453769191E+03 -0.74452209253E+03  0.18203854965E+04  0.25500000920E-02 0. -1.
</event>
<event>
 5   0  0.6186440E-07  0.2442304E+04  0.7818609E-02  0.8423833E-01
        1   -1    0    0  501    0  0.00000000000E+00  0.00000000000E+00  0.12161770135E+04  0.12161770135E+04  0.50400001928E-02 0.  1.
       -1   -1    0    0    0  501  0.00000000000E+00  0.00000000000E+00 -0.12261471021E+04  0.12261471021E+04  0.50400001928E-02 0. -1.
    10030    2    1    2    0    0  0.00000000000E+00  0.00000000000E+00 -0.99700886369E+01  0.24423241156E+04  0.24423037655E+04 0.  0.
        3    1    3    3  502    0  0.10898294114E+04  0.49872221342E+03  0.22902527794E+03  0.12202067777E+04  0.10100000352E+00 0.  1.
       -3    1    3    3    0  502 -0.10898294114E+04 -0.49872221342E+03 -0.23899536658E+03  0.12221173379E+04  0.10100000352E+00 0. -1.
</event>
<event>
 5   0  0.1680194E-06  0.3651979E+04  0.7818609E-02  0.8078688E-01
        2   -1    0    0  501    0  0.00000000000E+00  0.00000000000E+00  0.33078674986E+04  0.33078674986E+04  0.25500000920E-02 0. -1.
       -2   -1    0    0    0  501  0.00000000000E+00  0.00000000000E+00 -0.10079721423E+04  0.10079721423E+04  0.25500000920E-02 0.  1.
    10030    2    1    2    0    0  0.00000000000E+00  0.00000000000E+00  0.22998953563E+04  0.43158396409E+04  0.36519793477E+04 0.  0.
        2    1    3    3  502    0 -0.30577204861E+03 -0.16324319366E+04  0.25311084732E+03  0.16799987126E+04  0.25500000920E-02 0. -1.
       -2    1    3    3    0  502  0.30577204861E+03  0.16324319366E+04  0.20467845089E+04  0.26358409283E+04  0.25500000920E-02 0.  1.
</event>
<event>
 5   0  0.1680194E-06  0.2638257E+04  0.7818609E-02  0.8355321E-01
        2   -1    0    0  501    0  0.00000000000E+00  0.00000000000E+00  0.16964216942E+04  0.16964216942E+04  0.25500000920E-02 0.  1.
       -2   -1    0    0    0  501  0.00000000000E+00  0.00000000000E+00 -0.10257476682E+04  0.10257476682E+04  0.25500000920E-02 0. -1.
    10030    2    1    2    0    0  0.00000000000E+00  0.00000000000E+00  0.67067402599E+03  0.27221693624E+04  0.26382574530E+04 0.  0.
        2    1    3    3  502    0  0.20403635282E+01 -0.22093217795E+03  0.16771945777E+04  0.16916846165E+04  0.25500000920E-02 0.  1.
       -2    1    3    3    0  502 -0.20403635282E+01  0.22093217795E+03 -0.10065205517E+04  0.10304847458E+04  0.25500000920E-02 0. -1.
</event>
<event>
 5   0  0.5679750E-07  0.3602540E+04  0.7818609E-02  0.8089910E-01
       -1   -1    0    0    0  501  0.00000000000E+00  0.00000000000E+00  0.26341904630E+04  0.26341904630E+04  0.50400001928E-02 0. -1.
        1   -1    0    0  501    0  0.00000000000E+00  0.00000000000E+00 -0.12317159676E+04  0.12317159676E+04  0.50400001928E-02 0.  1.
    10030    2    1    2    0    0  0.00000000000E+00  0.00000000000E+00  0.14024744953E+04  0.38659064306E+04  0.36025404675E+04 0.  0.
        4    1    3    3  502    0  0.19525042336E+03  0.10448579280E+04 -0.85928194552E+03  0.13668276747E+04  0.12699999809E+01 0.  1.
       -4    1    3    3    0  502 -0.19525042336E+03 -0.10448579280E+04  0.22617564409E+04  0.24990787559E+04  0.12699999809E+01 0. -1.
</event>
<event>
 5   0  0.1685793E-06  0.2704443E+04  0.7818609E-02  0.8333565E-01
       -2   -1    0    0    0  501  0.00000000000E+00  0.00000000000E+00  0.14530510736E+04  0.14530510736E+04  0.25500000920E-02 0. -1.
        2   -1    0    0  501    0  0.00000000000E+00  0.00000000000E+00 -0.12583884548E+04  0.12583884548E+04  0.25500000920E-02 0.  1.
    10030    2    1    2    0    0  0.00000000000E+00  0.00000000000E+00  0.19466261882E+03  0.27114395283E+04  0.27044427856E+04 0.  0.
        3    1    3    3  502    0 -0.13463618218E+04 -0.10753379450E+03  0.31978216665E+02  0.13510278638E+04  0.10100000352E+00 0.  1.
       -3    1    3    3    0  502  0.13463618218E+04  0.10753379450E+03  0.16268440216E+03  0.13604116646E+04  0.10100000352E+00 0. -1.
</event>
<event>
 5   0  0.1724503E-06  0.3689614E+04  0.7818609E-02  0.8070267E-01
        2   -1    0    0  501    0  0.00000000000E+00  0.00000000000E+00  0.19276673110E+04  0.19276673110E+04  0.25500000920E-02 0.  1.
       -2   -1    0    0    0  501  0.00000000000E+00  0.00000000000E+00 -0.17655086132E+04  0.17655086132E+04  0.25500000920E-02 0. -1.
    10030    2    1    2    0    0  0.00000000000E+00  0.00000000000E+00  0.16215869785E+03  0.36931759242E+04  0.36896142026E+04 0.  0.
        1    1    3    3  502    0 -0.51834680547E+03 -0.55729774778E+03  0.17631923062E+04  0.19204455991E+04  0.50400001928E-02 0.  1.
       -1    1    3    3    0  502  0.51834680547E+03  0.55729774778E+03 -0.16010336084E+04  0.17727303251E+04  0.50400001928E-02 0. -1.
</event>
<event>
 5   0  0.5679750E-07  0.3799838E+04  0.7818609E-02  0.8046190E-01
        3   -1    0    0  501    0  0.00000000000E+00  0.00000000000E+00  0.20104563011E+04  0.20104563036E+04  0.10100000352E+00 0.  1.
       -3   -1    0    0    0  501  0.00000000000E+00  0.00000000000E+00 -0.17954588800E+04  0.17954588828E+04  0.10100000352E+00 0. -1.
    10030    2    1    2    0    0  0.00000000000E+00  0.00000000000E+00  0.21499742113E+03  0.38059151865E+04  0.37998376959E+04 0.  0.
        1    1    3    3  502    0 -0.14626436042E+04  0.10419849911E+04 -0.51368076990E+03  0.18678669567E+04  0.50400001928E-02 0. -1.
       -1    1    3    3    0  502  0.14626436042E+04 -0.10419849911E+04  0.72867819103E+03  0.19380482297E+04  0.50400001928E-02 0.  1.
</event>
<event>
 5   0  0.1184684E-06  0.3491134E+04  0.7818609E-02  0.8115894E-01
       -2   -1    0    0    0  501  0.00000000000E+00  0.00000000000E+00  0.14704311747E+04  0.14704311747E+04  0.25500000920E-02 0. -1.
        2   -1    0    0  501    0  0.00000000000E+00  0.00000000000E+00 -0.20721840301E+04  0.20721840301E+04  0.25500000920E-02 0.  1.
    10030    2    1    2    0    0  0.00000000000E+00  0.00000000000E+00 -0.60175285540E+03  0.35426152047E+04  0.34911339118E+04 0.  0.
        4    1    3    3  502    0 -0.16584921812E+04 -0.46721181646E+03 -0.58449608980E+03  0.18194835774E+04  0.12699999809E+01 0.  1.
       -4    1    3    3    0  502  0.16584921812E+04  0.46721181646E+03 -0.17256765599E+02  0.17231316274E+04  0.12699999809E+01 0. -1.
</event>
<event>
 5   0  0.5875011E-07  0.3585732E+04  0.7818609E-02  0.8093768E-01
        1   -1    0    0  501    0  0.00000000000E+00  0.00000000000E+00  0.10524641627E+04  0.10524641627E+04  0.50400001928E-02 0. -1.
       -1   -1    0    0    0  501  0.00000000000E+00  0.00000000000E+00 -0.30541360054E+04  0.30541360054E+04  0.50400001928E-02 0.  1.
    10030    2    1    2    0    0  0.00000000000E+00  0.00000000000E+00 -0.20016718427E+04  0.41066001681E+04  0.35857321114E+04 0.  0.
        2    1    3    3  502    0 -0.14641256627E+04 -0.93882661168E+03 -0.14991355805E+04  0.22961852825E+04  0.25500000920E-02 0.  1.
       -2    1    3    3    0  502  0.14641256627E+04  0.93882661168E+03 -0.50253626223E+03  0.18104148856E+04  0.25500000920E-02 0. -1.
</event>
<event>
 5   0  0.5875011E-07  0.2514571E+04  0.7818609E-02  0.8397813E-01
       -1   -1    0    0    0  501  0.00000000000E+00  0.00000000000E+00  0.10983022079E+04  0.10983022080E+04  0.50400001928E-02 0.  1.
        1   -1    0    0  501    0  0.00000000000E+00  0.00000000000E+00 -0.14392819809E+04  0.14392819809E+04  0.50400001928E-02 0. -1.
    10030    2    1    2    0    0  0.00000000000E+00  0.00000000000E+00 -0.34097977292E+03  0.25375841888E+04  0.25145708003E+04 0.  0.
        2    1    3    3  502    0 -0.25701950577E+03  0.99653371155E+03 -0.89933808755E+03  0.13667287442E+04  0.25500000920E-02 0. -1.
       -2    1    3    3    0  502  0.25701950577E+03 -0.99653371155E+03  0.55835831463E+03  0.11708554446E+04  0.25500000920E-02 0.  1.
</event>
<event>
 5   0  0.1685793E-06  0.3721020E+04  0.7818609E-02  0.8063319E-01
        2   -1    0    0  501    0  0.00000000000E+00  0.00000000000E+00  0.23695349114E+04  0.23695349114E+04  0.25500000920E-02 0.  1.
       -2   -1    0    0    0  501  0.00000000000E+00  0.00000000000E+00 -0.14608342442E+04  0.14608342442E+04  0.25500000920E-02 0. -1.
    10030    2    1    2    0    0  0.00000000000E+00  0.00000000000E+00  0.90870066722E+03  0.38303691557E+04  0.37210201513E+04 0.  0.
        3    1    3    3  502    0 -0.17019168189E+04  0.58145458777E+03 -0.35974435405E+02  0.17988619920E+04  0.10100000352E+00 0. -1.
       -3    1    3    3    0  502  0.17019168189E+04 -0.58145458777E+03  0.94467510263E+03  0.20315071636E+04  0.10100000352E+00 0.  1.
</event>
<event>
 5   0  0.5875011E-07  0.1832357E+04  0.7818609E-02  0.8689279E-01
       -1   -1    0    0    0  501  0.00000000000E+00  0.00000000000E+00  0.45375681965E+03  0.45375681968E+03  0.50400001928E-02 0. -1.
        1   -1    0    0  501    0  0.00000000000E+00  0.00000000000E+00 -0.18498525984E+04  0.18498525984E+04  0.50400001928E-02 0.  1.
    10030    2    1    2    0    0  0.00000000000E+00  0.00000000000E+00 -0.13960957787E+04  0.23036094180E+04  0.18323572052E+04 0.  0.
        2    1    3    3  502    0  0.38194347054E+02 -0.81581334327E+03 -0.17609255399E+03  0.83547519819E+03  0.25500000920E-02 0. -1.
       -2    1    3    3    0  502 -0.38194347054E+02  0.81581334327E+03 -0.12200032247E+04  0.14681342199E+04  0.25500000920E-02 0.  1.
</event>
<event>
 5   0  0.1724503E-06  0.3655447E+04  0.7818609E-02  0.8077908E-01
       -2   -1    0    0    0  501  0.00000000000E+00  0.00000000000E+00  0.11034017104E+04  0.11034017104E+04  0.25500000920E-02 0.  1.
        2   -1    0    0  501    0  0.00000000000E+00  0.00000000000E+00 -0.30275217738E+04  0.30275217738E+04  0.25500000920E-02 0. -1.
    10030    2    1    2    0    0  0.00000000000E+00  0.00000000000E+00 -0.19241200633E+04  0.41309234842E+04  0.36554467325E+04 0.  0.
        1    1    3    3  502    0  0.32263901505E+03 -0.74179997160E+03 -0.28142120839E+04  0.29281654299E+04  0.50400001928E-02 0. -1.
       -1    1    3    3    0  502 -0.32263901505E+03  0.74179997160E+03  0.89009202056E+03  0.12027580542E+04  0.50400001928E-02 0.  1.
</event>
<event>
 5   0  0.1685793E-06  0.2251017E+04  0.7818609E-02  0.8497489E-01
        2   -1    0    0  501    0  0.00000000000E+00  0.00000000000E+00  0.13840014157E+04  0.13840014157E+04  0.25500000920E-02 0. -1.
       -2   -1    0    0    0  501  0.00000000000E+00  0.00000000000E+00 -0.91529511162E+03  0.91529511163E+03  0.25500000920E-02 0.  1.
    10030    2    1    2    0    0  0.00000000000E+00  0.00000000000E+00  0.46870630406E+03  0.22992965273E+04  0.22510173080E+04 0.  0.
        3    1    3    3  502    0 -0.50884578540E+03  0.68296102488E+03  0.98594014515E+03  0.13028575420E+04  0.10100000352E+00 0. -1.
       -3    1    3    3    0  502  0.50884578540E+03 -0.68296102488E+03 -0.51723384109E+03  0.99643898528E+03  0.10100000352E+00 0.  1.
</event>
<event>
 5   0  0.5875011E-07  0.1822115E+04  0.7818609E-02  0.8694627E-01
       -1   -1    0    0    0  501  0.00000000000E+00  0.00000000000E+00  0.76327726947E+03  0.76327726949E+03  0.50400001928E-02 0.  1.
        1   -1    0    0  501    0  0.00000000000E+00  0.00000000000E+00 -0.10874494956E+04  0.10874494956E+04  0.50400001928E-02 0. -1.
    10030    2    1    2    0    0  0.00000000000E+00  0.00000000000E+00 -0.32417222614E+03  0.18507267651E+04  0.18221146854E+04 0.  0.
        2    1    3    3  502    0  0.59790206757E+03 -0.68133315968E+03 -0.25475318805E+03  0.94159489363E+03  0.25500000920E-02 0. -1.
       -2    1    3    3    0  502 -0.59790206757E+03  0.68133315968E+03 -0.69419038083E+02  0.90913187148E+03  0.25500000920E-02 0.  1.
</event>
<event>
 5   0  0.6261598E-07  0.3667612E+04  0.7818609E-02  0.8075178E-01
        1   -1    0    0  501    0  0.00000000000E+00  0.00000000000E+00  0.17160577230E+04  0.17160577230E+04  0.50400001928E-02 0. -1.
       -1   -1    0    0    0  501  0.00000000000E+00  0.00000000000E+00 -0.19596332184E+04  0.19596332184E+04  0.50400001928E-02 0.  1.
    10030    2    1    2    0    0  0.00000000000E+00  0.00000000000E+00 -0.24357549545E+03  0.36756909414E+04  0.36676116036E+04 0.  0.
        1    1    3    3  502    0 -0.12492390533E+04 -0.46943474640E+03 -0.13822851081E+04  0.19213743293E+04  0.50400001928E-02 0.  1.
       -1    1    3    3    0  502  0.12492390533E+04  0.46943474640E+03  0.11387096126E+04  0.17543166121E+04  0.50400001928E-02 0. -1.
</event>
<event>
 5   0  0.5875011E-07  0.3016554E+04  0.7818609E-02  0.8239020E-01
       -1   -1    0    0    0  501  0.00000000000E+00  0.00000000000E+00  0.19552508094E+04  0.19552508094E+04  0.50400001928E-02 0.  1.
        1   -1    0    0  501    0  0.00000000000E+00  0.00000000000E+00 -0.11634820030E+04  0.11634820030E+04  0.50400001928E-02 0. -1.
    10030    2    1    2    0    0  0.00000000000E+00  0.00000000000E+00  0.79176880637E+03  0.31187328124E+04  0.30165537476E+04 0.  0.
        2    1    3    3  502    0 -0.23026678483E+03 -0.12633112012E+04  0.12138346980E+04  0.17670236720E+04  0.25500000920E-02 0.  1.
       -2    1    3    3    0  502  0.23026678483E+03  0.12633112012E+04 -0.42206589165E+03  0.13517091404E+04  0.25500000920E-02 0. -1.
</event>
<event>
 5   0  0.1151180E-06  0.2313117E+04  0.7818609E-02  0.8472767E-01
       -2   -1    0    0    0  501  0.00000000000E+00  0.00000000000E+00  0.16321961187E+04  0.16321961187E+04  0.25500000920E-02 0. -1.
        2   -1    0    0  501    0  0.00000000000E+00  0.00000000000E+00 -0.81952596005E+03  0.81952596005E+03  0.25500000920E-02 0.  1.
    10030    2    1    2    0    0  0.00000000000E+00  0.00000000000E+00  0.81267015864E+03  0.24517220787E+04  0.23131165912E+04 0.  0.
        5    1    3    3  502    0 -0.19607026902E+03  0.32164598669E+03 -0.75267121185E+03  0.84168624457E+03  0.46999998093E+01 0.  1.
       -5    1    3    3    0  502  0.19607026902E+03 -0.32164598669E+03  0.15653413705E+04  0.16100358342E+04  0.46999998093E+01 0. -1.
</event>
<event>
 5   0  0.5875011E-07  0.3700873E+04  0.7818609E-02  0.8067768E-01
        1   -1    0    0  501    0  0.00000000000E+00  0.00000000000E+00  0.20132593621E+04  0.20132593621E+04  0.50400001928E-02 0.  1.
       -1   -1    0    0    0  501  0.00000000000E+00  0.00000000000E+00 -0.17007817631E+04  0.17007817631E+04  0.50400001928E-02 0. -1.
    10030    2    1    2    0    0  0.00000000000E+00  0.00000000000E+00  0.31247759900E+03  0.37140411252E+04  0.37008727660E+04 0.  0.
        2    1    3    3  502    0  0.10052889474E+03  0.12677537169E+04  0.15051976686E+04  0.19705140363E+04  0.25500000920E-02 0.  1.
       -2    1    3    3    0  502 -0.10052889474E+03 -0.12677537169E+04 -0.11927200696E+04  0.17435270890E+04  0.25500000920E-02 0. -1.
</event>
<event>
 5   0  0.6287345E-07  0.3623338E+04  0.7818609E-02  0.8085167E-01
        1   -1    0    0  501    0  0.00000000000E+00  0.00000000000E+00  0.18337104333E+04  0.18337104333E+04  0.50400001928E-02 0. -1.
       -1   -1    0    0    0  501  0.00000000000E+00  0.00000000000E+00 -0.17898920731E+04  0.17898920731E+04  0.50400001928E-02 0.  1.
    10030    2    1    2    0    0  0.00000000000E+00  0.00000000000E+00  0.43818360191E+02  0.36236025064E+04  0.36233375603E+04 0.  0.
        5    1    3    3  502    0  0.29094904623E+02 -0.18049169000E+04 -0.13156262141E+03  0.18099453977E+04  0.46999998093E+01 0.  1.
       -5    1    3    3    0  502 -0.29094904623E+02  0.18049169000E+04  0.17538098160E+03  0.18136571087E+04  0.46999998093E+01 0. -1.
</event>
<event>
 5   0  0.1151180E-06  0.3400340E+04  0.7818609E-02  0.8137823E-01
       -2   -1    0    0    0  501  0.00000000000E+00  0.00000000000E+00  0.23172920413E+04  0.23172920413E+04  0.25500000920E-02 0.  1.
        2   -1    0    0  501    0  0.00000000000E+00  0.00000000000E+00 -0.12473946169E+04  0.12473946169E+04  0.25500000920E-02 0. -1.
    10030    2    1    2    0    0  0.00000000000E+00  0.00000000000E+00  0.10698974243E+04  0.35646866582E+04  0.34003397584E+04 0.  0.
        5    1    3    3  502    0  0.11723431041E+04  0.29615819012E+03  0.17878957368E+04  0.21584001675E+04  0.46999998093E+01 0.  1.
       -5    1    3    3    0  502 -0.11723431041E+04 -0.29615819012E+03 -0.71799831249E+03  0.14062864907E+04  0.46999998093E+01 0. -1.
</event>
<event>
 5   0  0.6186440E-07  0.3603358E+04  0.7818609E-02  0.8089723E-01
        1   -1    0    0  501    0  0.00000000000E+00  0.00000000000E+00  0.17042765325E+04  0.17042765325E+04  0.50400001928E-02 0.  1.
       -1   -1    0    0    0  501  0.00000000000E+00  0.00000000000E+00 -0.19046486988E+04  0.19046486988E+04  0.50400001928E-02 0. -1.
    10030    2    1    2    0    0  0.00000000000E+00  0.00000000000E+00 -0.20037216632E+03  0.36089252313E+04  0.36033584778E+04 0.  0.
        3    1    3    3  502    0  0.54600174867E+03 -0.16288463111E+04  0.44359823809E+03  0.17742710114E+04  0.10100000352E+00 0.  1.
       -3    1    3    3    0  502 -0.54600174867E+03  0.16288463111E+04 -0.64397040440E+03  0.18346542199E+04  0.10100000352E+00 0. -1.
</event>
<event>
 5   0  0.1680194E-06  0.3569326E+04  0.7818609E-02  0.8097554E-01
       -2   -1    0    0    0  501  0.00000000000E+00  0.00000000000E+00  0.12518137834E+04  0.12518137834E+04  0.25500000920E-02 0.  1.
        2   -1    0    0  501    0  0.00000000000E+00  0.00000000000E+00 -0.25443263457E+04  0.25443263457E+04  0.25500000920E-02 0. -1.
    10030    2    1    2    0    0  0.00000000000E+00  0.00000000000E+00 -0.12925125624E+04  0.37961401291E+04  0.35693264289E+04 0.  0.
        2    1    3    3  502    0 -0.16739943497E+03  0.13964405198E+04 -0.18146826342E+04  0.22958967222E+04  0.25500000920E-02 0. -1.
       -2    1    3    3    0  502  0.16739943497E+03 -0.13964405198E+04  0.52217007187E+03  0.15002434069E+04  0.25500000920E-02 0.  1.
</event>
<event>
 5   0  0.1184684E-06  0.2095097E+04  0.7818609E-02  0.8563406E-01
       -2   -1    0    0    0  501  0.00000000000E+00  0.00000000000E+00  0.25989994987E+04  0.25989994987E+04  0.25500000920E-02 0.  1.
        2   -1    0    0  501    0  0.00000000000E+00  0.00000000000E+00 -0.42222321824E+03  0.42222321825E+03  0.25500000920E-02 0. -1.
    10030    2    1    2    0    0  0.00000000000E+00  0.00000000000E+00  0.21767762805E+04  0.30212227170E+04  0.20950970694E+04 0.  0.
        4    1    3    3  502    0 -0.81581066567E+03  0.56890891466E+03  0.15626254493E+04  0.18522970343E+04  0.12699999809E+01 0. -1.
       -4    1    3    3    0  502  0.81581066567E+03 -0.56890891466E+03  0.61415083121E+03  0.11689256827E+04  0.12699999809E+01 0.  1.
</event>
<event>
 5   0  0.1724503E-06  0.3596272E+04  0.7818609E-02  0.8091346E-01
       -2   -1    0    0    0  501  0.00000000000E+00  0.00000000000E+00  0.18631385632E+04  0.18631385632E+04  0.25500000920E-02 0. -1.
        2   -1    0    0  501    0  0.00000000000E+00  0.00000000000E+00 -0.17354015548E+04  0.17354015548E+04  0.25500000920E-02 0.  1.
    10030    2    1    2    0    0  0.00000000000E+00  0.00000000000E+00  0.12773700845E+03  0.35985401180E+04  0.35962722697E+04 0.  0.
        1    1    3    3  502    0  0.48427406648E+03 -0.41506169440E+03 -0.16184102895E+04  0.17395543817E+04  0.50400001928E-02 0.  1.
       -1    1    3    3    0  502 -0.48427406648E+03  0.41506169440E+03  0.17461472980E+04  0.18589857363E+04  0.50400001928E-02 0. -1.
</event>
<event>
 5   0  0.5875011E-07  0.3632694E+04  0.7818609E-02  0.8083043E-01
       -1   -1    0    0    0  501  0.00000000000E+00  0.00000000000E+00  0.19244736788E+04  0.19244736788E+04  0.50400001928E-02 0.  1.
        1   -1    0    0  501    0  0.00000000000E+00  0.00000000000E+00 -0.17142956210E+04  0.17142956210E+04  0.50400001928E-02 0. -1.
    10030    2    1    2    0    0  0.00000000000E+00  0.00000000000E+00  0.21017805783E+03  0.36387692998E+04  0.36326942069E+04 0.  0.
        2    1    3    3  502    0  0.34939211476E+03 -0.13453823936E+04  0.12762269888E+04  0.18870304613E+04  0.25500000920E-02 0.  1.
       -2    1    3    3    0  502 -0.34939211476E+03  0.13453823936E+04 -0.10660489310E+04  0.17517388385E+04  0.25500000920E-02 0. -1.
</event>
<event>
 5   0  0.6261598E-07  0.3702704E+04  0.7818609E-02  0.8067363E-01
        1   -1    0    0  501    0  0.00000000000E+00  0.00000000000E+00  0.32992140694E+04  0.32992140694E+04  0.50400001928E-02 0.  1.
       -1   -1    0    0    0  501  0.00000000000E+00  0.00000000000E+00 -0.10388848259E+04  0.10388848259E+04  0.50400001928E-02 0. -1.
    10030    2    1    2    0    0  0.00000000000E+00  0.00000000000E+00  0.22603292435E+04  0.43380988953E+04  0.37027035713E+04 0.  0.
        1    1    3    3  502    0 -0.62067682145E+03 -0.24438961109E+03  0.31535259961E+04  0.32233045477E+04  0.50400001928E-02 0.  1.
       -1    1    3    3    0  502  0.62067682145E+03  0.24438961109E+03 -0.89319675261E+03  0.11147943477E+04  0.50400001928E-02 0. -1.
</event>
<event>
 5   0  0.6186440E-07  0.3337478E+04  0.7818609E-02  0.8153424E-01
        1   -1    0    0  501    0  0.00000000000E+00  0.00000000000E+00  0.18474627532E+04  0.18474627532E+04  0.50400001928E-02 0. -1.
       -1   -1    0    0    0  501  0.00000000000E+00  0.00000000000E+00 -0.15073049599E+04  0.15073049599E+04  0.50400001928E-02 0.  1.
    10030    2    1    2    0    0  0.00000000000E+00  0.00000000000E+00  0.34015779334E+03  0.33547677131E+04  0.33374779526E+04 0.  0.
        3    1    3    3  502    0  0.11714066980E+04 -0.37025063114E+03 -0.96511241013E+03  0.15622807546E+04  0.10100000352E+00 0.  1.
       -3    1    3    3    0  502 -0.11714066980E+04  0.37025063114E+03  0.13052702035E+04  0.17924869584E+04  0.10100000352E+00 0. -1.
</event>
<event>
 5   0  0.6186440E-07  0.1855021E+04  0.7818609E-02  0.8677575E-01
       -1   -1    0    0    0  501  0.00000000000E+00  0.00000000000E+00  0.31558121898E+03  0.31558121903E+03  0.50400001928E-02 0.  1.
        1   -1    0    0  501    0  0.00000000000E+00  0.00000000000E+00 -0.27260050532E+04  0.27260050532E+04  0.50400001928E-02 0. -1.
    10030    2    1    2    0    0  0.00000000000E+00  0.00000000000E+00 -0.24104238342E+04  0.30415862722E+04  0.18550212912E+04 0.  0.
        3    1    3    3  502    0  0.32721267847E+03  0.61131155888E+03 -0.19512073380E+03  0.72030692758E+03  0.10100000352E+00 0. -1.
       -3    1    3    3    0  502 -0.32721267847E+03 -0.61131155888E+03 -0.22153031004E+04  0.23212793446E+04  0.10100000352E+00 0.  1.
</event>
<event>
 5   0  0.6287345E-07  0.3682565E+04  0.7818609E-02  0.8071837E-01
        1   -1    0    0  501    0  0.00000000000E+00  0.00000000000E+00  0.15586837864E+04  0.15586837864E+04  0.50400001928E-02 0. -1.
       -1   -1    0    0    0  501  0.00000000000E+00  0.00000000000E+00 -0.21751180563E+04  0.21751180563E+04  0.50400001928E-02 0.  1.
    10030    2    1    2    0    0  0.00000000000E+00  0.00000000000E+00 -0.61643426990E+03  0.37338018427E+04  0.36825650016E+04 0.  0.
        5    1    3    3  502    0  0.95602695156E+03  0.68099825854E+03  0.11301657510E+04  0.16294302302E+04  0.46999998093E+01 0. -1.
       -5    1    3    3    0  502 -0.95602695156E+03 -0.68099825854E+03 -0.17466000209E+04  0.21043716125E+04  0.46999998093E+01 0.  1.
</event>
<event>
 5   0  0.1680194E-06  0.3458315E+04  0.7818609E-02  0.8123740E-01
        2   -1    0    0  501    0  0.00000000000E+00  0.00000000000E+00  0.11487551308E+04  0.11487551308E+04  0.25500000920E-02 0. -1.
       -2   -1    0    0    0  501  0.00000000000E+00  0.00000000000E+00 -0.26028045228E+04  0.26028045228E+04  0.25500000920E-02 0.  1.
    10030    2    1    2    0    0  0.00000000000E+00  0.00000000000E+00 -0.14540493921E+04  0.37515596536E+04  0.34583146473E+04 0.  0.
        2    1    3    3  502    0 -0.13019872989E+04  0.55008544355E+03 -0.18075908716E+04  0.22945913974E+04  0.25500000920E-02 0.  1.
       -2    1    3    3    0  502  0.13019872989E+04 -0.55008544355E+03  0.35354147956E+03  0.14569682562E+04  0.25500000920E-02 0. -1.
</event>
<event>
 5   0  0.1680194E-06  0.1857558E+04  0.7818609E-02  0.8676276E-01
       -2   -1    0    0    0  501  0.00000000000E+00  0.00000000000E+00  0.95337638278E+03  0.95337638278E+03  0.25500000920E-02 0. -1.
        2   -1    0    0  501    0  0.00000000000E+00  0.00000000000E+00 -0.90481577248E+03  0.90481577248E+03  0.25500000920E-02 0.  1.
    10030    2    1    2    0    0  0.00000000000E+00  0.00000000000E+00  0.48560610295E+02  0.18581921553E+04  0.18575575235E+04 0.  0.
        2    1    3    3  502    0  0.53898096607E+03  0.13275713623E+03  0.76918567204E+03  0.94856287988E+03  0.25500000920E-02 0. -1.
       -2    1    3    3    0  502 -0.53898096607E+03 -0.13275713623E+03 -0.72062506175E+03  0.90962927538E+03  0.25500000920E-02 0.  1.
</event>
<event>
 5   0  0.6261598E-07  0.2845353E+04  0.7818609E-02  0.8289325E-01
        1   -1    0    0  501    0  0.00000000000E+00  0.00000000000E+00  0.26208054019E+04  0.26208054020E+04  0.50400001928E-02 0. -1.
       -1   -1    0    0    0  501  0.00000000000E+00  0.00000000000E+00 -0.77228505105E+03  0.77228505107E+03  0.50400001928E-02 0.  1.
    10030    2    1    2    0    0  0.00000000000E+00  0.00000000000E+00  0.18485203509E+04  0.33930904530E+04  0.28453532882E+04 0.  0.
        1    1    3    3  502    0 -0.26781736315E+03  0.31272555045E+03 -0.69968346122E+03  0.81183764130E+03  0.50400001928E-02 0.  1.
       -1    1    3    3    0  502  0.26781736315E+03 -0.31272555045E+03  0.25482038121E+04  0.25812528117E+04  0.50400001928E-02 0. -1.
</event>
<event>
 5   0  0.5679750E-07  0.2157823E+04  0.7818609E-02  0.8536191E-01
        1   -1    0    0  501    0  0.00000000000E+00  0.00000000000E+00  0.16208988180E+04  0.16208988180E+04  0.50400001928E-02 0.  1.
       -1   -1    0    0    0  501  0.00000000000E+00  0.00000000000E+00 -0.71815063989E+03  0.71815063991E+03  0.50400001928E-02 0. -1.
    10030    2    1    2    0    0  0.00000000000E+00  0.00000000000E+00  0.90274817815E+03  0.23390494580E+04  0.21578225353E+04 0.  0.
        4    1    3    3  502    0  0.47776857666E+03 -0.70446907430E+03 -0.26725911684E+03  0.89217068878E+03  0.12699999809E+01 0. -1.
       -4    1    3    3    0  502 -0.47776857666E+03  0.70446907430E+03  0.11700072950E+04  0.14468787692E+04  0.12699999809E+01 0.  1.
</event>
<event>
 5   0  0.1724503E-06  0.2198923E+04  0.7818609E-02  0.8518877E-01
       -2   -1    0    0    0  501  0.00000000000E+00  0.00000000000E+00  0.62534274403E+03  0.62534274403E+03  0.25500000920E-02 0.  1.
        2   -1    0    0  501    0  0.00000000000E+00  0.00000000000E+00 -0.19330441750E+04  0.19330441750E+04  0.25500000920E-02 0. -1.
    10030    2    1    2    0    0  0.00000000000E+00  0.00000000000E+00 -0.13077014310E+04  0.25583869190E+04  0.21989225987E+04 0.  0.
        1    1    3    3  502    0 -0.26481298006E+03  0.88558080952E+03  0.38817266737E+02  0.92514110536E+03  0.50400001928E-02 0.  1.
       -1    1    3    3    0  502  0.26481298006E+03 -0.88558080952E+03 -0.13465186977E+04  0.16332458137E+04  0.50400001928E-02 0. -1.
</event>
<event>
 5   0  0.1151180E-06  0.3686348E+04  0.7818609E-02  0.8070994E-01
        2   -1    0    0  501    0  0.00000000000E+00  0.00000000000E+00  0.26864873780E+04  0.26864873780E+04  0.25500000920E-02 0. -1.
       -2   -1    0    0    0  501  0.00000000000E+00  0.00000000000E+00 -0.12645847645E+04  0.12645847645E+04  0.25500000920E-02 0.  1.
    10030    2    1    2    0    0  0.00000000000E+00  0.00000000000E+00  0.14219026135E+04  0.39510721424E+04  0.36863483330E+04 0.  0.
        5    1    3    3  502    0 -0.16839659781E+04 -0.34253513745E+03  0.14252938056E+04  0.22326119811E+04  0.46999998093E+01 0.  1.
       -5    1    3    3    0  502  0.16839659781E+04  0.34253513745E+03 -0.33911920839E+01  0.17184601613E+04  0.46999998093E+01 0. -1.
</event>
<event>
 5   0  0.1151180E-06  0.3557764E+04  0.7818609E-02  0.8100235E-01
       -2   -1    0    0    0  501  0.00000000000E+00  0.00000000000E+00  0.14943038920E+04  0.14943038920E+04  0.25500000920E-02 0.  1.
        2   -1    0    0  501    0  0.00000000000E+00  0.00000000000E+00 -0.21176557362E+04  0.21176557362E+04  0.25500000920E-02 0. -1.
    10030    2    1    2    0    0  0.00000000000E+00  0.00000000000E+00 -0.62335184427E+03  0.36119596282E+04  0.35577640217E+04 0.  0.
        5    1    3    3  502    0 -0.12428068053E+04 -0.94947565096E+03 -0.11721279210E+04  0.19544765847E+04  0.46999998093E+01 0. -1.
       -5    1    3    3    0  502  0.12428068053E+04  0.94947565096E+03  0.54877607677E+03  0.16574830435E+04  0.46999998093E+01 0.  1.
</event>
<event>
 5   0  0.1151180E-06  0.3550168E+04  0.7818609E-02  0.8102003E-01
       -2   -1    0    0    0  501  0.00000000000E+00  0.00000000000E+00  0.15188103448E+04  0.15188103448E+04  0.25500000920E-02 0. -1.
        2   -1    0    0  501    0  0.00000000000E+00  0.00000000000E+00 -0.20745996896E+04  0.20745996896E+04  0.25500000920E-02 0.  1.
    10030    2    1    2    0    0  0.00000000000E+00  0.00000000000E+00 -0.55578934475E+03  0.35934100344E+04  0.35501681480E+04 0.  0.
        5    1    3    3  502    0 -0.15091312185E+04 -0.91755164133E+03 -0.98183986690E+02  0.17689093347E+04  0.46999998093E+01 0. -1.
       -5    1    3    3    0  502  0.15091312185E+04  0.91755164133E+03 -0.45760535806E+03  0.18245006996E+04  0.46999998093E+01 0.  1.
</event>
<event>
 5   0  0.6261598E-07  0.3631224E+04  0.7818609E-02  0.8083377E-01
       -1   -1    0    0    0  501  0.00000000000E+00  0.00000000000E+00  0.22187271156E+04  0.22187271156E+04  0.50400001928E-02 0.  1.
        1   -1    0    0  501    0  0.00000000000E+00  0.00000000000E+00 -0.14857381331E+04  0.14857381331E+04  0.50400001928E-02 0. -1.
    10030    2    1    2    0    0  0.00000000000E+00  0.00000000000E+00  0.73298898250E+03  0.37044652487E+04  0.36312243019E+04 0.  0.
        1    1    3    3  502    0 -0.11274781284E+04  0.13121704086E+04 -0.19547866336E+03  0.17410370528E+04  0.50400001928E-02 0. -1.
       -1    1    3    3    0  502  0.11274781284E+04 -0.13121704086E+04  0.92846764586E+03  0.19634281960E+04  0.50400001928E-02 0.  1.
</event>
<event>
 5   0  0.5679750E-07  0.3721113E+04  0.7818609E-02  0.8063299E-01
        3   -1    0    0  501    0  0.00000000000E+00  0.00000000000E+00  0.22708874645E+04  0.22708874667E+04  0.10100000352E+00 0. -1.
       -3   -1    0    0    0  501  0.00000000000E+00  0.00000000000E+00 -0.15243692323E+04  0.15243692356E+04  0.10100000352E+00 0.  1.
    10030    2    1    2    0    0  0.00000000000E+00  0.00000000000E+00  0.74651823222E+03  0.37952567023E+04  0.37211132697E+04 0.  0.
        3    1    3    3  502    0  0.15112211004E+03 -0.10145932761E+04  0.19564225287E+04  0.22090329398E+04  0.10100000352E+00 0. -1.
       -3    1    3    3    0  502 -0.15112211004E+03  0.10145932761E+04 -0.12099042965E+04  0.15862237626E+04  0.10100000352E+00 0.  1.
</event>
<event>
 5   0  0.1685793E-06  0.3274089E+04  0.7818609E-02  0.8169520E-01
        2   -1    0    0  501    0  0.00000000000E+00  0.00000000000E+00  0.27997066109E+04  0.27997066109E+04  0.25500000920E-02 0. -1.
       -2   -1    0    0    0  501  0.00000000000E+00  0.00000000000E+00 -0.95721251618E+03  0.95721251619E+03  0.25500000920E-02 0.  1.
    10030    2    1    2    0    0  0.00000000000E+00  0.00000000000E+00  0.18424940947E+04  0.37569191271E+04  0.32740887035E+04 0.  0.
        3    1    3    3  502    0 -0.55677975501E+03  0.10170271026E+04 -0.40484644385E+03  0.12281076811E+04  0.10100000352E+00 0.  1.
       -3    1    3    3    0  502  0.55677975501E+03 -0.10170271026E+04  0.22473405386E+04  0.25288114460E+04  0.10100000352E+00 0. -1.
</event>
<event>
 5   0  0.6186440E-07  0.3650948E+04  0.7818609E-02  0.8078920E-01
       -1   -1    0    0    0  501  0.00000000000E+00  0.00000000000E+00  0.16545893227E+04  0.16545893227E+04  0.50400001928E-02 0. -1.
        1   -1    0    0  501    0  0.00000000000E+00  0.00000000000E+00 -0.20140072856E+04  0.20140072857E+04  0.50400001928E-02 0.  1.
    10030    2    1    2    0    0  0.00000000000E+00  0.00000000000E+00 -0.35941796298E+03  0.36685966083E+04  0.36509477951E+04 0.  0.
        3    1    3    3  502    0  0.50529193079E+03 -0.17087180660E+04 -0.57825911627E+03  0.18733448642E+04  0.10100000352E+00 0.  1.
       -3    1    3    3    0  502 -0.50529193079E+03  0.17087180660E+04  0.21884115329E+03  0.17952517442E+04  0.10100000352E+00 0. -1.
</event>
<event>
 5   0  0.1151180E-06  0.3659342E+04  0.7818609E-02  0.8077032E-01
        2   -1    0    0  501    0  0.00000000000E+00  0.00000000000E+00  0.21984721995E+04  0.21984721995E+04  0.25500000920E-02 0.  1.
       -2   -1    0    0    0  501  0.00000000000E+00  0.00000000000E+00 -0.15227377301E+04  0.15227377301E+04  0.25500000920E-02 0. -1.
    10030    2    1    2    0    0  0.00000000000E+00  0.00000000000E+00  0.67573446940E+03  0.37212099296E+04  0.36593423271E+04 0.  0.
        5    1    3    3  502    0  0.59781559006E+03  0.15636728217E+04  0.10887399882E+04  0.19969559397E+04  0.46999998093E+01 0.  1.
       -5    1    3    3    0  502 -0.59781559006E+03 -0.15636728217E+04 -0.41300551885E+03  0.17242539899E+04  0.46999998093E+01 0. -1.
</event>
<event>
 5   0  0.1724503E-06  0.3708369E+04  0.7818609E-02  0.8066110E-01
       -2   -1    0    0    0  501  0.00000000000E+00  0.00000000000E+00  0.25196873494E+04  0.25196873494E+04  0.25500000920E-02 0. -1.
        2   -1    0    0  501    0  0.00000000000E+00  0.00000000000E+00 -0.13644550654E+04  0.13644550654E+04  0.25500000920E-02 0.  1.
    10030    2    1    2    0    0  0.00000000000E+00  0.00000000000E+00  0.11552322840E+04  0.38841424147E+04  0.37083690037E+04 0.  0.
        1    1    3    3  502    0 -0.46038936914E+03 -0.94563400028E+03 -0.10217928763E+04  0.14663705929E+04  0.50400001928E-02 0.  1.
       -1    1    3    3    0  502  0.46038936914E+03  0.94563400028E+03  0.21770251603E+04  0.24177718218E+04  0.50400001928E-02 0. -1.
</event>
<event>
 5   0  0.1685793E-06  0.3672403E+04  0.7818609E-02  0.8074105E-01
        2   -1    0    0  501    0  0.00000000000E+00  0.00000000000E+00  0.19061597066E+04  0.19061597066E+04  0.25500000920E-02 0. -1.
       -2   -1    0    0    0  501  0.00000000000E+00  0.00000000000E+00 -0.17688104555E+04  0.17688104555E+04  0.25500000920E-02 0.  1.
    10030    2    1    2    0    0  0.00000000000E+00  0.00000000000E+00  0.13734925106E+03  0.36749701621E+04  0.36724026026E+04 0.  0.
        3    1    3    3  502    0 -0.53576409389E+03 -0.16456806463E+04 -0.54520944895E+03  0.18145416246E+04  0.10100000352E+00 0.  1.
       -3    1    3    3    0  502  0.53576409389E+03  0.16456806463E+04  0.68255870000E+03  0.18604285375E+04  0.10100000352E+00 0. -1.
</event>
<event>
 5   0  0.1685793E-06  0.2385513E+04  0.7818609E-02  0.8444947E-01
        2   -1    0    0  501    0  0.00000000000E+00  0.00000000000E+00  0.15123317086E+04  0.15123317086E+04  0.25500000920E-02 0.  1.
       -2   -1    0    0    0  501  0.00000000000E+00  0.00000000000E+00 -0.94071128512E+03  0.94071128512E+03  0.25500000920E-02 0. -1.
    10030    2    1    2    0    0  0.00000000000E+00  0.00000000000E+00  0.57162042346E+03  0.24530429937E+04  0.23855125278E+04 0.  0.
        3    1    3    3  502    0 -0.50928505015E+03 -0.54456733614E+03  0.12431553627E+04  0.14496068818E+04  0.10100000352E+00 0.  1.
       -3    1    3    3    0  502  0.50928505015E+03  0.54456733614E+03 -0.67153493919E+03  0.10034361119E+04  0.10100000352E+00 0. -1.
</event>
<event>
 5   0  0.1685793E-06  0.3692432E+04  0.7818609E-02  0.8069641E-01
       -2   -1    0    0    0  501  0.00000000000E+00  0.00000000000E+00  0.19948714825E+04  0.19948714825E+04  0.25500000920E-02 0.  1.
        2   -1    0    0  501    0  0.00000000000E+00  0.00000000000E+00 -0.17086384542E+04  0.17086384542E+04  0.25500000920E-02 0. -1.
    10030    2    1    2    0    0  0.00000000000E+00  0.00000000000E+00  0.28623302834E+03  0.37035099367E+04  0.36924323290E+04 0.  0.
        3    1    3    3  502    0  0.16576195957E+04  0.61387678657E+03  0.67760045842E+03  0.18930636081E+04  0.10100000352E+00 0.  1.
       -3    1    3    3    0  502 -0.16576195957E+04 -0.61387678657E+03 -0.39136743008E+03  0.18104463285E+04  0.10100000352E+00 0. -1.
</event>
<event>
 5   0  0.1680194E-06  0.3750732E+04  0.7818609E-02  0.8056811E-01
       -2   -1    0    0    0  501  0.00000000000E+00  0.00000000000E+00  0.13727577913E+04  0.13727577913E+04  0.25500000920E-02 0.  1.
        2   -1    0    0  501    0  0.00000000000E+00  0.00000000000E+00 -0.25619944080E+04  0.25619944080E+04  0.25500000920E-02 0. -1.
    10030    2    1    2    0    0  0.00000000000E+00  0.00000000000E+00 -0.11892366166E+04  0.39347521993E+04  0.37507320805E+04 0.  0.
        2    1    3    3  502    0  0.17717343993E+04  0.27386499839E+03 -0.11720344867E+04  0.21418939416E+04  0.25500000920E-02 0. -1.
       -2    1    3    3    0  502 -0.17717343993E+04 -0.27386499839E+03 -0.17202129925E+02  0.17928582577E+04  0.25500000920E-02 0.  1.
</event>
<event>
 5   0  0.1184684E-06  0.3092218E+04  0.7818609E-02  0.8217877E-01
       -2   -1    0    0    0  501  0.00000000000E+00  0.00000000000E+00  0.14777603831E+04  0.14777603831E+04  0.25500000920E-02 0.  1.
        2   -1    0    0  501    0  0.00000000000E+00  0.00000000000E+00 -0.16176186498E+04  0.16176186498E+04  0.25500000920E-02 0. -1.
    10030    2    1    2    0    0  0.00000000000E+00  0.00000000000E+00 -0.13985826664E+03  0.30953790329E+04  0.30922178161E+04 0.  0.
        4    1    3    3  502    0 -0.22132515668E+02 -0.17733445035E+03  0.14673862326E+04  0.14782291176E+04  0.12699999809E+01 0.  1.
       -4    1    3    3    0  502  0.22132515668E+02  0.17733445035E+03 -0.16072444992E+04  0.16171499153E+04  0.12699999809E+01 0. -1.
</event>
<event>
 5   0  0.1685793E-06  0.3136985E+04  0.7818609E-02  0.8205660E-01
        2   -1    0    0  501    0  0.00000000000E+00  0.00000000000E+00  0.16593197692E+04  0.16593197692E+04  0.25500000920E-02 0. -1.
       -2   -1    0    0    0  501  0.00000000000E+00  0.00000000000E+00 -0.14826371862E+04  0.14826371862E+04  0.25500000920E-02 0.  1.
    10030    2    1    2    0    0  0.00000000000E+00  0.00000000000E+00  0.17668258300E+03  0.31419569554E+04  0.31369853003E+04 0.  0.
        3    1    3    3  502    0  0.65358442761E+03  0.69454311926E+03 -0.11588657044E+04  0.15008439225E+04  0.10100000352E+00 0.  1.
       -3    1    3    3    0  502 -0.65358442761E+03 -0.69454311926E+03  0.13355482874E+04  0.16411130329E+04  0.10100000352E+00 0. -1.
</event>
<event>
 5   0  0.1685793E-06  0.3478143E+04  0.7818609E-02  0.8118989E-01
        2   -1    0    0  501    0  0.00000000000E+00  0.00000000000E+00  0.27071006347E+04  0.27071006347E+04  0.25500000920E-02 0. -1.
       -2   -1    0    0    0  501  0.00000000000E+00  0.00000000000E+00 -0.11171990329E+04  0.11171990329E+04  0.25500000920E-02 0.  1.
    10030    2    1    2    0    0  0.00000000000E+00  0.00000000000E+00  0.15899016019E+04  0.38242996676E+04  0.34781433041E+04 0.  0.
        3    1    3    3  502    0  0.96903656468E+03  0.10232027373E+04 -0.32548153150E+03  0.14463450290E+04  0.10100000352E+00 0.  1.
       -3    1    3    3    0  502 -0.96903656468E+03 -0.10232027373E+04  0.19153831334E+04  0.23779546386E+04  0.10100000352E+00 0. -1.
</event>
<event>
 5   0  0.1184684E-06  0.1845347E+04  0.7818609E-02  0.8682549E-01
        2   -1    0    0  501    0  0.00000000000E+00  0.00000000000E+00  0.12930396604E+04  0.12930396604E+04  0.25500000920E-02 0.  1.
       -2   -1    0    0    0  501  0.00000000000E+00  0.00000000000E+00 -0.65839182426E+03  0.65839182427E+03  0.25500000920E-02 0. -1.
    10030    2    1    2    0    0  0.00000000000E+00  0.00000000000E+00  0.63464783618E+03  0.19514314847E+04  0.18453473829E+04 0.  0.
        4    1    3    3  502    0  0.61067265894E+03 -0.59826831058E+03  0.68437876222E+03  0.10950899374E+04  0.12699999809E+01 0.  1.
       -4    1    3    3    0  502 -0.61067265894E+03  0.59826831058E+03 -0.49730926038E+02  0.85634154736E+03  0.12699999809E+01 0. -1.
</event>
<event>
 5   0  0.6287345E-07  0.3638554E+04  0.7818609E-02  0.8081717E-01
       -1   -1    0    0    0  501  0.00000000000E+00  0.00000000000E+00  0.31340035866E+04  0.31340035866E+04  0.50400001928E-02 0.  1.
        1   -1    0    0  501    0  0.00000000000E+00  0.00000000000E+00 -0.10560831873E+04  0.10560831873E+04  0.50400001928E-02 0. -1.
    10030    2    1    2    0    0  0.00000000000E+00  0.00000000000E+00  0.20779203992E+04  0.41900867739E+04  0.36385538319E+04 0.  0.
        5    1    3    3  502    0  0.16967958476E+04 -0.12109427662E+03  0.17816771852E+04  0.24633667317E+04  0.46999998093E+01 0. -1.
       -5    1    3    3    0  502 -0.16967958476E+04  0.12109427662E+03  0.29624321401E+03  0.17267200422E+04  0.46999998093E+01 0.  1.
</event>
<event>
 5   0  0.1724503E-06  0.3738894E+04  0.7818609E-02  0.8059397E-01
        2   -1    0    0  501    0  0.00000000000E+00  0.00000000000E+00  0.16728503690E+04  0.16728503690E+04  0.25500000920E-02 0. -1.
       -2   -1    0    0    0  501  0.00000000000E+00  0.00000000000E+00 -0.20891480760E+04  0.20891480760E+04  0.25500000920E-02 0.  1.
    10030    2    1    2    0    0  0.00000000000E+00  0.00000000000E+00 -0.41629770705E+03  0.37619984450E+04  0.37388940235E+04 0.  0.
        1    1    3    3  502    0  0.13774023217E+04 -0.92717251933E+03 -0.10724951494E+04  0.19766466254E+04  0.50400001928E-02 0.  1.
       -1    1    3    3    0  502 -0.13774023217E+04  0.92717251933E+03  0.65619744232E+03  0.17853518196E+04  0.50400001928E-02 0. -1.
</event>
<event>
 5   0  0.1151180E-06  0.3766585E+04  0.7818609E-02  0.8053364E-01
       -2   -1    0    0    0  501  0.00000000000E+00  0.00000000000E+00  0.15669100028E+04  0.15669100028E+04  0.25500000920E-02 0.  1.
        2   -1    0    0  501    0  0.00000000000E+00  0.00000000000E+00 -0.22635574910E+04  0.22635574910E+04  0.25500000920E-02 0. -1.
    10030    2    1    2    0    0  0.00000000000E+00  0.00000000000E+00 -0.69664748825E+03  0.38304674938E+04  0.37665851242E+04 0.  0.
        5    1    3    3  502    0 -0.39645605291E+03 -0.74836343934E+03  0.13623302875E+04  0.16041169351E+04  0.46999998093E+01 0.  1.
       -5    1    3    3    0  502  0.39645605291E+03  0.74836343934E+03 -0.20589777757E+04  0.22263505587E+04  0.46999998093E+01 0. -1.
</event>
<event>
 5   0  0.1685793E-06  0.2308403E+04  0.7818609E-02  0.8474615E-01
        2   -1    0    0  501    0  0.00000000000E+00  0.00000000000E+00  0.10578539596E+04  0.10578539596E+04  0.25500000920E-02 0.  1.
       -2   -1    0    0    0  501  0.00000000000E+00  0.00000000000E+00 -0.12593246514E+04  0.12593246514E+04  0.25500000920E-02 0. -1.
    10030    2    1    2    0    0  0.00000000000E+00  0.00000000000E+00 -0.20147069180E+03  0.23171786111E+04  0.23084034041E+04 0.  0.
        3    1    3    3  502    0  0.41030036826E+03  0.29745388522E+03 -0.11416712955E+04  0.12490950977E+04  0.10100000352E+00 0. -1.
       -3    1    3    3    0  502 -0.41030036826E+03 -0.29745388522E+03  0.94020060371E+03  0.10680835133E+04  0.10100000352E+00 0.  1.
</event>
<event>
 5   0  0.5875011E-07  0.3776193E+04  0.7818609E-02  0.8051283E-01
        1   -1    0    0  501    0  0.00000000000E+00  0.00000000000E+00  0.17570911699E+04  0.17570911699E+04  0.50400001928E-02 0.  1.
       -1   -1    0    0    0  501  0.00000000000E+00  0.00000000000E+00 -0.20288690629E+04  0.20288690629E+04  0.50400001928E-02 0. -1.
    10030    2    1    2    0    0  0.00000000000E+00  0.00000000000E+00 -0.27177789302E+03  0.37859602328E+04  0.37761927468E+04 0.  0.
        2    1    3    3  502    0  0.24654964234E+03  0.14274300052E+04 -0.13500394328E+04  0.19801387870E+04  0.25500000920E-02 0. -1.
       -2    1    3    3    0  502 -0.24654964234E+03 -0.14274300052E+04  0.10782615398E+04  0.18058214458E+04  0.25500000920E-02 0.  1.
</event>
<event>
 5   0  0.5679750E-07  0.2282129E+04  0.7818609E-02  0.8485001E-01
       -1   -1    0    0    0  501  0.00000000000E+00  0.00000000000E+00  0.12406591195E+04  0.12406591195E+04  0.50400001928E-02 0.  1.
        1   -1    0    0  501    0  0.00000000000E+00  0.00000000000E+00 -0.10494648632E+04  0.10494648633E+04  0.50400001928E-02 0. -1.
    10030    2    1    2    0    0  0.00000000000E+00  0.00000000000E+00  0.19119425622E+03  0.22901239827E+04  0.22821289650E+04 0.  0.
        4    1    3    3  502    0  0.77008289068E+02 -0.61103825539E+03 -0.86835570123E+03  0.10645850191E+04  0.12699999809E+01 0. -1.
       -4    1    3    3    0  502 -0.77008289068E+02  0.61103825539E+03  0.10595499575E+04  0.12255389636E+04  0.12699999809E+01 0.  1.
</event>
<event>
 5   0  0.6186440E-07  0.3590778E+04  0.7818609E-02  0.8092607E-01
        1   -1    0    0  501    0  0.00000000000E+00  0.00000000000E+00  0.89483273963E+03  0.89483273965E+03  0.50400001928E-02 0.  1.
       -1   -1    0    0    0  501  0.00000000000E+00  0.00000000000E+00 -0.36022611170E+04  0.36022611170E+04  0.50400001928E-02 0. -1.
    10030    2    1    2    0    0  0.00000000000E+00  0.00000000000E+00 -0.27074283773E+04  0.44970938566E+04  0.35907777343E+04 0.  0.
        3    1    3    3  502    0 -0.16375671123E+04 -0.68773476526E+03 -0.10251742274E+04  0.20507528767E+04  0.10100000352E+00 0.  1.
       -3    1    3    3    0  502  0.16375671123E+04  0.68773476526E+03 -0.16822541500E+04  0.24463409799E+04  0.10100000352E+00 0. -1.
</event>
<event>
 5   0  0.1184684E-06  0.2560474E+04  0.7818609E-02  0.8381753E-01
        2   -1    0    0  501    0  0.00000000000E+00  0.00000000000E+00  0.92228985082E+03  0.92228985082E+03  0.25500000920E-02 0. -1.
       -2   -1    0    0    0  501  0.00000000000E+00  0.00000000000E+00 -0.17771059656E+04  0.17771059656E+04  0.25500000920E-02 0.  1.
    10030    2    1    2    0    0  0.00000000000E+00  0.00000000000E+00 -0.85481611473E+03  0.26993958164E+04  0.25604740154E+04 0.  0.
        4    1    3    3  502    0  0.11846528831E+04  0.48257950552E+03 -0.37242729989E+03  0.13322871835E+04  0.12699999809E+01 0. -1.
       -4    1    3    3    0  502 -0.11846528831E+04 -0.48257950552E+03 -0.48238881485E+03  0.13671086329E+04  0.12699999809E+01 0.  1.
</event>
<event>
 5   0  0.1151180E-06  0.2194637E+04  0.7818609E-02  0.8520664E-01
        2   -1    0    0  501    0  0.00000000000E+00  0.00000000000E+00  0.14726264499E+04  0.14726264499E+04  0.25500000920E-02 0.  1.
       -2   -1    0    0    0  501  0.00000000000E+00  0.00000000000E+00 -0.81766020239E+03  0.81766020239E+03  0.25500000920E-02 0. -1.
    10030    2    1    2    0    0  0.00000000000E+00  0.00000000000E+00  0.65496624750E+03  0.22902866523E+04  0.21946371373E+04 0.  0.
        5    1    3    3  502    0  0.96872293706E+03  0.36894535027E+03 -0.48121555029E+02  0.10377295285E+04  0.46999998093E+01 0. -1.
       -5    1    3    3    0  502 -0.96872293706E+03 -0.36894535027E+03  0.70308780253E+03  0.12525571238E+04  0.46999998093E+01 0.  1.
</event>
<event>
 5   0  0.1680194E-06  0.3633082E+04  0.7818609E-02  0.8082956E-01
       -2   -1    0    0    0  501  0.00000000000E+00  0.00000000000E+00  0.10093775524E+04  0.10093775524E+04  0.25500000920E-02 0. -1.
        2   -1    0    0  501    0  0.00000000000E+00  0.00000000000E+00 -0.32691652641E+04  0.32691652641E+04  0.25500000920E-02 0.  1.
    10030    2    1    2    0    0  0.00000000000E+00  0.00000000000E+00 -0.22597877118E+04  0.42785428165E+04  0.36330824558E+04 0.  0.
        2    1    3    3  502    0 -0.13492821588E+04 -0.11674973519E+04 -0.72843441850E+03  0.19272335388E+04  0.25500000920E-02 0. -1.
       -2    1    3    3    0  502  0.13492821588E+04  0.11674973519E+04 -0.15313532933E+04  0.23513092778E+04  0.25500000920E-02 0.  1.
</event>
<event>
 5   0  0.6287345E-07  0.2555626E+04  0.7818609E-02  0.8383432E-01
       -1   -1    0    0    0  501  0.00000000000E+00  0.00000000000E+00  0.65995635727E+03  0.65995635729E+03  0.50400001928E-02 0.  1.
        1   -1    0    0  501    0  0.00000000000E+00  0.00000000000E+00 -0.24741124492E+04  0.24741124492E+04  0.50400001928E-02 0. -1.
    10030    2    1    2    0    0  0.00000000000E+00  0.00000000000E+00 -0.18141560919E+04  0.31340688065E+04  0.25556261381E+04 0.  0.
        5    1    3    3  502    0 -0.49642206068E+03 -0.94988756806E+03 -0.53855932893E+02  0.10731466842E+04  0.46999998093E+01 0.  1.
       -5    1    3    3    0  502  0.49642206068E+03  0.94988756806E+03 -0.17603001590E+04  0.20609221223E+04  0.46999998093E+01 0. -1.
</event>
<event>
 5   0  0.6287345E-07  0.1856734E+04  0.7818609E-02  0.8676697E-01
        1   -1    0    0  501    0  0.00000000000E+00  0.00000000000E+00  0.14817649862E+04  0.14817649862E+04  0.50400001928E-02 0. -1.
       -1   -1    0    0    0  501  0.00000000000E+00  0.00000000000E+00 -0.58164782075E+03  0.58164782077E+03  0.50400001928E-02 0.  1.
    10030    2    1    2    0    0  0.00000000000E+00  0.00000000000E+00  0.90011716541E+03  0.20634128069E+04  0.18567340952E+04 0.  0.
        5    1    3    3  502    0  0.51877725950E+03  0.75821471424E+03  0.30169147791E+03  0.96698460986E+03  0.46999998093E+01 0. -1.
       -5    1    3    3    0  502 -0.51877725950E+03 -0.75821471424E+03  0.59842568750E+03  0.10964281971E+04  0.46999998093E+01 0.  1.
</event>
<event>
 5   0  0.1724503E-06  0.3569250E+04  0.7818609E-02  0.8097572E-01
        2   -1    0    0  501    0  0.00000000000E+00  0.00000000000E+00  0.14126144865E+04  0.14126144865E+04  0.25500000920E-02 0.  1.
       -2   -1    0    0    0  501  0.00000000000E+00  0.00000000000E+00 -0.22546038690E+04  0.22546038690E+04  0.25500000920E-02 0. -1.
    10030    2    1    2    0    0  0.00000000000E+00  0.00000000000E+00 -0.84198938248E+03  0.36672183555E+04  0.35692498297E+04 0.  0.
        1    1    3    3  502    0 -0.58264958021E+03  0.53555341795E+02  0.13112646597E+04  0.14358842975E+04  0.50400001928E-02 0.  1.
       -1    1    3    3    0  502  0.58264958021E+03 -0.53555341795E+02 -0.21532540422E+04  0.22313340580E+04  0.50400001928E-02 0. -1.
</event>
<event>
 5   0  0.1151180E-06  0.2229918E+04  0.7818609E-02  0.8506078E-01
        2   -1    0    0  501    0  0.00000000000E+00  0.00000000000E+00  0.12768627142E+04  0.12768627142E+04  0.25500000920E-02 0. -1.
       -2   -1    0    0    0  501  0.00000000000E+00  0.00000000000E+00 -0.97358431090E+03  0.97358431090E+03  0.25500000920E-02 0.  1.
    10030    2    1    2    0    0  0.00000000000E+00  0.00000000000E+00  0.30327840327E+03  0.22504470251E+04  0.22299179408E+04 0.  0.
        5    1    3    3  502    0  0.32249236773E+03 -0.94641547911E+03 -0.34626659718E+03  0.10581239212E+04  0.46999998093E+01 0. -1.
       -5    1    3    3    0  502 -0.32249236773E+03  0.94641547911E+03  0.64954500046E+03  0.11923231038E+04  0.46999998093E+01 0.  1.
</event>
<event>
 5   0  0.1151180E-06  0.3249937E+04  0.7818609E-02  0.8175752E-01
        2   -1    0    0  501    0  0.00000000000E+00  0.00000000000E+00  0.25431090554E+04  0.25431090554E+04  0.25500000920E-02 0. -1.
       -2   -1    0    0    0  501  0.00000000000E+00  0.00000000000E+00 -0.10383049575E+04  0.10383049575E+04  0.25500000920E-02 0.  1.
    10030    2    1    2    0    0  0.00000000000E+00  0.00000000000E+00  0.15048040979E+04  0.35814140129E+04  0.32499370699E+04 0.  0.
        5    1    3    3  502    0 -0.28632380949E+03  0.15305842799E+04  0.12643626931E+04  0.20058177064E+04  0.46999998093E+01 0.  1.
       -5    1    3    3    0  502  0.28632380949E+03 -0.15305842799E+04  0.24044140489E+03  0.15755963065E+04  0.46999998093E+01 0. -1.
</event>
<event>
 5   0  0.5875011E-07  0.3573377E+04  0.7818609E-02  0.8096617E-01
        1   -1    0    0  501    0  0.00000000000E+00  0.00000000000E+00  0.95729098843E+03  0.95729098845E+03  0.50400001928E-02 0. -1.
       -1   -1    0    0    0  501  0.00000000000E+00  0.00000000000E+00 -0.33346773923E+04  0.33346773923E+04  0.50400001928E-02 0.  1.
    10030    2    1    2    0    0  0.00000000000E+00  0.00000000000E+00 -0.23773864039E+04  0.42919683808E+04  0.35733774595E+04 0.  0.
        2    1    3    3  502    0 -0.60566522895E+03  0.43337316209E+03 -0.31393606457E+04  0.32264884830E+04  0.25500000920E-02 0.  1.
       -2    1    3    3    0  502  0.60566522895E+03 -0.43337316209E+03  0.76197424186E+03  0.10654798977E+04  0.25500000920E-02 0. -1.
</event>
<event>
 5   0  0.1184684E-06  0.3707825E+04  0.7818609E-02  0.8066230E-01
        2   -1    0    0  501    0  0.00000000000E+00  0.00000000000E+00  0.23492116693E+04  0.23492116693E+04  0.25500000920E-02 0. -1.
       -2   -1    0    0    0  501  0.00000000000E+00  0.00000000000E+00 -0.14630403401E+04  0.14630403401E+04  0.25500000920E-02 0.  1.
    10030    2    1    2    0    0  0.00000000000E+00  0.00000000000E+00  0.88617132918E+03  0.38122520093E+04  0.37078249363E+04 0.  0.
        4    1    3    3  502    0 -0.18335210733E+04  0.27279604292E+03  0.41450678834E+03  0.18994827448E+04  0.12699999809E+01 0.  1.
       -4    1    3    3    0  502  0.18335210733E+04 -0.27279604292E+03  0.47166454084E+03  0.19127692645E+04  0.12699999809E+01 0. -1.
</event>
<event>
 5   0  0.1724503E-06  0.3765557E+04  0.7818609E-02  0.8053587E-01
        2   -1    0    0  501    0  0.00000000000E+00  0.00000000000E+00  0.21671376501E+04  0.21671376501E+04  0.25500000920E-02 0. -1.
       -2   -1    0    0    0  501  0.00000000000E+00  0.00000000000E+00 -0.16357316406E+04  0.16357316406E+04  0.25500000920E-02 0.  1.
    10030    2    1    2    0    0  0.00000000000E+00  0.00000000000E+00  0.53140600946E+03  0.38028692907E+04  0.37655573950E+04 0.  0.
        1    1    3    3  502    0  0.79805564567E+03  0.95028026821E+03 -0.11642829046E+04  0.17016110260E+04  0.50400001928E-02 0.  1.
       -1    1    3    3    0  502 -0.79805564567E+03 -0.95028026821E+03  0.16956889141E+04  0.21012582647E+04  0.50400001928E-02 0. -1.
</event>
<event>
 5   0  0.5679750E-07  0.2165114E+04  0.7818609E-02  0.8533090E-01
       -1   -1    0    0    0  501  0.00000000000E+00  0.00000000000E+00  0.71117957687E+03  0.71117957689E+03  0.50400001928E-02 0.  1.
        1   -1    0    0  501    0  0.00000000000E+00  0.00000000000E+00 -0.16478679570E+04  0.16478679570E+04  0.50400001928E-02 0. -1.
    10030    2    1    2    0    0  0.00000000000E+00  0.00000000000E+00 -0.93668838013E+03  0.23590475339E+04  0.21651143493E+04 0.  0.
        4    1    3    3  502    0  0.44539278976E+03 -0.65168975321E+03  0.33886171529E+03  0.85901289082E+03  0.12699999809E+01 0.  1.
       -4    1    3    3    0  502 -0.44539278976E+03  0.65168975321E+03 -0.12755500954E+04  0.15000346431E+04  0.12699999809E+01 0. -1.
</event>
<event>
 5   0  0.5679750E-07  0.1910543E+04  0.7818609E-02  0.8649626E-01
       -1   -1    0    0    0  501  0.00000000000E+00  0.00000000000E+00  0.67983661915E+03  0.67983661917E+03  0.50400001928E-02 0.  1.
        1   -1    0    0  501    0  0.00000000000E+00  0.00000000000E+00 -0.13422977759E+04  0.13422977759E+04  0.50400001928E-02 0. -1.
    10030    2    1    2    0    0  0.00000000000E+00  0.00000000000E+00 -0.66246115672E+03  0.20221343951E+04  0.19105425218E+04 0.  0.
        4    1    3    3  502    0 -0.33598409588E+02  0.92650321574E+03 -0.57490486779E+03  0.10908960912E+04  0.12699999809E+01 0.  1.
       -4    1    3    3    0  502  0.33598409588E+02 -0.92650321574E+03 -0.87556288927E+02  0.93123830384E+03  0.12699999809E+01 0. -1.
</event>
<event>
 5   0  0.1151180E-06  0.3740704E+04  0.7818609E-02  0.8059001E-01
       -2   -1    0    0    0  501  0.00000000000E+00  0.00000000000E+00  0.17138501367E+04  0.17138501367E+04  0.25500000920E-02 0. -1.
        2   -1    0    0  501    0  0.00000000000E+00  0.00000000000E+00 -0.20411444806E+04  0.20411444806E+04  0.25500000920E-02 0.  1.
    10030    2    1    2    0    0  0.00000000000E+00  0.00000000000E+00 -0.32729434392E+03  0.37549946174E+04  0.37407035420E+04 0.  0.
        5    1    3    3  502    0 -0.18140732263E+04 -0.38580191994E+03 -0.40641583465E+03  0.18986576080E+04  0.46999998093E+01 0.  1.
       -5    1    3    3    0  502  0.18140732263E+04  0.38580191994E+03  0.79121490729E+02  0.18563370093E+04  0.46999998093E+01 0. -1.
</event>
<event>
 5   0  0.1151180E-06  0.3560474E+04  0.7818609E-02  0.8099606E-01
       -2   -1    0    0    0  501  0.00000000000E+00  0.00000000000E+00  0.13857520691E+04  0.13857520691E+04  0.25500000920E-02 0.  1.
        2   -1    0    0  501    0  0.00000000000E+00  0.00000000000E+00 -0.22870206177E+04  0.22870206177E+04  0.25500000920E-02 0. -1.
    10030    2    1    2    0    0  0.00000000000E+00  0.00000000000E+00 -0.90126854862E+03  0.36727726869E+04  0.35604738747E+04 0.  0.
        5    1    3    3  502    0  0.11179711383E+04 -0.66844148913E+03 -0.17023939952E+04  0.21435579990E+04  0.46999998093E+01 0. -1.
       -5    1    3    3    0  502 -0.11179711383E+04  0.66844148913E+03  0.80112544656E+03  0.15292146878E+04  0.46999998093E+01 0.  1.
</event>
<event>
 5   0  0.1685793E-06  0.3549589E+04  0.7818609E-02  0.8102138E-01
        2   -1    0    0  501    0  0.00000000000E+00  0.00000000000E+00  0.15024556952E+04  0.15024556952E+04  0.25500000920E-02 0.  1.
       -2   -1    0    0    0  501  0.00000000000E+00  0.00000000000E+00 -0.20964980477E+04  0.20964980477E+04  0.25500000920E-02 0. -1.
    10030    2    1    2    0    0  0.00000000000E+00  0.00000000000E+00 -0.59404235242E+03  0.35989537429E+04  0.35495889518E+04 0.  0.
        3    1    3    3  502    0 -0.15290962829E+04  0.89020291773E+03 -0.15616926978E+03  0.17762278930E+04  0.10100000352E+00 0. -1.
       -3    1    3    3    0  502  0.15290962829E+04 -0.89020291773E+03 -0.43787308264E+03  0.18227258499E+04  0.10100000352E+00 0.  1.
</event>
<event>
 5   0  0.6186440E-07  0.3060618E+04  0.7818609E-02  0.8226630E-01
        1   -1    0    0  501    0  0.00000000000E+00  0.00000000000E+00  0.16286694674E+04  0.16286694674E+04  0.50400001928E-02 0.  1.
       -1   -1    0    0    0  501  0.00000000000E+00  0.00000000000E+00 -0.14378890044E+04  0.14378890044E+04  0.50400001928E-02 0. -1.
    10030    2    1    2    0    0  0.00000000000E+00  0.00000000000E+00  0.19078046298E+03  0.30665584718E+04  0.30606181852E+04 0.  0.
        3    1    3    3  502    0  0.10341843776E+04 -0.86402135328E+03  0.82190148153E+03  0.15784778368E+04  0.10100000352E+00 0.  1.
       -3    1    3    3    0  502 -0.10341843776E+04  0.86402135328E+03 -0.63112101855E+03  0.14880806349E+04  0.10100000352E+00 0. -1.
</event>
<event>
 5   0  0.6261598E-07  0.3745185E+04  0.7818609E-02  0.8058021E-01
       -1   -1    0    0    0  501  0.00000000000E+00  0.00000000000E+00  0.19086887241E+04  0.19086887241E+04  0.50400001928E-02 0. -1.
        1   -1    0    0  501    0  0.00000000000E+00  0.00000000000E+00 -0.18371789788E+04  0.18371789788E+04  0.50400001928E-02 0.  1.
    10030    2    1    2    0    0  0.00000000000E+00  0.00000000000E+00  0.71509745224E+02  0.37458677029E+04  0.37451850694E+04 0.  0.
        1    1    3    3  502    0 -0.83802838456E+03  0.50835660784E+03  0.16316285977E+04  0.19033995626E+04  0.50400001928E-02 0. -1.
       -1    1    3    3    0  502  0.83802838456E+03 -0.50835660784E+03 -0.15601188525E+04  0.18424681403E+04  0.50400001928E-02 0.  1.
</event>
<event>
 5   0  0.6186440E-07  0.3666544E+04  0.7818609E-02  0.8075417E-01
       -1   -1    0    0    0  501  0.00000000000E+00  0.00000000000E+00  0.18526862361E+04  0.18526862361E+04  0.50400001928E-02 0. -1.
        1   -1    0    0  501    0  0.00000000000E+00  0.00000000000E+00 -0.18140614260E+04  0.18140614260E+04  0.50400001928E-02 0.  1.
    10030    2    1    2    0    0  0.00000000000E+00  0.00000000000E+00  0.38624810063E+02  0.36667476621E+04  0.36665442233E+04 0.  0.
        3    1    3    3  502    0 -0.12859770916E+04  0.86557887540E+03 -0.95947718387E+03  0.18230634510E+04  0.10100000352E+00 0.  1.
       -3    1    3    3    0  502  0.12859770916E+04 -0.86557887540E+03  0.99810199394E+03  0.18436842111E+04  0.10100000352E+00 0. -1.
</event>
<event>
 5   0  0.5875011E-07  0.3698839E+04  0.7818609E-02  0.8068219E-01
        1   -1    0    0  501    0  0.00000000000E+00  0.00000000000E+00  0.24477510170E+04  0.24477510170E+04  0.50400001928E-02 0. -1.
       -1   -1    0    0    0  501  0.00000000000E+00  0.00000000000E+00 -0.13973445885E+04  0.13973445885E+04  0.50400001928E-02 0.  1.
    10030    2    1    2    0    0  0.00000000000E+00  0.00000000000E+00  0.10504064285E+04  0.38450956055E+04  0.36988385407E+04 0.  0.
        2    1    3    3  502    0 -0.13518392446E+04 -0.11419883901E+04 -0.33394125270E+02  0.17699497151E+04  0.25500000920E-02 0.  1.
       -2    1    3    3    0  502  0.13518392446E+04  0.11419883901E+04  0.10838005537E+04  0.20751458904E+04  0.25500000920E-02 0. -1.
</event>
<event>
 5   0  0.1680194E-06  0.3473603E+04  0.7818609E-02  0.8120074E-01
       -2   -1    0    0    0  501  0.00000000000E+00  0.00000000000E+00  0.15866263300E+04  0.15866263300E+04  0.25500000920E-02 0. -1.
        2   -1    0    0  501    0  0.00000000000E+00  0.00000000000E+00 -0.19011903323E+04  0.19011903323E+04  0.25500000920E-02 0.  1.
    10030    2    1    2    0    0  0.00000000000E+00  0.00000000000E+00 -0.31456400226E+03  0.34878166623E+04  0.34736025332E+04 0.  0.
        2    1    3    3  502    0  0.54758043890E+03  0.86741590518E+03  0.12499607698E+04  0.16169899862E+04  0.25500000920E-02 0. -1.
       -2    1    3    3    0  502 -0.54758043890E+03 -0.86741590518E+03 -0.15645247720E+04  0.18708266761E+04  0.25500000920E-02 0.  1.
</event>
<event>
 5   0  0.1184684E-06  0.3682869E+04  0.7818609E-02  0.8071769E-01
       -2   -1    0    0    0  501  0.00000000000E+00  0.00000000000E+00  0.11814793485E+04  0.11814793485E+04  0.25500000920E-02 0.  1.
        2   -1    0    0  501    0  0.00000000000E+00  0.00000000000E+00 -0.28700299253E+04  0.28700299253E+04  0.25500000920E-02 0. -1.
    10030    2    1    2    0    0  0.00000000000E+00  0.00000000000E+00 -0.16885505767E+04  0.40515092738E+04  0.36828690372E+04 0.  0.
        4    1    3    3  502    0 -0.13962089950E+04  0.85427866873E+03  0.83783193247E+02  0.16389670033E+04  0.12699999809E+01 0.  1.
       -4    1    3    3    0  502  0.13962089950E+04 -0.85427866873E+03 -0.17723337700E+04  0.24125422705E+04  0.12699999809E+01 0. -1.
</event>
<event>
 5   0  0.6186440E-07  0.3706685E+04  0.7818609E-02  0.8066482E-01
       -1   -1    0    0    0  501  0.00000000000E+00  0.00000000000E+00  0.13934693927E+04  0.13934693927E+04  0.50400001928E-02 0.  1.
        1   -1    0    0  501    0  0.00000000000E+00  0.00000000000E+00 -0.24649831323E+04  0.24649831323E+04  0.50400001928E-02 0. -1.
    10030    2    1    2    0    0  0.00000000000E+00  0.00000000000E+00 -0.10715137396E+04  0.38584525251E+04  0.37066850681E+04 0.  0.
        3    1    3    3  502    0  0.45305328833E+03 -0.17955034983E+04 -0.45655993336E+03  0.19072328325E+04  0.10100000352E+00 0.  1.
       -3    1    3    3    0  502 -0.45305328833E+03  0.17955034983E+04 -0.61495380623E+03  0.19512196925E+04  0.10100000352E+00 0. -1.
</event>
<event>
 5   0  0.1151180E-06  0.3543734E+04  0.7818609E-02  0.8103503E-01
        2   -1    0    0  501    0  0.00000000000E+00  0.00000000000E+00  0.17780052708E+04  0.17780052708E+04  0.25500000920E-02 0.  1.
       -2   -1    0    0    0  501  0.00000000000E+00  0.00000000000E+00 -0.17657502041E+04  0.17657502041E+04  0.25500000920E-02 0. -1.
    10030    2    1    2    0    0  0.00000000000E+00  0.00000000000E+00  0.12255066726E+02  0.35437554748E+04  0.35437342844E+04 0.  0.
        5    1    3    3  502    0  0.14644403586E+04 -0.99036098883E+03 -0.11257712587E+03  0.17714672312E+04  0.46999998093E+01 0. -1.
       -5    1    3    3    0  502 -0.14644403586E+04  0.99036098883E+03  0.12483219260E+03  0.17722882436E+04  0.46999998093E+01 0.  1.
</event>
<event>
 5   0  0.6261598E-07  0.3776679E+04  0.7818609E-02  0.8051178E-01
       -1   -1    0    0    0  501  0.00000000000E+00  0.00000000000E+00  0.15633283593E+04  0.15633283593E+04  0.50400001928E-02 0. -1.
        1   -1    0    0  501    0  0.00000000000E+00  0.00000000000E+00 -0.22809192672E+04  0.22809192672E+04  0.50400001928E-02 0.  1.
    10030    2    1    2    0    0  0.00000000000E+00  0.00000000000E+00 -0.71759090788E+03  0.38442476265E+04  0.37766788456E+04 0.  0.
        1    1    3    3  502    0  0.12532466664E+04 -0.14078410303E+04 -0.47566336495E+03  0.19439390964E+04  0.50400001928E-02 0.  1.
       -1    1    3    3    0  502 -0.12532466664E+04  0.14078410303E+04 -0.24192754293E+03  0.19003085301E+04  0.50400001928E-02 0. -1.
</event>
<event>
 5   0  0.1680194E-06  0.3086756E+04  0.7818609E-02  0.8219382E-01
        2   -1    0    0  501    0  0.00000000000E+00  0.00000000000E+00  0.20881560308E+04  0.20881560308E+04  0.25500000920E-02 0. -1.
       -2   -1    0    0    0  501  0.00000000000E+00  0.00000000000E+00 -0.11407264840E+04  0.11407264840E+04  0.25500000920E-02 0.  1.
    10030    2    1    2    0    0  0.00000000000E+00  0.00000000000E+00  0.94742954683E+03  0.32288825148E+04  0.30867555051E+04 0.  0.
        2    1    3    3  502    0  0.34207772975E+03  0.13705121493E+03  0.20414605601E+04  0.20744544890E+04  0.25500000920E-02 0. -1.
       -2    1    3    3    0  502 -0.34207772975E+03 -0.13705121493E+03 -0.10940310132E+04  0.11544280258E+04  0.25500000920E-02 0.  1.
</event>
<event>
 5   0  0.1724503E-06  0.3608211E+04  0.7818609E-02  0.8088613E-01
       -2   -1    0    0    0  501  0.00000000000E+00  0.00000000000E+00  0.24508379710E+04  0.24508379710E+04  0.25500000920E-02 0. -1.
        2   -1    0    0  501    0  0.00000000000E+00  0.00000000000E+00 -0.13280343044E+04  0.13280343044E+04  0.25500000920E-02 0.  1.
    10030    2    1    2    0    0  0.00000000000E+00  0.00000000000E+00  0.11228036667E+04  0.37788722754E+04  0.36082111357E+04 0.  0.
        1    1    3    3  502    0  0.13578645607E+04 -0.99351207085E+03 -0.12049653469E+03  0.16868259587E+04  0.50400001928E-02 0.  1.
       -1    1    3    3    0  502 -0.13578645607E+04  0.99351207085E+03  0.12433002014E+04  0.20920463166E+04  0.50400001928E-02 0. -1.
</event>
<event>
 5   0  0.5679750E-07  0.3818181E+04  0.7818609E-02  0.8042265E-01
        1   -1    0    0  501    0  0.00000000000E+00  0.00000000000E+00  0.20580302319E+04  0.20580302319E+04  0.50400001928E-02 0. -1.
       -1   -1    0    0    0  501  0.00000000000E+00  0.00000000000E+00 -0.17709291841E+04  0.17709291841E+04  0.50400001928E-02 0.  1.
    10030    2    1    2    0    0  0.00000000000E+00  0.00000000000E+00  0.28710104781E+03  0.38289594161E+04  0.38181806136E+04 0.  0.
        4    1    3    3  502    0  0.99533593045E+02 -0.40304753035E+03  0.20122137332E+04  0.20545948430E+04  0.12699999809E+01 0. -1.
       -4    1    3    3    0  502 -0.99533593045E+02  0.40304753035E+03 -0.17251126854E+04  0.17743645731E+04  0.12699999809E+01 0.  1.
</event>
<event>
 5   0  0.1680194E-06  0.3497357E+04  0.7818609E-02  0.8114417E-01
        2   -1    0    0  501    0  0.00000000000E+00  0.00000000000E+00  0.20032448188E+04  0.20032448188E+04  0.25500000920E-02 0. -1.
       -2   -1    0    0    0  501  0.00000000000E+00  0.00000000000E+00 -0.15264615411E+04  0.15264615411E+04  0.25500000920E-02 0.  1.
    10030    2    1    2    0    0  0.00000000000E+00  0.00000000000E+00  0.47678327767E+03  0.35297063599E+04  0.34973568152E+04 0.  0.
        2    1    3    3  502    0 -0.38060044699E+03  0.12831966057E+04 -0.89737349864E+03  0.16114370683E+04  0.25500000920E-02 0.  1.
       -2    1    3    3    0  502  0.38060044699E+03 -0.12831966057E+04  0.13741567763E+04  0.19182692916E+04  0.25500000920E-02 0. -1.
</event>
<event>
 5   0  0.5875011E-07  0.3696120E+04  0.7818609E-02  0.8068822E-01
       -1   -1    0    0    0  501  0.00000000000E+00  0.00000000000E+00  0.18138241433E+04  0.18138241433E+04  0.50400001928E-02 0. -1.
        1   -1    0    0  501    0  0.00000000000E+00  0.00000000000E+00 -0.18829425418E+04  0.18829425418E+04  0.50400001928E-02 0.  1.
    10030    2    1    2    0    0  0.00000000000E+00  0.00000000000E+00 -0.69118398423E+02  0.36967666851E+04  0.36961204757E+04 0.  0.
        2    1    3    3  502    0 -0.10164547966E+04 -0.15427830969E+04  0.97949780024E+01  0.18475540531E+04  0.25500000920E-02 0. -1.
       -2    1    3    3    0  502  0.10164547966E+04  0.15427830969E+04 -0.78913376425E+02  0.18492126320E+04  0.25500000920E-02 0.  1.
</event>
<event>
 5   0  0.6902065E-07  0.2099619E+04  0.7818609E-02  0.8561411E-01
        1   -1    0    0  501    0  0.00000000000E+00  0.00000000000E+00  0.15112478050E+04  0.15112478050E+04  0.50400001928E-02 0. -1.
       -1   -1    0    0    0  501  0.00000000000E+00  0.00000000000E+00 -0.72926501850E+03  0.72926501852E+03  0.50400001928E-02 0.  1.
    10030    2    1    2    0    0  0.00000000000E+00  0.00000000000E+00  0.78198278645E+03  0.22405128235E+04  0.20996191640E+04 0.  0.
        5    1    3    3  502    0 -0.10288733153E+04 -0.17225095647E+02  0.16919517575E+03  0.10428451948E+04  0.46999998093E+01 0.  1.
       -5    1    3    3    0  502  0.10288733153E+04  0.17225095647E+02  0.61278761070E+03  0.11976676286E+04  0.46999998093E+01 0. -1.
</event>
<event>
 5   0  0.6261598E-07  0.3202564E+04  0.7818609E-02  0.8188140E-01
        1   -1    0    0  501    0  0.00000000000E+00  0.00000000000E+00  0.15279110160E+04  0.15279110160E+04  0.50400001928E-02 0.  1.
       -1   -1    0    0    0  501  0.00000000000E+00  0.00000000000E+00 -0.16781759123E+04  0.16781759123E+04  0.50400001928E-02 0. -1.
    10030    2    1    2    0    0  0.00000000000E+00  0.00000000000E+00 -0.15026489634E+03  0.32060869284E+04  0.32025636376E+04 0.  0.
        1    1    3    3  502    0  0.11089351514E+04  0.11547062538E+04 -0.10710127055E+03  0.16045417990E+04  0.50400001928E-02 0. -1.
       -1    1    3    3    0  502 -0.11089351514E+04 -0.11547062538E+04 -0.43163625792E+02  0.16015451293E+04  0.50400001928E-02 0.  1.
</event>
<event>
 5   0  0.1685793E-06  0.1872323E+04  0.7818609E-02  0.8668757E-01
       -2   -1    0    0    0  501  0.00000000000E+00  0.00000000000E+00  0.62368721544E+03  0.62368721545E+03  0.25500000920E-02 0.  1.
        2   -1    0    0  501    0  0.00000000000E+00  0.00000000000E+00 -0.14051885393E+04  0.14051885393E+04  0.25500000920E-02 0. -1.
    10030    2    1    2    0    0  0.00000000000E+00  0.00000000000E+00 -0.78150132381E+03  0.20288757547E+04  0.18723227577E+04 0.  0.
        3    1    3    3  502    0  0.47416609704E+03 -0.33782569981E+03  0.40364907839E+03  0.70844356142E+03  0.10100000352E+00 0.  1.
       -3    1    3    3    0  502 -0.47416609704E+03  0.33782569981E+03 -0.11851504022E+04  0.13204321933E+04  0.10100000352E+00 0. -1.
</event>
<event>
 5   0  0.1680194E-06  0.3680395E+04  0.7818609E-02  0.8072320E-01
       -2   -1    0    0    0  501  0.00000000000E+00  0.00000000000E+00  0.22253834758E+04  0.22253834758E+04  0.25500000920E-02 0.  1.
        2   -1    0    0  501    0  0.00000000000E+00  0.00000000000E+00 -0.15216826744E+04  0.15216826744E+04  0.25500000920E-02 0. -1.
    10030    2    1    2    0    0  0.00000000000E+00  0.00000000000E+00  0.70370080140E+03  0.37470661502E+04  0.36803953478E+04 0.  0.
        2    1    3    3  502    0 -0.11310478208E+04  0.98435076531E+03 -0.73429849459E+03  0.16695537971E+04  0.25500000920E-02 0. -1.
       -2    1    3    3    0  502  0.11310478208E+04 -0.98435076531E+03  0.14379992960E+04  0.20775123531E+04  0.25500000920E-02 0.  1.
</event>
<event>
 5   0  0.6287345E-07  0.3664217E+04  0.7818609E-02  0.8075938E-01
        1   -1    0    0  501    0  0.00000000000E+00  0.00000000000E+00  0.15370879407E+04  0.15370879407E+04  0.50400001928E-02 0.  1.
       -1   -1    0    0    0  501  0.00000000000E+00  0.00000000000E+00 -0.21837537648E+04  0.21837537648E+04  0.50400001928E-02 0. -1.
    10030    2    1    2    0    0  0.00000000000E+00  0.00000000000E+00 -0.64666582404E+03  0.37208417055E+04  0.36642170118E+04 0.  0.
        5    1    3    3  502    0 -0.50685820271E+03 -0.88803297655E+03 -0.18670531401E+04  0.21287125976E+04  0.46999998093E+01 0. -1.
       -5    1    3    3    0  502  0.50685820271E+03  0.88803297655E+03  0.12203873161E+04  0.15921291079E+04  0.46999998093E+01 0.  1.
</event>
<event>
 5   0  0.6287345E-07  0.3466808E+04  0.7818609E-02  0.8121701E-01
        1   -1    0    0  501    0  0.00000000000E+00  0.00000000000E+00  0.17979450783E+04  0.17979450783E+04  0.50400001928E-02 0. -1.
       -1   -1    0    0    0  501  0.00000000000E+00  0.00000000000E+00 -0.16711796011E+04  0.16711796011E+04  0.50400001928E-02 0.  1.
    10030    2    1    2    0    0  0.00000000000E+00  0.00000000000E+00  0.12676547717E+03  0.34691246794E+04  0.34668078336E+04 0.  0.
        5    1    3    3  502    0 -0.72525854647E+03 -0.15532309212E+04 -0.19396765965E+03  0.17251584845E+04  0.46999998093E+01 0.  1.
       -5    1    3    3    0  502  0.72525854647E+03  0.15532309212E+04  0.32073313682E+03  0.17439661949E+04  0.46999998093E+01 0. -1.
</event>
<event>
 5   0  0.6186440E-07  0.3650406E+04  0.7818609E-02  0.8079042E-01
        1   -1    0    0  501    0  0.00000000000E+00  0.00000000000E+00  0.23773654781E+04  0.23773654781E+04  0.50400001928E-02 0.  1.
       -1   -1    0    0    0  501  0.00000000000E+00  0.00000000000E+00 -0.14012850900E+04  0.14012850900E+04  0.50400001928E-02 0. -1.
    10030    2    1    2    0    0  0.00000000000E+00  0.00000000000E+00  0.97608038811E+03  0.37786505681E+04  0.36504064420E+04 0.  0.
        3    1    3    3  502    0 -0.97868344569E+03 -0.93821380778E+03  0.17529777699E+04  0.22160770537E+04  0.10100000352E+00 0.  1.
       -3    1    3    3    0  502  0.97868344569E+03  0.93821380778E+03 -0.77689738176E+03  0.15625735144E+04  0.10100000352E+00 0. -1.
</event>
<event>
 5   0  0.1151180E-06  0.2205188E+04  0.7818609E-02  0.8516272E-01
       -2   -1    0    0    0  501  0.00000000000E+00  0.00000000000E+00  0.78214712215E+03  0.78214712216E+03  0.25500000920E-02 0. -1.
        2   -1    0    0  501    0  0.00000000000E+00  0.00000000000E+00 -0.15543290117E+04  0.15543290117E+04  0.25500000920E-02 0.  1.
    10030    2    1    2    0    0  0.00000000000E+00  0.00000000000E+00 -0.77218188953E+03  0.23364761338E+04  0.22051883941E+04 0.  0.
        5    1    3    3  502    0 -0.59676940287E+03  0.83709040100E+03  0.36181362765E+02  0.10286813115E+04  0.46999998093E+01 0. -1.
       -5    1    3    3    0  502  0.59676940287E+03 -0.83709040100E+03 -0.80836325229E+03  0.13077948223E+04  0.46999998093E+01 0.  1.
</event>
<event>
 5   0  0.5679750E-07  0.3554359E+04  0.7818609E-02  0.8101027E-01
        1   -1    0    0  501    0  0.00000000000E+00  0.00000000000E+00  0.13622871488E+04  0.13622871488E+04  0.50400001928E-02 0.  1.
       -1   -1    0    0    0  501  0.00000000000E+00  0.00000000000E+00 -0.23184296227E+04  0.23184296228E+04  0.50400001928E-02 0. -1.
    10030    2    1    2    0    0  0.00000000000E+00  0.00000000000E+00 -0.95614247396E+03  0.36807167716E+04  0.35543589467E+04 0.  0.
        4    1    3    3  502    0 -0.52084702008E+02 -0.12980141859E+03 -0.23127212050E+04  0.23169467429E+04  0.12699999809E+01 0. -1.
       -4    1    3    3    0  502  0.52084702008E+02  0.12980141859E+03  0.13565787311E+04  0.13637700286E+04  0.12699999809E+01 0.  1.
</event>
<event>
 5   0  0.1680194E-06  0.3734068E+04  0.7818609E-02  0.8060454E-01
        2   -1    0    0  501    0  0.00000000000E+00  0.00000000000E+00  0.13621441292E+04  0.13621441292E+04  0.25500000920E-02 0.  1.
       -2   -1    0    0    0  501  0.00000000000E+00  0.00000000000E+00 -0.25590648375E+04  0.25590648375E+04  0.25500000920E-02 0. -1.
    10030    2    1    2    0    0  0.00000000000E+00  0.00000000000E+00 -0.11969207083E+04  0.39212089667E+04  0.37340675648E+04 0.  0.
        2    1    3    3  502    0 -0.36304263428E+03 -0.47088459165E+03  0.12600642051E+04  0.13933032886E+04  0.25500000920E-02 0.  1.
       -2    1    3    3    0  502  0.36304263428E+03  0.47088459165E+03 -0.24569849134E+04  0.25279056781E+04  0.25500000920E-02 0. -1.
</event>
<event>
 5   0  0.5679750E-07  0.3636803E+04  0.7818609E-02  0.8082113E-01
       -1   -1    0    0    0  501  0.00000000000E+00  0.00000000000E+00  0.21793248834E+04  0.21793248834E+04  0.50400001928E-02 0. -1.
        1   -1    0    0  501    0  0.00000000000E+00  0.00000000000E+00 -0.15172518088E+04  0.15172518088E+04  0.50400001928E-02 0.  1.
    10030    2    1    2    0    0  0.00000000000E+00  0.00000000000E+00  0.66207307456E+03  0.36965766922E+04  0.36368033333E+04 0.  0.
        4    1    3    3  502    0 -0.11124669500E+04  0.47725437600E+02 -0.11302015924E+04  0.15865741976E+04  0.12699999809E+01 0.  1.
       -4    1    3    3    0  502  0.11124669500E+04 -0.47725437600E+02  0.17922746670E+04  0.21100024945E+04  0.12699999809E+01 0. -1.
</event>
<event>
 5   0  0.6287345E-07  0.3770314E+04  0.7818609E-02  0.8052556E-01
       -1   -1    0    0    0  501  0.00000000000E+00  0.00000000000E+00  0.20678809708E+04  0.20678809708E+04  0.50400001928E-02 0. -1.
        1   -1    0    0  501    0  0.00000000000E+00  0.00000000000E+00 -0.17185787910E+04  0.17185787910E+04  0.50400001928E-02 0.  1.
    10030    2    1    2    0    0  0.00000000000E+00  0.00000000000E+00  0.34930217981E+03  0.37864597619E+04  0.37703137158E+04 0.  0.
        5    1    3    3  502    0  0.91404179084E+03 -0.11404900063E+04  0.13703818188E+04  0.20035364407E+04  0.46999998093E+01 0. -1.
       -5    1    3    3    0  502 -0.91404179084E+03  0.11404900063E+04 -0.10210796390E+04  0.17829233211E+04  0.46999998093E+01 0.  1.
</event>
<event>
 5   0  0.6287345E-07  0.3672123E+04  0.7818609E-02  0.8074168E-01
        1   -1    0    0  501    0  0.00000000000E+00  0.00000000000E+00  0.18480141196E+04  0.18480141196E+04  0.50400001928E-02 0. -1.
       -1   -1    0    0    0  501  0.00000000000E+00  0.00000000000E+00 -0.18241858136E+04  0.18241858136E+04  0.50400001928E-02 0.  1.
    10030    2    1    2    0    0  0.00000000000E+00  0.00000000000E+00  0.23828305956E+02  0.36721999332E+04  0.36721226234E+04 0.  0.
        5    1    3    3  502    0 -0.13407305052E+04  0.57564344830E+03  0.11264668378E+04  0.18433321170E+04  0.46999998093E+01 0. -1.
       -5    1    3    3    0  502  0.13407305052E+04 -0.57564344830E+03 -0.11026385319E+04  0.18288678162E+04  0.46999998093E+01 0.  1.
</event>
<event>
 5   0  0.1151180E-06  0.3964476E+04  0.7818609E-02  0.8011751E-01
        2   -1    0    0  501    0  0.00000000000E+00  0.00000000000E+00  0.25578583908E+04  0.25578583908E+04  0.25500000920E-02 0. -1.
       -2   -1    0    0    0  501  0.00000000000E+00  0.00000000000E+00 -0.15361550959E+04  0.15361550959E+04  0.25500000920E-02 0.  1.
    10030    2    1    2    0    0  0.00000000000E+00  0.00000000000E+00  0.10217032949E+04  0.40940134866E+04  0.39644758551E+04 0.  0.
        5    1    3    3  502    0 -0.54261280956E+03  0.10205850453E+04  0.21738177318E+04  0.24620170830E+04  0.46999998093E+01 0. -1.
       -5    1    3    3    0  502  0.54261280956E+03 -0.10205850453E+04 -0.11521144369E+04  0.16319964037E+04  0.46999998093E+01 0.  1.
</event>
<event>
 5   0  0.6261598E-07  0.3699347E+04  0.7818609E-02  0.8068107E-01
       -1   -1    0    0    0  501  0.00000000000E+00  0.00000000000E+00  0.12629277821E+04  0.12629277822E+04  0.50400001928E-02 0. -1.
        1   -1    0    0  501    0  0.00000000000E+00  0.00000000000E+00 -0.27090158533E+04  0.27090158533E+04  0.50400001928E-02 0.  1.
    10030    2    1    2    0    0  0.00000000000E+00  0.00000000000E+00 -0.14460880711E+04  0.39719436354E+04  0.36993466361E+04 0.  0.
        1    1    3    3  502    0  0.95368719825E+03  0.10991901203E+04 -0.19489084213E+04  0.24322792248E+04  0.50400001928E-02 0.  1.
       -1    1    3    3    0  502 -0.95368719825E+03 -0.10991901203E+04  0.50282035019E+03  0.15396644106E+04  0.50400001928E-02 0. -1.
</event>
<event>
 5   0  0.6287345E-07  0.3510179E+04  0.7818609E-02  0.8111382E-01
        1   -1    0    0  501    0  0.00000000000E+00  0.00000000000E+00  0.20345532137E+04  0.20345532137E+04  0.50400001928E-02 0.  1.
       -1   -1    0    0    0  501  0.00000000000E+00  0.00000000000E+00 -0.15140122376E+04  0.15140122376E+04  0.50400001928E-02 0. -1.
    10030    2    1    2    0    0  0.00000000000E+00  0.00000000000E+00  0.52054097605E+03  0.35485654513E+04  0.35101786072E+04 0.  0.
        5    1    3    3  502    0  0.10872399726E+04 -0.13224648301E+04  0.65090582436E+03  0.18315852334E+04  0.46999998093E+01 0. -1.
       -5    1    3    3    0  502 -0.10872399726E+04  0.13224648301E+04 -0.13036484831E+03  0.17169802179E+04  0.46999998093E+01 0.  1.
</event>
<event>
 5   0  0.6186440E-07  0.2303886E+04  0.7818609E-02  0.8476391E-01
       -1   -1    0    0    0  501  0.00000000000E+00  0.00000000000E+00  0.87306809059E+03  0.87306809060E+03  0.50400001928E-02 0.  1.
        1   -1    0    0  501    0  0.00000000000E+00  0.00000000000E+00 -0.15198953180E+04  0.15198953180E+04  0.50400001928E-02 0. -1.
    10030    2    1    2    0    0  0.00000000000E+00  0.00000000000E+00 -0.64682722738E+03  0.23929634086E+04  0.23038855034E+04 0.  0.
        3    1    3    3  502    0 -0.18633836387E+03 -0.84558381238E+03 -0.11125510902E+04  0.14097886041E+04  0.10100000352E+00 0. -1.
       -3    1    3    3    0  502  0.18633836387E+03  0.84558381238E+03  0.46572386283E+03  0.98317480451E+03  0.10100000352E+00 0.  1.
</event>
<event>
 5   0  0.1680194E-06  0.2900407E+04  0.7818609E-02  0.8272756E-01
       -2   -1    0    0    0  501  0.00000000000E+00  0.00000000000E+00  0.11403798009E+04  0.11403798009E+04  0.25500000920E-02 0. -1.
        2   -1    0    0  501    0  0.00000000000E+00  0.00000000000E+00 -0.18442011234E+04  0.18442011234E+04  0.25500000920E-02 0.  1.
    10030    2    1    2    0    0  0.00000000000E+00  0.00000000000E+00 -0.70382132248E+03  0.29845809243E+04  0.29004066680E+04 0.  0.
        2    1    3    3  502    0 -0.93159382229E+03  0.97493530021E+03  0.19717027474E+03  0.13628066651E+04  0.25500000920E-02 0.  1.
       -2    1    3    3    0  502  0.93159382229E+03 -0.97493530021E+03 -0.90099159722E+03  0.16217742591E+04  0.25500000920E-02 0. -1.
</event>
<event>
 5   0  0.6287345E-07  0.2212619E+04  0.7818609E-02  0.8513194E-01
       -1   -1    0    0    0  501  0.00000000000E+00  0.00000000000E+00  0.88665054250E+03  0.88665054251E+03  0.50400001928E-02 0.  1.
        1   -1    0    0  501    0  0.00000000000E+00  0.00000000000E+00 -0.13803864790E+04  0.13803864790E+04  0.50400001928E-02 0. -1.
    10030    2    1    2    0    0  0.00000000000E+00  0.00000000000E+00 -0.49373593649E+03  0.22670370215E+04  0.22126187385E+04 0.  0.
        5    1    3    3  502    0 -0.36918927041E+03  0.24881047299E+03 -0.12845404281E+04  0.13595122545E+04  0.46999998093E+01 0. -1.
       -5    1    3    3    0  502  0.36918927041E+03 -0.24881047299E+03  0.79080449156E+03  0.90752476701E+03  0.46999998093E+01 0.  1.
</event>
<event>
 5   0  0.5679750E-07  0.2878061E+04  0.7818609E-02  0.8279435E-01
       -1   -1    0    0    0  501  0.00000000000E+00  0.00000000000E+00  0.21848404391E+04  0.21848404391E+04  0.50400001928E-02 0.  1.
        1   -1    0    0  501    0  0.00000000000E+00  0.00000000000E+00 -0.94780752609E+03  0.94780752610E+03  0.50400001928E-02 0. -1.
    10030    2    1    2    0    0  0.00000000000E+00  0.00000000000E+00  0.12370329131E+04  0.31326479653E+04  0.28780606050E+04 0.  0.
        4    1    3    3  502    0  0.42835137481E+03  0.11775720113E+04  0.13886693856E+04  0.18704451389E+04  0.12699999809E+01 0.  1.
       -4    1    3    3    0  502 -0.42835137481E+03 -0.11775720113E+04 -0.15163647254E+03  0.12622028264E+04  0.12699999809E+01 0. -1.
</event>
<event>
 5   0  0.1680194E-06  0.3722063E+04  0.7818609E-02  0.8063090E-01
        2   -1    0    0  501    0  0.00000000000E+00  0.00000000000E+00  0.24638511979E+04  0.24638511979E+04  0.25500000920E-02 0.  1.
       -2   -1    0    0    0  501  0.00000000000E+00  0.00000000000E+00 -0.14057007400E+04  0.14057007400E+04  0.25500000920E-02 0. -1.
    10030    2    1    2    0    0  0.00000000000E+00  0.00000000000E+00  0.10581504579E+04  0.38695519379E+04  0.37220625745E+04 0.  0.
        2    1    3    3  502    0  0.15609845232E+04  0.10127537460E+04  0.56347129550E+03  0.19441817643E+04  0.25500000920E-02 0. -1.
       -2    1    3    3    0  502 -0.15609845232E+04 -0.10127537460E+04  0.49467916243E+03  0.19253701736E+04  0.25500000920E-02 0.  1.
</event>
<event>
 5   0  0.1151180E-06  0.3144085E+04  0.7818609E-02  0.8203742E-01
       -2   -1    0    0    0  501  0.00000000000E+00  0.00000000000E+00  0.10855584176E+04  0.10855584177E+04  0.25500000920E-02 0.  1.
        2   -1    0    0  501    0  0.00000000000E+00  0.00000000000E+00 -0.22765403888E+04  0.22765403888E+04  0.25500000920E-02 0. -1.
    10030    2    1    2    0    0  0.00000000000E+00  0.00000000000E+00 -0.11909819711E+04  0.33620988064E+04  0.31440849748E+04 0.  0.
        5    1    3    3  502    0 -0.67077376029E+03 -0.11459489717E+04 -0.14953647486E+04  0.19998185679E+04  0.46999998093E+01 0. -1.
       -5    1    3    3    0  502  0.67077376029E+03  0.11459489717E+04  0.30438277746E+03  0.13622802385E+04  0.46999998093E+01 0.  1.
</event>
<event>
 5   0  0.1151180E-06  0.3624921E+04  0.7818609E-02  0.8084807E-01
       -2   -1    0    0    0  501  0.00000000000E+00  0.00000000000E+00  0.27246031046E+04  0.27246031046E+04  0.25500000920E-02 0.  1.
        2   -1    0    0  501    0  0.00000000000E+00  0.00000000000E+00 -0.12056850343E+04  0.12056850343E+04  0.25500000920E-02 0. -1.
    10030    2    1    2    0    0  0.00000000000E+00  0.00000000000E+00  0.15189180702E+04  0.39302881389E+04  0.36249210682E+04 0.  0.
        5    1    3    3  502    0 -0.15187675893E+04  0.45516728507E+03  0.17115923469E+04  0.23331100916E+04  0.46999998093E+01 0.  1.
       -5    1    3    3    0  502  0.15187675893E+04 -0.45516728507E+03 -0.19267427664E+03  0.15971780473E+04  0.46999998093E+01 0. -1.
</event>
<event>
 5   0  0.5875011E-07  0.2061896E+04  0.7818609E-02  0.8578217E-01
       -1   -1    0    0    0  501  0.00000000000E+00  0.00000000000E+00  0.76335373782E+03  0.76335373784E+03  0.50400001928E-02 0.  1.
        1   -1    0    0  501    0  0.00000000000E+00  0.00000000000E+00 -0.13923475970E+04  0.13923475970E+04  0.50400001928E-02 0. -1.
    10030    2    1    2    0    0  0.00000000000E+00  0.00000000000E+00 -0.62899385920E+03  0.21557013349E+04  0.20618959649E+04 0.  0.
        2    1    3    3  502    0  0.14556132665E+03 -0.85528621306E+03  0.26775177418E+03  0.90796124292E+03  0.25500000920E-02 0.  1.
       -2    1    3    3    0  502 -0.14556132665E+03  0.85528621306E+03 -0.89674563338E+03  0.12477400919E+04  0.25500000920E-02 0. -1.
</event>
<event>
 5   0  0.5875011E-07  0.1836237E+04  0.7818609E-02  0.8687263E-01
       -1   -1    0    0    0  501  0.00000000000E+00  0.00000000000E+00  0.60958491469E+03  0.60958491471E+03  0.50400001928E-02 0. -1.
        1   -1    0    0  501    0  0.00000000000E+00  0.00000000000E+00 -0.13828123479E+04  0.13828123479E+04  0.50400001928E-02 0.  1.
    10030    2    1    2    0    0  0.00000000000E+00  0.00000000000E+00 -0.77322743325E+03  0.19923972626E+04  0.18362369642E+04 0.  0.
        2    1    3    3  502    0 -0.77351333917E+03  0.47221522132E+03 -0.22702948126E+03  0.93426574725E+03  0.25500000920E-02 0. -1.
       -2    1    3    3    0  502  0.77351333917E+03 -0.47221522132E+03 -0.54619795199E+03  0.10581315154E+04  0.25500000920E-02 0.  1.
</event>
<event>
 5   0  0.6186440E-07  0.1888160E+04  0.7818609E-02  0.8660772E-01
        1   -1    0    0  501    0  0.00000000000E+00  0.00000000000E+00  0.16056241008E+04  0.16056241008E+04  0.50400001928E-02 0.  1.
       -1   -1    0    0    0  501  0.00000000000E+00  0.00000000000E+00 -0.55510339520E+03  0.55510339523E+03  0.50400001928E-02 0. -1.
    10030    2    1    2    0    0  0.00000000000E+00  0.00000000000E+00  0.10505207056E+04  0.21607274960E+04  0.18881603637E+04 0.  0.
        3    1    3    3  502    0 -0.64867589371E+03  0.68511930214E+03  0.56353228171E+03  0.10989711170E+04  0.10100000352E+00 0. -1.
       -3    1    3    3    0  502  0.64867589371E+03 -0.68511930214E+03  0.48698842387E+03  0.10617563790E+04  0.10100000352E+00 0.  1.
</event>
<event>
 5   0  0.6261598E-07  0.2434210E+04  0.7818609E-02  0.8426806E-01
        1   -1    0    0  501    0  0.00000000000E+00  0.00000000000E+00  0.16826444131E+04  0.16826444131E+04  0.50400001928E-02 0.  1.
       -1   -1    0    0    0  501  0.00000000000E+00  0.00000000000E+00 -0.88036710084E+03  0.88036710085E+03  0.50400001928E-02 0. -1.
    10030    2    1    2    0    0  0.00000000000E+00  0.00000000000E+00  0.80227731222E+03  0.25630115139E+04  0.24342101665E+04 0.  0.
        1    1    3    3  502    0 -0.10205260063E+04  0.64472517916E+03  0.56493651495E+03  0.13327779831E+04  0.50400001928E-02 0. -1.
       -1    1    3    3    0  502  0.10205260063E+04 -0.64472517916E+03  0.23734079726E+03  0.12302335308E+04  0.50400001928E-02 0.  1.
</event>
<event>
 5   0  0.1685793E-06  0.3342198E+04  0.7818609E-02  0.8152240E-01
       -2   -1    0    0    0  501  0.00000000000E+00  0.00000000000E+00  0.17466528110E+04  0.17466528110E+04  0.25500000920E-02 0.  1.
        2   -1    0    0  501    0  0.00000000000E+00  0.00000000000E+00 -0.15988136850E+04  0.15988136850E+04  0.25500000920E-02 0. -1.
    10030    2    1    2    0    0  0.00000000000E+00  0.00000000000E+00  0.14783912603E+03  0.33454664961E+04  0.33421983288E+04 0.  0.
        3    1    3    3  502    0 -0.98777783478E+01  0.15054559958E+04  0.79994052188E+03  0.17048167569E+04  0.10100000352E+00 0.  1.
       -3    1    3    3    0  502  0.98777783478E+01 -0.15054559958E+04 -0.65210139586E+03  0.16406497391E+04  0.10100000352E+00 0. -1.
</event>
<event>
 5   0  0.6186440E-07  0.2580314E+04  0.7818609E-02  0.8374919E-01
       -1   -1    0    0    0  501  0.00000000000E+00  0.00000000000E+00  0.13429801520E+04  0.13429801520E+04  0.50400001928E-02 0.  1.
        1   -1    0    0  501    0  0.00000000000E+00  0.00000000000E+00 -0.12394117136E+04  0.12394117136E+04  0.50400001928E-02 0. -1.
    10030    2    1    2    0    0  0.00000000000E+00  0.00000000000E+00  0.10356843835E+03  0.25823918656E+04  0.25803141914E+04 0.  0.
        3    1    3    3  502    0 -0.75293014069E+03  0.64274901327E+03  0.87978056941E+03  0.13244032435E+04  0.10100000352E+00 0.  1.
       -3    1    3    3    0  502  0.75293014069E+03 -0.64274901327E+03 -0.77621213106E+03  0.12579886221E+04  0.10100000352E+00 0. -1.
</event>
<event>
 5   0  0.1184684E-06  0.3649603E+04  0.7818609E-02  0.8079223E-01
        2   -1    0    0  501    0  0.00000000000E+00  0.00000000000E+00  0.28383526145E+04  0.28383526145E+04  0.25500000920E-02 0.  1.
       -2   -1    0    0    0  501  0.00000000000E+00  0.00000000000E+00 -0.11731808188E+04  0.11731808188E+04  0.25500000920E-02 0. -1.
    10030    2    1    2    0    0  0.00000000000E+00  0.00000000000E+00  0.16651717957E+04  0.40115334334E+04  0.36496031808E+04 0.  0.
        4    1    3    3  502    0  0.95614142954E+03 -0.42560272588E+03 -0.81050014062E+03  0.13237281460E+04  0.12699999809E+01 0. -1.
       -4    1    3    3    0  502 -0.95614142954E+03  0.42560272588E+03  0.24756719364E+04  0.26878052874E+04  0.12699999809E+01 0.  1.
</event>
<event>
 5   0  0.6261598E-07  0.3524290E+04  0.7818609E-02  0.8108058E-01
       -1   -1    0    0    0  501  0.00000000000E+00  0.00000000000E+00  0.32119552703E+04  0.32119552703E+04  0.50400001928E-02 0.  1.
        1   -1    0    0  501    0  0.00000000000E+00  0.00000000000E+00 -0.96674896518E+03  0.96674896519E+03  0.50400001928E-02 0. -1.
    10030    2    1    2    0    0  0.00000000000E+00  0.00000000000E+00  0.22452063051E+04  0.41787042354E+04  0.35242896781E+04 0.  0.
        1    1    3    3  502    0 -0.14491542266E+04 -0.69218422659E+03  0.26268378671E+03  0.16273198050E+04  0.50400001928E-02 0. -1.
       -1    1    3    3    0  502  0.14491542266E+04  0.69218422659E+03  0.19825225184E+04  0.25513844304E+04  0.50400001928E-02 0.  1.
</event>
<event>
 5   0  0.5875011E-07  0.3550203E+04  0.7818609E-02  0.8101995E-01
       -1   -1    0    0    0  501  0.00000000000E+00  0.00000000000E+00  0.12345125501E+04  0.12345125501E+04  0.50400001928E-02 0.  1.
        1   -1    0    0  501    0  0.00000000000E+00  0.00000000000E+00 -0.25524119337E+04  0.25524119337E+04  0.50400001928E-02 0. -1.
    10030    2    1    2    0    0  0.00000000000E+00  0.00000000000E+00 -0.13178993836E+04  0.37869244838E+04  0.35502025661E+04 0.  0.
        2    1    3    3  502    0  0.86893306937E+03 -0.87515208090E+03  0.70291450957E+03  0.14195156398E+04  0.25500000920E-02 0.  1.
       -2    1    3    3    0  502 -0.86893306937E+03  0.87515208090E+03 -0.20208138932E+04  0.23674088440E+04  0.25500000920E-02 0. -1.
</event>
<event>
 5   0  0.6287345E-07  0.3598506E+04  0.7818609E-02  0.8090834E-01
        1   -1    0    0  501    0  0.00000000000E+00  0.00000000000E+00  0.14104559212E+04  0.14104559212E+04  0.50400001928E-02 0. -1.
       -1   -1    0    0    0  501  0.00000000000E+00  0.00000000000E+00 -0.22952228441E+04  0.22952228441E+04  0.50400001928E-02 0.  1.
    10030    2    1    2    0    0  0.00000000000E+00  0.00000000000E+00 -0.88476692291E+03  0.37056787653E+04  0.35985056070E+04 0.  0.
        5    1    3    3  502    0  0.23398378085E+03 -0.16247060304E+04  0.31635778345E+03  0.16716825153E+04  0.46999998093E+01 0.  1.
       -5    1    3    3    0  502 -0.23398378085E+03  0.16247060304E+04 -0.12011247064E+04  0.20339962500E+04  0.46999998093E+01 0. -1.
</event>
<event>
 5   0  0.1184684E-06  0.3743505E+04  0.7818609E-02  0.8058388E-01
        2   -1    0    0  501    0  0.00000000000E+00  0.00000000000E+00  0.11878759904E+04  0.11878759904E+04  0.25500000920E-02 0.  1.
       -2   -1    0    0    0  501  0.00000000000E+00  0.00000000000E+00 -0.29493457475E+04  0.29493457475E+04  0.25500000920E-02 0. -1.
    10030    2    1    2    0    0  0.00000000000E+00  0.00000000000E+00 -0.17614697571E+04  0.41372217378E+04  0.37435047753E+04 0.  0.
        4    1    3    3  502    0  0.71415254699E+03 -0.13137827492E+04  0.36346475847E+03  0.15388785579E+04  0.12699999809E+01 0.  1.
       -4    1    3    3    0  502 -0.71415254699E+03  0.13137827492E+04 -0.21249345156E+04  0.25983431799E+04  0.12699999809E+01 0. -1.
</event>
<event>
 5   0  0.1685793E-06  0.3710482E+04  0.7818609E-02  0.8065643E-01
       -2   -1    0    0    0  501  0.00000000000E+00  0.00000000000E+00  0.13707784447E+04  0.13707784447E+04  0.25500000920E-02 0. -1.
        2   -1    0    0  501    0  0.00000000000E+00  0.00000000000E+00 -0.25109228616E+04  0.25109228616E+04  0.25500000920E-02 0.  1.
    10030    2    1    2    0    0  0.00000000000E+00  0.00000000000E+00 -0.11401444169E+04  0.38817013064E+04  0.37104818744E+04 0.  0.
        3    1    3    3  502    0 -0.69510498194E+03  0.84143809017E+03  0.99939950330E+03  0.14798609303E+04  0.10100000352E+00 0. -1.
       -3    1    3    3    0  502  0.69510498194E+03 -0.84143809017E+03 -0.21395439202E+04  0.24018403761E+04  0.10100000352E+00 0.  1.
</event>
<event>
 5   0  0.6287345E-07  0.3571628E+04  0.7818609E-02  0.8097022E-01
       -1   -1    0    0    0  501  0.00000000000E+00  0.00000000000E+00  0.18620264845E+04  0.18620264845E+04  0.50400001928E-02 0.  1.
        1   -1    0    0  501    0  0.00000000000E+00  0.00000000000E+00 -0.17127211405E+04  0.17127211405E+04  0.50400001928E-02 0. -1.
    10030    2    1    2    0    0  0.00000000000E+00  0.00000000000E+00  0.14930534399E+03  0.35747476249E+04  0.35716282696E+04 0.  0.
        5    1    3    3  502    0  0.20731817658E+03 -0.17701008575E+04 -0.38901967670E+02  0.17826310120E+04  0.46999998093E+01 0.  1.
       -5    1    3    3    0  502 -0.20731817658E+03  0.17701008575E+04  0.18820731166E+03  0.17921166129E+04  0.46999998093E+01 0. -1.
</event>
<event>
 5   0  0.1724503E-06  0.3699145E+04  0.7818609E-02  0.8068151E-01
        2   -1    0    0  501    0  0.00000000000E+00  0.00000000000E+00  0.30169225103E+04  0.30169225103E+04  0.25500000920E-02 0.  1.
       -2   -1    0    0    0  501  0.00000000000E+00  0.00000000000E+00 -0.11339100025E+04  0.11339100025E+04  0.25500000920E-02 0. -1.
    10030    2    1    2    0    0  0.00000000000E+00  0.00000000000E+00  0.18830125078E+04  0.41508325128E+04  0.36991450965E+04 0.  0.
        1    1    3    3  502    0 -0.95338513987E+03 -0.51342955056E+03 -0.74104110781E+03  0.13121337782E+04  0.50400001928E-02 0. -1.
       -1    1    3    3    0  502  0.95338513987E+03  0.51342955056E+03  0.26240536156E+04  0.28386987346E+04  0.50400001928E-02 0.  1.
</event>
<event>
 5   0  0.1724503E-06  0.3079383E+04  0.7818609E-02  0.8221419E-01
       -2   -1    0    0    0  501  0.00000000000E+00  0.00000000000E+00  0.18788722311E+04  0.18788722311E+04  0.25500000920E-02 0. -1.
        2   -1    0    0  501    0  0.00000000000E+00  0.00000000000E+00 -0.12617411067E+04  0.12617411067E+04  0.25500000920E-02 0.  1.
    10030    2    1    2    0    0  0.00000000000E+00  0.00000000000E+00  0.61713112443E+03  0.31406133378E+04  0.30793832682E+04 0.  0.
        1    1    3    3  502    0  0.20804196463E+03  0.91556672360E+03  0.15531191367E+04  0.18148616855E+04  0.50400001928E-02 0. -1.
       -1    1    3    3    0  502 -0.20804196463E+03 -0.91556672360E+03 -0.93598801231E+03  0.13257516523E+04  0.50400001928E-02 0.  1.
</event>
<event>
 5   0  0.1680194E-06  0.2638955E+04  0.7818609E-02  0.8355088E-01
       -2   -1    0    0    0  501  0.00000000000E+00  0.00000000000E+00  0.99247043489E+03  0.99247043489E+03  0.25500000920E-02 0.  1.
        2   -1    0    0  501    0  0.00000000000E+00  0.00000000000E+00 -0.17542293990E+04  0.17542293990E+04  0.25500000920E-02 0. -1.
    10030    2    1    2    0    0  0.00000000000E+00  0.00000000000E+00 -0.76175896410E+03  0.27466998339E+04  0.26389549557E+04 0.  0.
        2    1    3    3  502    0 -0.93762691428E+03  0.74494046129E+02  0.58228198333E+03  0.11062304920E+04  0.25500000920E-02 0.  1.
       -2    1    3    3    0  502  0.93762691428E+03 -0.74494046129E+02 -0.13440409474E+04  0.16404693419E+04  0.25500000920E-02 0. -1.
</event>
<event>
 5   0  0.1184684E-06  0.3746594E+04  0.7818609E-02  0.8057714E-01
       -2   -1    0    0    0  501  0.00000000000E+00  0.00000000000E+00  0.12148116646E+04  0.12148116646E+04  0.25500000920E-02 0. -1.
        2   -1    0    0  501    0  0.00000000000E+00  0.00000000000E+00 -0.28887122327E+04  0.28887122327E+04  0.25500000920E-02 0.  1.
    10030    2    1    2    0    0  0.00000000000E+00  0.00000000000E+00 -0.16739005681E+04  0.41035238972E+04  0.37465938215E+04 0.  0.
        4    1    3    3  502    0 -0.34513342818E+03  0.16566083327E+04 -0.17171065300E+04  0.24107933755E+04  0.12699999809E+01 0. -1.
       -4    1    3    3    0  502  0.34513342818E+03 -0.16566083327E+04  0.43205961892E+02  0.16927305217E+04  0.12699999809E+01 0.  1.
</event>
<event>
 5   0  0.6186440E-07  0.3963306E+04  0.7818609E-02  0.8011990E-01
        1   -1    0    0  501    0  0.00000000000E+00  0.00000000000E+00  0.14587535165E+04  0.14587535165E+04  0.50400001928E-02 0.  1.
       -1   -1    0    0    0  501  0.00000000000E+00  0.00000000000E+00 -0.26919888713E+04  0.26919888713E+04  0.50400001928E-02 0. -1.
    10030    2    1    2    0    0  0.00000000000E+00  0.00000000000E+00 -0.12332353548E+04  0.41507423878E+04  0.39633058082E+04 0.  0.
        3    1    3    3  502    0 -0.11418944021E+04  0.13078513169E+04 -0.16170704899E+04  0.23726177257E+04  0.10100000352E+00 0. -1.
       -3    1    3    3    0  502  0.11418944021E+04 -0.13078513169E+04  0.38383513516E+03  0.17781246621E+04  0.10100000352E+00 0.  1.
</event>
<event>
 5   0  0.6186440E-07  0.3330878E+04  0.7818609E-02  0.8155083E-01
       -1   -1    0    0    0  501  0.00000000000E+00  0.00000000000E+00  0.14244090330E+04  0.14244090330E+04  0.50400001928E-02 0. -1.
        1   -1    0    0  501    0  0.00000000000E+00  0.00000000000E+00 -0.19472541769E+04  0.19472541769E+04  0.50400001928E-02 0.  1.
    10030    2    1    2    0    0  0.00000000000E+00  0.00000000000E+00 -0.52284514388E+03  0.33716632099E+04  0.33308776256E+04 0.  0.
        3    1    3    3  502    0 -0.15646403172E+04 -0.53390484606E+03 -0.57629978809E+02  0.16542294072E+04  0.10100000352E+00 0.  1.
       -3    1    3    3    0  502  0.15646403172E+04  0.53390484606E+03 -0.46521516508E+03  0.17174338028E+04  0.10100000352E+00 0. -1.
</event>
<event>
 5   0  0.1680194E-06  0.3822808E+04  0.7818609E-02  0.8041278E-01
        2   -1    0    0  501    0  0.00000000000E+00  0.00000000000E+00  0.22043348082E+04  0.22043348082E+04  0.25500000920E-02 0. -1.
       -2   -1    0    0    0  501  0.00000000000E+00  0.00000000000E+00 -0.16574007101E+04  0.16574007101E+04  0.25500000920E-02 0.  1.
    10030    2    1    2    0    0  0.00000000000E+00  0.00000000000E+00  0.54693409806E+03  0.38617355183E+04  0.38228084318E+04 0.  0.
        2    1    3    3  502    0 -0.65243020933E+03 -0.63277336397E+03  0.19720764509E+04  0.21714402678E+04  0.25500000920E-02 0. -1.
       -2    1    3    3    0  502  0.65243020933E+03  0.63277336397E+03 -0.14251423529E+04  0.16902952506E+04  0.25500000920E-02 0.  1.
</event>
<event>
 5   0  0.6261598E-07  0.3700601E+04  0.7818609E-02  0.8067829E-01
        1   -1    0    0  501    0  0.00000000000E+00  0.00000000000E+00  0.26432587766E+04  0.26432587766E+04  0.50400001928E-02 0. -1.
       -1   -1    0    0    0  501  0.00000000000E+00  0.00000000000E+00 -0.12952236050E+04  0.12952236050E+04  0.50400001928E-02 0.  1.
    10030    2    1    2    0    0  0.00000000000E+00  0.00000000000E+00  0.13480351716E+04  0.39384823816E+04  0.37006005791E+04 0.  0.
        1    1    3    3  502    0 -0.64261636169E+03 -0.12727255702E+04 -0.58112463358E+03  0.15396402194E+04  0.50400001928E-02 0.  1.
       -1    1    3    3    0  502  0.64261636169E+03  0.12727255702E+04  0.19291598052E+04  0.23988421623E+04  0.50400001928E-02 0. -1.
</event>
<event>
 5   0  0.6186440E-07  0.2991152E+04  0.7818609E-02  0.8246262E-01
        1   -1    0    0  501    0  0.00000000000E+00  0.00000000000E+00  0.96878876375E+03  0.96878876376E+03  0.50400001928E-02 0.  1.
       -1   -1    0    0    0  501  0.00000000000E+00  0.00000000000E+00 -0.23088080588E+04  0.23088080588E+04  0.50400001928E-02 0. -1.
    10030    2    1    2    0    0  0.00000000000E+00  0.00000000000E+00 -0.13400192951E+04  0.32775968226E+04  0.29911518217E+04 0.  0.
        3    1    3    3  502    0 -0.11162897634E+04 -0.51332542937E+03  0.26437679311E+03  0.12567819745E+04  0.10100000352E+00 0.  1.
       -3    1    3    3    0  502  0.11162897634E+04  0.51332542937E+03 -0.16043960882E+04  0.20208148481E+04  0.10100000352E+00 0. -1.
</event>
<event>
 5   0  0.1151180E-06  0.2181199E+04  0.7818609E-02  0.8526295E-01
       -2   -1    0    0    0  501  0.00000000000E+00  0.00000000000E+00  0.72727865473E+03  0.72727865473E+03  0.25500000920E-02 0. -1.
        2   -1    0    0  501    0  0.00000000000E+00  0.00000000000E+00 -0.16354210233E+04  0.16354210233E+04  0.25500000920E-02 0.  1.
    10030    2    1    2    0    0  0.00000000000E+00  0.00000000000E+00 -0.90814236856E+03  0.23626996780E+04  0.21811985712E+04 0.  0.
        5    1    3    3  502    0  0.77504309270E+03  0.31199007339E+03  0.30522471819E+03  0.88950200676E+03  0.46999998093E+01 0. -1.
       -5    1    3    3    0  502 -0.77504309270E+03 -0.31199007339E+03 -0.12133670867E+04  0.14731976713E+04  0.46999998093E+01 0.  1.
</event>
<event>
 5   0  0.1724503E-06  0.3697850E+04  0.7818609E-02  0.8068438E-01
        2   -1    0    0  501    0  0.00000000000E+00  0.00000000000E+00  0.17175108090E+04  0.17175108090E+04  0.25500000920E-02 0.  1.
       -2   -1    0    0    0  501  0.00000000000E+00  0.00000000000E+00 -0.19903942120E+04  0.19903942120E+04  0.25500000920E-02 0. -1.
    10030    2    1    2    0    0  0.00000000000E+00  0.00000000000E+00 -0.27288340307E+03  0.37079050210E+04  0.36978499555E+04 0.  0.
        1    1    3    3  502    0  0.11894311398E+04  0.79260271850E+03  0.10395893261E+04  0.17674024648E+04  0.50400001928E-02 0.  1.
       -1    1    3    3    0  502 -0.11894311398E+04 -0.79260271850E+03 -0.13124727292E+04  0.19405025562E+04  0.50400001928E-02 0. -1.
</event>
<event>
 5   0  0.6287345E-07  0.3748870E+04  0.7818609E-02  0.8057217E-01
       -1   -1    0    0    0  501  0.00000000000E+00  0.00000000000E+00  0.20181897163E+04  0.20181897163E+04  0.50400001928E-02 0. -1.
        1   -1    0    0  501    0  0.00000000000E+00  0.00000000000E+00 -0.17409195343E+04  0.17409195343E+04  0.50400001928E-02 0.  1.
    10030    2    1    2    0    0  0.00000000000E+00  0.00000000000E+00  0.27727018198E+03  0.37591092506E+04  0.37488696435E+04 0.  0.
        5    1    3    3  502    0  0.58022654588E+02  0.18687480446E+04  0.27278364441E+03  0.18894493614E+04  0.46999998093E+01 0. -1.
       -5    1    3    3    0  502 -0.58022654588E+02 -0.18687480446E+04  0.44865375676E+01  0.18696598893E+04  0.46999998093E+01 0.  1.
</event>
<event>
 5   0  0.6186440E-07  0.3614253E+04  0.7818609E-02  0.8087235E-01
       -1   -1    0    0    0  501  0.00000000000E+00  0.00000000000E+00  0.22863975113E+04  0.22863975113E+04  0.50400001928E-02 0.  1.
        1   -1    0    0  501    0  0.00000000000E+00  0.00000000000E+00 -0.14283197070E+04  0.14283197071E+04  0.50400001928E-02 0. -1.
    10030    2    1    2    0    0  0.00000000000E+00  0.00000000000E+00  0.85807780426E+03  0.37147172184E+04  0.36142532416E+04 0.  0.
        3    1    3    3  502    0  0.11694030255E+04 -0.72474287483E+03 -0.77526110643E+03  0.15791723984E+04  0.10100000352E+00 0. -1.
       -3    1    3    3    0  502 -0.11694030255E+04  0.72474287483E+03  0.16333389107E+04  0.21355448199E+04  0.10100000352E+00 0.  1.
</event>
<event>
 5   0  0.1680194E-06  0.1990349E+04  0.7818609E-02  0.8611146E-01
       -2   -1    0    0    0  501  0.00000000000E+00  0.00000000000E+00  0.63156702074E+03  0.63156702074E+03  0.25500000920E-02 0. -1.
        2   -1    0    0  501    0  0.00000000000E+00  0.00000000000E+00 -0.15681185382E+04  0.15681185382E+04  0.25500000920E-02 0.  1.
    10030    2    1    2    0    0  0.00000000000E+00  0.00000000000E+00 -0.93655151745E+03  0.21996855589E+04  0.19903486663E+04 0.  0.
        2    1    3    3  502    0 -0.58275905689E+03  0.72738544367E+03 -0.85378144003E+03  0.12639780257E+04  0.25500000920E-02 0. -1.
       -2    1    3    3    0  502  0.58275905689E+03 -0.72738544367E+03 -0.82770077419E+02  0.93570753325E+03  0.25500000920E-02 0.  1.
</event>
<event>
 5   0  0.5679750E-07  0.3642319E+04  0.7818609E-02  0.8080866E-01
       -1   -1    0    0    0  501  0.00000000000E+00  0.00000000000E+00  0.23775760208E+04  0.23775760208E+04  0.50400001928E-02 0. -1.
        1   -1    0    0  501    0  0.00000000000E+00  0.00000000000E+00 -0.13949591271E+04  0.13949591271E+04  0.50400001928E-02 0.  1.
    10030    2    1    2    0    0  0.00000000000E+00  0.00000000000E+00  0.98261689368E+03  0.37725351479E+04  0.36423186958E+04 0.  0.
        4    1    3    3  502    0  0.21424801793E+03  0.84069312984E+03 -0.11671719715E+04  0.14542899215E+04  0.12699999809E+01 0.  1.
       -4    1    3    3    0  502 -0.21424801793E+03 -0.84069312984E+03  0.21497888652E+04  0.23182452264E+04  0.12699999809E+01 0. -1.
</event>
<event>
 5   0  0.6287345E-07  0.3667369E+04  0.7818609E-02  0.8075232E-01
        1   -1    0    0  501    0  0.00000000000E+00  0.00000000000E+00  0.15659601718E+04  0.15659601718E+04  0.50400001928E-02 0.  1.
       -1   -1    0    0    0  501  0.00000000000E+00  0.00000000000E+00 -0.21471806765E+04  0.21471806765E+04  0.50400001928E-02 0. -1.
    10030    2    1    2    0    0  0.00000000000E+00  0.00000000000E+00 -0.58122050470E+03  0.37131408483E+04  0.36673693138E+04 0.  0.
        5    1    3    3  502    0 -0.15772597835E+04  0.11998964647E+03  0.64845207860E+03  0.17095783481E+04  0.46999998093E+01 0.  1.
       -5    1    3    3    0  502  0.15772597835E+04 -0.11998964647E+03 -0.12296725833E+04  0.20035625002E+04  0.46999998093E+01 0. -1.
</event>
<event>
 5   0  0.1724503E-06  0.2944317E+04  0.7818609E-02  0.8259813E-01
       -2   -1    0    0    0  501  0.00000000000E+00  0.00000000000E+00  0.78583238623E+03  0.78583238623E+03  0.25500000920E-02 0.  1.
        2   -1    0    0  501    0  0.00000000000E+00  0.00000000000E+00 -0.27579043140E+04  0.27579043140E+04  0.25500000920E-02 0. -1.
    10030    2    1    2    0    0  0.00000000000E+00  0.00000000000E+00 -0.19720719278E+04  0.35437367002E+04  0.29443169178E+04 0.  0.
        1    1    3    3  502    0 -0.11231337684E+04  0.21935878228E+03  0.12863144582E+03  0.11515614556E+04  0.50400001928E-02 0.  1.
       -1    1    3    3    0  502  0.11231337684E+04 -0.21935878228E+03 -0.21007033736E+04  0.23921752446E+04  0.50400001928E-02 0. -1.
</event>
<event>
 5   0  0.1151180E-06  0.2121456E+04  0.7818609E-02  0.8551850E-01
        2   -1    0    0  501    0  0.00000000000E+00  0.00000000000E+00  0.99093916324E+03  0.99093916324E+03  0.25500000920E-02 0. -1.
       -2   -1    0    0    0  501  0.00000000000E+00  0.00000000000E+00 -0.11354314193E+04  0.11354314193E+04  0.25500000920E-02 0.  1.
    10030    2    1    2    0    0  0.00000000000E+00  0.00000000000E+00 -0.14449225608E+03  0.21263705826E+04  0.21214555952E+04 0.  0.
        5    1    3    3  502    0 -0.57932336425E+03  0.15340206344E+03  0.80498072018E+03  0.10035755095E+04  0.46999998093E+01 0. -1.
       -5    1    3    3    0  502  0.57932336425E+03 -0.15340206344E+03 -0.94947297626E+03  0.11227950731E+04  0.46999998093E+01 0.  1.
</event>
<event>
 5   0  0.6261598E-07  0.2164869E+04  0.7818609E-02  0.8533194E-01
        1   -1    0    0  501    0  0.00000000000E+00  0.00000000000E+00  0.17876720205E+04  0.17876720205E+04  0.50400001928E-02 0.  1.
       -1   -1    0    0    0  501  0.00000000000E+00  0.00000000000E+00 -0.65541331411E+03  0.65541331413E+03  0.50400001928E-02 0. -1.
    10030    2    1    2    0    0  0.00000000000E+00  0.00000000000E+00  0.11322587064E+04  0.24430853347E+04  0.21648686275E+04 0.  0.
        1    1    3    3  502    0 -0.51295329679E+03  0.77048207344E+02  0.16382812693E+04  0.17184362160E+04  0.50400001928E-02 0.  1.
       -1    1    3    3    0  502  0.51295329679E+03 -0.77048207344E+02 -0.50602256294E+03  0.72464911866E+03  0.50400001928E-02 0. -1.
</event>
<event>
 5   0  0.6186440E-07  0.3679107E+04  0.7818609E-02  0.8072608E-01
       -1   -1    0    0    0  501  0.00000000000E+00  0.00000000000E+00  0.14181995342E+04  0.14181995342E+04  0.50400001928E-02 0. -1.
        1   -1    0    0  501    0  0.00000000000E+00  0.00000000000E+00 -0.23860941856E+04  0.23860941856E+04  0.50400001928E-02 0.  1.
    10030    2    1    2    0    0  0.00000000000E+00  0.00000000000E+00 -0.96789465139E+03  0.38042937198E+04  0.36791073171E+04 0.  0.
        3    1    3    3  502    0 -0.32137557928E+03  0.69597518930E+03 -0.22130588043E+04  0.23420702399E+04  0.10100000352E+00 0.  1.
       -3    1    3    3    0  502  0.32137557928E+03 -0.69597518930E+03  0.12451641530E+04  0.14622234799E+04  0.10100000352E+00 0. -1.
</event>
<event>
 5   0  0.1151180E-06  0.3259431E+04  0.7818609E-02  0.8173295E-01
       -2   -1    0    0    0  501  0.00000000000E+00  0.00000000000E+00  0.15579868615E+04  0.15579868615E+04  0.25500000920E-02 0. -1.
        2   -1    0    0  501    0  0.00000000000E+00  0.00000000000E+00 -0.17047469101E+04  0.17047469101E+04  0.25500000920E-02 0.  1.
    10030    2    1    2    0    0  0.00000000000E+00  0.00000000000E+00 -0.14676004852E+03  0.32627337716E+04  0.32594314155E+04 0.  0.
        5    1    3    3  502    0 -0.34281964074E+03  0.47549605971E+03  0.14487951712E+04  0.15628983802E+04  0.46999998093E+01 0. -1.
       -5    1    3    3    0  502  0.34281964074E+03 -0.47549605971E+03 -0.15955552197E+04  0.16998353914E+04  0.46999998093E+01 0.  1.
</event>
<event>
 5   0  0.6287345E-07  0.2772551E+04  0.7818609E-02  0.8311841E-01
       -1   -1    0    0    0  501  0.00000000000E+00  0.00000000000E+00  0.14687335989E+04  0.14687335989E+04  0.50400001928E-02 0. -1.
        1   -1    0    0  501    0  0.00000000000E+00  0.00000000000E+00 -0.13084466085E+04  0.13084466085E+04  0.50400001928E-02 0.  1.
    10030    2    1    2    0    0  0.00000000000E+00  0.00000000000E+00  0.16028699034E+03  0.27771802074E+04  0.27725508084E+04 0.  0.
        5    1    3    3  502    0 -0.46368477744E+03  0.31154378106E+03 -0.11907043409E+04  0.13152421898E+04  0.46999998093E+01 0.  1.
       -5    1    3    3    0  502  0.46368477744E+03 -0.31154378106E+03  0.13509913312E+04  0.14619380176E+04  0.46999998093E+01 0. -1.
</event>
<event>
 5   0  0.6287345E-07  0.3581564E+04  0.7818609E-02  0.8094728E-01
        1   -1    0    0  501    0  0.00000000000E+00  0.00000000000E+00  0.10644527133E+04  0.10644527133E+04  0.50400001928E-02 0. -1.
       -1   -1    0    0    0  501  0.00000000000E+00  0.00000000000E+00 -0.30127223820E+04  0.30127223820E+04  0.50400001928E-02 0.  1.
    10030    2    1    2    0    0  0.00000000000E+00  0.00000000000E+00 -0.19482696687E+04  0.40771750953E+04  0.35815641913E+04 0.  0.
        5    1    3    3  502    0 -0.15353499706E+03 -0.10790386145E+04  0.64339667670E+03  0.12656534677E+04  0.46999998093E+01 0. -1.
       -5    1    3    3    0  502  0.15353499706E+03  0.10790386145E+04 -0.25916663453E+04  0.28115216276E+04  0.46999998093E+01 0.  1.
</event>
<event>
 5   0  0.1184684E-06  0.3699389E+04  0.7818609E-02  0.8068097E-01
       -2   -1    0    0    0  501  0.00000000000E+00  0.00000000000E+00  0.13870630352E+04  0.13870630352E+04  0.25500000920E-02 0. -1.
        2   -1    0    0  501    0  0.00000000000E+00  0.00000000000E+00 -0.24666284468E+04  0.24666284468E+04  0.25500000920E-02 0.  1.
    10030    2    1    2    0    0  0.00000000000E+00  0.00000000000E+00 -0.10795654116E+04  0.38536914820E+04  0.36993886739E+04 0.  0.
        4    1    3    3  502    0  0.76074422371E+03  0.24255777762E+03  0.11982826819E+04  0.14399475852E+04  0.12699999809E+01 0. -1.
       -4    1    3    3    0  502 -0.76074422371E+03 -0.24255777762E+03 -0.22778480935E+04  0.24137438968E+04  0.12699999809E+01 0.  1.
</event>
<event>
 5   0  0.5875011E-07  0.2360420E+04  0.7818609E-02  0.8454472E-01
        1   -1    0    0  501    0  0.00000000000E+00  0.00000000000E+00  0.15982529663E+04  0.15982529663E+04  0.50400001928E-02 0. -1.
       -1   -1    0    0    0  501  0.00000000000E+00  0.00000000000E+00 -0.87151132871E+03  0.87151132873E+03  0.50400001928E-02 0.  1.
    10030    2    1    2    0    0  0.00000000000E+00  0.00000000000E+00  0.72674163754E+03  0.24697642950E+04  0.23604199340E+04 0.  0.
        2    1    3    3  502    0  0.68577541436E+03  0.94304902424E+03  0.17253155407E+03  0.11787266512E+04  0.25500000920E-02 0.  1.
       -2    1    3    3    0  502 -0.68577541436E+03 -0.94304902424E+03  0.55421008347E+03  0.12910376438E+04  0.25500000920E-02 0. -1.
</event>
<event>
 5   0  0.6261598E-07  0.2638077E+04  0.7818609E-02  0.8355381E-01
       -1   -1    0    0    0  501  0.00000000000E+00  0.00000000000E+00  0.14417312486E+04  0.14417312486E+04  0.50400001928E-02 0. -1.
        1   -1    0    0  501    0  0.00000000000E+00  0.00000000000E+00 -0.12067872448E+04  0.12067872448E+04  0.50400001928E-02 0.  1.
    10030    2    1    2    0    0  0.00000000000E+00  0.00000000000E+00  0.23494400383E+03  0.26485184934E+04  0.26380772401E+04 0.  0.
        1    1    3    3  502    0 -0.21287788126E+03 -0.97887410226E+03  0.97897750400E+03  0.14006814248E+04  0.50400001928E-02 0. -1.
       -1    1    3    3    0  502  0.21287788126E+03  0.97887410226E+03 -0.74403350017E+03  0.12478370686E+04  0.50400001928E-02 0.  1.
</event>
<event>
 5   0  0.1151180E-06  0.3405213E+04  0.7818609E-02  0.8136628E-01
        2   -1    0    0  501    0  0.00000000000E+00  0.00000000000E+00  0.19785207236E+04  0.19785207236E+04  0.25500000920E-02 0. -1.
       -2   -1    0    0    0  501  0.00000000000E+00  0.00000000000E+00 -0.14651699197E+04  0.14651699197E+04  0.25500000920E-02 0.  1.
    10030    2    1    2    0    0  0.00000000000E+00  0.00000000000E+00  0.51335080395E+03  0.34436906433E+04  0.34052130916E+04 0.  0.
        5    1    3    3  502    0  0.12952586931E+03  0.97275434485E+03 -0.11503832777E+04  0.15120951498E+04  0.46999998093E+01 0.  1.
       -5    1    3    3    0  502 -0.12952586931E+03 -0.97275434485E+03  0.16637340817E+04  0.19315954936E+04  0.46999998093E+01 0. -1.
</event>
<event>
 5   0  0.1184684E-06  0.1978379E+04  0.7818609E-02  0.8616797E-01
        2   -1    0    0  501    0  0.00000000000E+00  0.00000000000E+00  0.56692040881E+03  0.56692040882E+03  0.25500000920E-02 0. -1.
       -2   -1    0    0    0  501  0.00000000000E+00  0.00000000000E+00 -0.17259840754E+04  0.17259840754E+04  0.25500000920E-02 0.  1.
    10030    2    1    2    0    0  0.00000000000E+00  0.00000000000E+00 -0.11590636666E+04  0.22929044842E+04  0.19783787278E+04 0.  0.
        4    1    3    3  502    0 -0.29586179722E+03 -0.91059593443E+03 -0.29147227198E+03  0.10008380774E+04  0.12699999809E+01 0. -1.
       -4    1    3    3    0  502  0.29586179722E+03  0.91059593443E+03 -0.86759139464E+03  0.12920664069E+04  0.12699999809E+01 0.  1.
</event>
<event>
 5   0  0.1685793E-06  0.3771099E+04  0.7818609E-02  0.8052386E-01
       -2   -1    0    0    0  501  0.00000000000E+00  0.00000000000E+00  0.16476712678E+04  0.16476712678E+04  0.25500000920E-02 0. -1.
        2   -1    0    0  501    0  0.00000000000E+00  0.00000000000E+00 -0.21577703565E+04  0.21577703565E+04  0.25500000920E-02 0.  1.
    10030    2    1    2    0    0  0.00000000000E+00  0.00000000000E+00 -0.51009908873E+03  0.38054416243E+04  0.37710986298E+04 0.  0.
        3    1    3    3  502    0  0.10618431800E+03  0.18244244742E+04  0.21339395891E+03  0.18399284669E+04  0.10100000352E+00 0.  1.
       -3    1    3    3    0  502 -0.10618431800E+03 -0.18244244742E+04 -0.72349304764E+03  0.19655131574E+04  0.10100000352E+00 0. -1.
</event>
<event>
 5   0  0.1685793E-06  0.3207802E+04  0.7818609E-02  0.8186760E-01
        2   -1    0    0  501    0  0.00000000000E+00  0.00000000000E+00  0.16204565483E+04  0.16204565483E+04  0.25500000920E-02 0.  1.
       -2   -1    0    0    0  501  0.00000000000E+00  0.00000000000E+00 -0.15875141713E+04  0.15875141713E+04  0.25500000920E-02 0. -1.
    10030    2    1    2    0    0  0.00000000000E+00  0.00000000000E+00  0.32942376953E+02  0.32079707196E+04  0.32078015739E+04 0.  0.
        3    1    3    3  502    0 -0.10478834845E+03 -0.14415250355E+04 -0.67892344161E+03  0.15968444118E+04  0.10100000352E+00 0. -1.
       -3    1    3    3    0  502  0.10478834845E+03  0.14415250355E+04  0.71186581856E+03  0.16111263078E+04  0.10100000352E+00 0.  1.
</event>
<event>
 5   0  0.5875011E-07  0.3596758E+04  0.7818609E-02  0.8091235E-01
        1   -1    0    0  501    0  0.00000000000E+00  0.00000000000E+00  0.23465639600E+04  0.23465639600E+04  0.50400001928E-02 0.  1.
       -1   -1    0    0    0  501  0.00000000000E+00  0.00000000000E+00 -0.13782565349E+04  0.13782565349E+04  0.50400001928E-02 0. -1.
    10030    2    1    2    0    0  0.00000000000E+00  0.00000000000E+00  0.96830742514E+03  0.37248204949E+04  0.35967580472E+04 0.  0.
        2    1    3    3  502    0 -0.20990892847E+03 -0.90563709403E+03 -0.11101152494E+04  0.14479627659E+04  0.25500000920E-02 0. -1.
       -2    1    3    3    0  502  0.20990892847E+03  0.90563709403E+03  0.20784226745E+04  0.22768577291E+04  0.25500000920E-02 0.  1.
</event>
<event>
 5   0  0.1184684E-06  0.3715697E+04  0.7818609E-02  0.8064492E-01
       -2   -1    0    0    0  501  0.00000000000E+00  0.00000000000E+00  0.18990983617E+04  0.18990983617E+04  0.25500000920E-02 0.  1.
        2   -1    0    0  501    0  0.00000000000E+00  0.00000000000E+00 -0.18174950796E+04  0.18174950796E+04  0.25500000920E-02 0. -1.
    10030    2    1    2    0    0  0.00000000000E+00  0.00000000000E+00  0.81603282128E+02  0.37165934412E+04  0.37156974731E+04 0.  0.
        4    1    3    3  502    0  0.14019615108E+03 -0.28925013840E+03 -0.17894701014E+04  0.18181104092E+04  0.12699999809E+01 0. -1.
       -4    1    3    3    0  502 -0.14019615108E+03  0.28925013840E+03  0.18710733835E+04  0.18984830320E+04  0.12699999809E+01 0.  1.
</event>
<event>
 5   0  0.1151180E-06  0.3652724E+04  0.7818609E-02  0.8078520E-01
       -2   -1    0    0    0  501  0.00000000000E+00  0.00000000000E+00  0.14254159158E+04  0.14254159158E+04  0.25500000920E-02 0.  1.
        2   -1    0    0  501    0  0.00000000000E+00  0.00000000000E+00 -0.23400875664E+04  0.23400875664E+04  0.25500000920E-02 0. -1.
    10030    2    1    2    0    0  0.00000000000E+00  0.00000000000E+00 -0.91467165067E+03  0.37655034822E+04  0.36527239487E+04 0.  0.
        5    1    3    3  502    0  0.13083263414E+04 -0.50117364663E+03 -0.16651256040E+04  0.21761337751E+04  0.46999998093E+01 0. -1.
       -5    1    3    3    0  502 -0.13083263414E+04  0.50117364663E+03  0.75045395336E+03  0.15893697071E+04  0.46999998093E+01 0.  1.
</event>
<event>
 5   0  0.5679750E-07  0.2453959E+04  0.7818609E-02  0.8419574E-01
       -1   -1    0    0    0  501  0.00000000000E+00  0.00000000000E+00  0.88904698790E+03  0.88904698791E+03  0.50400001928E-02 0.  1.
        1   -1    0    0  501    0  0.00000000000E+00  0.00000000000E+00 -0.16933626065E+04  0.16933626065E+04  0.50400001928E-02 0. -1.
    10030    2    1    2    0    0  0.00000000000E+00  0.00000000000E+00 -0.80431561863E+03  0.25824095945E+04  0.24539591886E+04 0.  0.
        4    1    3    3  502    0 -0.10152164531E+04  0.11876682455E+02 -0.11271853617E+04  0.15170214088E+04  0.12699999809E+01 0. -1.
       -4    1    3    3    0  502  0.10152164531E+04 -0.11876682455E+02  0.32286974303E+03  0.10653881857E+04  0.12699999809E+01 0.  1.
</event>
<event>
 5   0  0.6186440E-07  0.3265698E+04  0.7818609E-02  0.8171679E-01
        1   -1    0    0  501    0  0.00000000000E+00  0.00000000000E+00  0.13795602437E+04  0.13795602437E+04  0.50400001928E-02 0. -1.
       -1   -1    0    0    0  501  0.00000000000E+00  0.00000000000E+00 -0.19326415280E+04  0.19326415280E+04  0.50400001928E-02 0.  1.
    10030    2    1    2    0    0  0.00000000000E+00  0.00000000000E+00 -0.55308128431E+03  0.33122017718E+04  0.32656977309E+04 0.  0.
        3    1    3    3  502    0  0.22358449745E+03 -0.54480455207E+03  0.12681019547E+04  0.13981718797E+04  0.10100000352E+00 0. -1.
       -3    1    3    3    0  502 -0.22358449745E+03  0.54480455207E+03 -0.18211832390E+04  0.19140298921E+04  0.10100000352E+00 0.  1.
</event>
<event>
 5   0  0.1680194E-06  0.2224733E+04  0.7818609E-02  0.8508204E-01
        2   -1    0    0  501    0  0.00000000000E+00  0.00000000000E+00  0.29827602000E+04  0.29827602000E+04  0.25500000920E-02 0. -1.
       -2   -1    0    0    0  501  0.00000000000E+00  0.00000000000E+00 -0.41483702270E+03  0.41483702270E+03  0.25500000920E-02 0.  1.
    10030    2    1    2    0    0  0.00000000000E+00  0.00000000000E+00  0.25679231773E+04  0.33975972227E+04  0.22247331173E+04 0.  0.
        2    1    3    3  502    0 -0.20365800728E+03 -0.26430259770E+03 -0.33661051481E+03  0.47396105934E+03  0.25500000920E-02 0.  1.
       -2    1    3    3    0  502  0.20365800728E+03  0.26430259770E+03  0.29045336921E+04  0.29236361633E+04  0.25500000920E-02 0. -1.
</event>
<event>
 5   0  0.1184684E-06  0.2447760E+04  0.7818609E-02  0.8421836E-01
        2   -1    0    0  501    0  0.00000000000E+00  0.00000000000E+00  0.22255904442E+04  0.22255904442E+04  0.25500000920E-02 0.  1.
       -2   -1    0    0    0  501  0.00000000000E+00  0.00000000000E+00 -0.67302669416E+03  0.67302669417E+03  0.25500000920E-02 0. -1.
    10030    2    1    2    0    0  0.00000000000E+00  0.00000000000E+00  0.15525637500E+04  0.28986171383E+04  0.24477596117E+04 0.  0.
        4    1    3    3  502    0 -0.91377619018E+03  0.78556870829E+03  0.10296409598E+04  0.15850133249E+04  0.12699999809E+01 0.  1.
       -4    1    3    3    0  502  0.91377619018E+03 -0.78556870829E+03  0.52292279018E+03  0.13136038134E+04  0.12699999809E+01 0. -1.
</event>
<event>
 5   0  0.1685793E-06  0.3737855E+04  0.7818609E-02  0.8059624E-01
        2   -1    0    0  501    0  0.00000000000E+00  0.00000000000E+00  0.24570220757E+04  0.24570220757E+04  0.25500000920E-02 0.  1.
       -2   -1    0    0    0  501  0.00000000000E+00  0.00000000000E+00 -0.14215949808E+04  0.14215949808E+04  0.25500000920E-02 0. -1.
    10030    2    1    2    0    0  0.00000000000E+00  0.00000000000E+00  0.10354270949E+04  0.38786170565E+04  0.37378551340E+04 0.  0.
        3    1    3    3  502    0 -0.21452469711E+03 -0.16787917705E+04  0.13403664022E+04  0.21589221284E+04  0.10100000352E+00 0.  1.
       -3    1    3    3    0  502  0.21452469711E+03  0.16787917705E+04 -0.30493930729E+03  0.17196949281E+04  0.10100000352E+00 0. -1.
</event>
<event>
 5   0  0.6287345E-07  0.2296568E+04  0.7818609E-02  0.8479276E-01
       -1   -1    0    0    0  501  0.00000000000E+00  0.00000000000E+00  0.13390608402E+04  0.13390608402E+04  0.50400001928E-02 0.  1.
        1   -1    0    0  501    0  0.00000000000E+00  0.00000000000E+00 -0.98468725471E+03  0.98468725473E+03  0.50400001928E-02 0. -1.
    10030    2    1    2    0    0  0.00000000000E+00  0.00000000000E+00  0.35437358544E+03  0.23237480949E+04  0.22965679982E+04 0.  0.
        5    1    3    3  502    0 -0.40649494109E+03 -0.75165127250E+03  0.95328230318E+03  0.12802292811E+04  0.46999998093E+01 0.  1.
       -5    1    3    3    0  502  0.40649494109E+03  0.75165127250E+03 -0.59890871774E+03  0.10435188138E+04  0.46999998093E+01 0. -1.
</event>
<event>
 5   0  0.1151180E-06  0.3787001E+04  0.7818609E-02  0.8048950E-01
        2   -1    0    0  501    0  0.00000000000E+00  0.00000000000E+00  0.23874182994E+04  0.23874182994E+04  0.25500000920E-02 0. -1.
       -2   -1    0    0    0  501  0.00000000000E+00  0.00000000000E+00 -0.15017664836E+04  0.15017664836E+04  0.25500000920E-02 0.  1.
    10030    2    1    2    0    0  0.00000000000E+00  0.00000000000E+00  0.88565181581E+03  0.38891847830E+04  0.37870013385E+04 0.  0.
        5    1    3    3  502    0 -0.44279959860E+03  0.28954919353E+02  0.23332588540E+04  0.23750850178E+04  0.46999998093E+01 0. -1.
       -5    1    3    3    0  502  0.44279959860E+03 -0.28954919353E+02 -0.14476070382E+04  0.15140997652E+04  0.46999998093E+01 0.  1.
</event>
<event>
 5   0  0.1184684E-06  0.2765060E+04  0.7818609E-02  0.8314199E-01
        2   -1    0    0  501    0  0.00000000000E+00  0.00000000000E+00  0.27159327683E+04  0.27159327683E+04  0.25500000920E-02 0.  1.
       -2   -1    0    0    0  501  0.00000000000E+00  0.00000000000E+00 -0.70376883547E+03  0.70376883547E+03  0.25500000920E-02 0. -1.
    10030    2    1    2    0    0  0.00000000000E+00  0.00000000000E+00  0.20121639328E+04  0.34197016038E+04  0.27650597401E+04 0.  0.
        4    1    3    3  502    0 -0.37667405943E+03  0.64048906631E+03 -0.43582679014E+03  0.86142683672E+03  0.12699999809E+01 0. -1.
       -4    1    3    3    0  502  0.37667405943E+03 -0.64048906631E+03  0.24479907230E+04  0.25582747671E+04  0.12699999809E+01 0.  1.
</event>
<event>
 5   0  0.1184684E-06  0.3285422E+04  0.7818609E-02  0.8166615E-01
        2   -1    0    0  501    0  0.00000000000E+00  0.00000000000E+00  0.18602004285E+04  0.18602004285E+04  0.25500000920E-02 0. -1.
       -2   -1    0    0    0  501  0.00000000000E+00  0.00000000000E+00 -0.14506496110E+04  0.14506496110E+04  0.25500000920E-02 0.  1.
    10030    2    1    2    0    0  0.00000000000E+00  0.00000000000E+00  0.40955081754E+03  0.33108500395E+04  0.32854217555E+04 0.  0.
        4    1    3    3  502    0  0.75858805234E+03 -0.29692783464E+03 -0.12327558501E+04  0.14776029815E+04  0.12699999809E+01 0.  1.
       -4    1    3    3    0  502 -0.75858805234E+03  0.29692783464E+03  0.16423066676E+04  0.18332470580E+04  0.12699999809E+01 0. -1.
</event>
<event>
 5   0  0.5679750E-07  0.1973743E+04  0.7818609E-02  0.8618996E-01
       -1   -1    0    0    0  501  0.00000000000E+00  0.00000000000E+00  0.49386646465E+03  0.49386646467E+03  0.50400001928E-02 0. -1.
        1   -1    0    0  501    0  0.00000000000E+00  0.00000000000E+00 -0.19720223366E+04  0.19720223367E+04  0.50400001928E-02 0.  1.
    10030    2    1    2    0    0  0.00000000000E+00  0.00000000000E+00 -0.14781558720E+04  0.24658888013E+04  0.19737433467E+04 0.  0.
        4    1    3    3  502    0 -0.89905968786E+03  0.17478957609E+02 -0.23112957299E+03  0.92845911526E+03  0.12699999809E+01 0.  1.
       -4    1    3    3    0  502  0.89905968786E+03 -0.17478957609E+02 -0.12470262990E+04  0.15374296861E+04  0.12699999809E+01 0. -1.
</event>
<event>
 5   0  0.6186440E-07  0.2808532E+04  0.7818609E-02  0.8300624E-01
        1   -1    0    0  501    0  0.00000000000E+00  0.00000000000E+00  0.19371965040E+04  0.19371965040E+04  0.50400001928E-02 0.  1.
       -1   -1    0    0    0  501  0.00000000000E+00  0.00000000000E+00 -0.10179470335E+04  0.10179470335E+04  0.50400001928E-02 0. -1.
    10030    2    1    2    0    0  0.00000000000E+00  0.00000000000E+00  0.91924947051E+03  0.29551435376E+04  0.28085323104E+04 0.  0.
        3    1    3    3  502    0  0.23409979822E+03 -0.10298395446E+04 -0.51421157933E+03  0.11746428230E+04  0.10100000352E+00 0. -1.
       -3    1    3    3    0  502 -0.23409979822E+03  0.10298395446E+04  0.14334610498E+04  0.17805007146E+04  0.10100000352E+00 0.  1.
</event>
<event>
 5   0  0.1685793E-06  0.2027051E+04  0.7818609E-02  0.8594077E-01
        2   -1    0    0  501    0  0.00000000000E+00  0.00000000000E+00  0.97479167910E+03  0.97479167910E+03  0.25500000920E-02 0.  1.
       -2   -1    0    0    0  501  0.00000000000E+00  0.00000000000E+00 -0.10537984508E+04  0.10537984508E+04  0.25500000920E-02 0. -1.
    10030    2    1    2    0    0  0.00000000000E+00  0.00000000000E+00 -0.79006771692E+02  0.20285901299E+04  0.20270510218E+04 0.  0.
        3    1    3    3  502    0  0.45455647675E+03 -0.29850792924E+03  0.81642689143E+03  0.98095945564E+03  0.10100000352E+00 0.  1.
       -3    1    3    3    0  502 -0.45455647675E+03  0.29850792924E+03 -0.89543366312E+03  0.10476306742E+04  0.10100000352E+00 0. -1.
</event>
<event>
 5   0  0.1151180E-06  0.2160680E+04  0.7818609E-02  0.8534974E-01
        2   -1    0    0  501    0  0.00000000000E+00  0.00000000000E+00  0.12742674610E+04  0.12742674610E+04  0.25500000920E-02 0.  1.
       -2   -1    0    0    0  501  0.00000000000E+00  0.00000000000E+00 -0.91592604323E+03  0.91592604324E+03  0.25500000920E-02 0. -1.
    10030    2    1    2    0    0  0.00000000000E+00  0.00000000000E+00  0.35834141779E+03  0.21901935043E+04  0.21606802203E+04 0.  0.
        5    1    3    3  502    0 -0.76509936168E+02 -0.10338568062E+03 -0.90812724031E+03  0.91720201912E+03  0.46999998093E+01 0. -1.
       -5    1    3    3    0  502  0.76509936168E+02  0.10338568062E+03  0.12664686581E+04  0.12729914851E+04  0.46999998093E+01 0.  1.
</event>
<event>
 5   0  0.1151180E-06  0.3580755E+04  0.7818609E-02  0.8094914E-01
       -2   -1    0    0    0  501  0.00000000000E+00  0.00000000000E+00  0.14722523733E+04  0.14722523733E+04  0.25500000920E-02 0.  1.
        2   -1    0    0  501    0  0.00000000000E+00  0.00000000000E+00 -0.21772437125E+04  0.21772437125E+04  0.25500000920E-02 0. -1.
    10030    2    1    2    0    0  0.00000000000E+00  0.00000000000E+00 -0.70499133915E+03  0.36494960858E+04  0.35807553521E+04 0.  0.
        5    1    3    3  502    0 -0.24732359070E+03 -0.39148108173E+03  0.14101569481E+04  0.14842476559E+04  0.46999998093E+01 0.  1.
       -5    1    3    3    0  502  0.24732359070E+03  0.39148108173E+03 -0.21151482872E+04  0.21652484298E+04  0.46999998093E+01 0. -1.
</event>
<event>
 5   0  0.1184684E-06  0.3689830E+04  0.7818609E-02  0.8070219E-01
        2   -1    0    0  501    0  0.00000000000E+00  0.00000000000E+00  0.21956310283E+04  0.21956310283E+04  0.25500000920E-02 0. -1.
       -2   -1    0    0    0  501  0.00000000000E+00  0.00000000000E+00 -0.15502198249E+04  0.15502198249E+04  0.25500000920E-02 0.  1.
    10030    2    1    2    0    0  0.00000000000E+00  0.00000000000E+00  0.64541120343E+03  0.37458508532E+04  0.36898296700E+04 0.  0.
        4    1    3    3  502    0  0.61391345968E+03 -0.62892620644E+03 -0.13240417394E+04  0.15891903755E+04  0.12699999809E+01 0.  1.
       -4    1    3    3    0  502 -0.61391345968E+03  0.62892620644E+03  0.19694529428E+04  0.21566604777E+04  0.12699999809E+01 0. -1.
</event>
<event>
 5   0  0.1184684E-06  0.3712469E+04  0.7818609E-02  0.8065204E-01
       -2   -1    0    0    0  501  0.00000000000E+00  0.00000000000E+00  0.16569711192E+04  0.16569711192E+04  0.25500000920E-02 0.  1.
        2   -1    0    0  501    0  0.00000000000E+00  0.00000000000E+00 -0.20794611126E+04  0.20794611126E+04  0.25500000920E-02 0. -1.
    10030    2    1    2    0    0  0.00000000000E+00  0.00000000000E+00 -0.42248999334E+03  0.37364322318E+04  0.37124692629E+04 0.  0.
        4    1    3    3  502    0 -0.11107192500E+04 -0.13246382387E+04 -0.89180613826E+03  0.19451692772E+04  0.12699999809E+01 0. -1.
       -4    1    3    3    0  502  0.11107192500E+04  0.13246382387E+04  0.46931614492E+03  0.17912629546E+04  0.12699999809E+01 0.  1.
</event>
<event>
 5   0  0.6186440E-07  0.2500216E+04  0.7818609E-02  0.8402908E-01
        1   -1    0    0  501    0  0.00000000000E+00  0.00000000000E+00  0.11769598854E+04  0.11769598854E+04  0.50400001928E-02 0.  1.
       -1   -1    0    0    0  501  0.00000000000E+00  0.00000000000E+00 -0.13278025629E+04  0.13278025629E+04  0.50400001928E-02 0. -1.
    10030    2    1    2    0    0  0.00000000000E+00  0.00000000000E+00 -0.15084267748E+03  0.25047624483E+04  0.25002162725E+04 0.  0.
        3    1    3    3  502    0  0.34440841230E+03 -0.36999844449E+03  0.10700098709E+04  0.11834006665E+04  0.10100000352E+00 0.  1.
       -3    1    3    3    0  502 -0.34440841230E+03  0.36999844449E+03 -0.12208525484E+04  0.13213617818E+04  0.10100000352E+00 0. -1.
</event>
<event>
 5   0  0.1724503E-06  0.3726513E+04  0.7818609E-02  0.8062111E-01
       -2   -1    0    0    0  501  0.00000000000E+00  0.00000000000E+00  0.18943089863E+04  0.18943089863E+04  0.25500000920E-02 0. -1.
        2   -1    0    0  501    0  0.00000000000E+00  0.00000000000E+00 -0.18327133875E+04  0.18327133875E+04  0.25500000920E-02 0.  1.
    10030    2    1    2    0    0  0.00000000000E+00  0.00000000000E+00  0.61595598819E+02  0.37270223738E+04  0.37265133512E+04 0.  0.
        1    1    3    3  502    0 -0.15376012615E+04 -0.95720917487E+03  0.46818852709E+03  0.18707398378E+04  0.50400001928E-02 0.  1.
       -1    1    3    3    0  502  0.15376012615E+04  0.95720917487E+03 -0.40659292827E+03  0.18562825360E+04  0.50400001928E-02 0. -1.
</event>
<event>
 5   0  0.1696820E-06  0.2163113E+04  0.7818609E-02  0.8533940E-01
       -2   -1    0    0    0  501  0.00000000000E+00  0.00000000000E+00  0.71162092565E+03  0.71162092566E+03  0.25500000920E-02 0.  1.
        2   -1    0    0  501    0  0.00000000000E+00  0.00000000000E+00 -0.16438022935E+04  0.16438022935E+04  0.25500000920E-02 0. -1.
    10030    2    1    2    0    0  0.00000000000E+00  0.00000000000E+00 -0.93218136781E+03  0.23554232191E+04  0.21631126736E+04 0.  0.
        2    1    3    3  502    0 -0.36847066266E+03  0.25011208649E+02  0.64083202591E+03  0.73963631281E+03  0.25500000920E-02 0.  1.
       -2    1    3    3    0  502  0.36847066266E+03 -0.25011208649E+02 -0.15730133937E+04  0.16157869063E+04  0.25500000920E-02 0. -1.
</event>
<event>
 5   0  0.5679750E-07  0.3655604E+04  0.7818609E-02  0.8077872E-01
        1   -1    0    0  501    0  0.00000000000E+00  0.00000000000E+00  0.17473679753E+04  0.17473679753E+04  0.50400001928E-02 0.  1.
       -1   -1    0    0    0  501  0.00000000000E+00  0.00000000000E+00 -0.19119383666E+04  0.19119383666E+04  0.50400001928E-02 0. -1.
    10030    2    1    2    0    0  0.00000000000E+00  0.00000000000E+00 -0.16457039130E+03  0.36593063420E+04  0.36556038476E+04 0.  0.
        4    1    3    3  502    0 -0.17619164880E+04 -0.15753994832E+03  0.37827830831E+03  0.18089401973E+04  0.12699999809E+01 0.  1.
       -4    1    3    3    0  502  0.17619164880E+04  0.15753994832E+03 -0.54284869961E+03  0.18503661447E+04  0.12699999809E+01 0. -1.
</event>
<event>
 5   0  0.1151180E-06  0.4050646E+04  0.7818609E-02  0.7994407E-01
       -2   -1    0    0    0  501  0.00000000000E+00  0.00000000000E+00  0.15515334203E+04  0.15515334203E+04  0.25500000920E-02 0. -1.
        2   -1    0    0  501    0  0.00000000000E+00  0.00000000000E+00 -0.26437927786E+04  0.26437927786E+04  0.25500000920E-02 0.  1.
    10030    2    1    2    0    0  0.00000000000E+00  0.00000000000E+00 -0.10922593583E+04  0.41953261989E+04  0.40506458015E+04 0.  0.
        5    1    3    3  502    0  0.14250225549E+04 -0.61314259737E+03 -0.18946636198E+04  0.24487558982E+04  0.46999998093E+01 0.  1.
       -5    1    3    3    0  502 -0.14250225549E+04  0.61314259737E+03  0.80240426143E+03  0.17465703008E+04  0.46999998093E+01 0. -1.
</event>
<event>
 5   0  0.1680194E-06  0.2758795E+04  0.7818609E-02  0.8316176E-01
        2   -1    0    0  501    0  0.00000000000E+00  0.00000000000E+00  0.16815986427E+04  0.16815986427E+04  0.25500000920E-02 0.  1.
       -2   -1    0    0    0  501  0.00000000000E+00  0.00000000000E+00 -0.11315048898E+04  0.11315048898E+04  0.25500000920E-02 0. -1.
    10030    2    1    2    0    0  0.00000000000E+00  0.00000000000E+00  0.55009375295E+03  0.28131035325E+04  0.27587947273E+04 0.  0.
        2    1    3    3  502    0  0.22282165874E+03 -0.13445697113E+04  0.49188271500E+03  0.14489533483E+04  0.25500000920E-02 0.  1.
       -2    1    3    3    0  502 -0.22282165874E+03  0.13445697113E+04  0.58211037947E+02  0.13641501842E+04  0.25500000920E-02 0. -1.
</event>
<event>
 5   0  0.5679750E-07  0.3729146E+04  0.7818609E-02  0.8061533E-01
       -1   -1    0    0    0  501  0.00000000000E+00  0.00000000000E+00  0.12050420294E+04  0.12050420295E+04  0.50400001928E-02 0. -1.
        1   -1    0    0  501    0  0.00000000000E+00  0.00000000000E+00 -0.28850721421E+04  0.28850721421E+04  0.50400001928E-02 0.  1.
    10030    2    1    2    0    0  0.00000000000E+00  0.00000000000E+00 -0.16800301127E+04  0.40901141716E+04  0.37291463845E+04 0.  0.
        4    1    3    3  502    0 -0.12295412596E+04  0.13896295457E+04 -0.63840254500E+03  0.19622439720E+04  0.12699999809E+01 0. -1.
       -4    1    3    3    0  502  0.12295412596E+04 -0.13896295457E+04 -0.10416275677E+04  0.21278701995E+04  0.12699999809E+01 0.  1.
</event>
<event>
 5   0  0.1685793E-06  0.3685605E+04  0.7818609E-02  0.8071160E-01
       -2   -1    0    0    0  501  0.00000000000E+00  0.00000000000E+00  0.16752338226E+04  0.16752338226E+04  0.25500000920E-02 0. -1.
        2   -1    0    0  501    0  0.00000000000E+00  0.00000000000E+00 -0.20271321094E+04  0.20271321094E+04  0.25500000920E-02 0.  1.
    10030    2    1    2    0    0  0.00000000000E+00  0.00000000000E+00 -0.35189828678E+03  0.37023659319E+04  0.36856045759E+04 0.  0.
        3    1    3    3  502    0  0.82202066037E+03  0.10677848406E+04 -0.14386612524E+04  0.19711997974E+04  0.10100000352E+00 0.  1.
       -3    1    3    3    0  502 -0.82202066037E+03 -0.10677848406E+04  0.10867629656E+04  0.17311661346E+04  0.10100000352E+00 0. -1.
</event>
<event>
 5   0  0.1151180E-06  0.3205288E+04  0.7818609E-02  0.8187422E-01
        2   -1    0    0  501    0  0.00000000000E+00  0.00000000000E+00  0.28720406373E+04  0.28720406373E+04  0.25500000920E-02 0. -1.
       -2   -1    0    0    0  501  0.00000000000E+00  0.00000000000E+00 -0.89430090365E+03  0.89430090365E+03  0.25500000920E-02 0.  1.
    10030    2    1    2    0    0  0.00000000000E+00  0.00000000000E+00  0.19777397337E+04  0.37663415410E+04  0.32052884658E+04 0.  0.
        5    1    3    3  502    0  0.12744956473E+04  0.96047074919E+03  0.11615776645E+04  0.19738611845E+04  0.46999998093E+01 0. -1.
       -5    1    3    3    0  502 -0.12744956473E+04 -0.96047074919E+03  0.81616206918E+03  0.17924803565E+04  0.46999998093E+01 0.  1.
</event>
<event>
 5   0  0.6287345E-07  0.3684163E+04  0.7818609E-02  0.8071481E-01
        1   -1    0    0  501    0  0.00000000000E+00  0.00000000000E+00  0.18045365144E+04  0.18045365145E+04  0.50400001928E-02 0.  1.
       -1   -1    0    0    0  501  0.00000000000E+00  0.00000000000E+00 -0.18804074733E+04  0.18804074733E+04  0.50400001928E-02 0. -1.
    10030    2    1    2    0    0  0.00000000000E+00  0.00000000000E+00 -0.75870958806E+02  0.36849439877E+04  0.36841628344E+04 0.  0.
        5    1    3    3  502    0  0.12143901936E+04 -0.82037377498E+03 -0.11541851832E+04  0.18654549579E+04  0.46999998093E+01 0. -1.
       -5    1    3    3    0  502 -0.12143901936E+04  0.82037377498E+03  0.10783142244E+04  0.18194890298E+04  0.46999998093E+01 0.  1.
</event>
<event>
 5   0  0.1724503E-06  0.3785265E+04  0.7818609E-02  0.8049324E-01
       -2   -1    0    0    0  501  0.00000000000E+00  0.00000000000E+00  0.18358955655E+04  0.18358955655E+04  0.25500000920E-02 0.  1.
        2   -1    0    0  501    0  0.00000000000E+00  0.00000000000E+00 -0.19511223844E+04  0.19511223844E+04  0.25500000920E-02 0. -1.
    10030    2    1    2    0    0  0.00000000000E+00  0.00000000000E+00 -0.11522681889E+03  0.37870179500E+04  0.37852645526E+04 0.  0.
        1    1    3    3  502    0  0.30149296523E+03  0.47792248367E+02 -0.19263316290E+04  0.19503680812E+04  0.50400001928E-02 0. -1.
       -1    1    3    3    0  502 -0.30149296523E+03 -0.47792248367E+02  0.18111048101E+04  0.18366498688E+04  0.50400001928E-02 0.  1.
</event>
<event>
 5   0  0.1151180E-06  0.3781876E+04  0.7818609E-02  0.8050055E-01
       -2   -1    0    0    0  501  0.00000000000E+00  0.00000000000E+00  0.13174288539E+04  0.13174288539E+04  0.25500000920E-02 0. -1.
        2   -1    0    0  501    0  0.00000000000E+00  0.00000000000E+00 -0.27141095443E+04  0.27141095443E+04  0.25500000920E-02 0.  1.
    10030    2    1    2    0    0  0.00000000000E+00  0.00000000000E+00 -0.13966806904E+04  0.40315383982E+04  0.37818758447E+04 0.  0.
        5    1    3    3  502    0 -0.13165654172E+03  0.16162079264E+04  0.33858246639E+03  0.16565390677E+04  0.46999998093E+01 0. -1.
       -5    1    3    3    0  502  0.13165654172E+03 -0.16162079264E+04 -0.17352631568E+04  0.23749993304E+04  0.46999998093E+01 0.  1.
</event>
<event>
 5   0  0.6186440E-07  0.2077370E+04  0.7818609E-02  0.8571278E-01
        1   -1    0    0  501    0  0.00000000000E+00  0.00000000000E+00  0.12553058935E+04  0.12553058935E+04  0.50400001928E-02 0.  1.
       -1   -1    0    0    0  501  0.00000000000E+00  0.00000000000E+00 -0.85944493497E+03  0.85944493498E+03  0.50400001928E-02 0. -1.
    10030    2    1    2    0    0  0.00000000000E+00  0.00000000000E+00  0.39586095855E+03  0.21147508285E+04  0.20773697717E+04 0.  0.
        3    1    3    3  502    0  0.91699190582E+03 -0.37491534300E+03  0.51568600489E+03  0.11168561839E+04  0.10100000352E+00 0.  1.
       -3    1    3    3    0  502 -0.91699190582E+03  0.37491534300E+03 -0.11982504634E+03  0.99789464458E+03  0.10100000352E+00 0. -1.
</event>
<event>
 5   0  0.1680194E-06  0.2744052E+04  0.7818609E-02  0.8320852E-01
        2   -1    0    0  501    0  0.00000000000E+00  0.00000000000E+00  0.20926214470E+04  0.20926214470E+04  0.25500000920E-02 0.  1.
       -2   -1    0    0    0  501  0.00000000000E+00  0.00000000000E+00 -0.89956771325E+03  0.89956771326E+03  0.25500000920E-02 0. -1.
    10030    2    1    2    0    0  0.00000000000E+00  0.00000000000E+00  0.11930537337E+04  0.29921891602E+04  0.27440515227E+04 0.  0.
        2    1    3    3  502    0  0.34493196227E+02  0.94550600549E+03  0.16799988356E+04  0.19280994463E+04  0.25500000920E-02 0.  1.
       -2    1    3    3    0  502 -0.34493196227E+02 -0.94550600549E+03 -0.48694510193E+03  0.10640897139E+04  0.25500000920E-02 0. -1.
</event>
<event>
 5   0  0.1724503E-06  0.3628340E+04  0.7818609E-02  0.8084031E-01
        2   -1    0    0  501    0  0.00000000000E+00  0.00000000000E+00  0.29644989679E+04  0.29644989679E+04  0.25500000920E-02 0. -1.
       -2   -1    0    0    0  501  0.00000000000E+00  0.00000000000E+00 -0.11102089500E+04  0.11102089500E+04  0.25500000920E-02 0.  1.
    10030    2    1    2    0    0  0.00000000000E+00  0.00000000000E+00  0.18542900179E+04  0.40747079179E+04  0.36283402742E+04 0.  0.
        1    1    3    3  502    0 -0.12391515302E+04  0.10109027569E+04  0.18891450151E+04  0.24751342967E+04  0.50400001928E-02 0. -1.
       -1    1    3    3    0  502  0.12391515302E+04 -0.10109027569E+04 -0.34854997189E+02  0.15995736212E+04  0.50400001928E-02 0.  1.
</event>
<event>
 5   0  0.5679750E-07  0.3595107E+04  0.7818609E-02  0.8091613E-01
       -4   -1    0    0    0  501  0.00000000000E+00  0.00000000000E+00  0.24628636938E+04  0.24628640213E+04  0.12699999809E+01 0. -1.
        4   -1    0    0  501    0  0.00000000000E+00  0.00000000000E+00 -0.13119676892E+04  0.13119683039E+04  0.12699999809E+01 0.  1.
    10030    2    1    2    0    0  0.00000000000E+00  0.00000000000E+00  0.11508960046E+04  0.37748323252E+04  0.35951074351E+04 0.  0.
        4    1    3    3  502    0  0.77565643551E+02 -0.16641975653E+04 -0.13329844398E+03  0.16713288286E+04  0.12699999809E+01 0. -1.
       -4    1    3    3    0  502 -0.77565643551E+02  0.16641975653E+04  0.12841944486E+04  0.21035034965E+04  0.12699999809E+01 0.  1.
</event>
<event>
 5   0  0.6261598E-07  0.2880123E+04  0.7818609E-02  0.8278816E-01
        1   -1    0    0  501    0  0.00000000000E+00  0.00000000000E+00  0.24630766732E+04  0.24630766732E+04  0.50400001928E-02 0. -1.
       -1   -1    0    0    0  501  0.00000000000E+00  0.00000000000E+00 -0.84194602847E+03  0.84194602849E+03  0.50400001928E-02 0.  1.
    10030    2    1    2    0    0  0.00000000000E+00  0.00000000000E+00  0.16211306447E+04  0.33050227017E+04  0.28801233466E+04 0.  0.
        1    1    3    3  502    0 -0.46914302796E+03  0.78750859701E+02 -0.74917866303E+03  0.88744889867E+03  0.50400001928E-02 0.  1.
       -1    1    3    3    0  502  0.46914302796E+03 -0.78750859701E+02  0.23703093078E+04  0.24175738030E+04  0.50400001928E-02 0. -1.
</event>
<event>
 5   0  0.1680194E-06  0.2349830E+04  0.7818609E-02  0.8458529E-01
        2   -1    0    0  501    0  0.00000000000E+00  0.00000000000E+00  0.80230198886E+03  0.80230198886E+03  0.25500000920E-02 0. -1.
       -2   -1    0    0    0  501  0.00000000000E+00  0.00000000000E+00 -0.17205810021E+04  0.17205810021E+04  0.25500000920E-02 0.  1.
    10030    2    1    2    0    0  0.00000000000E+00  0.00000000000E+00 -0.91827901323E+03  0.25228829910E+04  0.23498302577E+04 0.  0.
        2    1    3    3  502    0 -0.40407500077E+03  0.41368432180E+03 -0.15572079595E+04  0.16611164780E+04  0.25500000920E-02 0.  1.
       -2    1    3    3    0  502  0.40407500077E+03 -0.41368432180E+03  0.63892894631E+03  0.86176651292E+03  0.25500000920E-02 0. -1.
</event>
<event>
 5   0  0.5679750E-07  0.3783912E+04  0.7818609E-02  0.8049616E-01
       -1   -1    0    0    0  501  0.00000000000E+00  0.00000000000E+00  0.13192371096E+04  0.13192371096E+04  0.50400001928E-02 0.  1.
        1   -1    0    0  501    0  0.00000000000E+00  0.00000000000E+00 -0.27133090223E+04  0.27133090223E+04  0.50400001928E-02 0. -1.
    10030    2    1    2    0    0  0.00000000000E+00  0.00000000000E+00 -0.13940719127E+04  0.40325461320E+04  0.37839122358E+04 0.  0.
        4    1    3    3  502    0  0.59357706637E+03  0.17655014782E+04 -0.10507597867E+04  0.21385572112E+04  0.12699999809E+01 0. -1.
       -4    1    3    3    0  502 -0.59357706637E+03 -0.17655014782E+04 -0.34331212598E+03  0.18939889208E+04  0.12699999809E+01 0.  1.
</event>
<event>
 5   0  0.5679750E-07  0.2869373E+04  0.7818609E-02  0.8282049E-01
       -1   -1    0    0    0  501  0.00000000000E+00  0.00000000000E+00  0.11107501984E+04  0.11107501984E+04  0.50400001928E-02 0.  1.
        1   -1    0    0  501    0  0.00000000000E+00  0.00000000000E+00 -0.18530947919E+04  0.18530947919E+04  0.50400001928E-02 0. -1.
    10030    2    1    2    0    0  0.00000000000E+00  0.00000000000E+00 -0.74234459343E+03  0.29638449903E+04  0.28693730380E+04 0.  0.
        4    1    3    3  502    0 -0.10585734972E+04 -0.86794218301E+03  0.72411021448E+02  0.13708196274E+04  0.12699999809E+01 0.  1.
       -4    1    3    3    0  502  0.10585734972E+04  0.86794218301E+03 -0.81475561488E+03  0.15930253629E+04  0.12699999809E+01 0. -1.
</event>
<event>
 5   0  0.1151180E-06  0.3679833E+04  0.7818609E-02  0.8072446E-01
        2   -1    0    0  501    0  0.00000000000E+00  0.00000000000E+00  0.15500948411E+04  0.15500948411E+04  0.25500000920E-02 0.  1.
       -2   -1    0    0    0  501  0.00000000000E+00  0.00000000000E+00 -0.21839265055E+04  0.21839265055E+04  0.25500000920E-02 0. -1.
    10030    2    1    2    0    0  0.00000000000E+00  0.00000000000E+00 -0.63383166439E+03  0.37340213467E+04  0.36798332623E+04 0.  0.
        5    1    3    3  502    0 -0.99713843837E+03 -0.10550549225E+04 -0.14639801565E+04  0.20617191719E+04  0.46999998093E+01 0. -1.
       -5    1    3    3    0  502  0.99713843837E+03  0.10550549225E+04  0.83014849215E+03  0.16723021748E+04  0.46999998093E+01 0.  1.
</event>
<event>
 5   0  0.1184684E-06  0.3744177E+04  0.7818609E-02  0.8058242E-01
        2   -1    0    0  501    0  0.00000000000E+00  0.00000000000E+00  0.23046813487E+04  0.23046813487E+04  0.25500000920E-02 0.  1.
       -2   -1    0    0    0  501  0.00000000000E+00  0.00000000000E+00 -0.15206943241E+04  0.15206943241E+04  0.25500000920E-02 0. -1.
    10030    2    1    2    0    0  0.00000000000E+00  0.00000000000E+00  0.78398702464E+03  0.38253756728E+04  0.37441772638E+04 0.  0.
        4    1    3    3  502    0  0.73193326577E+03 -0.78828575022E+02 -0.13666060110E+04  0.15522737684E+04  0.12699999809E+01 0. -1.
       -4    1    3    3    0  502 -0.73193326577E+03  0.78828575022E+02  0.21505930356E+04  0.22731019044E+04  0.12699999809E+01 0.  1.
</event>
<event>
 5   0  0.1151180E-06  0.1929629E+04  0.7818609E-02  0.8640247E-01
       -2   -1    0    0    0  501  0.00000000000E+00  0.00000000000E+00  0.11594729097E+04  0.11594729097E+04  0.25500000920E-02 0. -1.
        2   -1    0    0  501    0  0.00000000000E+00  0.00000000000E+00 -0.80283616060E+03  0.80283616060E+03  0.25500000920E-02 0.  1.
    10030    2    1    2    0    0  0.00000000000E+00  0.00000000000E+00  0.35663674909E+03  0.19623090703E+04  0.19296287510E+04 0.  0.
        5    1    3    3  502    0  0.52063440773E+03 -0.39418837183E+03 -0.54392106739E+03  0.84989227349E+03  0.46999998093E+01 0.  1.
       -5    1    3    3    0  502 -0.52063440773E+03  0.39418837183E+03  0.90055781648E+03  0.11124167968E+04  0.46999998093E+01 0. -1.
</event>
<event>
 5   0  0.1184684E-06  0.2492102E+04  0.7818609E-02  0.8405805E-01
       -2   -1    0    0    0  501  0.00000000000E+00  0.00000000000E+00  0.10919272410E+04  0.10919272410E+04  0.25500000920E-02 0. -1.
        2   -1    0    0  501    0  0.00000000000E+00  0.00000000000E+00 -0.14219292448E+04  0.14219292448E+04  0.25500000920E-02 0.  1.
    10030    2    1    2    0    0  0.00000000000E+00  0.00000000000E+00 -0.33000200382E+03  0.25138564858E+04  0.24921021465E+04 0.  0.
        4    1    3    3  502    0 -0.90098220360E+03 -0.65491072529E+03 -0.72841463451E+03  0.13308893575E+04  0.12699999809E+01 0.  1.
       -4    1    3    3    0  502  0.90098220360E+03  0.65491072529E+03  0.39841263069E+03  0.11829671282E+04  0.12699999809E+01 0. -1.
</event>
<event>
 5   0  0.1184684E-06  0.3695023E+04  0.7818609E-02  0.8069066E-01
        2   -1    0    0  501    0  0.00000000000E+00  0.00000000000E+00  0.24972885805E+04  0.24972885805E+04  0.25500000920E-02 0. -1.
       -2   -1    0    0    0  501  0.00000000000E+00  0.00000000000E+00 -0.13668016807E+04  0.13668016807E+04  0.25500000920E-02 0.  1.
    10030    2    1    2    0    0  0.00000000000E+00  0.00000000000E+00  0.11304868997E+04  0.38640902612E+04  0.36950227220E+04 0.  0.
        4    1    3    3  502    0 -0.57602121226E+03 -0.11191984812E+04 -0.84899960044E+03  0.15182910168E+04  0.12699999809E+01 0.  1.
       -4    1    3    3    0  502  0.57602121226E+03  0.11191984812E+04  0.19794865002E+04  0.23457992443E+04  0.12699999809E+01 0. -1.
</event>
<event>
 5   0  0.1151180E-06  0.3635726E+04  0.7818609E-02  0.8082357E-01
       -2   -1    0    0    0  501  0.00000000000E+00  0.00000000000E+00  0.20463906006E+04  0.20463906006E+04  0.25500000920E-02 0.  1.
        2   -1    0    0  501    0  0.00000000000E+00  0.00000000000E+00 -0.16148560343E+04  0.16148560343E+04  0.25500000920E-02 0. -1.
    10030    2    1    2    0    0  0.00000000000E+00  0.00000000000E+00  0.43153456623E+03  0.36612466349E+04  0.36357261778E+04 0.  0.
        5    1    3    3  502    0  0.46671982254E+03  0.16480271869E+04 -0.39742657294E+03  0.17583489336E+04  0.46999998093E+01 0.  1.
       -5    1    3    3    0  502 -0.46671982254E+03 -0.16480271869E+04  0.82896113917E+03  0.19028977013E+04  0.46999998093E+01 0. -1.
</event>
<event>
 5   0  0.1724503E-06  0.3692896E+04  0.7818609E-02  0.8069538E-01
       -2   -1    0    0    0  501  0.00000000000E+00  0.00000000000E+00  0.18184025814E+04  0.18184025814E+04  0.25500000920E-02 0. -1.
        2   -1    0    0  501    0  0.00000000000E+00  0.00000000000E+00 -0.18749258724E+04  0.18749258724E+04  0.25500000920E-02 0.  1.
    10030    2    1    2    0    0  0.00000000000E+00  0.00000000000E+00 -0.56523290960E+02  0.36933284537E+04  0.36928959077E+04 0.  0.
        1    1    3    3  502    0  0.11704166536E+03 -0.12523526729E+03  0.18104279041E+04  0.18185246271E+04  0.50400001928E-02 0. -1.
       -1    1    3    3    0  502 -0.11704166536E+03  0.12523526729E+03 -0.18669511950E+04  0.18748038266E+04  0.50400001928E-02 0.  1.
</event>
<event>
 5   0  0.1184684E-06  0.3665514E+04  0.7818609E-02  0.8075648E-01
       -2   -1    0    0    0  501  0.00000000000E+00  0.00000000000E+00  0.19875169275E+04  0.19875169275E+04  0.25500000920E-02 0.  1.
        2   -1    0    0  501    0  0.00000000000E+00  0.00000000000E+00 -0.16900474716E+04  0.16900474716E+04  0.25500000920E-02 0. -1.
    10030    2    1    2    0    0  0.00000000000E+00  0.00000000000E+00  0.29746945595E+03  0.36775643991E+04  0.36655138566E+04 0.  0.
        4    1    3    3  502    0 -0.50195835556E+02 -0.73051070288E+03 -0.15369169897E+04  0.17024338328E+04  0.12699999809E+01 0. -1.
       -4    1    3    3    0  502  0.50195835556E+02  0.73051070288E+03  0.18343864457E+04  0.19751305663E+04  0.12699999809E+01 0.  1.
</event>
<event>
 5   0  0.6261598E-07  0.3765515E+04  0.7818609E-02  0.8053596E-01
       -1   -1    0    0    0  501  0.00000000000E+00  0.00000000000E+00  0.19698806214E+04  0.19698806214E+04  0.50400001928E-02 0.  1.
        1   -1    0    0  501    0  0.00000000000E+00  0.00000000000E+00 -0.17994880994E+04  0.17994880994E+04  0.50400001928E-02 0. -1.
    10030    2    1    2    0    0  0.00000000000E+00  0.00000000000E+00  0.17039252198E+03  0.37693687209E+04  0.37655154949E+04 0.  0.
        1    1    3    3  502    0  0.12733769621E+04  0.12651783666E+04 -0.48337399755E+03  0.18589824121E+04  0.50400001928E-02 0. -1.
       -1    1    3    3    0  502 -0.12733769621E+04 -0.12651783666E+04  0.65376651953E+03  0.19103863088E+04  0.50400001928E-02 0.  1.
</event>
<event>
 5   0  0.1151180E-06  0.3796632E+04  0.7818609E-02  0.8046878E-01
       -2   -1    0    0    0  501  0.00000000000E+00  0.00000000000E+00  0.19489923419E+04  0.19489923419E+04  0.25500000920E-02 0. -1.
        2   -1    0    0  501    0  0.00000000000E+00  0.00000000000E+00 -0.18489574235E+04  0.18489574235E+04  0.25500000920E-02 0.  1.
    10030    2    1    2    0    0  0.00000000000E+00  0.00000000000E+00  0.10003491845E+03  0.37979497654E+04  0.37966321175E+04 0.  0.
        5    1    3    3  502    0  0.11640958948E+04 -0.14572164039E+04  0.40366931653E+03  0.19082897860E+04  0.46999998093E+01 0. -1.
       -5    1    3    3    0  502 -0.11640958948E+04  0.14572164039E+04 -0.30363439808E+03  0.18896599794E+04  0.46999998093E+01 0.  1.
</event>
<event>
 5   0  0.6261598E-07  0.3728602E+04  0.7818609E-02  0.8061653E-01
        1   -1    0    0  501    0  0.00000000000E+00  0.00000000000E+00  0.16251741595E+04  0.16251741595E+04  0.50400001928E-02 0. -1.
       -1   -1    0    0    0  501  0.00000000000E+00  0.00000000000E+00 -0.21386125225E+04  0.21386125225E+04  0.50400001928E-02 0.  1.
    10030    2    1    2    0    0  0.00000000000E+00  0.00000000000E+00 -0.51343836301E+03  0.37637866821E+04  0.37286017802E+04 0.  0.
        1    1    3    3  502    0 -0.90755173709E+03 -0.29381088648E+01 -0.19005700031E+04  0.21061398635E+04  0.50400001928E-02 0.  1.
       -1    1    3    3    0  502  0.90755173709E+03  0.29381088648E+01  0.13871316401E+04  0.16576468185E+04  0.50400001928E-02 0. -1.
</event>
<event>
 5   0  0.1184684E-06  0.3629259E+04  0.7818609E-02  0.8083822E-01
       -2   -1    0    0    0  501  0.00000000000E+00  0.00000000000E+00  0.16839564919E+04  0.16839564919E+04  0.25500000920E-02 0. -1.
        2   -1    0    0  501    0  0.00000000000E+00  0.00000000000E+00 -0.19554429295E+04  0.19554429295E+04  0.25500000920E-02 0.  1.
    10030    2    1    2    0    0  0.00000000000E+00  0.00000000000E+00 -0.27148643760E+03  0.36393994215E+04  0.36292593271E+04 0.  0.
        4    1    3    3  502    0  0.22979024042E+03 -0.15659231952E+04 -0.10258945787E+04  0.18861018814E+04  0.12699999809E+01 0.  1.
       -4    1    3    3    0  502 -0.22979024042E+03  0.15659231952E+04  0.75440814107E+03  0.17532975400E+04  0.12699999809E+01 0. -1.
</event>
<event>
 5   0  0.5679750E-07  0.3681831E+04  0.7818609E-02  0.8072000E-01
        1   -1    0    0  501    0  0.00000000000E+00  0.00000000000E+00  0.20260630047E+04  0.20260630047E+04  0.50400001928E-02 0. -1.
       -1   -1    0    0    0  501  0.00000000000E+00  0.00000000000E+00 -0.16726877521E+04  0.16726877521E+04  0.50400001928E-02 0.  1.
    10030    2    1    2    0    0  0.00000000000E+00  0.00000000000E+00  0.35337525261E+03  0.36987507567E+04  0.36818314860E+04 0.  0.
        4    1    3    3  502    0  0.53125022685E+03 -0.15325937201E+03  0.19406763554E+04  0.20179052426E+04  0.12699999809E+01 0. -1.
       -4    1    3    3    0  502 -0.53125022685E+03  0.15325937201E+03 -0.15873011028E+04  0.16808455142E+04  0.12699999809E+01 0.  1.
</event>
<event>
 5   0  0.1114272E-06  0.1871195E+04  0.7818609E-02  0.8669329E-01
        1   -1    0    0  501    0  0.00000000000E+00  0.00000000000E+00  0.10623120791E+04  0.10623120791E+04  0.50400001928E-02 0. -1.
       -1   -1    0    0    0  501  0.00000000000E+00  0.00000000000E+00 -0.82399733066E+03  0.82399733067E+03  0.50400001928E-02 0.  1.
    10030    2    1    2    0    0  0.00000000000E+00  0.00000000000E+00  0.23831474842E+03  0.18863094098E+04  0.18711946104E+04 0.  0.
        3    1    3    3  502    0 -0.21501873533E+03  0.20797353275E+02 -0.79851264379E+03  0.82721704463E+03  0.10100000352E+00 0.  1.
       -3    1    3    3    0  502  0.21501873533E+03 -0.20797353275E+02  0.10368273922E+04  0.10590923651E+04  0.10100000352E+00 0. -1.
</event>
<event>
 5   0  0.5679750E-07  0.2844939E+04  0.7818609E-02  0.8289451E-01
        1   -1    0    0  501    0  0.00000000000E+00  0.00000000000E+00  0.13512787582E+04  0.13512787582E+04  0.50400001928E-02 0.  1.
       -1   -1    0    0    0  501  0.00000000000E+00  0.00000000000E+00 -0.14974109214E+04  0.14974109214E+04  0.50400001928E-02 0. -1.
    10030    2    1    2    0    0  0.00000000000E+00  0.00000000000E+00 -0.14613216316E+03  0.28486896796E+04  0.28449390646E+04 0.  0.
        4    1    3    3  502    0 -0.56056860419E+03 -0.59069872890E+03  0.10947715569E+04  0.13644370718E+04  0.12699999809E+01 0.  1.
       -4    1    3    3    0  502  0.56056860419E+03  0.59069872890E+03 -0.12409037200E+04  0.14842526078E+04  0.12699999809E+01 0. -1.
</event>
<event>
 5   0  0.1151180E-06  0.2132488E+04  0.7818609E-02  0.8547066E-01
       -2   -1    0    0    0  501  0.00000000000E+00  0.00000000000E+00  0.80908230542E+03  0.80908230543E+03  0.25500000920E-02 0.  1.
        2   -1    0    0  501    0  0.00000000000E+00  0.00000000000E+00 -0.14051431597E+04  0.14051431597E+04  0.25500000920E-02 0. -1.
    10030    2    1    2    0    0  0.00000000000E+00  0.00000000000E+00 -0.59606085429E+03  0.22142254651E+04  0.21324881872E+04 0.  0.
        5    1    3    3  502    0  0.65284342300E+03  0.52757862115E+03 -0.98073556248E+03  0.12908942908E+04  0.46999998093E+01 0. -1.
       -5    1    3    3    0  502 -0.65284342300E+03 -0.52757862115E+03  0.38467470819E+03  0.92333117437E+03  0.46999998093E+01 0.  1.
</event>
<event>
 5   0  0.1685793E-06  0.3700631E+04  0.7818609E-02  0.8067822E-01
       -2   -1    0    0    0  501  0.00000000000E+00  0.00000000000E+00  0.19025748719E+04  0.19025748719E+04  0.25500000920E-02 0. -1.
        2   -1    0    0  501    0  0.00000000000E+00  0.00000000000E+00 -0.17994912148E+04  0.17994912148E+04  0.25500000920E-02 0.  1.
    10030    2    1    2    0    0  0.00000000000E+00  0.00000000000E+00  0.10308365715E+03  0.37020660867E+04  0.37006306314E+04 0.  0.
        3    1    3    3  502    0  0.61347290984E+03  0.45833436012E+02 -0.16941900947E+04  0.18024233138E+04  0.10100000352E+00 0.  1.
       -3    1    3    3    0  502 -0.61347290984E+03 -0.45833436012E+02  0.17972737519E+04  0.18996427728E+04  0.10100000352E+00 0. -1.
</event>
<event>
 5   0  0.1184684E-06  0.3128311E+04  0.7818609E-02  0.8208011E-01
        2   -1    0    0  501    0  0.00000000000E+00  0.00000000000E+00  0.12943544533E+04  0.12943544534E+04  0.25500000920E-02 0.  1.
       -2   -1    0    0    0  501  0.00000000000E+00  0.00000000000E+00 -0.18901950657E+04  0.18901950657E+04  0.25500000920E-02 0. -1.
    10030    2    1    2    0    0  0.00000000000E+00  0.00000000000E+00 -0.59584061238E+03  0.31845495191E+04  0.31283109826E+04 0.  0.
        4    1    3    3  502    0  0.65077552412E+02 -0.37230753078E+03 -0.18430115816E+04  0.18813668670E+04  0.12699999809E+01 0. -1.
       -4    1    3    3    0  502 -0.65077552412E+02  0.37230753078E+03  0.12471709692E+04  0.13031826521E+04  0.12699999809E+01 0.  1.
</event>
<event>
 5   0  0.6261598E-07  0.2419348E+04  0.7818609E-02  0.8432295E-01
        1   -1    0    0  501    0  0.00000000000E+00  0.00000000000E+00  0.13347670875E+04  0.13347670875E+04  0.50400001928E-02 0.  1.
       -1   -1    0    0    0  501  0.00000000000E+00  0.00000000000E+00 -0.10963049057E+04  0.10963049057E+04  0.50400001928E-02 0. -1.
    10030    2    1    2    0    0  0.00000000000E+00  0.00000000000E+00  0.23846218178E+03  0.24310719933E+04  0.24193484297E+04 0.  0.
        1    1    3    3  502    0 -0.23551188021E+03 -0.10597550465E+04 -0.41698863157E+03  0.11629385724E+04  0.50400001928E-02 0. -1.
       -1    1    3    3    0  502  0.23551188021E+03  0.10597550465E+04  0.65545081336E+03  0.12681334209E+04  0.50400001928E-02 0.  1.
</event>
<event>
 5   0  0.1151180E-06  0.3364430E+04  0.7818609E-02  0.8146692E-01
        2   -1    0    0  501    0  0.00000000000E+00  0.00000000000E+00  0.28405174884E+04  0.28405174884E+04  0.25500000920E-02 0. -1.
       -2   -1    0    0    0  501  0.00000000000E+00  0.00000000000E+00 -0.99624352312E+03  0.99624352313E+03  0.25500000920E-02 0.  1.
    10030    2    1    2    0    0  0.00000000000E+00  0.00000000000E+00  0.18442739653E+04  0.38367610115E+04  0.33644299072E+04 0.  0.
        5    1    3    3  502    0  0.10478563979E+04  0.75268401638E+03  0.21531709877E+04  0.25101202464E+04  0.46999998093E+01 0. -1.
       -5    1    3    3    0  502 -0.10478563979E+04 -0.75268401638E+03 -0.30889702244E+03  0.13266407651E+04  0.46999998093E+01 0.  1.
</event>
<event>
 5   0  0.1184684E-06  0.3386259E+04  0.7818609E-02  0.8141287E-01
       -2   -1    0    0    0  501  0.00000000000E+00  0.00000000000E+00  0.13687464321E+04  0.13687464321E+04  0.25500000920E-02 0.  1.
        2   -1    0    0  501    0  0.00000000000E+00  0.00000000000E+00 -0.20943894525E+04  0.20943894525E+04  0.25500000920E-02 0. -1.
    10030    2    1    2    0    0  0.00000000000E+00  0.00000000000E+00 -0.72564302037E+03  0.34631358846E+04  0.33862593466E+04 0.  0.
        4    1    3    3  502    0  0.12396436606E+04  0.65125743481E+03 -0.13361817071E+04  0.19355195217E+04  0.12699999809E+01 0.  1.
       -4    1    3    3    0  502 -0.12396436606E+04 -0.65125743481E+03  0.61053868670E+03  0.15276163630E+04  0.12699999809E+01 0. -1.
</event>
<event>
 5   0  0.5679750E-07  0.3203005E+04  0.7818609E-02  0.8188024E-01
       -1   -1    0    0    0  501  0.00000000000E+00  0.00000000000E+00  0.16842623030E+04  0.16842623030E+04  0.50400001928E-02 0. -1.
        1   -1    0    0  501    0  0.00000000000E+00  0.00000000000E+00 -0.15228094945E+04  0.15228094945E+04  0.50400001928E-02 0.  1.
    10030    2    1    2    0    0  0.00000000000E+00  0.00000000000E+00  0.16145280850E+03  0.32070717975E+04  0.32030052302E+04 0.  0.
        4    1    3    3  502    0 -0.68318213678E+03 -0.14484696307E+04  0.78094353006E+02  0.16034033940E+04  0.12699999809E+01 0. -1.
       -4    1    3    3    0  502  0.68318213678E+03  0.14484696307E+04  0.83358455497E+02  0.16036684034E+04  0.12699999809E+01 0.  1.
</event>
<event>
 5   0  0.1184684E-06  0.2470888E+04  0.7818609E-02  0.8413431E-01
       -2   -1    0    0    0  501  0.00000000000E+00  0.00000000000E+00  0.11244073045E+04  0.11244073045E+04  0.25500000920E-02 0.  1.
        2   -1    0    0  501    0  0.00000000000E+00  0.00000000000E+00 -0.13574458514E+04  0.13574458514E+04  0.25500000920E-02 0. -1.
    10030    2    1    2    0    0  0.00000000000E+00  0.00000000000E+00 -0.23303854691E+03  0.24818531559E+04  0.24708881243E+04 0.  0.
        4    1    3    3  502    0 -0.12249066527E+04 -0.29437878228E+02  0.42478870087E+02  0.12259971305E+04  0.12699999809E+01 0. -1.
       -4    1    3    3    0  502  0.12249066527E+04  0.29437878228E+02 -0.27551741700E+03  0.12558560254E+04  0.12699999809E+01 0.  1.
</event>
<event>
 5   0  0.5679750E-07  0.3338425E+04  0.7818609E-02  0.8153186E-01
        1   -1    0    0  501    0  0.00000000000E+00  0.00000000000E+00  0.17649541725E+04  0.17649541725E+04  0.50400001928E-02 0.  1.
       -1   -1    0    0    0  501  0.00000000000E+00  0.00000000000E+00 -0.15786642564E+04  0.15786642564E+04  0.50400001928E-02 0. -1.
    10030    2    1    2    0    0  0.00000000000E+00  0.00000000000E+00  0.18628991608E+03  0.33436184289E+04  0.33384248180E+04 0.  0.
        4    1    3    3  502    0 -0.15380922227E+04 -0.38200832627E+03  0.61799302921E+03  0.17010511585E+04  0.12699999809E+01 0.  1.
       -4    1    3    3    0  502  0.15380922227E+04  0.38200832627E+03 -0.43170311313E+03  0.16425672704E+04  0.12699999809E+01 0. -1.
</event>
<event>
 5   0  0.5679750E-07  0.3770518E+04  0.7818609E-02  0.8052511E-01
       -1   -1    0    0    0  501  0.00000000000E+00  0.00000000000E+00  0.16579904784E+04  0.16579904784E+04  0.50400001928E-02 0. -1.
        1   -1    0    0  501    0  0.00000000000E+00  0.00000000000E+00 -0.21436797616E+04  0.21436797616E+04  0.50400001928E-02 0.  1.
    10030    2    1    2    0    0  0.00000000000E+00  0.00000000000E+00 -0.48568928315E+03  0.38016702400E+04  0.37705175419E+04 0.  0.
        4    1    3    3  502    0 -0.53189381828E+03  0.17647444510E+04 -0.64230611792E+03  0.19518690461E+04  0.12699999809E+01 0.  1.
       -4    1    3    3    0  502  0.53189381828E+03 -0.17647444510E+04  0.15661683477E+03  0.18498011939E+04  0.12699999809E+01 0. -1.
</event>
<event>
 5   0  0.1685793E-06  0.3736975E+04  0.7818609E-02  0.8059817E-01
       -2   -1    0    0    0  501  0.00000000000E+00  0.00000000000E+00  0.24337092855E+04  0.24337092855E+04  0.25500000920E-02 0.  1.
        2   -1    0    0  501    0  0.00000000000E+00  0.00000000000E+00 -0.14345366721E+04  0.14345366721E+04  0.25500000920E-02 0. -1.
    10030    2    1    2    0    0  0.00000000000E+00  0.00000000000E+00  0.99917261338E+03  0.38682459576E+04  0.37369748296E+04 0.  0.
        3    1    3    3  502    0 -0.58198169274E+03 -0.68142300387E+03 -0.11975827961E+04  0.14957421451E+04  0.10100000352E+00 0. -1.
       -3    1    3    3    0  502  0.58198169274E+03  0.68142300387E+03  0.21967554095E+04  0.23725038125E+04  0.10100000352E+00 0.  1.
</event>
<event>
 5   0  0.6186440E-07  0.3786344E+04  0.7818609E-02  0.8049092E-01
       -1   -1    0    0    0  501  0.00000000000E+00  0.00000000000E+00  0.24755770522E+04  0.24755770522E+04  0.50400001928E-02 0.  1.
        1   -1    0    0  501    0  0.00000000000E+00  0.00000000000E+00 -0.14477840493E+04  0.14477840493E+04  0.50400001928E-02 0. -1.
    10030    2    1    2    0    0  0.00000000000E+00  0.00000000000E+00  0.10277930029E+04  0.39233611015E+04  0.37863443948E+04 0.  0.
        3    1    3    3  502    0 -0.48422481164E+03 -0.11574228012E+04 -0.95515212019E+03  0.15768375921E+04  0.10100000352E+00 0. -1.
       -3    1    3    3    0  502  0.48422481164E+03  0.11574228012E+04  0.19829451231E+04  0.23465235094E+04  0.10100000352E+00 0.  1.
</event>
<event>
 5   0  0.1724503E-06  0.3708594E+04  0.7818609E-02  0.8066060E-01
       -2   -1    0    0    0  501  0.00000000000E+00  0.00000000000E+00  0.17194393141E+04  0.17194393141E+04  0.25500000920E-02 0. -1.
        2   -1    0    0  501    0  0.00000000000E+00  0.00000000000E+00 -0.19997312427E+04  0.19997312427E+04  0.25500000920E-02 0.  1.
    10030    2    1    2    0    0  0.00000000000E+00  0.00000000000E+00 -0.28029192853E+03  0.37191705568E+04  0.37085935428E+04 0.  0.
        1    1    3    3  502    0  0.16363811638E+04  0.76649570045E+03 -0.55745478646E+03  0.18910353807E+04  0.50400001928E-02 0.  1.
       -1    1    3    3    0  502 -0.16363811638E+04 -0.76649570045E+03  0.27716285793E+03  0.18281351761E+04  0.50400001928E-02 0. -1.
</event>
<event>
 5   0  0.1184684E-06  0.3715119E+04  0.7818609E-02  0.8064619E-01
       -2   -1    0    0    0  501  0.00000000000E+00  0.00000000000E+00  0.16648187749E+04  0.16648187749E+04  0.25500000920E-02 0. -1.
        2   -1    0    0  501    0  0.00000000000E+00  0.00000000000E+00 -0.20726145112E+04  0.20726145112E+04  0.25500000920E-02 0.  1.
    10030    2    1    2    0    0  0.00000000000E+00  0.00000000000E+00 -0.40779573622E+03  0.37374332861E+04  0.37151191375E+04 0.  0.
        4    1    3    3  502    0  0.99644767095E+03  0.15641655480E+04 -0.98367298683E+02  0.18572020786E+04  0.12699999809E+01 0. -1.
       -4    1    3    3    0  502 -0.99644767095E+03 -0.15641655480E+04 -0.30942843754E+03  0.18802312074E+04  0.12699999809E+01 0.  1.
</event>
<event>
 5   0  0.1724503E-06  0.3713155E+04  0.7818609E-02  0.8065053E-01
        2   -1    0    0  501    0  0.00000000000E+00  0.00000000000E+00  0.28632979094E+04  0.28632979094E+04  0.25500000920E-02 0. -1.
       -2   -1    0    0    0  501  0.00000000000E+00  0.00000000000E+00 -0.12038147672E+04  0.12038147672E+04  0.25500000920E-02 0.  1.
    10030    2    1    2    0    0  0.00000000000E+00  0.00000000000E+00  0.16594831422E+04  0.40671126767E+04  0.37131551578E+04 0.  0.
        1    1    3    3  502    0 -0.94284135311E+03  0.15938991810E+04  0.97429085554E+03  0.20925360421E+04  0.50400001928E-02 0. -1.
       -1    1    3    3    0  502  0.94284135311E+03 -0.15938991810E+04  0.68519228666E+03  0.19745766346E+04  0.50400001928E-02 0.  1.
</event>
<event>
 5   0  0.1724503E-06  0.3790062E+04  0.7818609E-02  0.8048291E-01
       -2   -1    0    0    0  501  0.00000000000E+00  0.00000000000E+00  0.17293065182E+04  0.17293065182E+04  0.25500000920E-02 0. -1.
        2   -1    0    0  501    0  0.00000000000E+00  0.00000000000E+00 -0.20766371392E+04  0.20766371392E+04  0.25500000920E-02 0.  1.
    10030    2    1    2    0    0  0.00000000000E+00  0.00000000000E+00 -0.34733062106E+03  0.38059436574E+04  0.37900618152E+04 0.  0.
        1    1    3    3  502    0 -0.81821553618E+03  0.88532586803E+03 -0.16419357536E+04  0.20369662676E+04  0.50400001928E-02 0.  1.
       -1    1    3    3    0  502  0.81821553618E+03 -0.88532586803E+03  0.12946051326E+04  0.17689773898E+04  0.50400001928E-02 0. -1.
</event>
<event>
 5   0  0.1151180E-06  0.3512690E+04  0.7818609E-02  0.8110789E-01
        2   -1    0    0  501    0  0.00000000000E+00  0.00000000000E+00  0.21202246714E+04  0.21202246714E+04  0.25500000920E-02 0.  1.
       -2   -1    0    0    0  501  0.00000000000E+00  0.00000000000E+00 -0.14549154075E+04  0.14549154075E+04  0.25500000920E-02 0. -1.
    10030    2    1    2    0    0  0.00000000000E+00  0.00000000000E+00  0.66530926392E+03  0.35751400789E+04  0.35126898763E+04 0.  0.
        5    1    3    3  502    0  0.16512464920E+04 -0.35975263696E+03 -0.15406115218E+03  0.16969955409E+04  0.46999998093E+01 0. -1.
       -5    1    3    3    0  502 -0.16512464920E+04  0.35975263696E+03  0.81937041609E+03  0.18781445381E+04  0.46999998093E+01 0.  1.
</event>
<event>
 5   0  0.5875011E-07  0.2117405E+04  0.7818609E-02  0.8553615E-01
        1   -1    0    0  501    0  0.00000000000E+00  0.00000000000E+00  0.16659707007E+04  0.16659707007E+04  0.50400001928E-02 0.  1.
       -1   -1    0    0    0  501  0.00000000000E+00  0.00000000000E+00 -0.67279143709E+03  0.67279143711E+03  0.50400001928E-02 0. -1.
    10030    2    1    2    0    0  0.00000000000E+00  0.00000000000E+00  0.99317926362E+03  0.23387621378E+04  0.21174048474E+04 0.  0.
        2    1    3    3  502    0 -0.32970492057E+03  0.92820703353E+03  0.92519908546E+03  0.13513944574E+04  0.25500000920E-02 0.  1.
       -2    1    3    3    0  502  0.32970492057E+03 -0.92820703353E+03  0.67980178158E+02  0.98736768044E+03  0.25500000920E-02 0. -1.
</event>
<event>
 5   0  0.1685793E-06  0.3740799E+04  0.7818609E-02  0.8058980E-01
        2   -1    0    0  501    0  0.00000000000E+00  0.00000000000E+00  0.27305691780E+04  0.27305691780E+04  0.25500000920E-02 0. -1.
       -2   -1    0    0    0  501  0.00000000000E+00  0.00000000000E+00 -0.12811960703E+04  0.12811960703E+04  0.25500000920E-02 0.  1.
    10030    2    1    2    0    0  0.00000000000E+00  0.00000000000E+00  0.14493731077E+04  0.40117652483E+04  0.37407991127E+04 0.  0.
        3    1    3    3  502    0  0.29261979004E+03 -0.18426614446E+04  0.58335703065E+03  0.19548230039E+04  0.10100000352E+00 0. -1.
       -3    1    3    3    0  502 -0.29261979004E+03  0.18426614446E+04  0.86601607705E+03  0.20569422444E+04  0.10100000352E+00 0.  1.
</event>
<event>
 5   0  0.5921555E-07  0.1890594E+04  0.7818609E-02  0.8659552E-01
       -1   -1    0    0    0  501  0.00000000000E+00  0.00000000000E+00  0.97907243582E+03  0.97907243583E+03  0.50400001928E-02 0. -1.
        1   -1    0    0  501    0  0.00000000000E+00  0.00000000000E+00 -0.91268719784E+03  0.91268719785E+03  0.50400001928E-02 0.  1.
    10030    2    1    2    0    0  0.00000000000E+00  0.00000000000E+00  0.66385237979E+02  0.18917596337E+04  0.18905944864E+04 0.  0.
        4    1    3    3  502    0 -0.37641559123E+02 -0.10108604304E+03  0.97289331188E+03  0.97885559929E+03  0.12699999809E+01 0. -1.
       -4    1    3    3    0  502  0.37641559123E+02  0.10108604304E+03 -0.90650807390E+03  0.91290403439E+03  0.12699999809E+01 0.  1.
</event>
<event>
 5   0  0.6287345E-07  0.3715944E+04  0.7818609E-02  0.8064438E-01
       -1   -1    0    0    0  501  0.00000000000E+00  0.00000000000E+00  0.13617472937E+04  0.13617472938E+04  0.50400001928E-02 0. -1.
        1   -1    0    0  501    0  0.00000000000E+00  0.00000000000E+00 -0.25350229963E+04  0.25350229963E+04  0.50400001928E-02 0.  1.
    10030    2    1    2    0    0  0.00000000000E+00  0.00000000000E+00 -0.11732757025E+04  0.38967702900E+04  0.37159444048E+04 0.  0.
        5    1    3    3  502    0  0.10796131028E+04 -0.26494109562E+03 -0.21477997679E+04  0.24184342390E+04  0.46999998093E+01 0.  1.
       -5    1    3    3    0  502 -0.10796131028E+04  0.26494109562E+03  0.97452406531E+03  0.14783360510E+04  0.46999998093E+01 0. -1.
</event>
<event>
 5   0  0.5875011E-07  0.2969866E+04  0.7818609E-02  0.8252388E-01
       -1   -1    0    0    0  501  0.00000000000E+00  0.00000000000E+00  0.10801582327E+04  0.10801582327E+04  0.50400001928E-02 0.  1.
        1   -1    0    0  501    0  0.00000000000E+00  0.00000000000E+00 -0.20413920317E+04  0.20413920317E+04  0.50400001928E-02 0. -1.
    10030    2    1    2    0    0  0.00000000000E+00  0.00000000000E+00 -0.96123379899E+03  0.31215502644E+04  0.29698662658E+04 0.  0.
        2    1    3    3  502    0 -0.32266505162E+03  0.92789733539E+03  0.68977230795E+03  0.12003716247E+04  0.25500000920E-02 0.  1.
       -2    1    3    3    0  502  0.32266505162E+03 -0.92789733539E+03 -0.16510061069E+04  0.19211786397E+04  0.25500000920E-02 0. -1.
</event>
<event>
 5   0  0.6186440E-07  0.1817803E+04  0.7818609E-02  0.8696889E-01
        1   -1    0    0  501    0  0.00000000000E+00  0.00000000000E+00  0.20056342491E+04  0.20056342491E+04  0.50400001928E-02 0.  1.
       -1   -1    0    0    0  501  0.00000000000E+00  0.00000000000E+00 -0.41189058950E+03  0.41189058953E+03  0.50400001928E-02 0. -1.
    10030    2    1    2    0    0  0.00000000000E+00  0.00000000000E+00  0.15937436596E+04  0.24175248386E+04  0.18178029301E+04 0.  0.
        3    1    3    3  502    0 -0.28782403382E+03 -0.81980662127E+03  0.11516785412E+04  0.14426673363E+04  0.10100000352E+00 0.  1.
       -3    1    3    3    0  502  0.28782403382E+03  0.81980662127E+03  0.44206511834E+03  0.97485750230E+03  0.10100000352E+00 0. -1.
</event>
<event>
 5   0  0.1184684E-06  0.3846382E+04  0.7818609E-02  0.8036274E-01
        2   -1    0    0  501    0  0.00000000000E+00  0.00000000000E+00  0.17051429047E+04  0.17051429047E+04  0.25500000920E-02 0. -1.
       -2   -1    0    0    0  501  0.00000000000E+00  0.00000000000E+00 -0.21691222693E+04  0.21691222693E+04  0.25500000920E-02 0.  1.
    10030    2    1    2    0    0  0.00000000000E+00  0.00000000000E+00 -0.46397936460E+03  0.38742651740E+04  0.38463819087E+04 0.  0.
        4    1    3    3  502    0 -0.49081634249E+03 -0.12161990378E+04 -0.16488213401E+04  0.21068113836E+04  0.12699999809E+01 0.  1.
       -4    1    3    3    0  502  0.49081634249E+03  0.12161990378E+04  0.11848419755E+04  0.17674537904E+04  0.12699999809E+01 0. -1.
</event>
<event>
 5   0  0.5679750E-07  0.1939321E+04  0.7818609E-02  0.8635528E-01
        1   -1    0    0  501    0  0.00000000000E+00  0.00000000000E+00  0.13287798881E+04  0.13287798881E+04  0.50400001928E-02 0. -1.
       -1   -1    0    0    0  501  0.00000000000E+00  0.00000000000E+00 -0.70759760163E+03  0.70759760164E+03  0.50400001928E-02 0.  1.
    10030    2    1    2    0    0  0.00000000000E+00  0.00000000000E+00  0.62118228648E+03  0.20363774898E+04  0.19393209760E+04 0.  0.
        4    1    3    3  502    0  0.72711259077E+03 -0.16610329466E+03 -0.34006238423E+03  0.81971157258E+03  0.12699999809E+01 0.  1.
       -4    1    3    3    0  502 -0.72711259077E+03  0.16610329466E+03  0.96124467072E+03  0.12166659172E+04  0.12699999809E+01 0. -1.
</event>
<event>
 5   0  0.1680194E-06  0.2046772E+04  0.7818609E-02  0.8585060E-01
       -2   -1    0    0    0  501  0.00000000000E+00  0.00000000000E+00  0.75488098536E+03  0.75488098537E+03  0.25500000920E-02 0. -1.
        2   -1    0    0  501    0  0.00000000000E+00  0.00000000000E+00 -0.13873956535E+04  0.13873956535E+04  0.25500000920E-02 0.  1.
    10030    2    1    2    0    0  0.00000000000E+00  0.00000000000E+00 -0.63251466810E+03  0.21422766388E+04  0.20467717000E+04 0.  0.
        2    1    3    3  502    0  0.76888250922E+03  0.43295515434E+03  0.22628093838E+03  0.91095199749E+03  0.25500000920E-02 0. -1.
       -2    1    3    3    0  502 -0.76888250922E+03 -0.43295515434E+03 -0.85879560648E+03  0.12313246413E+04  0.25500000920E-02 0.  1.
</event>
<event>
 5   0  0.1685793E-06  0.3743896E+04  0.7818609E-02  0.8058303E-01
       -2   -1    0    0    0  501  0.00000000000E+00  0.00000000000E+00  0.18703859503E+04  0.18703859503E+04  0.25500000920E-02 0. -1.
        2   -1    0    0  501    0  0.00000000000E+00  0.00000000000E+00 -0.18735108827E+04  0.18735108827E+04  0.25500000920E-02 0.  1.
    10030    2    1    2    0    0  0.00000000000E+00  0.00000000000E+00 -0.31249324132E+01  0.37438968331E+04  0.37438955289E+04 0.  0.
        3    1    3    3  502    0 -0.15131412162E+04  0.12936284275E+03 -0.10960295383E+04  0.18728619395E+04  0.10100000352E+00 0.  1.
       -3    1    3    3    0  502  0.15131412162E+04 -0.12936284275E+03  0.10929046059E+04  0.18710348936E+04  0.10100000352E+00 0. -1.
</event>
<event>
 5   0  0.6261598E-07  0.2857424E+04  0.7818609E-02  0.8285659E-01
       -1   -1    0    0    0  501  0.00000000000E+00  0.00000000000E+00  0.12289951737E+04  0.12289951737E+04  0.50400001928E-02 0. -1.
        1   -1    0    0  501    0  0.00000000000E+00  0.00000000000E+00 -0.16608832458E+04  0.16608832459E+04  0.50400001928E-02 0.  1.
    10030    2    1    2    0    0  0.00000000000E+00  0.00000000000E+00 -0.43188807218E+03  0.28898784195E+04  0.28574236600E+04 0.  0.
        1    1    3    3  502    0 -0.10897963783E+04  0.72749444141E+03  0.36000922005E+03  0.13588638442E+04  0.50400001928E-02 0. -1.
       -1    1    3    3    0  502  0.10897963783E+04 -0.72749444141E+03 -0.79189729223E+03  0.15310145753E+04  0.50400001928E-02 0.  1.
</event>
<event>
 5   0  0.6287345E-07  0.3720108E+04  0.7818609E-02  0.8063520E-01
        1   -1    0    0  501    0  0.00000000000E+00  0.00000000000E+00  0.16660881907E+04  0.16660881907E+04  0.50400001928E-02 0.  1.
       -1   -1    0    0    0  501  0.00000000000E+00  0.00000000000E+00 -0.20766013171E+04  0.20766013171E+04  0.50400001928E-02 0. -1.
    10030    2    1    2    0    0  0.00000000000E+00  0.00000000000E+00 -0.41051312645E+03  0.37426895078E+04  0.37201080259E+04 0.  0.
        5    1    3    3  502    0 -0.17958625491E+03 -0.16268688388E+04  0.68375050616E+03  0.17738349095E+04  0.46999998093E+01 0.  1.
       -5    1    3    3    0  502  0.17958625491E+03  0.16268688388E+04 -0.10942636326E+04  0.19688545983E+04  0.46999998093E+01 0. -1.
</event>
<event>
 5   0  0.6186440E-07  0.3657803E+04  0.7818609E-02  0.8077378E-01
        1   -1    0    0  501    0  0.00000000000E+00  0.00000000000E+00  0.29767869792E+04  0.29767869792E+04  0.50400001928E-02 0. -1.
       -1   -1    0    0    0  501  0.00000000000E+00  0.00000000000E+00 -0.11236548779E+04  0.11236548779E+04  0.50400001928E-02 0.  1.
    10030    2    1    2    0    0  0.00000000000E+00  0.00000000000E+00  0.18531321013E+04  0.41004418571E+04  0.36578032804E+04 0.  0.
        3    1    3    3  502    0 -0.86002113324E+03  0.16050914818E+04  0.73590767350E+03  0.19640557855E+04  0.10100000352E+00 0.  1.
       -3    1    3    3    0  502  0.86002113324E+03 -0.16050914818E+04  0.11172244278E+04  0.21363860716E+04  0.10100000352E+00 0. -1.
</event>
<event>
 5   0  0.1680194E-06  0.3380181E+04  0.7818609E-02  0.8142788E-01
        2   -1    0    0  501    0  0.00000000000E+00  0.00000000000E+00  0.19915025256E+04  0.19915025256E+04  0.25500000920E-02 0. -1.
       -2   -1    0    0    0  501  0.00000000000E+00  0.00000000000E+00 -0.14342966514E+04  0.14342966514E+04  0.25500000920E-02 0.  1.
    10030    2    1    2    0    0  0.00000000000E+00  0.00000000000E+00  0.55720587425E+03  0.34257991770E+04  0.33801807074E+04 0.  0.
        2    1    3    3  502    0  0.64593134783E+03  0.97826414918E+03  0.15124805042E+04  0.19135896444E+04  0.25500000920E-02 0. -1.
       -2    1    3    3    0  502 -0.64593134783E+03 -0.97826414918E+03 -0.95527462997E+03  0.15122095326E+04  0.25500000920E-02 0.  1.
</event>
<event>
 5   0  0.5875011E-07  0.3785872E+04  0.7818609E-02  0.8049193E-01
       -1   -1    0    0    0  501  0.00000000000E+00  0.00000000000E+00  0.15230444799E+04  0.15230444799E+04  0.50400001928E-02 0.  1.
        1   -1    0    0  501    0  0.00000000000E+00  0.00000000000E+00 -0.23526607048E+04  0.23526607048E+04  0.50400001928E-02 0. -1.
    10030    2    1    2    0    0  0.00000000000E+00  0.00000000000E+00 -0.82961622486E+03  0.38757051847E+04  0.37858721053E+04 0.  0.
        2    1    3    3  502    0  0.19767282111E+03  0.17618752268E+04 -0.10938172481E+04  0.20831982698E+04  0.25500000920E-02 0. -1.
       -2    1    3    3    0  502 -0.19767282111E+03 -0.17618752268E+04  0.26420102327E+03  0.17925069149E+04  0.25500000920E-02 0.  1.
</event>
<event>
 5   0  0.1685793E-06  0.3695388E+04  0.7818609E-02  0.8068985E-01
        2   -1    0    0  501    0  0.00000000000E+00  0.00000000000E+00  0.24733951113E+04  0.24733951113E+04  0.25500000920E-02 0.  1.
       -2   -1    0    0    0  501  0.00000000000E+00  0.00000000000E+00 -0.13802778742E+04  0.13802778742E+04  0.25500000920E-02 0. -1.
    10030    2    1    2    0    0  0.00000000000E+00  0.00000000000E+00  0.10931172371E+04  0.38536729855E+04  0.36953876908E+04 0.  0.
        3    1    3    3  502    0  0.99715232319E+03  0.10753766782E+04 -0.62551575084E+03  0.15943706346E+04  0.10100000352E+00 0. -1.
       -3    1    3    3    0  502 -0.99715232319E+03 -0.10753766782E+04  0.17186329879E+04  0.22593023509E+04  0.10100000352E+00 0.  1.
</event>
<event>
 5   0  0.1685793E-06  0.2907478E+04  0.7818609E-02  0.8270656E-01
        2   -1    0    0  501    0  0.00000000000E+00  0.00000000000E+00  0.17669289323E+04  0.17669289323E+04  0.25500000920E-02 0. -1.
       -2   -1    0    0    0  501  0.00000000000E+00  0.00000000000E+00 -0.11960622229E+04  0.11960622229E+04  0.25500000920E-02 0.  1.
    10030    2    1    2    0    0  0.00000000000E+00  0.00000000000E+00  0.57086670938E+03  0.29629911553E+04  0.29074779081E+04 0.  0.
        3    1    3    3  502    0  0.64850463766E+03 -0.50754865164E+03 -0.93543571447E+03  0.12462760067E+04  0.10100000352E+00 0.  1.
       -3    1    3    3    0  502 -0.64850463766E+03  0.50754865164E+03  0.15063024239E+04  0.17167151485E+04  0.10100000352E+00 0. -1.
</event>
<event>
 5   0  0.1184684E-06  0.3793293E+04  0.7818609E-02  0.8047596E-01
       -2   -1    0    0    0  501  0.00000000000E+00  0.00000000000E+00  0.17616097280E+04  0.17616097280E+04  0.25500000920E-02 0.  1.
        2   -1    0    0  501    0  0.00000000000E+00  0.00000000000E+00 -0.20420342857E+04  0.20420342857E+04  0.25500000920E-02 0. -1.
    10030    2    1    2    0    0  0.00000000000E+00  0.00000000000E+00 -0.28042455769E+03  0.38036440136E+04  0.37932927451E+04 0.  0.
        4    1    3    3  502    0 -0.14052315210E+04 -0.67086950752E+03  0.94557421348E+03  0.18217721400E+04  0.12699999809E+01 0.  1.
       -4    1    3    3    0  502  0.14052315210E+04  0.67086950752E+03 -0.12259987712E+04  0.19818718737E+04  0.12699999809E+01 0. -1.
</event>
<event>
 5   0  0.5875011E-07  0.3605656E+04  0.7818609E-02  0.8089197E-01
       -1   -1    0    0    0  501  0.00000000000E+00  0.00000000000E+00  0.14322861331E+04  0.14322861332E+04  0.50400001928E-02 0.  1.
        1   -1    0    0  501    0  0.00000000000E+00  0.00000000000E+00 -0.22692313209E+04  0.22692313209E+04  0.50400001928E-02 0. -1.
    10030    2    1    2    0    0  0.00000000000E+00  0.00000000000E+00 -0.83694518775E+03  0.37015174541E+04  0.36056558648E+04 0.  0.
        2    1    3    3  502    0 -0.70174577053E+03  0.16548741106E+04 -0.56047256655E+03  0.18828661520E+04  0.25500000920E-02 0. -1.
       -2    1    3    3    0  502  0.70174577053E+03 -0.16548741106E+04 -0.27647262120E+03  0.18186513021E+04  0.25500000920E-02 0.  1.
</event>
<event>
 5   0  0.1724503E-06  0.3560855E+04  0.7818609E-02  0.8099518E-01
        2   -1    0    0  501    0  0.00000000000E+00  0.00000000000E+00  0.22130458597E+04  0.22130458597E+04  0.25500000920E-02 0.  1.
       -2   -1    0    0    0  501  0.00000000000E+00  0.00000000000E+00 -0.14323799790E+04  0.14323799790E+04  0.25500000920E-02 0. -1.
    10030    2    1    2    0    0  0.00000000000E+00  0.00000000000E+00  0.78066588074E+03  0.36454258387E+04  0.35608552804E+04 0.  0.
        1    1    3    3  502    0 -0.78245453898E+03 -0.13027414380E+04  0.13400244584E+04  0.20260888206E+04  0.50400001928E-02 0.  1.
       -1    1    3    3    0  502  0.78245453898E+03  0.13027414380E+04 -0.55935857771E+03  0.16193370181E+04  0.50400001928E-02 0. -1.
</event>
<event>
 5   0  0.5875011E-07  0.3687702E+04  0.7818609E-02  0.8070693E-01
        1   -1    0    0  501    0  0.00000000000E+00  0.00000000000E+00  0.18929724722E+04  0.18929724722E+04  0.50400001928E-02 0.  1.
       -1   -1    0    0    0  501  0.00000000000E+00  0.00000000000E+00 -0.17960043074E+04  0.17960043074E+04  0.50400001928E-02 0. -1.
    10030    2    1    2    0    0  0.00000000000E+00  0.00000000000E+00  0.96968164764E+02  0.36889767796E+04  0.36877021104E+04 0.  0.
        2    1    3    3  502    0  0.96286146345E+03 -0.12682375479E+04  0.97846021641E+03  0.18689336722E+04  0.25500000920E-02 0.  1.
       -2    1    3    3    0  502 -0.96286146345E+03  0.12682375479E+04 -0.88149205165E+03  0.18200431074E+04  0.25500000920E-02 0. -1.
</event>
<event>
 5   0  0.1184684E-06  0.3668336E+04  0.7818609E-02  0.8075015E-01
       -2   -1    0    0    0  501  0.00000000000E+00  0.00000000000E+00  0.13056984565E+04  0.13056984565E+04  0.25500000920E-02 0.  1.
        2   -1    0    0  501    0  0.00000000000E+00  0.00000000000E+00 -0.25765308561E+04  0.25765308561E+04  0.25500000920E-02 0. -1.
    10030    2    1    2    0    0  0.00000000000E+00  0.00000000000E+00 -0.12708323996E+04  0.38822293126E+04  0.36683360598E+04 0.  0.
        4    1    3    3  502    0 -0.11221641464E+04 -0.14313666094E+04 -0.38473342675E+03  0.18590546427E+04  0.12699999809E+01 0.  1.
       -4    1    3    3    0  502  0.11221641464E+04  0.14313666094E+04 -0.88609897290E+03  0.20231746698E+04  0.12699999809E+01 0. -1.
</event>
<event>
 5   0  0.5679750E-07  0.2025293E+04  0.7818609E-02  0.8594886E-01
        1   -1    0    0  501    0  0.00000000000E+00  0.00000000000E+00  0.99736254184E+03  0.99736254186E+03  0.50400001928E-02 0.  1.
       -1   -1    0    0    0  501  0.00000000000E+00  0.00000000000E+00 -0.10281641711E+04  0.10281641711E+04  0.50400001928E-02 0. -1.
    10030    2    1    2    0    0  0.00000000000E+00  0.00000000000E+00 -0.30801629251E+02  0.20255267130E+04  0.20252925035E+04 0.  0.
        4    1    3    3  502    0 -0.65948416816E+03 -0.49017988677E+03  0.57649118743E+03  0.10037626171E+04  0.12699999809E+01 0.  1.
       -4    1    3    3    0  502  0.65948416816E+03  0.49017988677E+03 -0.60729281668E+03  0.10217640958E+04  0.12699999809E+01 0. -1.
</event>
<event>
 5   0  0.1685793E-06  0.2886258E+04  0.7818609E-02  0.8276978E-01
        2   -1    0    0  501    0  0.00000000000E+00  0.00000000000E+00  0.18589308974E+04  0.18589308974E+04  0.25500000920E-02 0.  1.
       -2   -1    0    0    0  501  0.00000000000E+00  0.00000000000E+00 -0.11203327776E+04  0.11203327776E+04  0.25500000920E-02 0. -1.
    10030    2    1    2    0    0  0.00000000000E+00  0.00000000000E+00  0.73859811984E+03  0.29792636750E+04  0.28862579342E+04 0.  0.
        3    1    3    3  502    0  0.38071553697E+03 -0.78948356530E+03  0.15527121040E+04  0.17830152855E+04  0.10100000352E+00 0.  1.
       -3    1    3    3    0  502 -0.38071553697E+03  0.78948356530E+03 -0.81411398421E+03  0.11962483895E+04  0.10100000352E+00 0. -1.
</event>
<event>
 5   0  0.1151180E-06  0.1905395E+04  0.7818609E-02  0.8652176E-01
        2   -1    0    0  501    0  0.00000000000E+00  0.00000000000E+00  0.20449967925E+04  0.20449967925E+04  0.25500000920E-02 0. -1.
       -2   -1    0    0    0  501  0.00000000000E+00  0.00000000000E+00 -0.44383084455E+03  0.44383084456E+03  0.25500000920E-02 0.  1.
    10030    2    1    2    0    0  0.00000000000E+00  0.00000000000E+00  0.16011659479E+04  0.24888276371E+04  0.19053951333E+04 0.  0.
        5    1    3    3  502    0 -0.55858224872E+03  0.34575880401E+03 -0.10064531427E+03  0.66461631669E+03  0.46999998093E+01 0.  1.
       -5    1    3    3    0  502  0.55858224872E+03 -0.34575880401E+03  0.17018112622E+04  0.18242113204E+04  0.46999998093E+01 0. -1.
</event>
<event>
 5   0  0.1680194E-06  0.1940832E+04  0.7818609E-02  0.8634794E-01
        2   -1    0    0  501    0  0.00000000000E+00  0.00000000000E+00  0.76680109374E+03  0.76680109375E+03  0.25500000920E-02 0.  1.
       -2   -1    0    0    0  501  0.00000000000E+00  0.00000000000E+00 -0.12280989569E+04  0.12280989569E+04  0.25500000920E-02 0. -1.
    10030    2    1    2    0    0  0.00000000000E+00  0.00000000000E+00 -0.46129786314E+03  0.19949000506E+04  0.19408324228E+04 0.  0.
        2    1    3    3  502    0  0.41703933457E+03  0.52753449255E+03  0.48847944042E+03  0.83115979879E+03  0.25500000920E-02 0.  1.
       -2    1    3    3    0  502 -0.41703933457E+03 -0.52753449255E+03 -0.94977730356E+03  0.11637402518E+04  0.25500000920E-02 0. -1.
</event>
<event>
 5   0  0.1680194E-06  0.3716619E+04  0.7818609E-02  0.8064289E-01
        2   -1    0    0  501    0  0.00000000000E+00  0.00000000000E+00  0.19247126482E+04  0.19247126482E+04  0.25500000920E-02 0.  1.
       -2   -1    0    0    0  501  0.00000000000E+00  0.00000000000E+00 -0.17941975609E+04  0.17941975609E+04  0.25500000920E-02 0. -1.
    10030    2    1    2    0    0  0.00000000000E+00  0.00000000000E+00  0.13051508731E+03  0.37189102091E+04  0.37166192912E+04 0.  0.
        2    1    3    3  502    0  0.67749686959E+02  0.53374888121E+03  0.18450716969E+04  0.19219176505E+04  0.25500000920E-02 0.  1.
       -2    1    3    3    0  502 -0.67749686959E+02 -0.53374888121E+03 -0.17145566096E+04  0.17969925587E+04  0.25500000920E-02 0. -1.
</event>
<event>
 5   0  0.1724503E-06  0.1868631E+04  0.7818609E-02  0.8670630E-01
        2   -1    0    0  501    0  0.00000000000E+00  0.00000000000E+00  0.20427855151E+04  0.20427855151E+04  0.25500000920E-02 0. -1.
       -2   -1    0    0    0  501  0.00000000000E+00  0.00000000000E+00 -0.42733109368E+03  0.42733109369E+03  0.25500000920E-02 0.  1.
    10030    2    1    2    0    0  0.00000000000E+00  0.00000000000E+00  0.16154544214E+04  0.24701166088E+04  0.18686313369E+04 0.  0.
        1    1    3    3  502    0 -0.74273097156E+03 -0.14048647315E+03  0.81820665856E+02  0.76031596501E+03  0.50400001928E-02 0.  1.
       -1    1    3    3    0  502  0.74273097156E+03  0.14048647315E+03  0.15336337555E+04  0.17098006438E+04  0.50400001928E-02 0. -1.
</event>
<event>
 5   0  0.6261598E-07  0.3579420E+04  0.7818609E-02  0.8095222E-01
       -1   -1    0    0    0  501  0.00000000000E+00  0.00000000000E+00  0.20876103850E+04  0.20876103850E+04  0.50400001928E-02 0. -1.
        1   -1    0    0  501    0  0.00000000000E+00  0.00000000000E+00 -0.15343201509E+04  0.15343201509E+04  0.50400001928E-02 0.  1.
    10030    2    1    2    0    0  0.00000000000E+00  0.00000000000E+00  0.55329023403E+03  0.36219305359E+04  0.35794204452E+04 0.  0.
        1    1    3    3  502    0  0.50917266239E+03  0.16968085814E+04  0.53392153155E+03  0.18502671061E+04  0.50400001928E-02 0.  1.
       -1    1    3    3    0  502 -0.50917266239E+03 -0.16968085814E+04  0.19368702483E+02  0.17716634298E+04  0.50400001928E-02 0. -1.
</event>
<event>
 5   0  0.6261598E-07  0.3732061E+04  0.7818609E-02  0.8060894E-01
        1   -1    0    0  501    0  0.00000000000E+00  0.00000000000E+00  0.18905122729E+04  0.18905122729E+04  0.50400001928E-02 0.  1.
       -1   -1    0    0    0  501  0.00000000000E+00  0.00000000000E+00 -0.18418658553E+04  0.18418658554E+04  0.50400001928E-02 0. -1.
    10030    2    1    2    0    0  0.00000000000E+00  0.00000000000E+00  0.48646417580E+02  0.37323781283E+04  0.37320610952E+04 0.  0.
        1    1    3    3  502    0 -0.74566685024E+03 -0.16495715872E+04  0.47709175477E+03  0.18720902797E+04  0.50400001928E-02 0.  1.
       -1    1    3    3    0  502  0.74566685024E+03  0.16495715872E+04 -0.42844533719E+03  0.18602878486E+04  0.50400001928E-02 0. -1.
</event>
<event>
 5   0  0.6287345E-07  0.3704412E+04  0.7818609E-02  0.8066985E-01
       -1   -1    0    0    0  501  0.00000000000E+00  0.00000000000E+00  0.10868941966E+04  0.10868941966E+04  0.50400001928E-02 0.  1.
        1   -1    0    0  501    0  0.00000000000E+00  0.00000000000E+00 -0.31563945418E+04  0.31563945418E+04  0.50400001928E-02 0. -1.
    10030    2    1    2    0    0  0.00000000000E+00  0.00000000000E+00 -0.20695003452E+04  0.42432887384E+04  0.37044119153E+04 0.  0.
        5    1    3    3  502    0 -0.10558295752E+04  0.27391356477E+03  0.67995218432E+03  0.12853644603E+04  0.46999998093E+01 0.  1.
       -5    1    3    3    0  502  0.10558295752E+04 -0.27391356477E+03 -0.27494525295E+04  0.29579242781E+04  0.46999998093E+01 0. -1.
</event>
<event>
 5   0  0.5679750E-07  0.3180595E+04  0.7818609E-02  0.8193961E-01
        3   -1    0    0  501    0  0.00000000000E+00  0.00000000000E+00  0.28241535553E+04  0.28241535571E+04  0.10100000352E+00 0. -1.
       -3   -1    0    0    0  501  0.00000000000E+00  0.00000000000E+00 -0.89550601125E+03  0.89550601694E+03  0.10100000352E+00 0.  1.
    10030    2    1    2    0    0  0.00000000000E+00  0.00000000000E+00  0.19286475441E+04  0.37196595741E+04  0.31805952269E+04 0.  0.
        2    1    3    3  502    0 -0.10508066805E+04 -0.11045731784E+04  0.43511398783E+03  0.15854339370E+04  0.25500000920E-02 0.  1.
       -2    1    3    3    0  502  0.10508066805E+04  0.11045731784E+04  0.14935335562E+04  0.21342256370E+04  0.25500000920E-02 0. -1.
</event>
<event>
 5   0  0.1685793E-06  0.3723245E+04  0.7818609E-02  0.8062830E-01
        2   -1    0    0  501    0  0.00000000000E+00  0.00000000000E+00  0.23449116988E+04  0.23449116988E+04  0.25500000920E-02 0.  1.
       -2   -1    0    0    0  501  0.00000000000E+00  0.00000000000E+00 -0.14779395808E+04  0.14779395808E+04  0.25500000920E-02 0. -1.
    10030    2    1    2    0    0  0.00000000000E+00  0.00000000000E+00  0.86697211797E+03  0.38228512796E+04  0.37232447210E+04 0.  0.
        3    1    3    3  502    0  0.95789837027E+02  0.61346047909E+03 -0.13684950247E+04  0.15027601589E+04  0.10100000352E+00 0. -1.
       -3    1    3    3    0  502 -0.95789837027E+02 -0.61346047909E+03  0.22354671427E+04  0.23200911207E+04  0.10100000352E+00 0.  1.
</event>
<event>
 5   0  0.6287345E-07  0.3714545E+04  0.7818609E-02  0.8064746E-01
        1   -1    0    0  501    0  0.00000000000E+00  0.00000000000E+00  0.12488227712E+04  0.12488227712E+04  0.50400001928E-02 0.  1.
       -1   -1    0    0    0  501  0.00000000000E+00  0.00000000000E+00 -0.27621705097E+04  0.27621705098E+04  0.50400001928E-02 0. -1.
    10030    2    1    2    0    0  0.00000000000E+00  0.00000000000E+00 -0.15133477386E+04  0.40109932809E+04  0.37145451568E+04 0.  0.
        5    1    3    3  502    0 -0.27350323173E+03  0.95725936188E+03 -0.24496967791E+04  0.26442741732E+04  0.46999998093E+01 0. -1.
       -5    1    3    3    0  502  0.27350323173E+03 -0.95725936188E+03  0.93634904050E+03  0.13667191077E+04  0.46999998093E+01 0.  1.
</event>
<event>
 5   0  0.5679750E-07  0.3716684E+04  0.7818609E-02  0.8064274E-01
       -1   -1    0    0    0  501  0.00000000000E+00  0.00000000000E+00  0.16446153884E+04  0.16446153885E+04  0.50400001928E-02 0. -1.
        1   -1    0    0  501    0  0.00000000000E+00  0.00000000000E+00 -0.20998440332E+04  0.20998440332E+04  0.50400001928E-02 0.  1.
    10030    2    1    2    0    0  0.00000000000E+00  0.00000000000E+00 -0.45522864479E+03  0.37444594217E+04  0.37166844420E+04 0.  0.
        4    1    3    3  502    0 -0.10355315716E+04  0.15419927690E+04 -0.28607261099E+03  0.18793367147E+04  0.12699999809E+01 0. -1.
       -4    1    3    3    0  502  0.10355315716E+04 -0.15419927690E+04 -0.16915603380E+03  0.18651227070E+04  0.12699999809E+01 0.  1.
</event>
<event>
 5   0  0.1680194E-06  0.3702114E+04  0.7818609E-02  0.8067493E-01
       -2   -1    0    0    0  501  0.00000000000E+00  0.00000000000E+00  0.27350236447E+04  0.27350236447E+04  0.25500000920E-02 0.  1.
        2   -1    0    0  501    0  0.00000000000E+00  0.00000000000E+00 -0.12527906480E+04  0.12527906480E+04  0.25500000920E-02 0. -1.
    10030    2    1    2    0    0  0.00000000000E+00  0.00000000000E+00  0.14822329967E+04  0.39878142926E+04  0.37021140144E+04 0.  0.
        2    1    3    3  502    0  0.16272596867E+04  0.42522190402E+03 -0.91604000627E+02  0.16843927833E+04  0.25500000920E-02 0. -1.
       -2    1    3    3    0  502 -0.16272596867E+04 -0.42522190402E+03  0.15738369973E+04  0.23034215093E+04  0.25500000920E-02 0.  1.
</event>
<event>
 5   0  0.5875011E-07  0.3710161E+04  0.7818609E-02  0.8065714E-01
        1   -1    0    0  501    0  0.00000000000E+00  0.00000000000E+00  0.25874936254E+04  0.25874936254E+04  0.50400001928E-02 0.  1.
       -1   -1    0    0    0  501  0.00000000000E+00  0.00000000000E+00 -0.13299833805E+04  0.13299833805E+04  0.50400001928E-02 0. -1.
    10030    2    1    2    0    0  0.00000000000E+00  0.00000000000E+00  0.12575102449E+04  0.39174770059E+04  0.37101609232E+04 0.  0.
        2    1    3    3  502    0  0.13668835827E+04 -0.32705781436E+03 -0.64967977479E+03  0.15483608598E+04  0.25500000920E-02 0. -1.
       -2    1    3    3    0  502 -0.13668835827E+04  0.32705781436E+03  0.19071900197E+04  0.23691161461E+04  0.25500000920E-02 0.  1.
</event>
<event>
 5   0  0.5679750E-07  0.3207453E+04  0.7818609E-02  0.8186852E-01
       -1   -1    0    0    0  501  0.00000000000E+00  0.00000000000E+00  0.98039428405E+03  0.98039428407E+03  0.50400001928E-02 0.  1.
        1   -1    0    0  501    0  0.00000000000E+00  0.00000000000E+00 -0.26233723016E+04  0.26233723016E+04  0.50400001928E-02 0. -1.
    10030    2    1    2    0    0  0.00000000000E+00  0.00000000000E+00 -0.16429780175E+04  0.36037665856E+04  0.32074533259E+04 0.  0.
        4    1    3    3  502    0 -0.11411143701E+04 -0.19728496055E+03  0.42504218038E+03  0.12335825183E+04  0.12699999809E+01 0.  1.
       -4    1    3    3    0  502  0.11411143701E+04  0.19728496055E+03 -0.20680201979E+04  0.23701840674E+04  0.12699999809E+01 0. -1.
</event>
<event>
 5   0  0.1151180E-06  0.4042188E+04  0.7818609E-02  0.7996090E-01
       -2   -1    0    0    0  501  0.00000000000E+00  0.00000000000E+00  0.17954075115E+04  0.17954075115E+04  0.25500000920E-02 0.  1.
        2   -1    0    0  501    0  0.00000000000E+00  0.00000000000E+00 -0.22751492350E+04  0.22751492350E+04  0.25500000920E-02 0. -1.
    10030    2    1    2    0    0  0.00000000000E+00  0.00000000000E+00 -0.47974172346E+03  0.40705567465E+04  0.40421875396E+04 0.  0.
        5    1    3    3  502    0  0.15193650165E+04 -0.10871688462E+04  0.53650809034E+03  0.19437770382E+04  0.46999998093E+01 0.  1.
       -5    1    3    3    0  502 -0.15193650165E+04  0.10871688462E+04 -0.10162498138E+04  0.21267797082E+04  0.46999998093E+01 0. -1.
</event>
<event>
 5   0  0.6261598E-07  0.2131692E+04  0.7818609E-02  0.8547410E-01
        1   -1    0    0  501    0  0.00000000000E+00  0.00000000000E+00  0.17687494716E+04  0.17687494716E+04  0.50400001928E-02 0.  1.
       -1   -1    0    0    0  501  0.00000000000E+00  0.00000000000E+00 -0.64227717177E+03  0.64227717179E+03  0.50400001928E-02 0. -1.
    10030    2    1    2    0    0  0.00000000000E+00  0.00000000000E+00  0.11264722998E+04  0.24110266434E+04  0.21316917303E+04 0.  0.
        1    1    3    3  502    0  0.42462100180E+03 -0.20282530286E+03 -0.51842182672E+03  0.70014447730E+03  0.50400001928E-02 0. -1.
       -1    1    3    3    0  502 -0.42462100180E+03  0.20282530286E+03  0.16448941266E+04  0.17108821661E+04  0.50400001928E-02 0.  1.
</event>
<event>
 5   0  0.1184684E-06  0.3688868E+04  0.7818609E-02  0.8070433E-01
       -2   -1    0    0    0  501  0.00000000000E+00  0.00000000000E+00  0.19535572446E+04  0.19535572446E+04  0.25500000920E-02 0.  1.
        2   -1    0    0  501    0  0.00000000000E+00  0.00000000000E+00 -0.17414066595E+04  0.17414066595E+04  0.25500000920E-02 0. -1.
    10030    2    1    2    0    0  0.00000000000E+00  0.00000000000E+00  0.21215058506E+03  0.36949639041E+04  0.36888684419E+04 0.  0.
        4    1    3    3  502    0 -0.35971924464E+02  0.18115025721E+04 -0.23960427188E+03  0.18276343639E+04  0.12699999809E+01 0. -1.
       -4    1    3    3    0  502  0.35971924464E+02 -0.18115025721E+04  0.45175485694E+03  0.18673295402E+04  0.12699999809E+01 0.  1.
</event>
<event>
 5   0  0.1184684E-06  0.2660603E+04  0.7818609E-02  0.8347902E-01
       -2   -1    0    0    0  501  0.00000000000E+00  0.00000000000E+00  0.12596885932E+04  0.12596885932E+04  0.25500000920E-02 0. -1.
        2   -1    0    0  501    0  0.00000000000E+00  0.00000000000E+00 -0.14048730720E+04  0.14048730720E+04  0.25500000920E-02 0.  1.
    10030    2    1    2    0    0  0.00000000000E+00  0.00000000000E+00 -0.14518447880E+03  0.26645616651E+04  0.26606033779E+04 0.  0.
        4    1    3    3  502    0  0.38970976236E+02 -0.32130150440E+03  0.12196559109E+04  0.12618698616E+04  0.12699999809E+01 0. -1.
       -4    1    3    3    0  502 -0.38970976236E+02  0.32130150440E+03 -0.13648403897E+04  0.14026918036E+04  0.12699999809E+01 0.  1.
</event>
<event>
 5   0  0.1151180E-06  0.3813266E+04  0.7818609E-02  0.8043314E-01
       -2   -1    0    0    0  501  0.00000000000E+00  0.00000000000E+00  0.12403030626E+04  0.12403030626E+04  0.25500000920E-02 0.  1.
        2   -1    0    0  501    0  0.00000000000E+00  0.00000000000E+00 -0.29309367488E+04  0.29309367488E+04  0.25500000920E-02 0. -1.
    10030    2    1    2    0    0  0.00000000000E+00  0.00000000000E+00 -0.16906336862E+04  0.41712398114E+04  0.38132662251E+04 0.  0.
        5    1    3    3  502    0 -0.12829265775E+04  0.41080693842E+03 -0.23212649960E+04  0.26838323747E+04  0.46999998093E+01 0. -1.
       -5    1    3    3    0  502  0.12829265775E+04 -0.41080693842E+03  0.63063130973E+03  0.14874074367E+04  0.46999998093E+01 0.  1.
</event>
<event>
 5   0  0.1184684E-06  0.2411805E+04  0.7818609E-02  0.8435097E-01
        2   -1    0    0  501    0  0.00000000000E+00  0.00000000000E+00  0.17938795573E+04  0.17938795573E+04  0.25500000920E-02 0. -1.
       -2   -1    0    0    0  501  0.00000000000E+00  0.00000000000E+00 -0.81064546952E+03  0.81064546953E+03  0.25500000920E-02 0.  1.
    10030    2    1    2    0    0  0.00000000000E+00  0.00000000000E+00  0.98323408774E+03  0.26045250268E+04  0.24118045824E+04 0.  0.
        4    1    3    3  502    0 -0.10578420721E+04  0.47054949753E+03  0.12739517096E+03  0.11647651358E+04  0.12699999809E+01 0.  1.
       -4    1    3    3    0  502  0.10578420721E+04 -0.47054949753E+03  0.85583891678E+03  0.14397598909E+04  0.12699999809E+01 0. -1.
</event>
<event>
 5   0  0.1184684E-06  0.3510136E+04  0.7818609E-02  0.8111392E-01
        2   -1    0    0  501    0  0.00000000000E+00  0.00000000000E+00  0.22358687774E+04  0.22358687774E+04  0.25500000920E-02 0. -1.
       -2   -1    0    0    0  501  0.00000000000E+00  0.00000000000E+00 -0.13776582731E+04  0.13776582731E+04  0.25500000920E-02 0.  1.
    10030    2    1    2    0    0  0.00000000000E+00  0.00000000000E+00  0.85821050432E+03  0.36135270505E+04  0.35101356775E+04 0.  0.
        4    1    3    3  502    0  0.25121683437E+03 -0.17100427049E+04  0.11532309197E+03  0.17322404506E+04  0.12699999809E+01 0.  1.
       -4    1    3    3    0  502 -0.25121683437E+03  0.17100427049E+04  0.74288741235E+03  0.18812865998E+04  0.12699999809E+01 0. -1.
</event>
<event>
 5   0  0.6287345E-07  0.2311049E+04  0.7818609E-02  0.8473577E-01
        1   -1    0    0  501    0  0.00000000000E+00  0.00000000000E+00  0.14579359024E+04  0.14579359024E+04  0.50400001928E-02 0.  1.
       -1   -1    0    0    0  501  0.00000000000E+00  0.00000000000E+00 -0.91584065221E+03  0.91584065222E+03  0.50400001928E-02 0. -1.
    10030    2    1    2    0    0  0.00000000000E+00  0.00000000000E+00  0.54209525019E+03  0.23737765546E+04  0.23110490845E+04 0.  0.
        5    1    3    3  502    0 -0.11048269249E+04 -0.55722190319E+02 -0.71881653454E+02  0.11085741105E+04  0.46999998093E+01 0. -1.
       -5    1    3    3    0  502  0.11048269249E+04  0.55722190319E+02  0.61397690365E+03  0.12652024441E+04  0.46999998093E+01 0.  1.
</event>
<event>
 5   0  0.1184684E-06  0.2344815E+04  0.7818609E-02  0.8460458E-01
        2   -1    0    0  501    0  0.00000000000E+00  0.00000000000E+00  0.11680727962E+04  0.11680727962E+04  0.25500000920E-02 0. -1.
       -2   -1    0    0    0  501  0.00000000000E+00  0.00000000000E+00 -0.11767579783E+04  0.11767579783E+04  0.25500000920E-02 0.  1.
    10030    2    1    2    0    0  0.00000000000E+00  0.00000000000E+00 -0.86851820916E+01  0.23448307745E+04  0.23448146896E+04 0.  0.
        4    1    3    3  502    0  0.25724592735E+03  0.28837887035E+02 -0.11478233373E+04  0.11766508053E+04  0.12699999809E+01 0.  1.
       -4    1    3    3    0  502 -0.25724592735E+03 -0.28837887035E+02  0.11391381553E+04  0.11681799692E+04  0.12699999809E+01 0. -1.
</event>
<event>
 5   0  0.6261598E-07  0.2899629E+04  0.7818609E-02  0.8272988E-01
       -1   -1    0    0    0  501  0.00000000000E+00  0.00000000000E+00  0.16765298511E+04  0.16765298511E+04  0.50400001928E-02 0. -1.
        1   -1    0    0  501    0  0.00000000000E+00  0.00000000000E+00 -0.12537576344E+04  0.12537576344E+04  0.50400001928E-02 0.  1.
    10030    2    1    2    0    0  0.00000000000E+00  0.00000000000E+00  0.42277221669E+03  0.29302874855E+04  0.28996290108E+04 0.  0.
        1    1    3    3  502    0  0.13464782780E+03  0.11071770150E+04  0.11474579702E+04  0.16001971046E+04  0.50400001928E-02 0. -1.
       -1    1    3    3    0  502 -0.13464782780E+03 -0.11071770150E+04 -0.72468575351E+03  0.13300903809E+04  0.50400001928E-02 0.  1.
</event>
<event>
 5   0  0.1151180E-06  0.3658306E+04  0.7818609E-02  0.8077265E-01
        2   -1    0    0  501    0  0.00000000000E+00  0.00000000000E+00  0.10611948274E+04  0.10611948274E+04  0.25500000920E-02 0. -1.
       -2   -1    0    0    0  501  0.00000000000E+00  0.00000000000E+00 -0.31528627147E+04  0.31528627147E+04  0.25500000920E-02 0.  1.
    10030    2    1    2    0    0  0.00000000000E+00  0.00000000000E+00 -0.20916678873E+04  0.42140575421E+04  0.36583064958E+04 0.  0.
        5    1    3    3  502    0  0.16739935531E+04 -0.10697891683E+03 -0.18860850435E+04  0.25240914773E+04  0.46999998093E+01 0.  1.
       -5    1    3    3    0  502 -0.16739935531E+04  0.10697891683E+03 -0.20558284381E+03  0.16899660648E+04  0.46999998093E+01 0. -1.
</event>
<event>
 5   0  0.6261598E-07  0.3665398E+04  0.7818609E-02  0.8075674E-01
       -1   -1    0    0    0  501  0.00000000000E+00  0.00000000000E+00  0.12307453848E+04  0.12307453848E+04  0.50400001928E-02 0. -1.
        1   -1    0    0  501    0  0.00000000000E+00  0.00000000000E+00 -0.27290658193E+04  0.27290658193E+04  0.50400001928E-02 0.  1.
    10030    2    1    2    0    0  0.00000000000E+00  0.00000000000E+00 -0.14983204345E+04  0.39598112041E+04  0.36653977476E+04 0.  0.
        1    1    3    3  502    0  0.79927176380E+03 -0.16070527085E+04 -0.11495088021E+04  0.21313902145E+04  0.50400001928E-02 0.  1.
       -1    1    3    3    0  502 -0.79927176380E+03  0.16070527085E+04 -0.34881163237E+03  0.18284209896E+04  0.50400001928E-02 0. -1.
</event>
<event>
 5   0  0.6261598E-07  0.2151802E+04  0.7818609E-02  0.8538761E-01
        1   -1    0    0  501    0  0.00000000000E+00  0.00000000000E+00  0.13925372099E+04  0.13925372099E+04  0.50400001928E-02 0. -1.
       -1   -1    0    0    0  501  0.00000000000E+00  0.00000000000E+00 -0.83126200831E+03  0.83126200833E+03  0.50400001928E-02 0.  1.
    10030    2    1    2    0    0  0.00000000000E+00  0.00000000000E+00  0.56127520155E+03  0.22237992182E+04  0.21518022937E+04 0.  0.
        1    1    3    3  502    0  0.29679266847E+03  0.10427697929E+03 -0.78267243082E+03  0.84352576158E+03  0.50400001928E-02 0.  1.
       -1    1    3    3    0  502 -0.29679266847E+03 -0.10427697929E+03  0.13439476324E+04  0.13802734566E+04  0.50400001928E-02 0. -1.
</event>
<event>
 5   0  0.1685793E-06  0.2100333E+04  0.7818609E-02  0.8561097E-01
       -2   -1    0    0    0  501  0.00000000000E+00  0.00000000000E+00  0.46819654683E+03  0.46819654683E+03  0.25500000920E-02 0.  1.
        2   -1    0    0  501    0  0.00000000000E+00  0.00000000000E+00 -0.23555274716E+04  0.23555274716E+04  0.25500000920E-02 0. -1.
    10030    2    1    2    0    0  0.00000000000E+00  0.00000000000E+00 -0.18873309248E+04  0.28237240184E+04  0.21003331433E+04 0.  0.
        3    1    3    3  502    0  0.82373883646E+03  0.18418560204E+03 -0.10366845810E+03  0.85042175778E+03  0.10100000352E+00 0.  1.
       -3    1    3    3    0  502 -0.82373883646E+03 -0.18418560204E+03 -0.17836624667E+04  0.19733022607E+04  0.10100000352E+00 0. -1.
</event>
<event>
 5   0  0.6287345E-07  0.2191900E+04  0.7818609E-02  0.8521807E-01
       -1   -1    0    0    0  501  0.00000000000E+00  0.00000000000E+00  0.86911743842E+03  0.86911743843E+03  0.50400001928E-02 0. -1.
        1   -1    0    0  501    0  0.00000000000E+00  0.00000000000E+00 -0.13819839299E+04  0.13819839299E+04  0.50400001928E-02 0.  1.
    10030    2    1    2    0    0  0.00000000000E+00  0.00000000000E+00 -0.51286649149E+03  0.22511013683E+04  0.21918999367E+04 0.  0.
        5    1    3    3  502    0  0.28919866227E+03  0.10562229962E+04 -0.21236319129E+03  0.11155102415E+04  0.46999998093E+01 0. -1.
       -5    1    3    3    0  502 -0.28919866227E+03 -0.10562229962E+04 -0.30050330020E+03  0.11355911268E+04  0.46999998093E+01 0.  1.
</event>
<event>
 5   0  0.5679750E-07  0.3468388E+04  0.7818609E-02  0.8121323E-01
        1   -1    0    0  501    0  0.00000000000E+00  0.00000000000E+00  0.16814616390E+04  0.16814616390E+04  0.50400001928E-02 0.  1.
       -1   -1    0    0    0  501  0.00000000000E+00  0.00000000000E+00 -0.17885802664E+04  0.17885802664E+04  0.50400001928E-02 0. -1.
    10030    2    1    2    0    0  0.00000000000E+00  0.00000000000E+00 -0.10711862745E+03  0.34700419054E+04  0.34683881595E+04 0.  0.
        4    1    3    3  502    0  0.38243675873E+03 -0.22121192760E+03  0.16242122197E+04  0.16832289027E+04  0.12699999809E+01 0.  1.
       -4    1    3    3    0  502 -0.38243675873E+03  0.22121192760E+03 -0.17313308472E+04  0.17868130027E+04  0.12699999809E+01 0. -1.
</event>
<event>
 5   0  0.5875011E-07  0.3636873E+04  0.7818609E-02  0.8082097E-01
        1   -1    0    0  501    0  0.00000000000E+00  0.00000000000E+00  0.15511243766E+04  0.15511243766E+04  0.50400001928E-02 0. -1.
       -1   -1    0    0    0  501  0.00000000000E+00  0.00000000000E+00 -0.21318151884E+04  0.21318151884E+04  0.50400001928E-02 0.  1.
    10030    2    1    2    0    0  0.00000000000E+00  0.00000000000E+00 -0.58069081181E+03  0.36829395650E+04  0.36368725604E+04 0.  0.
        2    1    3    3  502    0 -0.88953618375E+02  0.12491593750E+04 -0.16255296316E+04  0.20519889068E+04  0.25500000920E-02 0.  1.
       -2    1    3    3    0  502  0.88953618375E+02 -0.12491593750E+04  0.10448388198E+04  0.16309506582E+04  0.25500000920E-02 0. -1.
</event>
<event>
 5   0  0.6186440E-07  0.3473579E+04  0.7818609E-02  0.8120080E-01
       -1   -1    0    0    0  501  0.00000000000E+00  0.00000000000E+00  0.12141960728E+04  0.12141960728E+04  0.50400001928E-02 0.  1.
        1   -1    0    0  501    0  0.00000000000E+00  0.00000000000E+00 -0.24843090200E+04  0.24843090200E+04  0.50400001928E-02 0. -1.
    10030    2    1    2    0    0  0.00000000000E+00  0.00000000000E+00 -0.12701129472E+04  0.36985050927E+04  0.34735792811E+04 0.  0.
        3    1    3    3  502    0 -0.13206857527E+04 -0.23096005579E+03 -0.18105773418E+04  0.22529411278E+04  0.10100000352E+00 0.  1.
       -3    1    3    3    0  502  0.13206857527E+04  0.23096005579E+03  0.54046439456E+03  0.14455639649E+04  0.10100000352E+00 0. -1.
</event>
<event>
 5   0  0.6287345E-07  0.3592061E+04  0.7818609E-02  0.8092313E-01
       -1   -1    0    0    0  501  0.00000000000E+00  0.00000000000E+00  0.15787913704E+04  0.15787913704E+04  0.50400001928E-02 0. -1.
        1   -1    0    0  501    0  0.00000000000E+00  0.00000000000E+00 -0.20431609847E+04  0.20431609847E+04  0.50400001928E-02 0.  1.
    10030    2    1    2    0    0  0.00000000000E+00  0.00000000000E+00 -0.46436961425E+03  0.36219523551E+04  0.35920606515E+04 0.  0.
        5    1    3    3  502    0 -0.12308935079E+04  0.12712921456E+04 -0.54202071319E+03  0.18507001623E+04  0.46999998093E+01 0. -1.
       -5    1    3    3    0  502  0.12308935079E+04 -0.12712921456E+04  0.77651098944E+02  0.17712521928E+04  0.46999998093E+01 0.  1.
</event>
<event>
 5   0  0.5875011E-07  0.1880635E+04  0.7818609E-02  0.8664556E-01
        1   -1    0    0  501    0  0.00000000000E+00  0.00000000000E+00  0.63176666896E+03  0.63176666898E+03  0.50400001928E-02 0. -1.
       -1   -1    0    0    0  501  0.00000000000E+00  0.00000000000E+00 -0.13995620657E+04  0.13995620657E+04  0.50400001928E-02 0.  1.
    10030    2    1    2    0    0  0.00000000000E+00  0.00000000000E+00 -0.76779539671E+03  0.20313287347E+04  0.18806346421E+04 0.  0.
        2    1    3    3  502    0 -0.38395104574E+03 -0.91946360056E+02 -0.13057007219E+04  0.13640846432E+04  0.25500000920E-02 0.  1.
       -2    1    3    3    0  502  0.38395104574E+03  0.91946360056E+02  0.53790532521E+03  0.66724409143E+03  0.25500000920E-02 0. -1.
</event>
<event>
 5   0  0.5679750E-07  0.1977119E+04  0.7818609E-02  0.8617394E-01
        1   -1    0    0  501    0  0.00000000000E+00  0.00000000000E+00  0.48321970371E+03  0.48321970374E+03  0.50400001928E-02 0. -1.
       -1   -1    0    0    0  501  0.00000000000E+00  0.00000000000E+00 -0.20223713718E+04  0.20223713718E+04  0.50400001928E-02 0.  1.
    10030    2    1    2    0    0  0.00000000000E+00  0.00000000000E+00 -0.15391516681E+04  0.25055910756E+04  0.19771188079E+04 0.  0.
        4    1    3    3  502    0  0.44156107997E+03 -0.55162840574E+03 -0.16457317111E+04  0.17910065782E+04  0.12699999809E+01 0.  1.
       -4    1    3    3    0  502 -0.44156107997E+03  0.55162840574E+03  0.10658004300E+03  0.71458449734E+03  0.12699999809E+01 0. -1.
</event>
<event>
 5   0  0.1184684E-06  0.3533070E+04  0.7818609E-02  0.8105997E-01
       -2   -1    0    0    0  501  0.00000000000E+00  0.00000000000E+00  0.25410444130E+04  0.25410444130E+04  0.25500000920E-02 0. -1.
        2   -1    0    0  501    0  0.00000000000E+00  0.00000000000E+00 -0.12280960361E+04  0.12280960361E+04  0.25500000920E-02 0.  1.
    10030    2    1    2    0    0  0.00000000000E+00  0.00000000000E+00  0.13129483768E+04  0.37691404491E+04  0.35330703764E+04 0.  0.
        4    1    3    3  502    0  0.14798136142E+03 -0.16805705054E+04  0.12153370279E+04  0.20792453946E+04  0.12699999809E+01 0. -1.
       -4    1    3    3    0  502 -0.14798136142E+03  0.16805705054E+04  0.97611348952E+02  0.16898950545E+04  0.12699999809E+01 0.  1.
</event>
<event>
 5   0  0.5875011E-07  0.2520356E+04  0.7818609E-02  0.8395769E-01
        1   -1    0    0  501    0  0.00000000000E+00  0.00000000000E+00  0.85273804032E+03  0.85273804033E+03  0.50400001928E-02 0. -1.
       -1   -1    0    0    0  501  0.00000000000E+00  0.00000000000E+00 -0.18622942240E+04  0.18622942240E+04  0.50400001928E-02 0.  1.
    10030    2    1    2    0    0  0.00000000000E+00  0.00000000000E+00 -0.10095561837E+04  0.27150322644E+04  0.25203564249E+04 0.  0.
        2    1    3    3  502    0 -0.54626889827E+03 -0.92406366052E+01  0.71852142392E+03  0.90264507710E+03  0.25500000920E-02 0. -1.
       -2    1    3    3    0  502  0.54626889827E+03  0.92406366052E+01 -0.17280776076E+04  0.18123871873E+04  0.25500000920E-02 0.  1.
</event>
<event>
 5   0  0.5679750E-07  0.2539279E+04  0.7818609E-02  0.8389124E-01
        1   -1    0    0  501    0  0.00000000000E+00  0.00000000000E+00  0.18214972839E+04  0.18214972839E+04  0.50400001928E-02 0.  1.
       -1   -1    0    0    0  501  0.00000000000E+00  0.00000000000E+00 -0.88497746616E+03  0.88497746617E+03  0.50400001928E-02 0. -1.
    10030    2    1    2    0    0  0.00000000000E+00  0.00000000000E+00  0.93651981775E+03  0.27064747501E+04  0.25392786779E+04 0.  0.
        4    1    3    3  502    0 -0.11632801467E+04  0.16399211130E+03  0.98149261800E+03  0.15308309784E+04  0.12699999809E+01 0.  1.
       -4    1    3    3    0  502  0.11632801467E+04 -0.16399211130E+03 -0.44972800248E+02  0.11756437717E+04  0.12699999809E+01 0. -1.
</event>
<event>
 5   0  0.6261598E-07  0.2224756E+04  0.7818609E-02  0.8508194E-01
       -1   -1    0    0    0  501  0.00000000000E+00  0.00000000000E+00  0.90029337987E+03  0.90029337988E+03  0.50400001928E-02 0. -1.
        1   -1    0    0  501    0  0.00000000000E+00  0.00000000000E+00 -0.13744239562E+04  0.13744239562E+04  0.50400001928E-02 0.  1.
    10030    2    1    2    0    0  0.00000000000E+00  0.00000000000E+00 -0.47413057635E+03  0.22747173361E+04  0.22247559767E+04 0.  0.
        1    1    3    3  502    0  0.74850796341E+03  0.28130029894E+03  0.55359930645E+03  0.97255653902E+03  0.50400001928E-02 0. -1.
       -1    1    3    3    0  502 -0.74850796341E+03 -0.28130029894E+03 -0.10277298828E+04  0.13021607971E+04  0.50400001928E-02 0.  1.
</event>
<event>
 5   0  0.6261598E-07  0.3700235E+04  0.7818609E-02  0.8067910E-01
        1   -1    0    0  501    0  0.00000000000E+00  0.00000000000E+00  0.18987362866E+04  0.18987362866E+04  0.50400001928E-02 0.  1.
       -1   -1    0    0    0  501  0.00000000000E+00  0.00000000000E+00 -0.18027434639E+04  0.18027434639E+04  0.50400001928E-02 0. -1.
    10030    2    1    2    0    0  0.00000000000E+00  0.00000000000E+00  0.95992822660E+02  0.37014797505E+04  0.37002348198E+04 0.  0.
        1    1    3    3  502    0  0.10692389454E+04 -0.14722265608E+03 -0.14551694601E+04  0.18117573211E+04  0.50400001928E-02 0. -1.
       -1    1    3    3    0  502 -0.10692389454E+04  0.14722265608E+03  0.15511622828E+04  0.18897224295E+04  0.50400001928E-02 0.  1.
</event>
<event>
 5   0  0.6287345E-07  0.2828375E+04  0.7818609E-02  0.8294513E-01
       -1   -1    0    0    0  501  0.00000000000E+00  0.00000000000E+00  0.12307840168E+04  0.12307840168E+04  0.50400001928E-02 0.  1.
        1   -1    0    0  501    0  0.00000000000E+00  0.00000000000E+00 -0.16249202680E+04  0.16249202680E+04  0.50400001928E-02 0. -1.
    10030    2    1    2    0    0  0.00000000000E+00  0.00000000000E+00 -0.39413625123E+03  0.28557042848E+04  0.28283747237E+04 0.  0.
        5    1    3    3  502    0  0.61595452518E+03  0.20001439440E+03  0.10722581510E+04  0.12526633097E+04  0.46999998093E+01 0.  1.
       -5    1    3    3    0  502 -0.61595452518E+03 -0.20001439440E+03 -0.14663944022E+04  0.16030409751E+04  0.46999998093E+01 0. -1.
</event>
<event>
 5   0  0.1184684E-06  0.3516246E+04  0.7818609E-02  0.8109951E-01
       -2   -1    0    0    0  501  0.00000000000E+00  0.00000000000E+00  0.14044719417E+04  0.14044719417E+04  0.25500000920E-02 0.  1.
        2   -1    0    0  501    0  0.00000000000E+00  0.00000000000E+00 -0.22008249448E+04  0.22008249448E+04  0.25500000920E-02 0. -1.
    10030    2    1    2    0    0  0.00000000000E+00  0.00000000000E+00 -0.79635300312E+03  0.36052968864E+04  0.35162462277E+04 0.  0.
        4    1    3    3  502    0 -0.40017170046E+03 -0.39552318421E+03  0.13096659402E+04  0.14254130864E+04  0.12699999809E+01 0.  1.
       -4    1    3    3    0  502  0.40017170046E+03  0.39552318421E+03 -0.21060189433E+04  0.21798838000E+04  0.12699999809E+01 0. -1.
</event>
<event>
 5   0  0.1151180E-06  0.3527182E+04  0.7818609E-02  0.8107378E-01
       -2   -1    0    0    0  501  0.00000000000E+00  0.00000000000E+00  0.14264107229E+04  0.14264107229E+04  0.25500000920E-02 0.  1.
        2   -1    0    0  501    0  0.00000000000E+00  0.00000000000E+00 -0.21804754138E+04  0.21804754138E+04  0.25500000920E-02 0. -1.
    10030    2    1    2    0    0  0.00000000000E+00  0.00000000000E+00 -0.75406469091E+03  0.36068861367E+04  0.35271821679E+04 0.  0.
        5    1    3    3  502    0  0.10466497577E+04  0.73509740283E+03 -0.16187142860E+04  0.20630322190E+04  0.46999998093E+01 0. -1.
       -5    1    3    3    0  502 -0.10466497577E+04 -0.73509740283E+03  0.86464959512E+03  0.15438539177E+04  0.46999998093E+01 0.  1.
</event>
<event>
 5   0  0.5875011E-07  0.2200058E+04  0.7818609E-02  0.8518404E-01
        1   -1    0    0  501    0  0.00000000000E+00  0.00000000000E+00  0.10492806212E+04  0.10492806212E+04  0.50400001928E-02 0.  1.
       -1   -1    0    0    0  501  0.00000000000E+00  0.00000000000E+00 -0.11532322358E+04  0.11532322358E+04  0.50400001928E-02 0. -1.
    10030    2    1    2    0    0  0.00000000000E+00  0.00000000000E+00 -0.10395161461E+03  0.22025128571E+04  0.22000583964E+04 0.  0.
        2    1    3    3  502    0  0.20326551565E+03 -0.84994332471E+03  0.61685913501E+03  0.10696895426E+04  0.25500000920E-02 0.  1.
       -2    1    3    3    0  502 -0.20326551565E+03  0.84994332471E+03 -0.72081074962E+03  0.11328233145E+04  0.25500000920E-02 0. -1.
</event>
<event>
 5   0  0.1184684E-06  0.3582621E+04  0.7818609E-02  0.8094484E-01
        2   -1    0    0  501    0  0.00000000000E+00  0.00000000000E+00  0.22144819830E+04  0.22144819830E+04  0.25500000920E-02 0.  1.
       -2   -1    0    0    0  501  0.00000000000E+00  0.00000000000E+00 -0.14490039821E+04  0.14490039821E+04  0.25500000920E-02 0. -1.
    10030    2    1    2    0    0  0.00000000000E+00  0.00000000000E+00  0.76547800082E+03  0.36634859651E+04  0.35826209466E+04 0.  0.
        4    1    3    3  502    0  0.17014621998E+04  0.97112714288E+02 -0.18142685006E+03  0.17138616664E+04  0.12699999809E+01 0. -1.
       -4    1    3    3    0  502 -0.17014621998E+04 -0.97112714288E+02  0.94690485088E+03  0.19496242987E+04  0.12699999809E+01 0.  1.
</event>
<event>
 5   0  0.1685793E-06  0.3553240E+04  0.7818609E-02  0.8101287E-01
        2   -1    0    0  501    0  0.00000000000E+00  0.00000000000E+00  0.21222239168E+04  0.21222239168E+04  0.25500000920E-02 0. -1.
       -2   -1    0    0    0  501  0.00000000000E+00  0.00000000000E+00 -0.14872976368E+04  0.14872976368E+04  0.25500000920E-02 0.  1.
    10030    2    1    2    0    0  0.00000000000E+00  0.00000000000E+00  0.63492627993E+03  0.36095215536E+04  0.35532399954E+04 0.  0.
        3    1    3    3  502    0  0.85528462590E+03  0.10431010903E+04  0.14919805039E+04  0.20113621032E+04  0.10100000352E+00 0. -1.
       -3    1    3    3    0  502 -0.85528462590E+03 -0.10431010903E+04 -0.85705422400E+03  0.15981594504E+04  0.10100000352E+00 0.  1.
</event>
<event>
 5   0  0.5875011E-07  0.3862656E+04  0.7818609E-02  0.8032841E-01
       -1   -1    0    0    0  501  0.00000000000E+00  0.00000000000E+00  0.18975795389E+04  0.18975795389E+04  0.50400001928E-02 0. -1.
        1   -1    0    0  501    0  0.00000000000E+00  0.00000000000E+00 -0.19656765403E+04  0.19656765403E+04  0.50400001928E-02 0.  1.
    10030    2    1    2    0    0  0.00000000000E+00  0.00000000000E+00 -0.68097001362E+02  0.38632560792E+04  0.38626558651E+04 0.  0.
        2    1    3    3  502    0  0.92270757708E+03 -0.10910115882E+04  0.12655117179E+04  0.19087208980E+04  0.25500000920E-02 0.  1.
       -2    1    3    3    0  502 -0.92270757708E+03  0.10910115882E+04 -0.13336087193E+04  0.19545351812E+04  0.25500000920E-02 0. -1.
</event>
<event>
 5   0  0.1184684E-06  0.3635540E+04  0.7818609E-02  0.8082399E-01
       -2   -1    0    0    0  501  0.00000000000E+00  0.00000000000E+00  0.28973033741E+04  0.28973033741E+04  0.25500000920E-02 0.  1.
        2   -1    0    0  501    0  0.00000000000E+00  0.00000000000E+00 -0.11404698864E+04  0.11404698864E+04  0.25500000920E-02 0. -1.
    10030    2    1    2    0    0  0.00000000000E+00  0.00000000000E+00  0.17568334877E+04  0.40377732605E+04  0.36355397123E+04 0.  0.
        4    1    3    3  502    0 -0.28420391470E+03 -0.14088936375E+03 -0.11094923134E+04  0.11539482157E+04  0.12699999809E+01 0. -1.
       -4    1    3    3    0  502  0.28420391470E+03  0.14088936375E+03  0.28663258012E+04  0.28838250449E+04  0.12699999809E+01 0.  1.
</event>
<event>
 5   0  0.1685793E-06  0.3702144E+04  0.7818609E-02  0.8067487E-01
       -2   -1    0    0    0  501  0.00000000000E+00  0.00000000000E+00  0.12609054733E+04  0.12609054733E+04  0.25500000920E-02 0.  1.
        2   -1    0    0  501    0  0.00000000000E+00  0.00000000000E+00 -0.27174659917E+04  0.27174659917E+04  0.25500000920E-02 0. -1.
    10030    2    1    2    0    0  0.00000000000E+00  0.00000000000E+00 -0.14565605185E+04  0.39783714650E+04  0.37021441044E+04 0.  0.
        3    1    3    3  502    0  0.85318247044E+03  0.76295718462E+02 -0.24916692428E+04  0.26347973338E+04  0.10100000352E+00 0. -1.
       -3    1    3    3    0  502 -0.85318247044E+03 -0.76295718462E+02  0.10351087244E+04  0.13435741312E+04  0.10100000352E+00 0.  1.
</event>
<event>
 5   0  0.6186440E-07  0.2550148E+04  0.7818609E-02  0.8385335E-01
       -1   -1    0    0    0  501  0.00000000000E+00  0.00000000000E+00  0.85223388956E+03  0.85223388957E+03  0.50400001928E-02 0.  1.
        1   -1    0    0  501    0  0.00000000000E+00  0.00000000000E+00 -0.19077081625E+04  0.19077081625E+04  0.50400001928E-02 0. -1.
    10030    2    1    2    0    0  0.00000000000E+00  0.00000000000E+00 -0.10554742730E+04  0.27599420521E+04  0.25501478761E+04 0.  0.
        3    1    3    3  502    0  0.11689800293E+04 -0.16103183406E+03 -0.49134807814E+01  0.11800295391E+04  0.10100000352E+00 0.  1.
       -3    1    3    3    0  502 -0.11689800293E+04  0.16103183406E+03 -0.10505607922E+04  0.15799125130E+04  0.10100000352E+00 0. -1.
</event>
<event>
 5   0  0.1680194E-06  0.2718432E+04  0.7818609E-02  0.8329049E-01
       -2   -1    0    0    0  501  0.00000000000E+00  0.00000000000E+00  0.10492069170E+04  0.10492069170E+04  0.25500000920E-02 0.  1.
        2   -1    0    0  501    0  0.00000000000E+00  0.00000000000E+00 -0.17608240300E+04  0.17608240300E+04  0.25500000920E-02 0. -1.
    10030    2    1    2    0    0  0.00000000000E+00  0.00000000000E+00 -0.71161711307E+03  0.28100309470E+04  0.27184324541E+04 0.  0.
        2    1    3    3  502    0 -0.79214343962E+03  0.31062631924E+03 -0.14514713965E+04  0.16824830323E+04  0.25500000920E-02 0. -1.
       -2    1    3    3    0  502  0.79214343962E+03 -0.31062631924E+03  0.73985428347E+03  0.11275479147E+04  0.25500000920E-02 0.  1.
</event>
<event>
 5   0  0.6186440E-07  0.3631308E+04  0.7818609E-02  0.8083358E-01
        1   -1    0    0  501    0  0.00000000000E+00  0.00000000000E+00  0.12305946273E+04  0.12305946273E+04  0.50400001928E-02 0.  1.
       -1   -1    0    0    0  501  0.00000000000E+00  0.00000000000E+00 -0.26788664672E+04  0.26788664672E+04  0.50400001928E-02 0. -1.
    10030    2    1    2    0    0  0.00000000000E+00  0.00000000000E+00 -0.14482718399E+04  0.39094610945E+04  0.36313075782E+04 0.  0.
        3    1    3    3  502    0  0.31263112579E+02  0.47665901498E+03  0.11617311760E+04  0.12561053038E+04  0.10100000352E+00 0.  1.
       -3    1    3    3    0  502 -0.31263112579E+02 -0.47665901498E+03 -0.26100030159E+04  0.26533557907E+04  0.10100000352E+00 0. -1.
</event>
<event>
 5   0  0.1680194E-06  0.3741751E+04  0.7818609E-02  0.8058772E-01
       -2   -1    0    0    0  501  0.00000000000E+00  0.00000000000E+00  0.19181651614E+04  0.19181651614E+04  0.25500000920E-02 0. -1.
        2   -1    0    0  501    0  0.00000000000E+00  0.00000000000E+00 -0.18247512986E+04  0.18247512986E+04  0.25500000920E-02 0.  1.
    10030    2    1    2    0    0  0.00000000000E+00  0.00000000000E+00  0.93413862824E+02  0.37429164601E+04  0.37417505899E+04 0.  0.
        2    1    3    3  502    0  0.12076371878E+04  0.55884904881E+03  0.13622115700E+04  0.19042899459E+04  0.25500000920E-02 0. -1.
       -2    1    3    3    0  502 -0.12076371878E+04 -0.55884904881E+03 -0.12687977071E+04  0.18386265141E+04  0.25500000920E-02 0.  1.
</event>
<event>
 5   0  0.6261598E-07  0.2350466E+04  0.7818609E-02  0.8458285E-01
        1   -1    0    0  501    0  0.00000000000E+00  0.00000000000E+00  0.25067399149E+04  0.25067399149E+04  0.50400001928E-02 0.  1.
       -1   -1    0    0    0  501  0.00000000000E+00  0.00000000000E+00 -0.55098354956E+03  0.55098354959E+03  0.50400001928E-02 0. -1.
    10030    2    1    2    0    0  0.00000000000E+00  0.00000000000E+00  0.19557563653E+04  0.30577234645E+04  0.23504658740E+04 0.  0.
        1    1    3    3  502    0  0.89192882591E+03 -0.60291195281E+03  0.15910051363E+04  0.19210250382E+04  0.50400001928E-02 0.  1.
       -1    1    3    3    0  502 -0.89192882591E+03  0.60291195281E+03  0.36475122898E+03  0.11366984263E+04  0.50400001928E-02 0. -1.
</event>
<event>
 5   0  0.1724503E-06  0.3660416E+04  0.7818609E-02  0.8076791E-01
       -2   -1    0    0    0  501  0.00000000000E+00  0.00000000000E+00  0.12008744132E+04  0.12008744132E+04  0.25500000920E-02 0. -1.
        2   -1    0    0  501    0  0.00000000000E+00  0.00000000000E+00 -0.27893520616E+04  0.27893520616E+04  0.25500000920E-02 0.  1.
    10030    2    1    2    0    0  0.00000000000E+00  0.00000000000E+00 -0.15884776484E+04  0.39902264748E+04  0.36604161076E+04 0.  0.
        1    1    3    3  502    0 -0.16085100246E+03  0.12081286556E+04 -0.22826225993E+04  0.25876270644E+04  0.50400001928E-02 0.  1.
       -1    1    3    3    0  502  0.16085100246E+03 -0.12081286556E+04  0.69414495081E+03  0.14025994105E+04  0.50400001928E-02 0. -1.
</event>
<event>
 5   0  0.5875011E-07  0.1913743E+04  0.7818609E-02  0.8648046E-01
       -1   -1    0    0    0  501  0.00000000000E+00  0.00000000000E+00  0.53650231514E+03  0.53650231516E+03  0.50400001928E-02 0.  1.
        1   -1    0    0  501    0  0.00000000000E+00  0.00000000000E+00 -0.17066158377E+04  0.17066158377E+04  0.50400001928E-02 0. -1.
    10030    2    1    2    0    0  0.00000000000E+00  0.00000000000E+00 -0.11701135225E+04  0.22431181528E+04  0.19137432931E+04 0.  0.
        2    1    3    3  502    0  0.21654863646E+03 -0.85892207381E+03 -0.10092293716E+04  0.13428270050E+04  0.25500000920E-02 0. -1.
       -2    1    3    3    0  502 -0.21654863646E+03  0.85892207381E+03 -0.16088415090E+03  0.90029114782E+03  0.25500000920E-02 0.  1.
</event>
<event>
 5   0  0.5679750E-07  0.2295361E+04  0.7818609E-02  0.8479752E-01
       -1   -1    0    0    0  501  0.00000000000E+00  0.00000000000E+00  0.98785552806E+03  0.98785552807E+03  0.50400001928E-02 0. -1.
        1   -1    0    0  501    0  0.00000000000E+00  0.00000000000E+00 -0.13333638206E+04  0.13333638206E+04  0.50400001928E-02 0.  1.
    10030    2    1    2    0    0  0.00000000000E+00  0.00000000000E+00 -0.34550829250E+03  0.23212193486E+04  0.22953612536E+04 0.  0.
        4    1    3    3  502    0 -0.14453856734E+03 -0.25203257102E+03 -0.12955581269E+04  0.13277365279E+04  0.12699999809E+01 0.  1.
       -4    1    3    3    0  502  0.14453856734E+03  0.25203257102E+03  0.95004983444E+03  0.99348282075E+03  0.12699999809E+01 0. -1.
</event>
<event>
 5   0  0.1680194E-06  0.3659510E+04  0.7818609E-02  0.8076995E-01
        2   -1    0    0  501    0  0.00000000000E+00  0.00000000000E+00  0.15332815864E+04  0.15332815864E+04  0.25500000920E-02 0. -1.
       -2   -1    0    0    0  501  0.00000000000E+00  0.00000000000E+00 -0.21835538590E+04  0.21835538590E+04  0.25500000920E-02 0.  1.
    10030    2    1    2    0    0  0.00000000000E+00  0.00000000000E+00 -0.65027227258E+03  0.37168354454E+04  0.36595097622E+04 0.  0.
        2    1    3    3  502    0  0.12219304871E+04 -0.56087969075E+03 -0.15856669718E+04  0.20789516320E+04  0.25500000920E-02 0.  1.
       -2    1    3    3    0  502 -0.12219304871E+04  0.56087969075E+03  0.93539469922E+03  0.16378838134E+04  0.25500000920E-02 0. -1.
</event>
<event>
 5   0  0.6261598E-07  0.1929465E+04  0.7818609E-02  0.8640327E-01
        1   -1    0    0  501    0  0.00000000000E+00  0.00000000000E+00  0.10963065773E+04  0.10963065773E+04  0.50400001928E-02 0.  1.
       -1   -1    0    0    0  501  0.00000000000E+00  0.00000000000E+00 -0.84894981848E+03  0.84894981850E+03  0.50400001928E-02 0. -1.
    10030    2    1    2    0    0  0.00000000000E+00  0.00000000000E+00  0.24735675879E+03  0.19452563958E+04  0.19294654905E+04 0.  0.
        1    1    3    3  502    0 -0.50980782012E+03  0.63330780611E+03  0.64728077888E+03  0.10392089287E+04  0.50400001928E-02 0.  1.
       -1    1    3    3    0  502  0.50980782012E+03 -0.63330780611E+03 -0.39992402009E+03  0.90604746709E+03  0.50400001928E-02 0. -1.
</event>
<event>
 5   0  0.1184684E-06  0.3467308E+04  0.7818609E-02  0.8121581E-01
        2   -1    0    0  501    0  0.00000000000E+00  0.00000000000E+00  0.16545267623E+04  0.16545267623E+04  0.25500000920E-02 0.  1.
       -2   -1    0    0    0  501  0.00000000000E+00  0.00000000000E+00 -0.18165658579E+04  0.18165658579E+04  0.25500000920E-02 0. -1.
    10030    2    1    2    0    0  0.00000000000E+00  0.00000000000E+00 -0.16203909568E+03  0.34710926202E+04  0.34673083666E+04 0.  0.
        4    1    3    3  502    0  0.15205593800E+04 -0.73271471756E+03 -0.47715779292E+03  0.17540390125E+04  0.12699999809E+01 0.  1.
       -4    1    3    3    0  502 -0.15205593800E+04  0.73271471756E+03  0.31511869724E+03  0.17170536076E+04  0.12699999809E+01 0. -1.
</event>
<event>
 5   0  0.1724503E-06  0.3647190E+04  0.7818609E-02  0.8079767E-01
        2   -1    0    0  501    0  0.00000000000E+00  0.00000000000E+00  0.21908759777E+04  0.21908759777E+04  0.25500000920E-02 0. -1.
       -2   -1    0    0    0  501  0.00000000000E+00  0.00000000000E+00 -0.15178856046E+04  0.15178856046E+04  0.25500000920E-02 0.  1.
    10030    2    1    2    0    0  0.00000000000E+00  0.00000000000E+00  0.67299037303E+03  0.37087615823E+04  0.36471902106E+04 0.  0.
        1    1    3    3  502    0 -0.45221027171E+03 -0.13802504345E+04  0.14577953382E+04  0.20578514621E+04  0.50400001928E-02 0. -1.
       -1    1    3    3    0  502  0.45221027171E+03  0.13802504345E+04 -0.78480496521E+03  0.16509101202E+04  0.50400001928E-02 0.  1.
</event>
<event>
 5   0  0.1151180E-06  0.3605620E+04  0.7818609E-02  0.8089206E-01
        2   -1    0    0  501    0  0.00000000000E+00  0.00000000000E+00  0.20224341826E+04  0.20224341826E+04  0.25500000920E-02 0.  1.
       -2   -1    0    0    0  501  0.00000000000E+00  0.00000000000E+00 -0.16070356621E+04  0.16070356621E+04  0.25500000920E-02 0. -1.
    10030    2    1    2    0    0  0.00000000000E+00  0.00000000000E+00  0.41539852051E+03  0.36294698447E+04  0.36056199776E+04 0.  0.
        5    1    3    3  502    0 -0.23815568998E+03 -0.63913070194E+03  0.18875384115E+04  0.20069951499E+04  0.46999998093E+01 0.  1.
       -5    1    3    3    0  502  0.23815568998E+03  0.63913070194E+03 -0.14721398910E+04  0.16224746948E+04  0.46999998093E+01 0. -1.
</event>
<event>
 5   0  0.5875011E-07  0.2446060E+04  0.7818609E-02  0.8422458E-01
        1   -1    0    0  501    0  0.00000000000E+00  0.00000000000E+00  0.20684559024E+04  0.20684559024E+04  0.50400001928E-02 0. -1.
       -1   -1    0    0    0  501  0.00000000000E+00  0.00000000000E+00 -0.72314947764E+03  0.72314947766E+03  0.50400001928E-02 0.  1.
    10030    2    1    2    0    0  0.00000000000E+00  0.00000000000E+00  0.13453064247E+04  0.27916053800E+04  0.24460603471E+04 0.  0.
        2    1    3    3  502    0  0.93298669792E+03 -0.78622317482E+03  0.57586910778E+03  0.13491613278E+04  0.25500000920E-02 0. -1.
       -2    1    3    3    0  502 -0.93298669792E+03  0.78622317482E+03  0.76943731694E+03  0.14424440522E+04  0.25500000920E-02 0.  1.
</event>
<event>
 5   0  0.6261598E-07  0.2667556E+04  0.7818609E-02  0.8345609E-01
        1   -1    0    0  501    0  0.00000000000E+00  0.00000000000E+00  0.13891147081E+04  0.13891147081E+04  0.50400001928E-02 0.  1.
       -1   -1    0    0    0  501  0.00000000000E+00  0.00000000000E+00 -0.12806460560E+04  0.12806460560E+04  0.50400001928E-02 0. -1.
    10030    2    1    2    0    0  0.00000000000E+00  0.00000000000E+00  0.10846865209E+03  0.26697607641E+04  0.26675563891E+04 0.  0.
        1    1    3    3  502    0  0.28018831164E+03 -0.12538048420E+04 -0.30443620774E+03  0.13203080990E+04  0.50400001928E-02 0. -1.
       -1    1    3    3    0  502 -0.28018831164E+03  0.12538048420E+04  0.41290485983E+03  0.13494526650E+04  0.50400001928E-02 0.  1.
</event>
<event>
 5   0  0.6186440E-07  0.3656431E+04  0.7818609E-02  0.8077686E-01
        1   -1    0    0  501    0  0.00000000000E+00  0.00000000000E+00  0.23386639281E+04  0.23386639281E+04  0.50400001928E-02 0. -1.
       -1   -1    0    0    0  501  0.00000000000E+00  0.00000000000E+00 -0.14291801305E+04  0.14291801305E+04  0.50400001928E-02 0.  1.
    10030    2    1    2    0    0  0.00000000000E+00  0.00000000000E+00  0.90948379754E+03  0.37678440586E+04  0.36564310566E+04 0.  0.
        3    1    3    3  502    0 -0.13418790801E+04 -0.39490446751E+03  0.16678043121E+04  0.21767315493E+04  0.10100000352E+00 0. -1.
       -3    1    3    3    0  502  0.13418790801E+04  0.39490446751E+03 -0.75832051458E+03  0.15911125093E+04  0.10100000352E+00 0.  1.
</event>
<event>
 5   0  0.1184684E-06  0.3697211E+04  0.7818609E-02  0.8068580E-01
       -2   -1    0    0    0  501  0.00000000000E+00  0.00000000000E+00  0.12449003454E+04  0.12449003454E+04  0.25500000920E-02 0. -1.
        2   -1    0    0  501    0  0.00000000000E+00  0.00000000000E+00 -0.27450733849E+04  0.27450733849E+04  0.25500000920E-02 0.  1.
    10030    2    1    2    0    0  0.00000000000E+00  0.00000000000E+00 -0.15001730394E+04  0.39899737303E+04  0.36972112761E+04 0.  0.
        4    1    3    3  502    0  0.11896889617E+04 -0.13413800126E+04 -0.26423639665E+03  0.18123141698E+04  0.12699999809E+01 0.  1.
       -4    1    3    3    0  502 -0.11896889617E+04  0.13413800126E+04 -0.12359366428E+04  0.21776595605E+04  0.12699999809E+01 0. -1.
</event>
<event>
 5   0  0.1184684E-06  0.2029121E+04  0.7818609E-02  0.8593125E-01
       -2   -1    0    0    0  501  0.00000000000E+00  0.00000000000E+00  0.11011241321E+04  0.11011241321E+04  0.25500000920E-02 0. -1.
        2   -1    0    0  501    0  0.00000000000E+00  0.00000000000E+00 -0.93480226508E+03  0.93480226508E+03  0.25500000920E-02 0.  1.
    10030    2    1    2    0    0  0.00000000000E+00  0.00000000000E+00  0.16632186698E+03  0.20359263971E+04  0.20291213200E+04 0.  0.
        4    1    3    3  502    0  0.60389175592E+03  0.55838755916E+03  0.67916469078E+03  0.10666528063E+04  0.12699999809E+01 0. -1.
       -4    1    3    3    0  502 -0.60389175592E+03 -0.55838755916E+03 -0.51284282379E+03  0.96927359085E+03  0.12699999809E+01 0.  1.
</event>
<event>
 5   0  0.1685793E-06  0.2052301E+04  0.7818609E-02  0.8582551E-01
        2   -1    0    0  501    0  0.00000000000E+00  0.00000000000E+00  0.99732413895E+03  0.99732413895E+03  0.25500000920E-02 0.  1.
       -2   -1    0    0    0  501  0.00000000000E+00  0.00000000000E+00 -0.10558098532E+04  0.10558098532E+04  0.25500000920E-02 0. -1.
    10030    2    1    2    0    0  0.00000000000E+00  0.00000000000E+00 -0.58485714220E+02  0.20531339921E+04  0.20523008091E+04 0.  0.
        3    1    3    3  502    0 -0.50254496122E+03 -0.83934755506E+03  0.28060677025E+03  0.10177405985E+04  0.10100000352E+00 0. -1.
       -3    1    3    3    0  502  0.50254496122E+03  0.83934755506E+03 -0.33909248447E+03  0.10353933936E+04  0.10100000352E+00 0.  1.
</event>
<event>
 5   0  0.1184684E-06  0.1939809E+04  0.7818609E-02  0.8635291E-01
       -2   -1    0    0    0  501  0.00000000000E+00  0.00000000000E+00  0.58779618377E+03  0.58779618377E+03  0.25500000920E-02 0. -1.
        2   -1    0    0  501    0  0.00000000000E+00  0.00000000000E+00 -0.16004103355E+04  0.16004103355E+04  0.25500000920E-02 0.  1.
    10030    2    1    2    0    0  0.00000000000E+00  0.00000000000E+00 -0.10126141518E+04  0.21882065193E+04  0.19398093594E+04 0.  0.
        4    1    3    3  502    0 -0.46414477684E+03  0.62820186311E+03 -0.11549573091E+04  0.13942725535E+04  0.12699999809E+01 0.  1.
       -4    1    3    3    0  502  0.46414477684E+03 -0.62820186311E+03  0.14234315735E+03  0.79393396579E+03  0.12699999809E+01 0. -1.
</event>
<event>
 5   0  0.1680194E-06  0.2451186E+04  0.7818609E-02  0.8420585E-01
       -2   -1    0    0    0  501  0.00000000000E+00  0.00000000000E+00  0.12456682910E+04  0.12456682910E+04  0.25500000920E-02 0.  1.
        2   -1    0    0  501    0  0.00000000000E+00  0.00000000000E+00 -0.12058408714E+04  0.12058408714E+04  0.25500000920E-02 0. -1.
    10030    2    1    2    0    0  0.00000000000E+00  0.00000000000E+00  0.39827419504E+02  0.24515091624E+04  0.24511856213E+04 0.  0.
        2    1    3    3  502    0 -0.67727124241E+03  0.83647968377E+03  0.60623603951E+03  0.12352800220E+04  0.25500000920E-02 0.  1.
       -2    1    3    3    0  502  0.67727124241E+03 -0.83647968377E+03 -0.56640862000E+03  0.12162291404E+04  0.25500000920E-02 0. -1.
</event>
<event>
 5   0  0.1685793E-06  0.2410025E+04  0.7818609E-02  0.8435760E-01
        2   -1    0    0  501    0  0.00000000000E+00  0.00000000000E+00  0.16819310965E+04  0.16819310965E+04  0.25500000920E-02 0.  1.
       -2   -1    0    0    0  501  0.00000000000E+00  0.00000000000E+00 -0.86332596386E+03  0.86332596386E+03  0.25500000920E-02 0. -1.
    10030    2    1    2    0    0  0.00000000000E+00  0.00000000000E+00  0.81860513263E+03  0.25452570604E+04  0.24100247177E+04 0.  0.
        3    1    3    3  502    0  0.51922162248E+03  0.62705106810E+03 -0.52895727374E+03  0.97086556376E+03  0.10100000352E+00 0. -1.
       -3    1    3    3    0  502 -0.51922162248E+03 -0.62705106810E+03  0.13475624064E+04  0.15743914966E+04  0.10100000352E+00 0.  1.
</event>
<event>
 5   0  0.1151180E-06  0.3350071E+04  0.7818609E-02  0.8150271E-01
       -2   -1    0    0    0  501  0.00000000000E+00  0.00000000000E+00  0.12211046152E+04  0.12211046152E+04  0.25500000920E-02 0.  1.
        2   -1    0    0  501    0  0.00000000000E+00  0.00000000000E+00 -0.22977090421E+04  0.22977090421E+04  0.25500000920E-02 0. -1.
    10030    2    1    2    0    0  0.00000000000E+00  0.00000000000E+00 -0.10766044269E+04  0.35188136573E+04  0.33500705161E+04 0.  0.
        5    1    3    3  502    0 -0.55554495526E+03  0.17106817558E+03 -0.21883618191E+04  0.22642535324E+04  0.46999998093E+01 0. -1.
       -5    1    3    3    0  502  0.55554495526E+03 -0.17106817558E+03  0.11117573921E+04  0.12545601249E+04  0.46999998093E+01 0.  1.
</event>
<event>
 5   0  0.1153908E-06  0.1948329E+04  0.7818609E-02  0.8631167E-01
        2   -1    0    0  501    0  0.00000000000E+00  0.00000000000E+00  0.12919259850E+04  0.12919259850E+04  0.25500000920E-02 0.  1.
       -2   -1    0    0    0  501  0.00000000000E+00  0.00000000000E+00 -0.73455965659E+03  0.73455965659E+03  0.25500000920E-02 0. -1.
    10030    2    1    2    0    0  0.00000000000E+00  0.00000000000E+00  0.55736632842E+03  0.20264856416E+04  0.19483292411E+04 0.  0.
        5    1    3    3  502    0 -0.22090317568E+03  0.88809618512E+03 -0.68568041257E+02  0.91773455494E+03  0.46999998093E+01 0. -1.
       -5    1    3    3    0  502  0.22090317568E+03 -0.88809618512E+03  0.62593436968E+03  0.11087510867E+04  0.46999998093E+01 0.  1.
</event>
<event>
 5   0  0.1396570E-06  0.1945235E+04  0.7818609E-02  0.8632662E-01
        2   -1    0    0  501    0  0.00000000000E+00  0.00000000000E+00  0.10250428770E+04  0.10250428770E+04  0.25500000920E-02 0.  1.
       -2   -1    0    0    0  501  0.00000000000E+00  0.00000000000E+00 -0.92287352877E+03  0.92287352877E+03  0.25500000920E-02 0. -1.
    10030    2    1    2    0    0  0.00000000000E+00  0.00000000000E+00  0.10216934819E+03  0.19479164057E+04  0.19452351395E+04 0.  0.
        5    1    3    3  502    0 -0.30052825303E+03 -0.85711606282E+00 -0.87520108558E+03  0.92537397614E+03  0.46999998093E+01 0. -1.
       -5    1    3    3    0  502  0.30052825303E+03  0.85711606282E+00  0.97737043376E+03  0.10225424296E+04  0.46999998093E+01 0.  1.
</event>
<event>
 5   0  0.1151180E-06  0.3631041E+04  0.7818609E-02  0.8083418E-01
        2   -1    0    0  501    0  0.00000000000E+00  0.00000000000E+00  0.23337710168E+04  0.23337710168E+04  0.25500000920E-02 0. -1.
       -2   -1    0    0    0  501  0.00000000000E+00  0.00000000000E+00 -0.14123553268E+04  0.14123553268E+04  0.25500000920E-02 0.  1.
    10030    2    1    2    0    0  0.00000000000E+00  0.00000000000E+00  0.92141569001E+03  0.37461263437E+04  0.36310405821E+04 0.  0.
        5    1    3    3  502    0 -0.24414513595E+03 -0.16872795967E+04 -0.18323228829E+03  0.17146764844E+04  0.46999998093E+01 0.  1.
       -5    1    3    3    0  502  0.24414513595E+03  0.16872795967E+04  0.11046479783E+04  0.20314498593E+04  0.46999998093E+01 0. -1.
</event>
<event>
 5   0  0.6186440E-07  0.3667194E+04  0.7818609E-02  0.8075271E-01
       -1   -1    0    0    0  501  0.00000000000E+00  0.00000000000E+00  0.26523650701E+04  0.26523650701E+04  0.50400001928E-02 0.  1.
        1   -1    0    0  501    0  0.00000000000E+00  0.00000000000E+00 -0.12675774463E+04  0.12675774463E+04  0.50400001928E-02 0. -1.
    10030    2    1    2    0    0  0.00000000000E+00  0.00000000000E+00  0.13847876238E+04  0.39199425164E+04  0.36671941002E+04 0.  0.
        3    1    3    3  502    0  0.65181191734E+03 -0.84933813361E+03  0.22835594851E+04  0.25220781060E+04  0.10100000352E+00 0.  1.
       -3    1    3    3    0  502 -0.65181191734E+03  0.84933813361E+03 -0.89877186134E+03  0.13978644103E+04  0.10100000352E+00 0. -1.
</event>
<event>
 5   0  0.1685793E-06  0.3794952E+04  0.7818609E-02  0.8047239E-01
       -2   -1    0    0    0  501  0.00000000000E+00  0.00000000000E+00  0.16708584188E+04  0.16708584188E+04  0.25500000920E-02 0. -1.
        2   -1    0    0  501    0  0.00000000000E+00  0.00000000000E+00 -0.21548298397E+04  0.21548298397E+04  0.25500000920E-02 0.  1.
    10030    2    1    2    0    0  0.00000000000E+00  0.00000000000E+00 -0.48397142095E+03  0.38256882585E+04  0.37949522151E+04 0.  0.
        3    1    3    3  502    0 -0.11581287828E+04 -0.97936523435E+02 -0.17539872163E+04  0.21041209579E+04  0.10100000352E+00 0.  1.
       -3    1    3    3    0  502  0.11581287828E+04  0.97936523435E+02  0.12700157954E+04  0.17215673007E+04  0.10100000352E+00 0. -1.
</event>
<event>
 5   0  0.5679750E-07  0.2064714E+04  0.7818609E-02  0.8576948E-01
       -3   -1    0    0    0  501  0.00000000000E+00  0.00000000000E+00  0.87881138608E+03  0.87881139189E+03  0.10100000352E+00 0.  1.
        3   -1    0    0  501    0  0.00000000000E+00  0.00000000000E+00 -0.12127304253E+04  0.12127304295E+04  0.10100000352E+00 0. -1.
    10030    2    1    2    0    0  0.00000000000E+00  0.00000000000E+00 -0.33391903919E+03  0.20915418214E+04  0.20647143303E+04 0.  0.
        4    1    3    3  502    0  0.63407365971E+03  0.21832835596E+02  0.65801369679E+03  0.91406220615E+03  0.12699999809E+01 0.  1.
       -4    1    3    3    0  502 -0.63407365971E+03 -0.21832835596E+02 -0.99193273598E+03  0.11774796152E+04  0.12699999809E+01 0. -1.
</event>
<event>
 5   0  0.5679750E-07  0.2407450E+04  0.7818609E-02  0.8436720E-01
        1   -1    0    0  501    0  0.00000000000E+00  0.00000000000E+00  0.13679070680E+04  0.13679070680E+04  0.50400001928E-02 0.  1.
       -1   -1    0    0    0  501  0.00000000000E+00  0.00000000000E+00 -0.10592489742E+04  0.10592489743E+04  0.50400001928E-02 0. -1.
    10030    2    1    2    0    0  0.00000000000E+00  0.00000000000E+00  0.30865809377E+03  0.24271560423E+04  0.24074502351E+04 0.  0.
        4    1    3    3  502    0 -0.17147118089E+01  0.41031321687E+03 -0.98656650086E+03  0.10684919044E+04  0.12699999809E+01 0. -1.
       -4    1    3    3    0  502  0.17147118089E+01 -0.41031321687E+03  0.12952245946E+04  0.13586641379E+04  0.12699999809E+01 0.  1.
</event>
<event>
 5   0  0.1151180E-06  0.3689263E+04  0.7818609E-02  0.8070345E-01
       -2   -1    0    0    0  501  0.00000000000E+00  0.00000000000E+00  0.14306971964E+04  0.14306971964E+04  0.25500000920E-02 0.  1.
        2   -1    0    0  501    0  0.00000000000E+00  0.00000000000E+00 -0.23783266797E+04  0.23783266798E+04  0.25500000920E-02 0. -1.
    10030    2    1    2    0    0  0.00000000000E+00  0.00000000000E+00 -0.94762948334E+03  0.38090238762E+04  0.36892629686E+04 0.  0.
        5    1    3    3  502    0 -0.12748593197E+04 -0.12109572551E+04  0.10192468625E+03  0.17612763811E+04  0.46999998093E+01 0.  1.
       -5    1    3    3    0  502  0.12748593197E+04  0.12109572551E+04 -0.10495541696E+04  0.20477474951E+04  0.46999998093E+01 0. -1.
</event>
<event>
 5   0  0.6186440E-07  0.3142689E+04  0.7818609E-02  0.8204119E-01
       -1   -1    0    0    0  501  0.00000000000E+00  0.00000000000E+00  0.27702372982E+04  0.27702372982E+04  0.50400001928E-02 0. -1.
        1   -1    0    0  501    0  0.00000000000E+00  0.00000000000E+00 -0.89130415779E+03  0.89130415780E+03  0.50400001928E-02 0.  1.
    10030    2    1    2    0    0  0.00000000000E+00  0.00000000000E+00  0.18789331404E+04  0.36615414560E+04  0.31426893082E+04 0.  0.
        3    1    3    3  502    0  0.13100404583E+04  0.15157257069E+03 -0.55955371056E+02  0.13199663860E+04  0.10100000352E+00 0.  1.
       -3    1    3    3    0  502 -0.13100404583E+04 -0.15157257069E+03  0.19348885115E+04  0.23415750700E+04  0.10100000352E+00 0. -1.
</event>
<event>
 5   0  0.1680194E-06  0.3817271E+04  0.7818609E-02  0.8042459E-01
       -2   -1    0    0    0  501  0.00000000000E+00  0.00000000000E+00  0.17836598739E+04  0.17836598739E+04  0.25500000920E-02 0. -1.
        2   -1    0    0  501    0  0.00000000000E+00  0.00000000000E+00 -0.20423677821E+04  0.20423677821E+04  0.25500000920E-02 0.  1.
    10030    2    1    2    0    0  0.00000000000E+00  0.00000000000E+00 -0.25870790814E+03  0.38260276560E+04  0.38172709941E+04 0.  0.
        2    1    3    3  502    0 -0.28514332972E+03  0.17473224878E+04  0.58533636586E+03  0.18646879782E+04  0.25500000920E-02 0. -1.
       -2    1    3    3    0  502  0.28514332972E+03 -0.17473224878E+04 -0.84404427400E+03  0.19613396777E+04  0.25500000920E-02 0.  1.
</event>
<event>
 5   0  0.1184684E-06  0.3651994E+04  0.7818609E-02  0.8078685E-01
       -2   -1    0    0    0  501  0.00000000000E+00  0.00000000000E+00  0.13797088594E+04  0.13797088594E+04  0.25500000920E-02 0. -1.
        2   -1    0    0  501    0  0.00000000000E+00  0.00000000000E+00 -0.24166439382E+04  0.24166439382E+04  0.25500000920E-02 0.  1.
    10030    2    1    2    0    0  0.00000000000E+00  0.00000000000E+00 -0.10369350788E+04  0.37963527976E+04  0.36519940042E+04 0.  0.
        4    1    3    3  502    0 -0.12575982224E+04 -0.11463925904E+04  0.16989689734E+03  0.17101566679E+04  0.12699999809E+01 0. -1.
       -4    1    3    3    0  502  0.12575982224E+04  0.11463925904E+04 -0.12068319761E+04  0.20861961297E+04  0.12699999809E+01 0.  1.
</event>
<event>
 5   0  0.6261598E-07  0.3546108E+04  0.7818609E-02  0.8102949E-01
        1   -1    0    0  501    0  0.00000000000E+00  0.00000000000E+00  0.17847298561E+04  0.17847298562E+04  0.50400001928E-02 0.  1.
       -1   -1    0    0    0  501  0.00000000000E+00  0.00000000000E+00 -0.17614542274E+04  0.17614542275E+04  0.50400001928E-02 0. -1.
    10030    2    1    2    0    0  0.00000000000E+00  0.00000000000E+00  0.23275628698E+02  0.35461840836E+04  0.35461076972E+04 0.  0.
        1    1    3    3  502    0  0.13379694585E+03 -0.14914071003E+04  0.96114401655E+03  0.17793241926E+04  0.50400001928E-02 0.  1.
       -1    1    3    3    0  502 -0.13379694585E+03  0.14914071003E+04 -0.93786838786E+03  0.17668598910E+04  0.50400001928E-02 0. -1.
</event>
<event>
 5   0  0.1680194E-06  0.3860842E+04  0.7818609E-02  0.8033223E-01
       -2   -1    0    0    0  501  0.00000000000E+00  0.00000000000E+00  0.13957102627E+04  0.13957102627E+04  0.25500000920E-02 0. -1.
        2   -1    0    0  501    0  0.00000000000E+00  0.00000000000E+00 -0.26699845141E+04  0.26699845141E+04  0.25500000920E-02 0.  1.
    10030    2    1    2    0    0  0.00000000000E+00  0.00000000000E+00 -0.12742742514E+04  0.40656947768E+04  0.38608417671E+04 0.  0.
        2    1    3    3  502    0 -0.28755875924E+03 -0.55028680367E+03 -0.25619665699E+04  0.26361294186E+04  0.25500000920E-02 0.  1.
       -2    1    3    3    0  502  0.28755875924E+03  0.55028680367E+03  0.12876923185E+04  0.14295653582E+04  0.25500000920E-02 0. -1.
</event>
<event>
 5   0  0.6186440E-07  0.2820426E+04  0.7818609E-02  0.8296955E-01
        1   -1    0    0  501    0  0.00000000000E+00  0.00000000000E+00  0.12664280150E+04  0.12664280150E+04  0.50400001928E-02 0.  1.
       -1   -1    0    0    0  501  0.00000000000E+00  0.00000000000E+00 -0.15703230836E+04  0.15703230836E+04  0.50400001928E-02 0. -1.
    10030    2    1    2    0    0  0.00000000000E+00  0.00000000000E+00 -0.30389506864E+03  0.28367510986E+04  0.28204263122E+04 0.  0.
        3    1    3    3  502    0 -0.62813794590E+03  0.34980747496E+02 -0.14213621210E+04  0.15543652148E+04  0.10100000352E+00 0. -1.
       -3    1    3    3    0  502  0.62813794590E+03 -0.34980747496E+02  0.11174670523E+04  0.12823858838E+04  0.10100000352E+00 0.  1.
</event>
<event>
 5   0  0.6287345E-07  0.3726421E+04  0.7818609E-02  0.8062132E-01
        1   -1    0    0  501    0  0.00000000000E+00  0.00000000000E+00  0.19469371208E+04  0.19469371208E+04  0.50400001928E-02 0. -1.
       -1   -1    0    0    0  501  0.00000000000E+00  0.00000000000E+00 -0.17830846702E+04  0.17830846702E+04  0.50400001928E-02 0.  1.
    10030    2    1    2    0    0  0.00000000000E+00  0.00000000000E+00  0.16385245065E+03  0.37300217910E+04  0.37264211967E+04 0.  0.
        5    1    3    3  502    0  0.59883371578E+03  0.66174397059E+03  0.17190568366E+04  0.19369267924E+04  0.46999998093E+01 0. -1.
       -5    1    3    3    0  502 -0.59883371578E+03 -0.66174397059E+03 -0.15552043859E+04  0.17930949986E+04  0.46999998093E+01 0.  1.
</event>
<event>
 5   0  0.5875011E-07  0.3566845E+04  0.7818609E-02  0.8098129E-01
       -1   -1    0    0    0  501  0.00000000000E+00  0.00000000000E+00  0.10649006391E+04  0.10649006391E+04  0.50400001928E-02 0.  1.
        1   -1    0    0  501    0  0.00000000000E+00  0.00000000000E+00 -0.29867543800E+04  0.29867543800E+04  0.50400001928E-02 0. -1.
    10030    2    1    2    0    0  0.00000000000E+00  0.00000000000E+00 -0.19218537409E+04  0.40516550191E+04  0.35668454680E+04 0.  0.
        2    1    3    3  502    0  0.13111376859E+04 -0.71614156237E+03  0.14544854584E+03  0.15010316613E+04  0.25500000920E-02 0.  1.
       -2    1    3    3    0  502 -0.13111376859E+04  0.71614156237E+03 -0.20673022867E+04  0.25506233578E+04  0.25500000920E-02 0. -1.
</event>
<event>
 5   0  0.1151180E-06  0.3062410E+04  0.7818609E-02  0.8226131E-01
        2   -1    0    0  501    0  0.00000000000E+00  0.00000000000E+00  0.15182303110E+04  0.15182303110E+04  0.25500000920E-02 0. -1.
       -2   -1    0    0    0  501  0.00000000000E+00  0.00000000000E+00 -0.15442901603E+04  0.15442901603E+04  0.25500000920E-02 0.  1.
    10030    2    1    2    0    0  0.00000000000E+00  0.00000000000E+00 -0.26059849301E+02  0.30625204712E+04  0.30624095939E+04 0.  0.
        5    1    3    3  502    0  0.41539534697E+03 -0.49319902408E+03  0.13758210885E+04  0.15194421112E+04  0.46999998093E+01 0. -1.
       -5    1    3    3    0  502 -0.41539534697E+03  0.49319902408E+03 -0.14018809378E+04  0.15430783601E+04  0.46999998093E+01 0.  1.
</event>
<event>
 5   0  0.6186440E-07  0.1980871E+04  0.7818609E-02  0.8615617E-01
        1   -1    0    0  501    0  0.00000000000E+00  0.00000000000E+00  0.28867964469E+04  0.28867964469E+04  0.50400001928E-02 0.  1.
       -1   -1    0    0    0  501  0.00000000000E+00  0.00000000000E+00 -0.33981003794E+03  0.33981003798E+03  0.50400001928E-02 0. -1.
    10030    2    1    2    0    0  0.00000000000E+00  0.00000000000E+00  0.25469864089E+04  0.32266064849E+04  0.19808709299E+04 0.  0.
        3    1    3    3  502    0 -0.71854488062E+03  0.68149788487E+03  0.12974487191E+04  0.16322130074E+04  0.10100000352E+00 0.  1.
       -3    1    3    3    0  502  0.71854488062E+03 -0.68149788487E+03  0.12495376898E+04  0.15943934775E+04  0.10100000352E+00 0. -1.
</event>
<event>
 5   0  0.5679750E-07  0.3694110E+04  0.7818609E-02  0.8069268E-01
       -1   -1    0    0    0  501  0.00000000000E+00  0.00000000000E+00  0.11526733533E+04  0.11526733533E+04  0.50400001928E-02 0. -1.
        1   -1    0    0  501    0  0.00000000000E+00  0.00000000000E+00 -0.29597383746E+04  0.29597383746E+04  0.50400001928E-02 0.  1.
    10030    2    1    2    0    0  0.00000000000E+00  0.00000000000E+00 -0.18070650213E+04  0.41124117279E+04  0.36941096665E+04 0.  0.
        4    1    3    3  502    0  0.20136020980E+03 -0.52144402220E+03 -0.28633192460E+04  0.29173701376E+04  0.12699999809E+01 0.  1.
       -4    1    3    3    0  502 -0.20136020980E+03  0.52144402220E+03  0.10562542247E+04  0.11950415903E+04  0.12699999809E+01 0. -1.
</event>
<event>
 5   0  0.1724503E-06  0.3697877E+04  0.7818609E-02  0.8068432E-01
       -2   -1    0    0    0  501  0.00000000000E+00  0.00000000000E+00  0.10007782971E+04  0.10007782971E+04  0.25500000920E-02 0. -1.
        2   -1    0    0  501    0  0.00000000000E+00  0.00000000000E+00 -0.34159156147E+04  0.34159156147E+04  0.25500000920E-02 0.  1.
    10030    2    1    2    0    0  0.00000000000E+00  0.00000000000E+00 -0.24151373177E+04  0.44166939118E+04  0.36978773435E+04 0.  0.
        1    1    3    3  502    0 -0.89778129375E+03  0.25686997208E+03  0.69843411845E+03  0.11661061923E+04  0.50400001928E-02 0. -1.
       -1    1    3    3    0  502  0.89778129375E+03 -0.25686997208E+03 -0.31135714361E+04  0.32505877195E+04  0.50400001928E-02 0.  1.
</event>
<event>
 5   0  0.1685793E-06  0.2408115E+04  0.7818609E-02  0.8436472E-01
       -2   -1    0    0    0  501  0.00000000000E+00  0.00000000000E+00  0.11598500255E+04  0.11598500255E+04  0.25500000920E-02 0.  1.
        2   -1    0    0  501    0  0.00000000000E+00  0.00000000000E+00 -0.12499495254E+04  0.12499495254E+04  0.25500000920E-02 0. -1.
    10030    2    1    2    0    0  0.00000000000E+00  0.00000000000E+00 -0.90099499829E+02  0.24097995509E+04  0.24081146060E+04 0.  0.
        3    1    3    3  502    0 -0.66826145766E+03 -0.40575215098E+03  0.87131243692E+03  0.11706380981E+04  0.10100000352E+00 0.  1.
       -3    1    3    3    0  502  0.66826145766E+03  0.40575215098E+03 -0.96141193675E+03  0.12391614528E+04  0.10100000352E+00 0. -1.
</event>
<event>
 5   0  0.6186440E-07  0.2359476E+04  0.7818609E-02  0.8454833E-01
       -1   -1    0    0    0  501  0.00000000000E+00  0.00000000000E+00  0.10915652701E+04  0.10915652701E+04  0.50400001928E-02 0. -1.
        1   -1    0    0  501    0  0.00000000000E+00  0.00000000000E+00 -0.12750327893E+04  0.12750327893E+04  0.50400001928E-02 0.  1.
    10030    2    1    2    0    0  0.00000000000E+00  0.00000000000E+00 -0.18346751918E+03  0.23665980593E+04  0.23594757985E+04 0.  0.
        3    1    3    3  502    0  0.60982529691E+03 -0.28270363317E+03  0.88071500162E+03  0.11079111703E+04  0.10100000352E+00 0. -1.
       -3    1    3    3    0  502 -0.60982529691E+03  0.28270363317E+03 -0.10641825208E+04  0.12586868891E+04  0.10100000352E+00 0.  1.
</event>
<event>
 5   0  0.6261598E-07  0.1957161E+04  0.7818609E-02  0.8626915E-01
       -1   -1    0    0    0  501  0.00000000000E+00  0.00000000000E+00  0.10438451155E+04  0.10438451155E+04  0.50400001928E-02 0. -1.
        1   -1    0    0  501    0  0.00000000000E+00  0.00000000000E+00 -0.91739652799E+03  0.91739652801E+03  0.50400001928E-02 0.  1.
    10030    2    1    2    0    0  0.00000000000E+00  0.00000000000E+00  0.12644858747E+03  0.19612416435E+04  0.19571610917E+04 0.  0.
        1    1    3    3  502    0  0.85447468606E+03  0.72928693688E+02 -0.40911213776E+03  0.95016752458E+03  0.50400001928E-02 0.  1.
       -1    1    3    3    0  502 -0.85447468606E+03 -0.72928693688E+02  0.53556072523E+03  0.10110741189E+04  0.50400001928E-02 0. -1.
</event>
<event>
 5   0  0.6261598E-07  0.3349115E+04  0.7818609E-02  0.8150509E-01
        1   -1    0    0  501    0  0.00000000000E+00  0.00000000000E+00  0.15862659986E+04  0.15862659986E+04  0.50400001928E-02 0. -1.
       -1   -1    0    0    0  501  0.00000000000E+00  0.00000000000E+00 -0.17677636415E+04  0.17677636415E+04  0.50400001928E-02 0.  1.
    10030    2    1    2    0    0  0.00000000000E+00  0.00000000000E+00 -0.18149764288E+03  0.33540296401E+04  0.33491153209E+04 0.  0.
        1    1    3    3  502    0 -0.38824692103E+03  0.99898007539E+03 -0.13792783297E+04  0.17467414157E+04  0.50400001928E-02 0.  1.
       -1    1    3    3    0  502  0.38824692103E+03 -0.99898007539E+03  0.11977806868E+04  0.16072882244E+04  0.50400001928E-02 0. -1.
</event>
<event>
 5   0  0.1680194E-06  0.3857156E+04  0.7818609E-02  0.8034000E-01
        2   -1    0    0  501    0  0.00000000000E+00  0.00000000000E+00  0.20863837730E+04  0.20863837730E+04  0.25500000920E-02 0. -1.
       -2   -1    0    0    0  501  0.00000000000E+00  0.00000000000E+00 -0.17827075846E+04  0.17827075846E+04  0.25500000920E-02 0.  1.
    10030    2    1    2    0    0  0.00000000000E+00  0.00000000000E+00  0.30367618840E+03  0.38690913575E+04  0.38571555200E+04 0.  0.
        2    1    3    3  502    0  0.15900007021E+04 -0.10893807383E+04  0.84104696162E+02  0.19292294383E+04  0.25500000920E-02 0.  1.
       -2    1    3    3    0  502 -0.15900007021E+04  0.10893807383E+04  0.21957149224E+03  0.19398619193E+04  0.25500000920E-02 0. -1.
</event>
<event>
 5   0  0.1680194E-06  0.3539626E+04  0.7818609E-02  0.8104463E-01
       -2   -1    0    0    0  501  0.00000000000E+00  0.00000000000E+00  0.16958186638E+04  0.16958186638E+04  0.25500000920E-02 0. -1.
        2   -1    0    0  501    0  0.00000000000E+00  0.00000000000E+00 -0.18470362406E+04  0.18470362406E+04  0.25500000920E-02 0.  1.
    10030    2    1    2    0    0  0.00000000000E+00  0.00000000000E+00 -0.15121757683E+03  0.35428549044E+04  0.35396262681E+04 0.  0.
        2    1    3    3  502    0  0.11472777034E+04  0.15770953817E+03  0.12639393065E+04  0.17142523145E+04  0.25500000920E-02 0. -1.
       -2    1    3    3    0  502 -0.11472777034E+04 -0.15770953817E+03 -0.14151568833E+04  0.18286025899E+04  0.25500000920E-02 0.  1.
</event>
<event>
 5   0  0.5875011E-07  0.3746476E+04  0.7818609E-02  0.8057739E-01
       -1   -1    0    0    0  501  0.00000000000E+00  0.00000000000E+00  0.16580511078E+04  0.16580511078E+04  0.50400001928E-02 0. -1.
        1   -1    0    0  501    0  0.00000000000E+00  0.00000000000E+00 -0.21163530420E+04  0.21163530420E+04  0.50400001928E-02 0.  1.
    10030    2    1    2    0    0  0.00000000000E+00  0.00000000000E+00 -0.45830193421E+03  0.37744041498E+04  0.37464764811E+04 0.  0.
        2    1    3    3  502    0  0.34459838593E+03 -0.42569693018E+03  0.15755863982E+04  0.16680642740E+04  0.25500000920E-02 0. -1.
       -2    1    3    3    0  502 -0.34459838593E+03  0.42569693018E+03 -0.20338883324E+04  0.21063398759E+04  0.25500000920E-02 0.  1.
</event>
<event>
 5   0  0.1724503E-06  0.3786136E+04  0.7818609E-02  0.8049137E-01
        2   -1    0    0  501    0  0.00000000000E+00  0.00000000000E+00  0.24569482383E+04  0.24569482383E+04  0.25500000920E-02 0.  1.
       -2   -1    0    0    0  501  0.00000000000E+00  0.00000000000E+00 -0.14586010845E+04  0.14586010845E+04  0.25500000920E-02 0. -1.
    10030    2    1    2    0    0  0.00000000000E+00  0.00000000000E+00  0.99834715377E+03  0.39155493228E+04  0.37861364820E+04 0.  0.
        1    1    3    3  502    0  0.46429822273E+03 -0.32034621661E+03 -0.13696664649E+04  0.14812767341E+04  0.50400001928E-02 0. -1.
       -1    1    3    3    0  502 -0.46429822273E+03  0.32034621661E+03  0.23680136186E+04  0.24342725887E+04  0.50400001928E-02 0.  1.
</event>
<event>
 5   0  0.6287345E-07  0.3714803E+04  0.7818609E-02  0.8064689E-01
        1   -1    0    0  501    0  0.00000000000E+00  0.00000000000E+00  0.19367555321E+04  0.19367555321E+04  0.50400001928E-02 0.  1.
       -1   -1    0    0    0  501  0.00000000000E+00  0.00000000000E+00 -0.17812988148E+04  0.17812988148E+04  0.50400001928E-02 0. -1.
    10030    2    1    2    0    0  0.00000000000E+00  0.00000000000E+00  0.15545671732E+03  0.37180543470E+04  0.37148030010E+04 0.  0.
        5    1    3    3  502    0  0.13304105434E+03 -0.14830651305E+04 -0.10335299219E+04  0.18125640107E+04  0.46999998093E+01 0. -1.
       -5    1    3    3    0  502 -0.13304105434E+03  0.14830651305E+04  0.11889866392E+04  0.19054903363E+04  0.46999998093E+01 0.  1.
</event>
<event>
 5   0  0.1151180E-06  0.2145493E+04  0.7818609E-02  0.8541464E-01
       -2   -1    0    0    0  501  0.00000000000E+00  0.00000000000E+00  0.48811129419E+03  0.48811129419E+03  0.25500000920E-02 0.  1.
        2   -1    0    0  501    0  0.00000000000E+00  0.00000000000E+00 -0.23576284199E+04  0.23576284199E+04  0.25500000920E-02 0. -1.
    10030    2    1    2    0    0  0.00000000000E+00  0.00000000000E+00 -0.18695171257E+04  0.28457397141E+04  0.21454930056E+04 0.  0.
        5    1    3    3  502    0  0.70435597871E+03 -0.62774283442E+03 -0.25767478280E+03  0.97805766425E+03  0.46999998093E+01 0. -1.
       -5    1    3    3    0  502 -0.70435597871E+03  0.62774283442E+03 -0.16118423429E+04  0.18676820499E+04  0.46999998093E+01 0.  1.
</event>
<event>
 5   0  0.1151180E-06  0.4105974E+04  0.7818609E-02  0.7983503E-01
       -2   -1    0    0    0  501  0.00000000000E+00  0.00000000000E+00  0.18145659581E+04  0.18145659581E+04  0.25500000920E-02 0.  1.
        2   -1    0    0  501    0  0.00000000000E+00  0.00000000000E+00 -0.23227353473E+04  0.23227353473E+04  0.25500000920E-02 0. -1.
    10030    2    1    2    0    0  0.00000000000E+00  0.00000000000E+00 -0.50816938918E+03  0.41373013054E+04  0.41059744231E+04 0.  0.
        5    1    3    3  502    0 -0.13832913213E+04 -0.46732380017E+03  0.12001339147E+04  0.18900343693E+04  0.46999998093E+01 0.  1.
       -5    1    3    3    0  502  0.13832913213E+04  0.46732380017E+03 -0.17083033039E+04  0.22472669361E+04  0.46999998093E+01 0. -1.
</event>
<event>
 5   0  0.6287345E-07  0.3728115E+04  0.7818609E-02  0.8061760E-01
       -1   -1    0    0    0  501  0.00000000000E+00  0.00000000000E+00  0.20164323870E+04  0.20164323871E+04  0.50400001928E-02 0. -1.
        1   -1    0    0  501    0  0.00000000000E+00  0.00000000000E+00 -0.17231970716E+04  0.17231970716E+04  0.50400001928E-02 0.  1.
    10030    2    1    2    0    0  0.00000000000E+00  0.00000000000E+00  0.29323531546E+03  0.37396294587E+04  0.37281150113E+04 0.  0.
        5    1    3    3  502    0 -0.14627647883E+03 -0.16774051656E+04  0.94883981163E+03  0.19327193216E+04  0.46999998093E+01 0. -1.
       -5    1    3    3    0  502  0.14627647883E+03  0.16774051656E+04 -0.65560449617E+03  0.18069101370E+04  0.46999998093E+01 0.  1.
</event>
<event>
 5   0  0.1680194E-06  0.2427496E+04  0.7818609E-02  0.8429281E-01
       -2   -1    0    0    0  501  0.00000000000E+00  0.00000000000E+00  0.15108453928E+04  0.15108453928E+04  0.25500000920E-02 0.  1.
        2   -1    0    0  501    0  0.00000000000E+00  0.00000000000E+00 -0.97507273889E+03  0.97507273889E+03  0.25500000920E-02 0. -1.
    10030    2    1    2    0    0  0.00000000000E+00  0.00000000000E+00  0.53577265395E+03  0.24859181317E+04  0.24274959569E+04 0.  0.
        2    1    3    3  502    0 -0.70356386481E+03 -0.88168610355E+03 -0.19101865013E+03  0.11440544663E+04  0.25500000920E-02 0. -1.
       -2    1    3    3    0  502  0.70356386481E+03  0.88168610355E+03  0.72679130408E+03  0.13418636655E+04  0.25500000920E-02 0.  1.
</event>
<event>
 5   0  0.6186440E-07  0.2291410E+04  0.7818609E-02  0.8481316E-01
        1   -1    0    0  501    0  0.00000000000E+00  0.00000000000E+00  0.75705271709E+03  0.75705271711E+03  0.50400001928E-02 0. -1.
       -1   -1    0    0    0  501  0.00000000000E+00  0.00000000000E+00 -0.17338814632E+04  0.17338814632E+04  0.50400001928E-02 0.  1.
    10030    2    1    2    0    0  0.00000000000E+00  0.00000000000E+00 -0.97682874608E+03  0.24909341803E+04  0.22914097607E+04 0.  0.
        3    1    3    3  502    0 -0.79266374486E+03  0.72141181073E+03 -0.92849697189E+03  0.14180470550E+04  0.10100000352E+00 0.  1.
       -3    1    3    3    0  502  0.79266374486E+03 -0.72141181073E+03 -0.48331774191E+02  0.10728871253E+04  0.10100000352E+00 0. -1.
</event>
<event>
 5   0  0.1685793E-06  0.3053398E+04  0.7818609E-02  0.8228645E-01
        2   -1    0    0  501    0  0.00000000000E+00  0.00000000000E+00  0.23901595511E+04  0.23901595511E+04  0.25500000920E-02 0. -1.
       -2   -1    0    0    0  501  0.00000000000E+00  0.00000000000E+00 -0.97516883408E+03  0.97516883408E+03  0.25500000920E-02 0.  1.
    10030    2    1    2    0    0  0.00000000000E+00  0.00000000000E+00  0.14149907170E+04  0.33653283852E+04  0.30533975193E+04 0.  0.
        3    1    3    3  502    0  0.12121141537E+04 -0.69676072844E+02  0.17276523354E+04  0.21116008332E+04  0.10100000352E+00 0. -1.
       -3    1    3    3    0  502 -0.12121141537E+04  0.69676072844E+02 -0.31266161831E+03  0.12537275520E+04  0.10100000352E+00 0.  1.
</event>
<event>
 5   0  0.6261598E-07  0.2904354E+04  0.7818609E-02  0.8271583E-01
       -1   -1    0    0    0  501  0.00000000000E+00  0.00000000000E+00  0.15058998835E+04  0.15058998835E+04  0.50400001928E-02 0. -1.
        1   -1    0    0  501    0  0.00000000000E+00  0.00000000000E+00 -0.14003703268E+04  0.14003703268E+04  0.50400001928E-02 0.  1.
    10030    2    1    2    0    0  0.00000000000E+00  0.00000000000E+00  0.10552955669E+03  0.29062702102E+04  0.29043536368E+04 0.  0.
        1    1    3    3  502    0  0.38201331016E+03 -0.30018000404E+03 -0.13166320962E+04  0.14034109451E+04  0.50400001928E-02 0.  1.
       -1    1    3    3    0  502 -0.38201331016E+03  0.30018000404E+03  0.14221616529E+04  0.15028592652E+04  0.50400001928E-02 0. -1.
</event>
<event>
 5   0  0.1184684E-06  0.2575165E+04  0.7818609E-02  0.8376686E-01
        2   -1    0    0  501    0  0.00000000000E+00  0.00000000000E+00  0.21055218466E+04  0.21055218466E+04  0.25500000920E-02 0. -1.
       -2   -1    0    0    0  501  0.00000000000E+00  0.00000000000E+00 -0.78739072572E+03  0.78739072573E+03  0.25500000920E-02 0.  1.
    10030    2    1    2    0    0  0.00000000000E+00  0.00000000000E+00  0.13181311209E+04  0.28929125723E+04  0.25751647519E+04 0.  0.
        4    1    3    3  502    0  0.82746511134E+02 -0.19025161686E+03 -0.76848960791E+03  0.79600286004E+03  0.12699999809E+01 0.  1.
       -4    1    3    3    0  502 -0.82746511134E+02  0.19025161686E+03  0.20866207288E+04  0.20969097123E+04  0.12699999809E+01 0. -1.
</event>
<event>
 5   0  0.1151180E-06  0.2573528E+04  0.7818609E-02  0.8377249E-01
       -2   -1    0    0    0  501  0.00000000000E+00  0.00000000000E+00  0.91582326890E+03  0.91582326890E+03  0.25500000920E-02 0. -1.
        2   -1    0    0  501    0  0.00000000000E+00  0.00000000000E+00 -0.18079488038E+04  0.18079488038E+04  0.25500000920E-02 0.  1.
    10030    2    1    2    0    0  0.00000000000E+00  0.00000000000E+00 -0.89212553491E+03  0.27237720727E+04  0.25735279936E+04 0.  0.
        5    1    3    3  502    0  0.11586477410E+04  0.51878095004E+03 -0.22369896641E+03  0.12890545293E+04  0.46999998093E+01 0.  1.
       -5    1    3    3    0  502 -0.11586477410E+04 -0.51878095004E+03 -0.66842656850E+03  0.14347175434E+04  0.46999998093E+01 0. -1.
</event>
<event>
 5   0  0.5679750E-07  0.3692036E+04  0.7818609E-02  0.8069729E-01
        1   -1    0    0  501    0  0.00000000000E+00  0.00000000000E+00  0.23566341718E+04  0.23566341718E+04  0.50400001928E-02 0. -1.
       -1   -1    0    0    0  501  0.00000000000E+00  0.00000000000E+00 -0.14460375699E+04  0.14460375699E+04  0.50400001928E-02 0.  1.
    10030    2    1    2    0    0  0.00000000000E+00  0.00000000000E+00  0.91059660198E+03  0.38026717417E+04  0.36920355095E+04 0.  0.
        4    1    3    3  502    0  0.12685774444E+04 -0.12999078299E+04  0.11567354569E+03  0.18200085386E+04  0.12699999809E+01 0. -1.
       -4    1    3    3    0  502 -0.12685774444E+04  0.12999078299E+04  0.79492305630E+03  0.19826632031E+04  0.12699999809E+01 0.  1.
</event>
<event>
 5   0  0.1685793E-06  0.3461139E+04  0.7818609E-02  0.8123062E-01
       -2   -1    0    0    0  501  0.00000000000E+00  0.00000000000E+00  0.14058335256E+04  0.14058335256E+04  0.25500000920E-02 0. -1.
        2   -1    0    0  501    0  0.00000000000E+00  0.00000000000E+00 -0.21303169445E+04  0.21303169445E+04  0.25500000920E-02 0.  1.
    10030    2    1    2    0    0  0.00000000000E+00  0.00000000000E+00 -0.72448341888E+03  0.35361504701E+04  0.34611391077E+04 0.  0.
        3    1    3    3  502    0 -0.94547518912E+03 -0.81143299499E+03  0.86483927450E+03  0.15166719551E+04  0.10100000352E+00 0. -1.
       -3    1    3    3    0  502  0.94547518912E+03  0.81143299499E+03 -0.15893226934E+04  0.20194785150E+04  0.10100000352E+00 0.  1.
</event>
<event>
 5   0  0.6186440E-07  0.3742389E+04  0.7818609E-02  0.8058632E-01
        1   -1    0    0  501    0  0.00000000000E+00  0.00000000000E+00  0.26656932454E+04  0.26656932454E+04  0.50400001928E-02 0.  1.
       -1   -1    0    0    0  501  0.00000000000E+00  0.00000000000E+00 -0.13134925337E+04  0.13134925337E+04  0.50400001928E-02 0. -1.
    10030    2    1    2    0    0  0.00000000000E+00  0.00000000000E+00  0.13522007117E+04  0.39791857791E+04  0.37423886357E+04 0.  0.
        3    1    3    3  502    0 -0.14575090834E+04 -0.11463855433E+04  0.94263170120E+03  0.20801651561E+04  0.10100000352E+00 0.  1.
       -3    1    3    3    0  502  0.14575090834E+04  0.11463855433E+04  0.40956901046E+03  0.18990206231E+04  0.10100000352E+00 0. -1.
</event>
<event>
 5   0  0.1685793E-06  0.3697023E+04  0.7818609E-02  0.8068622E-01
       -2   -1    0    0    0  501  0.00000000000E+00  0.00000000000E+00  0.20026510123E+04  0.20026510123E+04  0.25500000920E-02 0. -1.
        2   -1    0    0  501    0  0.00000000000E+00  0.00000000000E+00 -0.17062356096E+04  0.17062356096E+04  0.25500000920E-02 0.  1.
    10030    2    1    2    0    0  0.00000000000E+00  0.00000000000E+00  0.29641540273E+03  0.37088866219E+04  0.36970228405E+04 0.  0.
        3    1    3    3  502    0  0.13703973321E+04  0.98300053675E+03  0.90741594319E+03  0.19151194760E+04  0.10100000352E+00 0. -1.
       -3    1    3    3    0  502 -0.13703973321E+04 -0.98300053675E+03 -0.61100054046E+03  0.17937671459E+04  0.10100000352E+00 0.  1.
</event>
<event>
 5   0  0.1724503E-06  0.3673847E+04  0.7818609E-02  0.8073783E-01
        2   -1    0    0  501    0  0.00000000000E+00  0.00000000000E+00  0.17447390711E+04  0.17447390711E+04  0.25500000920E-02 0. -1.
       -2   -1    0    0    0  501  0.00000000000E+00  0.00000000000E+00 -0.19339784139E+04  0.19339784139E+04  0.25500000920E-02 0.  1.
    10030    2    1    2    0    0  0.00000000000E+00  0.00000000000E+00 -0.18923934286E+03  0.36787174850E+04  0.36738468674E+04 0.  0.
        1    1    3    3  502    0  0.82171209189E+03 -0.12928630580E+04 -0.11096608040E+04  0.18915741457E+04  0.50400001928E-02 0.  1.
       -1    1    3    3    0  502 -0.82171209189E+03  0.12928630580E+04  0.92042146116E+03  0.17871433392E+04  0.50400001928E-02 0. -1.
</event>
<event>
 5   0  0.1151180E-06  0.3691470E+04  0.7818609E-02  0.8069855E-01
        2   -1    0    0  501    0  0.00000000000E+00  0.00000000000E+00  0.16694935692E+04  0.16694935692E+04  0.25500000920E-02 0. -1.
       -2   -1    0    0    0  501  0.00000000000E+00  0.00000000000E+00 -0.20405809975E+04  0.20405809975E+04  0.25500000920E-02 0.  1.
    10030    2    1    2    0    0  0.00000000000E+00  0.00000000000E+00 -0.37108742831E+03  0.37100745667E+04  0.36914695462E+04 0.  0.
        5    1    3    3  502    0  0.48959955834E+03 -0.26225428585E+03  0.15835064841E+04  0.16780941312E+04  0.46999998093E+01 0. -1.
       -5    1    3    3    0  502 -0.48959955834E+03  0.26225428585E+03 -0.19545939124E+04  0.20319804355E+04  0.46999998093E+01 0.  1.
</event>
<event>
 5   0  0.1151180E-06  0.3734581E+04  0.7818609E-02  0.8060341E-01
       -2   -1    0    0    0  501  0.00000000000E+00  0.00000000000E+00  0.14391424744E+04  0.14391424744E+04  0.25500000920E-02 0.  1.
        2   -1    0    0  501    0  0.00000000000E+00  0.00000000000E+00 -0.24228131879E+04  0.24228131879E+04  0.25500000920E-02 0. -1.
    10030    2    1    2    0    0  0.00000000000E+00  0.00000000000E+00 -0.98367071345E+03  0.38619556623E+04  0.37345807616E+04 0.  0.
        5    1    3    3  502    0 -0.90351326479E+03 -0.24889013300E+03  0.11783252948E+04  0.15055746771E+04  0.46999998093E+01 0.  1.
       -5    1    3    3    0  502  0.90351326479E+03  0.24889013300E+03 -0.21619960082E+04  0.23563809852E+04  0.46999998093E+01 0. -1.
</event>
<event>
 5   0  0.1724503E-06  0.3599188E+04  0.7818609E-02  0.8090678E-01
        2   -1    0    0  501    0  0.00000000000E+00  0.00000000000E+00  0.14459651040E+04  0.14459651040E+04  0.25500000920E-02 0.  1.
       -2   -1    0    0    0  501  0.00000000000E+00  0.00000000000E+00 -0.22397071773E+04  0.22397071773E+04  0.25500000920E-02 0. -1.
    10030    2    1    2    0    0  0.00000000000E+00  0.00000000000E+00 -0.79374207330E+03  0.36856722813E+04  0.35991879204E+04 0.  0.
        1    1    3    3  502    0 -0.40805070919E+03  0.17389066988E+04 -0.17196545295E+03  0.17944007371E+04  0.50400001928E-02 0.  1.
       -1    1    3    3    0  502  0.40805070919E+03 -0.17389066988E+04 -0.62177662035E+03  0.18912715442E+04  0.50400001928E-02 0. -1.
</event>
<event>
 5   0  0.1685793E-06  0.2006099E+04  0.7818609E-02  0.8603775E-01
        2   -1    0    0  501    0  0.00000000000E+00  0.00000000000E+00  0.20986452019E+04  0.20986452019E+04  0.25500000920E-02 0.  1.
       -2   -1    0    0    0  501  0.00000000000E+00  0.00000000000E+00 -0.47940830337E+03  0.47940830338E+03  0.25500000920E-02 0. -1.
    10030    2    1    2    0    0  0.00000000000E+00  0.00000000000E+00  0.16192368985E+04  0.25780535053E+04  0.20060986373E+04 0.  0.
        3    1    3    3  502    0 -0.30031391974E+03  0.65911774516E+03  0.17013420185E+04  0.18491050069E+04  0.10100000352E+00 0.  1.
       -3    1    3    3    0  502  0.30031391974E+03 -0.65911774516E+03 -0.82105119978E+02  0.72894849838E+03  0.10100000352E+00 0. -1.
</event>
<event>
 5   0  0.5875011E-07  0.2612714E+04  0.7818609E-02  0.8363895E-01
        1   -1    0    0  501    0  0.00000000000E+00  0.00000000000E+00  0.17566017317E+04  0.17566017317E+04  0.50400001928E-02 0. -1.
       -1   -1    0    0    0  501  0.00000000000E+00  0.00000000000E+00 -0.97151741514E+03  0.97151741516E+03  0.50400001928E-02 0.  1.
    10030    2    1    2    0    0  0.00000000000E+00  0.00000000000E+00  0.78508431660E+03  0.27281191469E+04  0.26127144305E+04 0.  0.
        2    1    3    3  502    0  0.11153696248E+04 -0.55888475750E+03  0.79717349348E+03  0.14805023306E+04  0.25500000920E-02 0. -1.
       -2    1    3    3    0  502 -0.11153696248E+04  0.55888475750E+03 -0.12089176884E+02  0.12476168163E+04  0.25500000920E-02 0.  1.
</event>
<event>
 5   0  0.5875011E-07  0.2678125E+04  0.7818609E-02  0.8342138E-01
        1   -1    0    0  501    0  0.00000000000E+00  0.00000000000E+00  0.19721118871E+04  0.19721118871E+04  0.50400001928E-02 0. -1.
       -1   -1    0    0    0  501  0.00000000000E+00  0.00000000000E+00 -0.90922212073E+03  0.90922212074E+03  0.50400001928E-02 0.  1.
    10030    2    1    2    0    0  0.00000000000E+00  0.00000000000E+00  0.10628897664E+04  0.28813340079E+04  0.26781245321E+04 0.  0.
        2    1    3    3  502    0 -0.53940729460E+03  0.11357043377E+04  0.35719579677E+02  0.12577998491E+04  0.25500000920E-02 0. -1.
       -2    1    3    3    0  502  0.53940729460E+03 -0.11357043377E+04  0.10271701867E+04  0.16235341587E+04  0.25500000920E-02 0.  1.
</event>
<event>
 5   0  0.5679750E-07  0.3696908E+04  0.7818609E-02  0.8068647E-01
        1   -1    0    0  501    0  0.00000000000E+00  0.00000000000E+00  0.14446354986E+04  0.14446354986E+04  0.50400001928E-02 0. -1.
       -1   -1    0    0    0  501  0.00000000000E+00  0.00000000000E+00 -0.23651520195E+04  0.23651520195E+04  0.50400001928E-02 0.  1.
    10030    2    1    2    0    0  0.00000000000E+00  0.00000000000E+00 -0.92051652092E+03  0.38097875181E+04  0.36969082039E+04 0.  0.
        4    1    3    3  502    0 -0.16549981752E+04 -0.46498292909E+03  0.23986227372E+03  0.17357314330E+04  0.12699999809E+01 0. -1.
       -4    1    3    3    0  502  0.16549981752E+04  0.46498292909E+03 -0.11603787946E+04  0.20740560851E+04  0.12699999809E+01 0.  1.
</event>
<event>
 5   0  0.5679750E-07  0.2123409E+04  0.7818609E-02  0.8551001E-01
       -1   -1    0    0    0  501  0.00000000000E+00  0.00000000000E+00  0.61248347070E+03  0.61248347072E+03  0.50400001928E-02 0. -1.
        1   -1    0    0  501    0  0.00000000000E+00  0.00000000000E+00 -0.18404038502E+04  0.18404038502E+04  0.50400001928E-02 0.  1.
    10030    2    1    2    0    0  0.00000000000E+00  0.00000000000E+00 -0.12279203795E+04  0.24528873210E+04  0.21234094638E+04 0.  0.
        4    1    3    3  502    0 -0.35920980211E+03  0.31736022321E+03 -0.17083017272E+04  0.17742732589E+04  0.12699999809E+01 0.  1.
       -4    1    3    3    0  502  0.35920980211E+03 -0.31736022321E+03  0.48038134763E+03  0.67861406209E+03  0.12699999809E+01 0. -1.
</event>
<event>
 5   0  0.1151180E-06  0.2299610E+04  0.7818609E-02  0.8478075E-01
        2   -1    0    0  501    0  0.00000000000E+00  0.00000000000E+00  0.14554467844E+04  0.14554467844E+04  0.25500000920E-02 0.  1.
       -2   -1    0    0    0  501  0.00000000000E+00  0.00000000000E+00 -0.90834770667E+03  0.90834770667E+03  0.25500000920E-02 0. -1.
    10030    2    1    2    0    0  0.00000000000E+00  0.00000000000E+00  0.54709907778E+03  0.23637944911E+04  0.22996101833E+04 0.  0.
        5    1    3    3  502    0 -0.54054701657E+03 -0.93746191270E+03  0.67298751325E+03  0.12743469692E+04  0.46999998093E+01 0.  1.
       -5    1    3    3    0  502  0.54054701657E+03  0.93746191270E+03 -0.12588843547E+03  0.10894475219E+04  0.46999998093E+01 0. -1.
</event>
<event>
 5   0  0.6186440E-07  0.3595895E+04  0.7818609E-02  0.8091433E-01
       -1   -1    0    0    0  501  0.00000000000E+00  0.00000000000E+00  0.18697281698E+04  0.18697281698E+04  0.50400001928E-02 0.  1.
        1   -1    0    0  501    0  0.00000000000E+00  0.00000000000E+00 -0.17289228798E+04  0.17289228798E+04  0.50400001928E-02 0. -1.
    10030    2    1    2    0    0  0.00000000000E+00  0.00000000000E+00  0.14080528997E+03  0.35986510496E+04  0.35958953332E+04 0.  0.
        3    1    3    3  502    0 -0.20184187102E+03 -0.21549484673E+03  0.18452999645E+04  0.18687723615E+04  0.10100000352E+00 0.  1.
       -3    1    3    3    0  502  0.20184187102E+03  0.21549484673E+03 -0.17044946745E+04  0.17298786881E+04  0.10100000352E+00 0. -1.
</event>
<event>
 5   0  0.6287345E-07  0.3501930E+04  0.7818609E-02  0.8113333E-01
        1   -1    0    0  501    0  0.00000000000E+00  0.00000000000E+00  0.22609487561E+04  0.22609487561E+04  0.50400001928E-02 0. -1.
       -1   -1    0    0    0  501  0.00000000000E+00  0.00000000000E+00 -0.13560139724E+04  0.13560139724E+04  0.50400001928E-02 0.  1.
    10030    2    1    2    0    0  0.00000000000E+00  0.00000000000E+00  0.90493478371E+03  0.36169627284E+04  0.35019298131E+04 0.  0.
        5    1    3    3  502    0 -0.13045968066E+04 -0.11636572803E+04  0.35029931021E+03  0.17829197376E+04  0.46999998093E+01 0.  1.
       -5    1    3    3    0  502  0.13045968066E+04  0.11636572803E+04  0.55463547350E+03  0.18340429909E+04  0.46999998093E+01 0. -1.
</event>
<event>
 5   0  0.1151180E-06  0.1994589E+04  0.7818609E-02  0.8609155E-01
        2   -1    0    0  501    0  0.00000000000E+00  0.00000000000E+00  0.12295966160E+04  0.12295966160E+04  0.25500000920E-02 0.  1.
       -2   -1    0    0    0  501  0.00000000000E+00  0.00000000000E+00 -0.80887987121E+03  0.80887987121E+03  0.25500000920E-02 0. -1.
    10030    2    1    2    0    0  0.00000000000E+00  0.00000000000E+00  0.42071674483E+03  0.20384764873E+04  0.19945886317E+04 0.  0.
        5    1    3    3  502    0 -0.89744771444E+03  0.43488331706E+03  0.21665534154E+03  0.10205378614E+04  0.46999998093E+01 0.  1.
       -5    1    3    3    0  502  0.89744771444E+03 -0.43488331706E+03  0.20406140329E+03  0.10179386258E+04  0.46999998093E+01 0. -1.
</event>
<event>
 5   0  0.1184684E-06  0.3510214E+04  0.7818609E-02  0.8111374E-01
       -2   -1    0    0    0  501  0.00000000000E+00  0.00000000000E+00  0.10857788606E+04  0.10857788606E+04  0.25500000920E-02 0. -1.
        2   -1    0    0  501    0  0.00000000000E+00  0.00000000000E+00 -0.28370429938E+04  0.28370429938E+04  0.25500000920E-02 0.  1.
    10030    2    1    2    0    0  0.00000000000E+00  0.00000000000E+00 -0.17512641332E+04  0.39228218544E+04  0.35102144147E+04 0.  0.
        4    1    3    3  502    0  0.71759849141E+03  0.85199802800E+03  0.64009467108E+03  0.12847455139E+04  0.12699999809E+01 0. -1.
       -4    1    3    3    0  502 -0.71759849141E+03 -0.85199802800E+03 -0.23913588043E+04  0.26380763405E+04  0.12699999809E+01 0.  1.
</event>
<event>
 5   0  0.1724503E-06  0.2140241E+04  0.7818609E-02  0.8543721E-01
        2   -1    0    0  501    0  0.00000000000E+00  0.00000000000E+00  0.19322408414E+04  0.19322408414E+04  0.25500000920E-02 0.  1.
       -2   -1    0    0    0  501  0.00000000000E+00  0.00000000000E+00 -0.59265804178E+03  0.59265804178E+03  0.25500000920E-02 0. -1.
    10030    2    1    2    0    0  0.00000000000E+00  0.00000000000E+00  0.13395827996E+04  0.25248988832E+04  0.21402411764E+04 0.  0.
        1    1    3    3  502    0 -0.22257792663E+03 -0.27604729259E+03 -0.52133209635E+03  0.63049995708E+03  0.50400001928E-02 0. -1.
       -1    1    3    3    0  502  0.22257792663E+03  0.27604729259E+03  0.18609148960E+04  0.18943989261E+04  0.50400001928E-02 0.  1.
</event>
<event>
 5   0  0.1680194E-06  0.3676717E+04  0.7818609E-02  0.8073141E-01
       -2   -1    0    0    0  501  0.00000000000E+00  0.00000000000E+00  0.15783889371E+04  0.15783889371E+04  0.25500000920E-02 0.  1.
        2   -1    0    0  501    0  0.00000000000E+00  0.00000000000E+00 -0.21411460707E+04  0.21411460707E+04  0.25500000920E-02 0. -1.
    10030    2    1    2    0    0  0.00000000000E+00  0.00000000000E+00 -0.56275713359E+03  0.37195350077E+04  0.36767166171E+04 0.  0.
        2    1    3    3  502    0  0.59444612685E+03  0.13830485784E+04  0.78607399103E+03  0.16982643750E+04  0.25500000920E-02 0.  1.
       -2    1    3    3    0  502 -0.59444612685E+03 -0.13830485784E+04 -0.13488311246E+04  0.20212706327E+04  0.25500000920E-02 0. -1.
</event>
<event>
 5   0  0.5875011E-07  0.3679964E+04  0.7818609E-02  0.8072417E-01
       -1   -1    0    0    0  501  0.00000000000E+00  0.00000000000E+00  0.25552089300E+04  0.25552089301E+04  0.50400001928E-02 0.  1.
        1   -1    0    0  501    0  0.00000000000E+00  0.00000000000E+00 -0.13249540163E+04  0.13249540163E+04  0.50400001928E-02 0. -1.
    10030    2    1    2    0    0  0.00000000000E+00  0.00000000000E+00  0.12302549138E+04  0.38801629463E+04  0.36799643120E+04 0.  0.
        2    1    3    3  502    0  0.59499158848E+03  0.10623251490E+04  0.20696618556E+04  0.24012600670E+04  0.25500000920E-02 0.  1.
       -2    1    3    3    0  502 -0.59499158848E+03 -0.10623251490E+04 -0.83940694185E+03  0.14789028794E+04  0.25500000920E-02 0. -1.
</event>
<event>
 5   0  0.5875011E-07  0.3712358E+04  0.7818609E-02  0.8065229E-01
        1   -1    0    0  501    0  0.00000000000E+00  0.00000000000E+00  0.24330263916E+04  0.24330263916E+04  0.50400001928E-02 0. -1.
       -1   -1    0    0    0  501  0.00000000000E+00  0.00000000000E+00 -0.14160967783E+04  0.14160967783E+04  0.50400001928E-02 0.  1.
    10030    2    1    2    0    0  0.00000000000E+00  0.00000000000E+00  0.10169296133E+04  0.38491231699E+04  0.37123581911E+04 0.  0.
        2    1    3    3  502    0  0.26825355425E+03 -0.13775588414E+04 -0.75110326340E+03  0.15917865570E+04  0.25500000920E-02 0.  1.
       -2    1    3    3    0  502 -0.26825355425E+03  0.13775588414E+04  0.17680328767E+04  0.22573366129E+04  0.25500000920E-02 0. -1.
</event>
<event>
 5   0  0.5679750E-07  0.1869090E+04  0.7818609E-02  0.8670397E-01
       -1   -1    0    0    0  501  0.00000000000E+00  0.00000000000E+00  0.84958338802E+03  0.84958338804E+03  0.50400001928E-02 0. -1.
        1   -1    0    0  501    0  0.00000000000E+00  0.00000000000E+00 -0.10280028212E+04  0.10280028212E+04  0.50400001928E-02 0.  1.
    10030    2    1    2    0    0  0.00000000000E+00  0.00000000000E+00 -0.17841943313E+03  0.18775862092E+04  0.18690897461E+04 0.  0.
        4    1    3    3  502    0  0.62791732222E+02 -0.86887903235E+03 -0.42909512236E+03  0.97109104178E+03  0.12699999809E+01 0. -1.
       -4    1    3    3    0  502 -0.62791732222E+02  0.86887903235E+03  0.25067568923E+03  0.90649516742E+03  0.12699999809E+01 0.  1.
</event>
<event>
 5   0  0.1151180E-06  0.3887520E+04  0.7818609E-02  0.8027630E-01
       -2   -1    0    0    0  501  0.00000000000E+00  0.00000000000E+00  0.27755126475E+04  0.27755126475E+04  0.25500000920E-02 0.  1.
        2   -1    0    0  501    0  0.00000000000E+00  0.00000000000E+00 -0.13612630620E+04  0.13612630620E+04  0.25500000920E-02 0. -1.
    10030    2    1    2    0    0  0.00000000000E+00  0.00000000000E+00  0.14142495855E+04  0.41367757095E+04  0.38875199524E+04 0.  0.
        5    1    3    3  502    0  0.13528554898E+03  0.16089967935E+04 -0.44438929355E+03  0.16747169299E+04  0.46999998093E+01 0. -1.
       -5    1    3    3    0  502 -0.13528554898E+03 -0.16089967935E+04  0.18586388791E+04  0.24620587796E+04  0.46999998093E+01 0.  1.
</event>
<event>
 5   0  0.1151180E-06  0.3622128E+04  0.7818609E-02  0.8085442E-01
        2   -1    0    0  501    0  0.00000000000E+00  0.00000000000E+00  0.17583023554E+04  0.17583023554E+04  0.25500000920E-02 0. -1.
       -2   -1    0    0    0  501  0.00000000000E+00  0.00000000000E+00 -0.18654091321E+04  0.18654091321E+04  0.25500000920E-02 0.  1.
    10030    2    1    2    0    0  0.00000000000E+00  0.00000000000E+00 -0.10710677671E+03  0.36237114876E+04  0.36221282533E+04 0.  0.
        5    1    3    3  502    0 -0.10612333211E+04  0.75131090507E+03 -0.13147578000E+04  0.18491334188E+04  0.46999998093E+01 0. -1.
       -5    1    3    3    0  502  0.10612333211E+04 -0.75131090507E+03  0.12076510233E+04  0.17745780687E+04  0.46999998093E+01 0.  1.
</event>
<event>
 5   0  0.1724503E-06  0.2945712E+04  0.7818609E-02  0.8259405E-01
       -2   -1    0    0    0  501  0.00000000000E+00  0.00000000000E+00  0.29497652146E+04  0.29497652146E+04  0.25500000920E-02 0. -1.
        2   -1    0    0  501    0  0.00000000000E+00  0.00000000000E+00 -0.73541607966E+03  0.73541607966E+03  0.25500000920E-02 0.  1.
    10030    2    1    2    0    0  0.00000000000E+00  0.00000000000E+00  0.22143491349E+04  0.36851812942E+04  0.29457119819E+04 0.  0.
        1    1    3    3  502    0 -0.22844875601E+03 -0.45293194679E+03 -0.62267745303E+03  0.80315838605E+03  0.50400001928E-02 0.  1.
       -1    1    3    3    0  502  0.22844875601E+03  0.45293194679E+03  0.28370265880E+04  0.28820229082E+04  0.50400001928E-02 0. -1.
</event>
<event>
 5   0  0.1724503E-06  0.3757208E+04  0.7818609E-02  0.8055401E-01
        2   -1    0    0  501    0  0.00000000000E+00  0.00000000000E+00  0.26420479856E+04  0.26420479856E+04  0.25500000920E-02 0.  1.
       -2   -1    0    0    0  501  0.00000000000E+00  0.00000000000E+00 -0.13357642050E+04  0.13357642050E+04  0.25500000920E-02 0. -1.
    10030    2    1    2    0    0  0.00000000000E+00  0.00000000000E+00  0.13062837806E+04  0.39778121905E+04  0.37572080735E+04 0.  0.
        1    1    3    3  502    0 -0.67721698253E+03  0.18087801889E+03  0.24984104248E+04  0.25948784846E+04  0.50400001928E-02 0.  1.
       -1    1    3    3    0  502  0.67721698253E+03 -0.18087801889E+03 -0.11921266442E+04  0.13829337059E+04  0.50400001928E-02 0. -1.
</event>
<event>
 5   0  0.1724503E-06  0.3571000E+04  0.7818609E-02  0.8097167E-01
        2   -1    0    0  501    0  0.00000000000E+00  0.00000000000E+00  0.31469617202E+04  0.31469617202E+04  0.25500000920E-02 0. -1.
       -2   -1    0    0    0  501  0.00000000000E+00  0.00000000000E+00 -0.10130440091E+04  0.10130440091E+04  0.25500000920E-02 0.  1.
    10030    2    1    2    0    0  0.00000000000E+00  0.00000000000E+00  0.21339177111E+04  0.41600057293E+04  0.35710002618E+04 0.  0.
        1    1    3    3  502    0  0.12784605331E+03 -0.11063351153E+04 -0.55882879703E+03  0.12460383723E+04  0.50400001928E-02 0.  1.
       -1    1    3    3    0  502 -0.12784605331E+03  0.11063351153E+04  0.26927465081E+04  0.29139673570E+04  0.50400001928E-02 0. -1.
</event>
<event>
 5   0  0.5679750E-07  0.3611102E+04  0.7818609E-02  0.8087953E-01
        1   -1    0    0  501    0  0.00000000000E+00  0.00000000000E+00  0.26778715185E+04  0.26778715185E+04  0.50400001928E-02 0. -1.
       -1   -1    0    0    0  501  0.00000000000E+00  0.00000000000E+00 -0.12173903328E+04  0.12173903328E+04  0.50400001928E-02 0.  1.
    10030    2    1    2    0    0  0.00000000000E+00  0.00000000000E+00  0.14604811857E+04  0.38952618513E+04  0.36111022689E+04 0.  0.
        4    1    3    3  502    0  0.11811035822E+04 -0.12125303947E+04  0.14079962508E+04  0.22017471891E+04  0.12699999809E+01 0. -1.
       -4    1    3    3    0  502 -0.11811035822E+04  0.12125303947E+04  0.52484934976E+02  0.16935146622E+04  0.12699999809E+01 0.  1.
</event>
<event>
 5   0  0.1680194E-06  0.1907887E+04  0.7818609E-02  0.8650941E-01
        2   -1    0    0  501    0  0.00000000000E+00  0.00000000000E+00  0.52586887757E+03  0.52586887757E+03  0.25500000920E-02 0. -1.
       -2   -1    0    0    0  501  0.00000000000E+00  0.00000000000E+00 -0.17304845509E+04  0.17304845509E+04  0.25500000920E-02 0.  1.
    10030    2    1    2    0    0  0.00000000000E+00  0.00000000000E+00 -0.12046156734E+04  0.22563534285E+04  0.19078867560E+04 0.  0.
        2    1    3    3  502    0  0.88859885473E+03 -0.20641819721E+03 -0.93216111668E+03  0.13042778631E+04  0.25500000920E-02 0.  1.
       -2    1    3    3    0  502 -0.88859885473E+03  0.20641819721E+03 -0.27245455670E+03  0.95207556540E+03  0.25500000920E-02 0. -1.
</event>
<event>
 5   0  0.1680194E-06  0.3527640E+04  0.7818609E-02  0.8107271E-01
        2   -1    0    0  501    0  0.00000000000E+00  0.00000000000E+00  0.23939548797E+04  0.23939548797E+04  0.25500000920E-02 0. -1.
       -2   -1    0    0    0  501  0.00000000000E+00  0.00000000000E+00 -0.12995489914E+04  0.12995489914E+04  0.25500000920E-02 0.  1.
    10030    2    1    2    0    0  0.00000000000E+00  0.00000000000E+00  0.10944058883E+04  0.36935038711E+04  0.35276403724E+04 0.  0.
        2    1    3    3  502    0  0.93283629264E+03 -0.95523699812E+03  0.17539569509E+04  0.22043199081E+04  0.25500000920E-02 0. -1.
       -2    1    3    3    0  502 -0.93283629264E+03  0.95523699812E+03 -0.65955106262E+03  0.14891839630E+04  0.25500000920E-02 0.  1.
</event>
<event>
 5   0  0.5875011E-07  0.3181131E+04  0.7818609E-02  0.8193818E-01
        1   -1    0    0  501    0  0.00000000000E+00  0.00000000000E+00  0.13898377605E+04  0.13898377605E+04  0.50400001928E-02 0. -1.
       -1   -1    0    0    0  501  0.00000000000E+00  0.00000000000E+00 -0.18202839011E+04  0.18202839011E+04  0.50400001928E-02 0.  1.
    10030    2    1    2    0    0  0.00000000000E+00  0.00000000000E+00 -0.43044614051E+03  0.32101216616E+04  0.31811314343E+04 0.  0.
        2    1    3    3  502    0  0.65835976799E+03 -0.94159402856E+02  0.12427955766E+04  0.14095546894E+04  0.25500000920E-02 0. -1.
       -2    1    3    3    0  502 -0.65835976799E+03  0.94159402856E+02 -0.16732417171E+04  0.18005669722E+04  0.25500000920E-02 0.  1.
</event>
<event>
 5   0  0.5875011E-07  0.1834951E+04  0.7818609E-02  0.8687931E-01
        1   -1    0    0  501    0  0.00000000000E+00  0.00000000000E+00  0.25150059165E+04  0.25150059165E+04  0.50400001928E-02 0.  1.
       -1   -1    0    0    0  501  0.00000000000E+00  0.00000000000E+00 -0.33469549965E+03  0.33469549969E+03  0.50400001928E-02 0. -1.
    10030    2    1    2    0    0  0.00000000000E+00  0.00000000000E+00  0.21803104168E+04  0.28497014162E+04  0.18349508570E+04 0.  0.
        2    1    3    3  502    0  0.71719864577E+03 -0.52247665667E+03  0.72791558397E+03  0.11477006803E+04  0.25500000920E-02 0. -1.
       -2    1    3    3    0  502 -0.71719864577E+03  0.52247665667E+03  0.14523948329E+04  0.17020007358E+04  0.25500000920E-02 0.  1.
</event>
<event>
 5   0  0.5679750E-07  0.3362012E+04  0.7818609E-02  0.8147293E-01
       -3   -1    0    0    0  501  0.00000000000E+00  0.00000000000E+00  0.21352228430E+04  0.21352228454E+04  0.10100000352E+00 0. -1.
        3   -1    0    0  501    0  0.00000000000E+00  0.00000000000E+00 -0.13234131470E+04  0.13234131509E+04  0.10100000352E+00 0.  1.
    10030    2    1    2    0    0  0.00000000000E+00  0.00000000000E+00  0.81180969605E+03  0.34586359963E+04  0.33620124884E+04 0.  0.
        3    1    3    3  502    0 -0.96836631356E+03  0.13405814002E+04  0.95760404503E+02  0.16565210150E+04  0.10100000352E+00 0. -1.
       -3    1    3    3    0  502  0.96836631356E+03 -0.13405814002E+04  0.71604929155E+03  0.18021149813E+04  0.10100000352E+00 0.  1.
</event>
<event>
 5   0  0.6186440E-07  0.3381181E+04  0.7818609E-02  0.8142541E-01
        1   -1    0    0  501    0  0.00000000000E+00  0.00000000000E+00  0.20543749182E+04  0.20543749182E+04  0.50400001928E-02 0. -1.
       -1   -1    0    0    0  501  0.00000000000E+00  0.00000000000E+00 -0.13912241639E+04  0.13912241639E+04  0.50400001928E-02 0.  1.
    10030    2    1    2    0    0  0.00000000000E+00  0.00000000000E+00  0.66315075436E+03  0.34455990821E+04  0.33811808753E+04 0.  0.
        3    1    3    3  502    0 -0.10316479751E+04 -0.89151801330E+03 -0.68696394907E+03  0.15267682831E+04  0.10100000352E+00 0.  1.
       -3    1    3    3    0  502  0.10316479751E+04  0.89151801330E+03  0.13501147034E+04  0.19188307990E+04  0.10100000352E+00 0. -1.
</event>
<event>
 5   0  0.1184684E-06  0.3704250E+04  0.7818609E-02  0.8067021E-01
       -2   -1    0    0    0  501  0.00000000000E+00  0.00000000000E+00  0.19656703761E+04  0.19656703761E+04  0.25500000920E-02 0.  1.
        2   -1    0    0  501    0  0.00000000000E+00  0.00000000000E+00 -0.17451383720E+04  0.17451383720E+04  0.25500000920E-02 0. -1.
    10030    2    1    2    0    0  0.00000000000E+00  0.00000000000E+00  0.22053200413E+03  0.37108087481E+04  0.37042498836E+04 0.  0.
        4    1    3    3  502    0  0.69450621884E+03  0.17051928262E+04  0.31147912019E+03  0.18673623959E+04  0.12699999809E+01 0.  1.
       -4    1    3    3    0  502 -0.69450621884E+03 -0.17051928262E+04 -0.90947116065E+02  0.18434463522E+04  0.12699999809E+01 0. -1.
</event>
<event>
 5   0  0.6186440E-07  0.2009521E+04  0.7818609E-02  0.8602182E-01
       -1   -1    0    0    0  501  0.00000000000E+00  0.00000000000E+00  0.91558202671E+03  0.91558202672E+03  0.50400001928E-02 0. -1.
        1   -1    0    0  501    0  0.00000000000E+00  0.00000000000E+00 -0.11026254313E+04  0.11026254313E+04  0.50400001928E-02 0.  1.
    10030    2    1    2    0    0  0.00000000000E+00  0.00000000000E+00 -0.18704340457E+03  0.20182074580E+04  0.20095213630E+04 0.  0.
        3    1    3    3  502    0 -0.24919881103E+03 -0.94607125400E+03  0.13636319576E+03  0.98779845942E+03  0.10100000352E+00 0. -1.
       -3    1    3    3    0  502  0.24919881103E+03  0.94607125400E+03 -0.32340660033E+03  0.10304089986E+04  0.10100000352E+00 0.  1.
</event>
<event>
 5   0  0.1724503E-06  0.3872374E+04  0.7818609E-02  0.8030800E-01
       -2   -1    0    0    0  501  0.00000000000E+00  0.00000000000E+00  0.15837102063E+04  0.15837102063E+04  0.25500000920E-02 0.  1.
        2   -1    0    0  501    0  0.00000000000E+00  0.00000000000E+00 -0.23671124197E+04  0.23671124197E+04  0.25500000920E-02 0. -1.
    10030    2    1    2    0    0  0.00000000000E+00  0.00000000000E+00 -0.78340221336E+03  0.39508226260E+04  0.38723739998E+04 0.  0.
        1    1    3    3  502    0  0.38576251295E+03 -0.15987339514E+04 -0.14341922392E+04  0.21821251896E+04  0.50400001928E-02 0. -1.
       -1    1    3    3    0  502 -0.38576251295E+03  0.15987339514E+04  0.65079002587E+03  0.17686974364E+04  0.50400001928E-02 0.  1.
</event>
<event>
 5   0  0.6186440E-07  0.3751648E+04  0.7818609E-02  0.8056611E-01
       -1   -1    0    0    0  501  0.00000000000E+00  0.00000000000E+00  0.12075856236E+04  0.12075856236E+04  0.50400001928E-02 0.  1.
        1   -1    0    0  501    0  0.00000000000E+00  0.00000000000E+00 -0.29138433807E+04  0.29138433807E+04  0.50400001928E-02 0. -1.
    10030    2    1    2    0    0  0.00000000000E+00  0.00000000000E+00 -0.17062577572E+04  0.41214290043E+04  0.37516478384E+04 0.  0.
        3    1    3    3  502    0 -0.15116301658E+04 -0.10758648254E+04 -0.54986825498E+03  0.19351656231E+04  0.10100000352E+00 0. -1.
       -3    1    3    3    0  502  0.15116301658E+04  0.10758648254E+04 -0.11563895022E+04  0.21862633812E+04  0.10100000352E+00 0.  1.
</event>
<event>
 5   0  0.5679750E-07  0.1957941E+04  0.7818609E-02  0.8626541E-01
        1   -1    0    0  501    0  0.00000000000E+00  0.00000000000E+00  0.11219413559E+04  0.11219413559E+04  0.50400001928E-02 0.  1.
       -1   -1    0    0    0  501  0.00000000000E+00  0.00000000000E+00 -0.85421873963E+03  0.85421873964E+03  0.50400001928E-02 0. -1.
    10030    2    1    2    0    0  0.00000000000E+00  0.00000000000E+00  0.26772261629E+03  0.19761600956E+04  0.19579410931E+04 0.  0.
        4    1    3    3  502    0  0.70000356257E+03 -0.42638101628E+03 -0.40644791556E+03  0.91488101938E+03  0.12699999809E+01 0. -1.
       -4    1    3    3    0  502 -0.70000356257E+03  0.42638101628E+03  0.67417053185E+03  0.10612790762E+04  0.12699999809E+01 0.  1.
</event>
<event>
 5   0  0.6261598E-07  0.3707099E+04  0.7818609E-02  0.8066390E-01
        1   -1    0    0  501    0  0.00000000000E+00  0.00000000000E+00  0.22822966154E+04  0.22822966154E+04  0.50400001928E-02 0.  1.
       -1   -1    0    0    0  501  0.00000000000E+00  0.00000000000E+00 -0.15053460422E+04  0.15053460422E+04  0.50400001928E-02 0. -1.
    10030    2    1    2    0    0  0.00000000000E+00  0.00000000000E+00  0.77695057319E+03  0.37876426576E+04  0.37070992310E+04 0.  0.
        1    1    3    3  502    0 -0.50048670345E+03 -0.52572954244E+03  0.21310415678E+04  0.22512700095E+04  0.50400001928E-02 0.  1.
       -1    1    3    3    0  502  0.50048670345E+03  0.52572954244E+03 -0.13540909946E+04  0.15363726481E+04  0.50400001928E-02 0. -1.
</event>
<event>
 5   0  0.6186440E-07  0.3570351E+04  0.7818609E-02  0.8097317E-01
        1   -1    0    0  501    0  0.00000000000E+00  0.00000000000E+00  0.20631956377E+04  0.20631956377E+04  0.50400001928E-02 0.  1.
       -1   -1    0    0    0  501  0.00000000000E+00  0.00000000000E+00 -0.15446189408E+04  0.15446189408E+04  0.50400001928E-02 0. -1.
    10030    2    1    2    0    0  0.00000000000E+00  0.00000000000E+00  0.51857669683E+03  0.36078145785E+04  0.35703507170E+04 0.  0.
        3    1    3    3  502    0 -0.13205755816E+04 -0.45024338994E+03  0.13846220036E+04  0.19656594517E+04  0.10100000352E+00 0.  1.
       -3    1    3    3    0  502  0.13205755816E+04  0.45024338994E+03 -0.86604530677E+03  0.16421551268E+04  0.10100000352E+00 0. -1.
</event>
<event>
 5   0  0.1184684E-06  0.3218538E+04  0.7818609E-02  0.8183939E-01
        2   -1    0    0  501    0  0.00000000000E+00  0.00000000000E+00  0.15174254208E+04  0.15174254208E+04  0.25500000920E-02 0.  1.
       -2   -1    0    0    0  501  0.00000000000E+00  0.00000000000E+00 -0.17066712081E+04  0.17066712081E+04  0.25500000920E-02 0. -1.
    10030    2    1    2    0    0  0.00000000000E+00  0.00000000000E+00 -0.18924578721E+03  0.32240966289E+04  0.32185377277E+04 0.  0.
        4    1    3    3  502    0 -0.68091276738E+03  0.93717886317E+03  0.10243553187E+04  0.15463673076E+04  0.12699999809E+01 0.  1.
       -4    1    3    3    0  502  0.68091276738E+03 -0.93717886317E+03 -0.12136011059E+04  0.16777293213E+04  0.12699999809E+01 0. -1.
</event>
<event>
 5   0  0.1724503E-06  0.3668291E+04  0.7818609E-02  0.8075025E-01
       -2   -1    0    0    0  501  0.00000000000E+00  0.00000000000E+00  0.12137668245E+04  0.12137668245E+04  0.25500000920E-02 0. -1.
        2   -1    0    0  501    0  0.00000000000E+00  0.00000000000E+00 -0.27716114081E+04  0.27716114081E+04  0.25500000920E-02 0.  1.
    10030    2    1    2    0    0  0.00000000000E+00  0.00000000000E+00 -0.15578445836E+04  0.39853782326E+04  0.36682911430E+04 0.  0.
        1    1    3    3  502    0  0.12338757532E+04  0.11603255935E+04 -0.14323886977E+02  0.16938152293E+04  0.50400001928E-02 0.  1.
       -1    1    3    3    0  502 -0.12338757532E+04 -0.11603255935E+04 -0.15435206967E+04  0.22915630033E+04  0.50400001928E-02 0. -1.
</event>
<event>
 5   0  0.1680194E-06  0.3409522E+04  0.7818609E-02  0.8135573E-01
        2   -1    0    0  501    0  0.00000000000E+00  0.00000000000E+00  0.15249789495E+04  0.15249789495E+04  0.25500000920E-02 0. -1.
       -2   -1    0    0    0  501  0.00000000000E+00  0.00000000000E+00 -0.19057378223E+04  0.19057378224E+04  0.25500000920E-02 0.  1.
    10030    2    1    2    0    0  0.00000000000E+00  0.00000000000E+00 -0.38075887284E+03  0.34307167719E+04  0.34095219972E+04 0.  0.
        2    1    3    3  502    0 -0.84530571975E+03  0.96466794938E+03 -0.13203402571E+04  0.18407673419E+04  0.25500000920E-02 0.  1.
       -2    1    3    3    0  502  0.84530571975E+03 -0.96466794938E+03  0.93958138423E+03  0.15899494300E+04  0.25500000920E-02 0. -1.
</event>
<event>
 5   0  0.1724503E-06  0.3751584E+04  0.7818609E-02  0.8056625E-01
        2   -1    0    0  501    0  0.00000000000E+00  0.00000000000E+00  0.19909909126E+04  0.19909909126E+04  0.25500000920E-02 0.  1.
       -2   -1    0    0    0  501  0.00000000000E+00  0.00000000000E+00 -0.17672586126E+04  0.17672586126E+04  0.25500000920E-02 0. -1.
    10030    2    1    2    0    0  0.00000000000E+00  0.00000000000E+00  0.22373229998E+03  0.37582495252E+04  0.37515841123E+04 0.  0.
        1    1    3    3  502    0 -0.18378335125E+04 -0.65320559510E+02 -0.25851637082E+03  0.18570755260E+04  0.50400001928E-02 0. -1.
       -1    1    3    3    0  502  0.18378335125E+04  0.65320559510E+02  0.48224867080E+03  0.19011739993E+04  0.50400001928E-02 0.  1.
</event>
<event>
 5   0  0.1685793E-06  0.3700826E+04  0.7818609E-02  0.8067779E-01
       -2   -1    0    0    0  501  0.00000000000E+00  0.00000000000E+00  0.31443697421E+04  0.31443697421E+04  0.25500000920E-02 0. -1.
        2   -1    0    0  501    0  0.00000000000E+00  0.00000000000E+00 -0.10889393565E+04  0.10889393565E+04  0.25500000920E-02 0.  1.
    10030    2    1    2    0    0  0.00000000000E+00  0.00000000000E+00  0.20554303856E+04  0.42333090987E+04  0.37008258342E+04 0.  0.
        3    1    3    3  502    0 -0.53263528951E+03  0.59395936140E+03 -0.88210234661E+03  0.11893664846E+04  0.10100000352E+00 0.  1.
       -3    1    3    3    0  502  0.53263528951E+03 -0.59395936140E+03  0.29375327322E+04  0.30439426140E+04  0.10100000352E+00 0. -1.
</event>
<event>
 5   0  0.1724503E-06  0.2389754E+04  0.7818609E-02  0.8443349E-01
       -2   -1    0    0    0  501  0.00000000000E+00  0.00000000000E+00  0.10764380868E+04  0.10764380869E+04  0.25500000920E-02 0. -1.
        2   -1    0    0  501    0  0.00000000000E+00  0.00000000000E+00 -0.13263481064E+04  0.13263481064E+04  0.25500000920E-02 0.  1.
    10030    2    1    2    0    0  0.00000000000E+00  0.00000000000E+00 -0.24991001951E+03  0.24027861932E+04  0.23897544795E+04 0.  0.
        1    1    3    3  502    0  0.63643868978E+03 -0.47851796123E+03  0.77080048107E+03  0.11082269744E+04  0.50400001928E-02 0. -1.
       -1    1    3    3    0  502 -0.63643868978E+03  0.47851796123E+03 -0.10207105006E+04  0.12945592188E+04  0.50400001928E-02 0.  1.
</event>
<event>
 5   0  0.5679750E-07  0.3873103E+04  0.7818609E-02  0.8030647E-01
        1   -1    0    0  501    0  0.00000000000E+00  0.00000000000E+00  0.20360309316E+04  0.20360309316E+04  0.50400001928E-02 0. -1.
       -1   -1    0    0    0  501  0.00000000000E+00  0.00000000000E+00 -0.18419324738E+04  0.18419324738E+04  0.50400001928E-02 0.  1.
    10030    2    1    2    0    0  0.00000000000E+00  0.00000000000E+00  0.19409845779E+03  0.38779634054E+04  0.38731028856E+04 0.  0.
        4    1    3    3  502    0  0.99769167494E+03 -0.12905193927E+04  0.11421027598E+04  0.19912883538E+04  0.12699999809E+01 0. -1.
       -4    1    3    3    0  502 -0.99769167494E+03  0.12905193927E+04 -0.94800430196E+03  0.18866750517E+04  0.12699999809E+01 0.  1.
</event>
<event>
 5   0  0.6261598E-07  0.3851936E+04  0.7818609E-02  0.8035101E-01
       -1   -1    0    0    0  501  0.00000000000E+00  0.00000000000E+00  0.29928186549E+04  0.29928186549E+04  0.50400001928E-02 0. -1.
        1   -1    0    0  501    0  0.00000000000E+00  0.00000000000E+00 -0.12394174988E+04  0.12394174988E+04  0.50400001928E-02 0.  1.
    10030    2    1    2    0    0  0.00000000000E+00  0.00000000000E+00  0.17534011561E+04  0.42322361537E+04  0.38519355195E+04 0.  0.
        1    1    3    3  502    0 -0.16172401301E+04  0.88105438369E+03  0.14959294461E+04  0.23726625072E+04  0.50400001928E-02 0. -1.
       -1    1    3    3    0  502  0.16172401301E+04 -0.88105438369E+03  0.25747171003E+03  0.18595736465E+04  0.50400001928E-02 0.  1.
</event>
<event>
 5   0  0.5679750E-07  0.3708562E+04  0.7818609E-02  0.8066067E-01
       -3   -1    0    0    0  501  0.00000000000E+00  0.00000000000E+00  0.17776481870E+04  0.17776481898E+04  0.10100000352E+00 0.  1.
        3   -1    0    0  501    0  0.00000000000E+00  0.00000000000E+00 -0.19342177737E+04  0.19342177764E+04  0.10100000352E+00 0. -1.
    10030    2    1    2    0    0  0.00000000000E+00  0.00000000000E+00 -0.15656958676E+03  0.37118659662E+04  0.37085623785E+04 0.  0.
        4    1    3    3  502    0 -0.14388911112E+03  0.17765580615E+04  0.43353605409E+03  0.18343439550E+04  0.12699999809E+01 0. -1.
       -4    1    3    3    0  502  0.14388911112E+03 -0.17765580615E+04 -0.59010564085E+03  0.18775220112E+04  0.12699999809E+01 0.  1.
</event>
<event>
 5   0  0.6186440E-07  0.3788658E+04  0.7818609E-02  0.8048593E-01
        1   -1    0    0  501    0  0.00000000000E+00  0.00000000000E+00  0.20941132413E+04  0.20941132413E+04  0.50400001928E-02 0. -1.
       -1   -1    0    0    0  501  0.00000000000E+00  0.00000000000E+00 -0.17136045824E+04  0.17136045824E+04  0.50400001928E-02 0.  1.
    10030    2    1    2    0    0  0.00000000000E+00  0.00000000000E+00  0.38050865886E+03  0.38077178237E+04  0.37886578343E+04 0.  0.
        3    1    3    3  502    0  0.58538864508E+03 -0.18016109912E+04  0.19033658783E+03  0.19038671320E+04  0.10100000352E+00 0.  1.
       -3    1    3    3    0  502 -0.58538864508E+03  0.18016109912E+04  0.19017207103E+03  0.19038506917E+04  0.10100000352E+00 0. -1.
</event>
<event>
 5   0  0.6261598E-07  0.3597390E+04  0.7818609E-02  0.8091090E-01
       -1   -1    0    0    0  501  0.00000000000E+00  0.00000000000E+00  0.12689746038E+04  0.12689746038E+04  0.50400001928E-02 0.  1.
        1   -1    0    0  501    0  0.00000000000E+00  0.00000000000E+00 -0.25495417716E+04  0.25495417716E+04  0.50400001928E-02 0. -1.
    10030    2    1    2    0    0  0.00000000000E+00  0.00000000000E+00 -0.12805671678E+04  0.38185163755E+04  0.35973900315E+04 0.  0.
        1    1    3    3  502    0 -0.50217725563E+03 -0.17246304562E+04 -0.73969708762E+03  0.19425972274E+04  0.50400001928E-02 0.  1.
       -1    1    3    3    0  502  0.50217725563E+03  0.17246304562E+04 -0.54087008019E+03  0.18759191481E+04  0.50400001928E-02 0. -1.
</event>
<event>
 5   0  0.1680194E-06  0.3698366E+04  0.7818609E-02  0.8068324E-01
       -2   -1    0    0    0  501  0.00000000000E+00  0.00000000000E+00  0.14396570899E+04  0.14396570899E+04  0.25500000920E-02 0. -1.
        2   -1    0    0  501    0  0.00000000000E+00  0.00000000000E+00 -0.23752027553E+04  0.23752027553E+04  0.25500000920E-02 0.  1.
    10030    2    1    2    0    0  0.00000000000E+00  0.00000000000E+00 -0.93554566544E+03  0.38148598452E+04  0.36983658481E+04 0.  0.
        2    1    3    3  502    0 -0.65345465701E+03 -0.64942088734E+03  0.11860793743E+04  0.15018437867E+04  0.25500000920E-02 0. -1.
       -2    1    3    3    0  502  0.65345465701E+03  0.64942088734E+03 -0.21216250397E+04  0.23130160585E+04  0.25500000920E-02 0.  1.
</event>
<event>
 5   0  0.1724503E-06  0.3680168E+04  0.7818609E-02  0.8072371E-01
       -2   -1    0    0    0  501  0.00000000000E+00  0.00000000000E+00  0.15040176529E+04  0.15040176529E+04  0.25500000920E-02 0. -1.
        2   -1    0    0  501    0  0.00000000000E+00  0.00000000000E+00 -0.22512424156E+04  0.22512424156E+04  0.25500000920E-02 0.  1.
    10030    2    1    2    0    0  0.00000000000E+00  0.00000000000E+00 -0.74722476268E+03  0.37552600685E+04  0.36801675691E+04 0.  0.
        1    1    3    3  502    0  0.10758942295E+04  0.96433590011E+03  0.78911899002E+03  0.16462687817E+04  0.50400001928E-02 0. -1.
       -1    1    3    3    0  502 -0.10758942295E+04 -0.96433590011E+03 -0.15363437527E+04  0.21089912868E+04  0.50400001928E-02 0.  1.
</event>
<event>
 5   0  0.6261598E-07  0.2974313E+04  0.7818609E-02  0.8251104E-01
       -1   -1    0    0    0  501  0.00000000000E+00  0.00000000000E+00  0.12355115980E+04  0.12355115980E+04  0.50400001928E-02 0. -1.
        1   -1    0    0  501    0  0.00000000000E+00  0.00000000000E+00 -0.17900557317E+04  0.17900557317E+04  0.50400001928E-02 0.  1.
    10030    2    1    2    0    0  0.00000000000E+00  0.00000000000E+00 -0.55454413368E+03  0.30255673298E+04  0.29743131091E+04 0.  0.
        1    1    3    3  502    0 -0.36122072181E+03 -0.66040839298E+03 -0.15819552453E+04  0.17519138260E+04  0.50400001928E-02 0.  1.
       -1    1    3    3    0  502  0.36122072181E+03  0.66040839298E+03  0.10274111116E+04  0.12736535038E+04  0.50400001928E-02 0. -1.
</event>
<event>
 5   0  0.1151180E-06  0.2759796E+04  0.7818609E-02  0.8315860E-01
       -2   -1    0    0    0  501  0.00000000000E+00  0.00000000000E+00  0.11967774600E+04  0.11967774600E+04  0.25500000920E-02 0. -1.
        2   -1    0    0  501    0  0.00000000000E+00  0.00000000000E+00 -0.15910376641E+04  0.15910376641E+04  0.25500000920E-02 0.  1.
    10030    2    1    2    0    0  0.00000000000E+00  0.00000000000E+00 -0.39426020408E+03  0.27878151241E+04  0.27597956550E+04 0.  0.
        5    1    3    3  502    0 -0.13276485290E+03 -0.11832956852E+04 -0.90154831702E+03  0.14935282531E+04  0.46999998093E+01 0. -1.
       -5    1    3    3    0  502  0.13276485290E+03  0.11832956852E+04  0.50728811293E+03  0.12942868710E+04  0.46999998093E+01 0.  1.
</event>
<event>
 5   0  0.1680194E-06  0.3539960E+04  0.7818609E-02  0.8104385E-01
       -2   -1    0    0    0  501  0.00000000000E+00  0.00000000000E+00  0.20566994123E+04  0.20566994123E+04  0.25500000920E-02 0. -1.
        2   -1    0    0  501    0  0.00000000000E+00  0.00000000000E+00 -0.15232317425E+04  0.15232317425E+04  0.25500000920E-02 0.  1.
    10030    2    1    2    0    0  0.00000000000E+00  0.00000000000E+00  0.53346766976E+03  0.35799311548E+04  0.35399603555E+04 0.  0.
        2    1    3    3  502    0  0.34032530153E+03  0.45726487139E+03  0.19613386542E+04  0.20424891163E+04  0.25500000920E-02 0. -1.
       -2    1    3    3    0  502 -0.34032530153E+03 -0.45726487139E+03 -0.14278709845E+04  0.15374420385E+04  0.25500000920E-02 0.  1.
</event>
<event>
 5   0  0.5875011E-07  0.3301551E+04  0.7818609E-02  0.8162501E-01
        1   -1    0    0  501    0  0.00000000000E+00  0.00000000000E+00  0.28048133374E+04  0.28048133374E+04  0.50400001928E-02 0. -1.
       -1   -1    0    0    0  501  0.00000000000E+00  0.00000000000E+00 -0.97156538063E+03  0.97156538064E+03  0.50400001928E-02 0.  1.
    10030    2    1    2    0    0  0.00000000000E+00  0.00000000000E+00  0.18332479568E+04  0.37763787181E+04  0.33015508706E+04 0.  0.
        2    1    3    3  502    0  0.85593380363E+03  0.33579525298E+03 -0.65156834910E+03  0.11269083555E+04  0.25500000920E-02 0.  1.
       -2    1    3    3    0  502 -0.85593380363E+03 -0.33579525298E+03  0.24848163059E+04  0.26494703626E+04  0.25500000920E-02 0. -1.
</event>
<event>
 5   0  0.6287345E-07  0.3706270E+04  0.7818609E-02  0.8066574E-01
       -1   -1    0    0    0  501  0.00000000000E+00  0.00000000000E+00  0.20794318869E+04  0.20794318869E+04  0.50400001928E-02 0.  1.
        1   -1    0    0  501    0  0.00000000000E+00  0.00000000000E+00 -0.16514647429E+04  0.16514647429E+04  0.50400001928E-02 0. -1.
    10030    2    1    2    0    0  0.00000000000E+00  0.00000000000E+00  0.42796714397E+03  0.37308966298E+04  0.37062695242E+04 0.  0.
        5    1    3    3  502    0 -0.11046310034E+04  0.64460869680E+03 -0.11359552650E+04  0.17105982813E+04  0.46999998093E+01 0. -1.
       -5    1    3    3    0  502  0.11046310034E+04 -0.64460869680E+03  0.15639224090E+04  0.20202983485E+04  0.46999998093E+01 0.  1.
</event>
<event>
 5   0  0.1184684E-06  0.3844969E+04  0.7818609E-02  0.8036573E-01
        2   -1    0    0  501    0  0.00000000000E+00  0.00000000000E+00  0.17053463439E+04  0.17053463439E+04  0.25500000920E-02 0.  1.
       -2   -1    0    0    0  501  0.00000000000E+00  0.00000000000E+00 -0.21672703461E+04  0.21672703461E+04  0.25500000920E-02 0. -1.
    10030    2    1    2    0    0  0.00000000000E+00  0.00000000000E+00 -0.46192400220E+03  0.38726166901E+04  0.38449689523E+04 0.  0.
        4    1    3    3  502    0  0.51459591153E+02 -0.37352143608E+03  0.16677402233E+04  0.17098319853E+04  0.12699999809E+01 0.  1.
       -4    1    3    3    0  502 -0.51459591153E+02  0.37352143608E+03 -0.21296642255E+04  0.21627847047E+04  0.12699999809E+01 0. -1.
</event>
<event>
 5   0  0.5875011E-07  0.1836137E+04  0.7818609E-02  0.8687315E-01
       -1   -1    0    0    0  501  0.00000000000E+00  0.00000000000E+00  0.10544593010E+04  0.10544593011E+04  0.50400001928E-02 0. -1.
        1   -1    0    0  501    0  0.00000000000E+00  0.00000000000E+00 -0.79931912538E+03  0.79931912540E+03  0.50400001928E-02 0.  1.
    10030    2    1    2    0    0  0.00000000000E+00  0.00000000000E+00  0.25514017567E+03  0.18537784265E+04  0.18361366902E+04 0.  0.
        2    1    3    3  502    0  0.85663302523E+03  0.31743963735E+03  0.35804416851E+02  0.91425927371E+03  0.25500000920E-02 0. -1.
       -2    1    3    3    0  502 -0.85663302523E+03 -0.31743963735E+03  0.21933575882E+03  0.93951915275E+03  0.25500000920E-02 0.  1.
</event>
<event>
 5   0  0.5679750E-07  0.3700219E+04  0.7818609E-02  0.8067913E-01
       -1   -1    0    0    0  501  0.00000000000E+00  0.00000000000E+00  0.13925587975E+04  0.13925587975E+04  0.50400001928E-02 0.  1.
        1   -1    0    0  501    0  0.00000000000E+00  0.00000000000E+00 -0.24579965202E+04  0.24579965202E+04  0.50400001928E-02 0. -1.
    10030    2    1    2    0    0  0.00000000000E+00  0.00000000000E+00 -0.10654377227E+04  0.38505553177E+04  0.37002187386E+04 0.  0.
        4    1    3    3  502    0  0.89100254013E+03  0.12507353356E+04 -0.16064739704E+04  0.22223826486E+04  0.12699999809E+01 0. -1.
       -4    1    3    3    0  502 -0.89100254013E+03 -0.12507353356E+04  0.54103624763E+03  0.16281726691E+04  0.12699999809E+01 0.  1.
</event>
<event>
 5   0  0.1151180E-06  0.2333280E+04  0.7818609E-02  0.8464914E-01
       -2   -1    0    0    0  501  0.00000000000E+00  0.00000000000E+00  0.80368651546E+03  0.80368651546E+03  0.25500000920E-02 0. -1.
        2   -1    0    0  501    0  0.00000000000E+00  0.00000000000E+00 -0.16935074566E+04  0.16935074566E+04  0.25500000920E-02 0.  1.
    10030    2    1    2    0    0  0.00000000000E+00  0.00000000000E+00 -0.88982094112E+03  0.24971939720E+04  0.23332801861E+04 0.  0.
        5    1    3    3  502    0 -0.85572209994E+03 -0.45059523913E+02 -0.12921921671E+04  0.15505074524E+04  0.46999998093E+01 0.  1.
       -5    1    3    3    0  502  0.85572209994E+03  0.45059523913E+02  0.40237122602E+03  0.94668651968E+03  0.46999998093E+01 0. -1.
</event>
<event>
 5   0  0.1184684E-06  0.3572970E+04  0.7818609E-02  0.8096711E-01
       -2   -1    0    0    0  501  0.00000000000E+00  0.00000000000E+00  0.34648923677E+04  0.34648923677E+04  0.25500000920E-02 0. -1.
        2   -1    0    0  501    0  0.00000000000E+00  0.00000000000E+00 -0.92110469841E+03  0.92110469841E+03  0.25500000920E-02 0.  1.
    10030    2    1    2    0    0  0.00000000000E+00  0.00000000000E+00  0.25437876693E+04  0.43859970661E+04  0.35729699911E+04 0.  0.
        4    1    3    3  502    0 -0.86091738139E+03 -0.38168411930E+03 -0.59166419377E+03  0.11121733838E+04  0.12699999809E+01 0.  1.
       -4    1    3    3    0  502  0.86091738139E+03  0.38168411930E+03  0.31354518631E+04  0.32738236823E+04  0.12699999809E+01 0. -1.
</event>
<event>
 5   0  0.1685793E-06  0.2156406E+04  0.7818609E-02  0.8536795E-01
        2   -1    0    0  501    0  0.00000000000E+00  0.00000000000E+00  0.73744373013E+03  0.73744373013E+03  0.25500000920E-02 0. -1.
       -2   -1    0    0    0  501  0.00000000000E+00  0.00000000000E+00 -0.15764211518E+04  0.15764211519E+04  0.25500000920E-02 0.  1.
    10030    2    1    2    0    0  0.00000000000E+00  0.00000000000E+00 -0.83897742172E+03  0.23138648820E+04  0.21564061718E+04 0.  0.
        3    1    3    3  502    0 -0.68314550308E+03  0.74816013764E+03 -0.23647181087E+02  0.10134054319E+04  0.10100000352E+00 0. -1.
       -3    1    3    3    0  502  0.68314550308E+03 -0.74816013764E+03 -0.81533024064E+03  0.13004594501E+04  0.10100000352E+00 0.  1.
</event>
<event>
 5   0  0.6261598E-07  0.2000387E+04  0.7818609E-02  0.8606440E-01
       -1   -1    0    0    0  501  0.00000000000E+00  0.00000000000E+00  0.51375782146E+03  0.51375782148E+03  0.50400001928E-02 0. -1.
        1   -1    0    0  501    0  0.00000000000E+00  0.00000000000E+00 -0.19471950719E+04  0.19471950720E+04  0.50400001928E-02 0.  1.
    10030    2    1    2    0    0  0.00000000000E+00  0.00000000000E+00 -0.14334372505E+04  0.24609528934E+04  0.20003866608E+04 0.  0.
        1    1    3    3  502    0  0.37701717098E+03  0.51465790252E+03  0.23094208057E+03  0.67849019775E+03  0.50400001928E-02 0. -1.
       -1    1    3    3    0  502 -0.37701717098E+03 -0.51465790252E+03 -0.16643793311E+04  0.17824626957E+04  0.50400001928E-02 0.  1.
</event>
<event>
 5   0  0.1184684E-06  0.3776441E+04  0.7818609E-02  0.8051230E-01
       -2   -1    0    0    0  501  0.00000000000E+00  0.00000000000E+00  0.18823313453E+04  0.18823313453E+04  0.25500000920E-02 0. -1.
        2   -1    0    0  501    0  0.00000000000E+00  0.00000000000E+00 -0.18941278917E+04  0.18941278917E+04  0.25500000920E-02 0.  1.
    10030    2    1    2    0    0  0.00000000000E+00  0.00000000000E+00 -0.11796546376E+02  0.37764592370E+04  0.37764408125E+04 0.  0.
        4    1    3    3  502    0 -0.79911022075E+03  0.13533546872E+02 -0.17166416627E+04  0.18935734770E+04  0.12699999809E+01 0.  1.
       -4    1    3    3    0  502  0.79911022075E+03 -0.13533546872E+02  0.17048451163E+04  0.18828857600E+04  0.12699999809E+01 0. -1.
</event>
<event>
 5   0  0.5679750E-07  0.3049105E+04  0.7818609E-02  0.8229846E-01
       -1   -1    0    0    0  501  0.00000000000E+00  0.00000000000E+00  0.12694608389E+04  0.12694608389E+04  0.50400001928E-02 0. -1.
        1   -1    0    0  501    0  0.00000000000E+00  0.00000000000E+00 -0.18309036007E+04  0.18309036007E+04  0.50400001928E-02 0.  1.
    10030    2    1    2    0    0  0.00000000000E+00  0.00000000000E+00 -0.56144276180E+03  0.31003644396E+04  0.30491050628E+04 0.  0.
        4    1    3    3  502    0  0.55213899517E+03 -0.80939435181E+03 -0.14683822615E+04  0.17652548727E+04  0.12699999809E+01 0.  1.
       -4    1    3    3    0  502 -0.55213899517E+03  0.80939435181E+03  0.90693949971E+03  0.13351095670E+04  0.12699999809E+01 0. -1.
</event>
<event>
 5   0  0.6186440E-07  0.2351270E+04  0.7818609E-02  0.8457976E-01
       -1   -1    0    0    0  501  0.00000000000E+00  0.00000000000E+00  0.11349156879E+04  0.11349156879E+04  0.50400001928E-02 0. -1.
        1   -1    0    0  501    0  0.00000000000E+00  0.00000000000E+00 -0.12178155934E+04  0.12178155934E+04  0.50400001928E-02 0.  1.
    10030    2    1    2    0    0  0.00000000000E+00  0.00000000000E+00 -0.82899905531E+02  0.23527312813E+04  0.23512703136E+04 0.  0.
        3    1    3    3  502    0 -0.45173781360E+03  0.29574895941E+03  0.10035089972E+04  0.11395458819E+04  0.10100000352E+00 0. -1.
       -3    1    3    3    0  502  0.45173781360E+03 -0.29574895941E+03 -0.10864089028E+04  0.12131853994E+04  0.10100000352E+00 0.  1.
</event>
<event>
 5   0  0.1151180E-06  0.3575946E+04  0.7818609E-02  0.8096024E-01
       -2   -1    0    0    0  501  0.00000000000E+00  0.00000000000E+00  0.30496348096E+04  0.30496348096E+04  0.25500000920E-02 0. -1.
        2   -1    0    0  501    0  0.00000000000E+00  0.00000000000E+00 -0.10482722198E+04  0.10482722198E+04  0.25500000920E-02 0.  1.
    10030    2    1    2    0    0  0.00000000000E+00  0.00000000000E+00  0.20013625898E+04  0.40979070294E+04  0.35759460015E+04 0.  0.
        5    1    3    3  502    0  0.59594846814E+03  0.12098455425E+04 -0.34451920330E+03  0.13919757127E+04  0.46999998093E+01 0.  1.
       -5    1    3    3    0  502 -0.59594846814E+03 -0.12098455425E+04  0.23458817932E+04  0.27059313167E+04  0.46999998093E+01 0. -1.
</event>
<event>
 5   0  0.1151180E-06  0.3735086E+04  0.7818609E-02  0.8060230E-01
        2   -1    0    0  501    0  0.00000000000E+00  0.00000000000E+00  0.24930811852E+04  0.24930811852E+04  0.25500000920E-02 0.  1.
       -2   -1    0    0    0  501  0.00000000000E+00  0.00000000000E+00 -0.13989587706E+04  0.13989587706E+04  0.25500000920E-02 0. -1.
    10030    2    1    2    0    0  0.00000000000E+00  0.00000000000E+00  0.10941224146E+04  0.38920399557E+04  0.37350864995E+04 0.  0.
        5    1    3    3  502    0 -0.12046327181E+03  0.16544101278E+04  0.14410836200E+04  0.21973457536E+04  0.46999998093E+01 0.  1.
       -5    1    3    3    0  502  0.12046327181E+03 -0.16544101278E+04 -0.34696120542E+03  0.16946942022E+04  0.46999998093E+01 0. -1.
</event>
<event>
 5   0  0.6186440E-07  0.3722754E+04  0.7818609E-02  0.8062938E-01
        1   -1    0    0  501    0  0.00000000000E+00  0.00000000000E+00  0.19129130708E+04  0.19129130708E+04  0.50400001928E-02 0. -1.
       -1   -1    0    0    0  501  0.00000000000E+00  0.00000000000E+00 -0.18112288963E+04  0.18112288963E+04  0.50400001928E-02 0.  1.
    10030    2    1    2    0    0  0.00000000000E+00  0.00000000000E+00  0.10168417451E+03  0.37241419671E+04  0.37227535132E+04 0.  0.
        3    1    3    3  502    0  0.10374822963E+04  0.60750553886E+03 -0.13707054682E+04  0.18232569719E+04  0.10100000352E+00 0.  1.
       -3    1    3    3    0  502 -0.10374822963E+04 -0.60750553886E+03  0.14723896427E+04  0.19008849952E+04  0.10100000352E+00 0. -1.
</event>
<event>
 5   0  0.6186440E-07  0.3621927E+04  0.7818609E-02  0.8085487E-01
       -1   -1    0    0    0  501  0.00000000000E+00  0.00000000000E+00  0.16562485579E+04  0.16562485579E+04  0.50400001928E-02 0.  1.
        1   -1    0    0  501    0  0.00000000000E+00  0.00000000000E+00 -0.19801306157E+04  0.19801306157E+04  0.50400001928E-02 0. -1.
    10030    2    1    2    0    0  0.00000000000E+00  0.00000000000E+00 -0.32388205781E+03  0.36363791736E+04  0.36219268224E+04 0.  0.
        3    1    3    3  502    0  0.23537852120E+03  0.17823939568E+04 -0.38019567044E+03  0.18376289134E+04  0.10100000352E+00 0.  1.
       -3    1    3    3    0  502 -0.23537852120E+03 -0.17823939568E+04  0.56313612633E+02  0.17987502602E+04  0.10100000352E+00 0. -1.
</event>
<event>
 5   0  0.1151180E-06  0.2122044E+04  0.7818609E-02  0.8551594E-01
       -2   -1    0    0    0  501  0.00000000000E+00  0.00000000000E+00  0.10702685730E+04  0.10702685730E+04  0.25500000920E-02 0.  1.
        2   -1    0    0  501    0  0.00000000000E+00  0.00000000000E+00 -0.10518553894E+04  0.10518553894E+04  0.25500000920E-02 0. -1.
    10030    2    1    2    0    0  0.00000000000E+00  0.00000000000E+00  0.18413183565E+02  0.21221239624E+04  0.21220440774E+04 0.  0.
        5    1    3    3  502    0  0.46804653410E+02  0.71508157699E+00  0.10692250276E+04  0.10702595184E+04  0.46999998093E+01 0.  1.
       -5    1    3    3    0  502 -0.46804653410E+02 -0.71508157699E+00 -0.10508118441E+04  0.10518644440E+04  0.46999998093E+01 0. -1.
</event>
<event>
 5   0  0.1151180E-06  0.3708669E+04  0.7818609E-02  0.8066043E-01
        2   -1    0    0  501    0  0.00000000000E+00  0.00000000000E+00  0.15348314660E+04  0.15348314660E+04  0.25500000920E-02 0.  1.
       -2   -1    0    0    0  501  0.00000000000E+00  0.00000000000E+00 -0.22403483451E+04  0.22403483451E+04  0.25500000920E-02 0. -1.
    10030    2    1    2    0    0  0.00000000000E+00  0.00000000000E+00 -0.70551687913E+03  0.37751798112E+04  0.37086693759E+04 0.  0.
        5    1    3    3  502    0 -0.14137405061E+04  0.56195440791E+03 -0.14319987236E+04  0.20892815534E+04  0.46999998093E+01 0. -1.
       -5    1    3    3    0  502  0.14137405061E+04 -0.56195440791E+03  0.72648184442E+03  0.16858982577E+04  0.46999998093E+01 0.  1.
</event>
<event>
 5   0  0.6287345E-07  0.3679339E+04  0.7818609E-02  0.8072556E-01
        1   -1    0    0  501    0  0.00000000000E+00  0.00000000000E+00  0.12118272061E+04  0.12118272061E+04  0.50400001928E-02 0. -1.
       -1   -1    0    0    0  501  0.00000000000E+00  0.00000000000E+00 -0.27927938401E+04  0.27927938401E+04  0.50400001928E-02 0.  1.
    10030    2    1    2    0    0  0.00000000000E+00  0.00000000000E+00 -0.15809666340E+04  0.40046210461E+04  0.36793388299E+04 0.  0.
        5    1    3    3  502    0 -0.25905486452E+03 -0.58760212104E+03 -0.26668351479E+04  0.27430671650E+04  0.46999998093E+01 0.  1.
       -5    1    3    3    0  502  0.25905486452E+03  0.58760212104E+03  0.10858685139E+04  0.12615538811E+04  0.46999998093E+01 0. -1.
</event>
<event>
 5   0  0.1151180E-06  0.2567806E+04  0.7818609E-02  0.8379220E-01
       -2   -1    0    0    0  501  0.00000000000E+00  0.00000000000E+00  0.13371120435E+04  0.13371120435E+04  0.25500000920E-02 0. -1.
        2   -1    0    0  501    0  0.00000000000E+00  0.00000000000E+00 -0.12328117759E+04  0.12328117759E+04  0.25500000920E-02 0.  1.
    10030    2    1    2    0    0  0.00000000000E+00  0.00000000000E+00  0.10430026758E+03  0.25699238194E+04  0.25678064358E+04 0.  0.
        5    1    3    3  502    0  0.11415712528E+04 -0.70432463491E+02 -0.53163156564E+03  0.12612691500E+04  0.46999998093E+01 0.  1.
       -5    1    3    3    0  502 -0.11415712528E+04  0.70432463491E+02  0.63593183322E+03  0.13086546694E+04  0.46999998093E+01 0. -1.
</event>
<event>
 5   0  0.1184684E-06  0.3731988E+04  0.7818609E-02  0.8060910E-01
        2   -1    0    0  501    0  0.00000000000E+00  0.00000000000E+00  0.19927592023E+04  0.19927592023E+04  0.25500000920E-02 0.  1.
       -2   -1    0    0    0  501  0.00000000000E+00  0.00000000000E+00 -0.17472923474E+04  0.17472923474E+04  0.25500000920E-02 0. -1.
    10030    2    1    2    0    0  0.00000000000E+00  0.00000000000E+00  0.24546685491E+03  0.37400515497E+04  0.37319876229E+04 0.  0.
        4    1    3    3  502    0 -0.16569855569E+04  0.83751351186E+03 -0.64489066989E+02  0.18577379985E+04  0.12699999809E+01 0.  1.
       -4    1    3    3    0  502  0.16569855569E+04 -0.83751351186E+03  0.30995592190E+03  0.18823135512E+04  0.12699999809E+01 0. -1.
</event>
<event>
 5   0  0.6186440E-07  0.3649208E+04  0.7818609E-02  0.8079312E-01
       -1   -1    0    0    0  501  0.00000000000E+00  0.00000000000E+00  0.13247071456E+04  0.13247071457E+04  0.50400001928E-02 0.  1.
        1   -1    0    0  501    0  0.00000000000E+00  0.00000000000E+00 -0.25131437086E+04  0.25131437087E+04  0.50400001928E-02 0. -1.
    10030    2    1    2    0    0  0.00000000000E+00  0.00000000000E+00 -0.11884365630E+04  0.38378508543E+04  0.36492078203E+04 0.  0.
        3    1    3    3  502    0 -0.16281762535E+04  0.75781353673E+03 -0.25515468394E+03  0.18139303161E+04  0.10100000352E+00 0. -1.
       -3    1    3    3    0  502  0.16281762535E+04 -0.75781353673E+03 -0.93328187906E+03  0.20239205382E+04  0.10100000352E+00 0.  1.
</event>
<event>
 5   0  0.1151180E-06  0.3674886E+04  0.7818609E-02  0.8073550E-01
       -2   -1    0    0    0  501  0.00000000000E+00  0.00000000000E+00  0.16097235176E+04  0.16097235176E+04  0.25500000920E-02 0.  1.
        2   -1    0    0  501    0  0.00000000000E+00  0.00000000000E+00 -0.20973770884E+04  0.20973770884E+04  0.25500000920E-02 0. -1.
    10030    2    1    2    0    0  0.00000000000E+00  0.00000000000E+00 -0.48765357076E+03  0.37071006060E+04  0.36748862429E+04 0.  0.
        5    1    3    3  502    0  0.14796846726E+04 -0.10850314417E+04 -0.34170919887E+03  0.18664263249E+04  0.46999998093E+01 0.  1.
       -5    1    3    3    0  502 -0.14796846726E+04  0.10850314417E+04 -0.14594437189E+03  0.18406742812E+04  0.46999998093E+01 0. -1.
</event>
<event>
 5   0  0.5679750E-07  0.3702758E+04  0.7818609E-02  0.8067351E-01
       -1   -1    0    0    0  501  0.00000000000E+00  0.00000000000E+00  0.16398389216E+04  0.16398389216E+04  0.50400001928E-02 0. -1.
        1   -1    0    0  501    0  0.00000000000E+00  0.00000000000E+00 -0.20902073334E+04  0.20902073334E+04  0.50400001928E-02 0.  1.
    10030    2    1    2    0    0  0.00000000000E+00  0.00000000000E+00 -0.45036841186E+03  0.37300462550E+04  0.37027575344E+04 0.  0.
        4    1    3    3  502    0  0.18384618442E+04  0.20324550388E+03 -0.14490347174E+03  0.18553299751E+04  0.12699999809E+01 0.  1.
       -4    1    3    3    0  502 -0.18384618442E+04 -0.20324550388E+03 -0.30546494012E+03  0.18747162799E+04  0.12699999809E+01 0. -1.
</event>
<event>
 5   0  0.1685793E-06  0.2480466E+04  0.7818609E-02  0.8409978E-01
        2   -1    0    0  501    0  0.00000000000E+00  0.00000000000E+00  0.16422622631E+04  0.16422622631E+04  0.25500000920E-02 0.  1.
       -2   -1    0    0    0  501  0.00000000000E+00  0.00000000000E+00 -0.93662127197E+03  0.93662127198E+03  0.25500000920E-02 0. -1.
    10030    2    1    2    0    0  0.00000000000E+00  0.00000000000E+00  0.70564099112E+03  0.25788835351E+04  0.24804658996E+04 0.  0.
        3    1    3    3  502    0 -0.61871581711E+03  0.10520592829E+04  0.12376153183E+03  0.12267660429E+04  0.10100000352E+00 0. -1.
       -3    1    3    3    0  502  0.61871581711E+03 -0.10520592829E+04  0.58187945929E+03  0.13521174921E+04  0.10100000352E+00 0.  1.
</event>
<event>
 5   0  0.1685793E-06  0.2109819E+04  0.7818609E-02  0.8556930E-01
       -2   -1    0    0    0  501  0.00000000000E+00  0.00000000000E+00  0.66375673670E+03  0.66375673670E+03  0.25500000920E-02 0. -1.
        2   -1    0    0  501    0  0.00000000000E+00  0.00000000000E+00 -0.16765691161E+04  0.16765691161E+04  0.25500000920E-02 0.  1.
    10030    2    1    2    0    0  0.00000000000E+00  0.00000000000E+00 -0.10128123794E+04  0.23403258528E+04  0.21098189926E+04 0.  0.
        3    1    3    3  502    0  0.80783769825E+03  0.20476821542E+03 -0.12238307520E+04  0.14806395539E+04  0.10100000352E+00 0.  1.
       -3    1    3    3    0  502 -0.80783769825E+03 -0.20476821542E+03  0.21101837260E+03  0.85968629892E+03  0.10100000352E+00 0. -1.
</event>
<event>
 5   0  0.1184684E-06  0.2887027E+04  0.7818609E-02  0.8276748E-01
        2   -1    0    0  501    0  0.00000000000E+00  0.00000000000E+00  0.24054160499E+04  0.24054160499E+04  0.25500000920E-02 0.  1.
       -2   -1    0    0    0  501  0.00000000000E+00  0.00000000000E+00 -0.86626666173E+03  0.86626666173E+03  0.25500000920E-02 0. -1.
    10030    2    1    2    0    0  0.00000000000E+00  0.00000000000E+00  0.15391493882E+04  0.32716827116E+04  0.28870273512E+04 0.  0.
        4    1    3    3  502    0 -0.13365615445E+04 -0.43778444058E+03  0.40118042866E+03  0.14625318212E+04  0.12699999809E+01 0. -1.
       -4    1    3    3    0  502  0.13365615445E+04  0.43778444058E+03  0.11379689595E+04  0.18091508905E+04  0.12699999809E+01 0.  1.
</event>
<event>
 5   0  0.6186440E-07  0.2371502E+04  0.7818609E-02  0.8450251E-01
       -1   -1    0    0    0  501  0.00000000000E+00  0.00000000000E+00  0.15116047080E+04  0.15116047080E+04  0.50400001928E-02 0. -1.
        1   -1    0    0  501    0  0.00000000000E+00  0.00000000000E+00 -0.93014080952E+03  0.93014080953E+03  0.50400001928E-02 0.  1.
    10030    2    1    2    0    0  0.00000000000E+00  0.00000000000E+00  0.58146389849E+03  0.24417455175E+04  0.23715018253E+04 0.  0.
        3    1    3    3  502    0 -0.66119005190E+03 -0.97955975674E+03  0.19146241223E+03  0.11972332552E+04  0.10100000352E+00 0. -1.
       -3    1    3    3    0  502  0.66119005190E+03  0.97955975674E+03  0.39000148626E+03  0.12445122624E+04  0.10100000352E+00 0.  1.
</event>
<event>
 5   0  0.1680194E-06  0.3772842E+04  0.7818609E-02  0.8052008E-01
        2   -1    0    0  501    0  0.00000000000E+00  0.00000000000E+00  0.24429429231E+04  0.24429429231E+04  0.25500000920E-02 0.  1.
       -2   -1    0    0    0  501  0.00000000000E+00  0.00000000000E+00 -0.14566795297E+04  0.14566795297E+04  0.25500000920E-02 0. -1.
    10030    2    1    2    0    0  0.00000000000E+00  0.00000000000E+00  0.98626339337E+03  0.38996224528E+04  0.37728424024E+04 0.  0.
        2    1    3    3  502    0 -0.18855792855E+04  0.36032931107E+02  0.44834750945E+03  0.19384847442E+04  0.25500000920E-02 0.  1.
       -2    1    3    3    0  502  0.18855792855E+04 -0.36032931107E+02  0.53791588391E+03  0.19611377087E+04  0.25500000920E-02 0. -1.
</event>
<event>
 5   0  0.1151180E-06  0.2889962E+04  0.7818609E-02  0.8275870E-01
       -2   -1    0    0    0  501  0.00000000000E+00  0.00000000000E+00  0.10166939873E+04  0.10166939873E+04  0.25500000920E-02 0.  1.
        2   -1    0    0  501    0  0.00000000000E+00  0.00000000000E+00 -0.20536856907E+04  0.20536856907E+04  0.25500000920E-02 0. -1.
    10030    2    1    2    0    0  0.00000000000E+00  0.00000000000E+00 -0.10369917034E+04  0.30703796780E+04  0.28899618638E+04 0.  0.
        5    1    3    3  502    0  0.91746337755E+03 -0.33914645514E+03 -0.16484672467E+04  0.19168269929E+04  0.46999998093E+01 0. -1.
       -5    1    3    3    0  502 -0.91746337755E+03  0.33914645514E+03  0.61147554332E+03  0.11535526851E+04  0.46999998093E+01 0.  1.
</event>
<event>
 5   0  0.1680194E-06  0.3746603E+04  0.7818609E-02  0.8057712E-01
       -2   -1    0    0    0  501  0.00000000000E+00  0.00000000000E+00  0.17485928029E+04  0.17485928029E+04  0.25500000920E-02 0. -1.
        2   -1    0    0  501    0  0.00000000000E+00  0.00000000000E+00 -0.20069041633E+04  0.20069041633E+04  0.25500000920E-02 0.  1.
    10030    2    1    2    0    0  0.00000000000E+00  0.00000000000E+00 -0.25831136040E+03  0.37554969663E+04  0.37466028219E+04 0.  0.
        2    1    3    3  502    0 -0.60547373148E+03 -0.13108915713E+04 -0.13253968938E+04  0.19600285909E+04  0.25500000920E-02 0.  1.
       -2    1    3    3    0  502  0.60547373148E+03  0.13108915713E+04  0.10670855334E+04  0.17954683753E+04  0.25500000920E-02 0. -1.
</event>
<event>
 5   0  0.6186440E-07  0.2448379E+04  0.7818609E-02  0.8421610E-01
        1   -1    0    0  501    0  0.00000000000E+00  0.00000000000E+00  0.23135523194E+04  0.23135523194E+04  0.50400001928E-02 0. -1.
       -1   -1    0    0    0  501  0.00000000000E+00  0.00000000000E+00 -0.64776576173E+03  0.64776576175E+03  0.50400001928E-02 0.  1.
    10030    2    1    2    0    0  0.00000000000E+00  0.00000000000E+00  0.16657865577E+04  0.29613180812E+04  0.24483790397E+04 0.  0.
        3    1    3    3  502    0 -0.66766195496E+02  0.26403712134E+03 -0.61065910243E+03  0.66863882320E+03  0.10100000352E+00 0.  1.
       -3    1    3    3    0  502  0.66766195496E+02 -0.26403712134E+03  0.22764456601E+04  0.22926792580E+04  0.10100000352E+00 0. -1.
</event>
<event>
 5   0  0.1184684E-06  0.2481675E+04  0.7818609E-02  0.8409543E-01
        2   -1    0    0  501    0  0.00000000000E+00  0.00000000000E+00  0.12784020876E+04  0.12784020876E+04  0.25500000920E-02 0.  1.
       -2   -1    0    0    0  501  0.00000000000E+00  0.00000000000E+00 -0.12043762413E+04  0.12043762413E+04  0.25500000920E-02 0. -1.
    10030    2    1    2    0    0  0.00000000000E+00  0.00000000000E+00  0.74025846370E+02  0.24827783289E+04  0.24816745162E+04 0.  0.
        4    1    3    3  502    0 -0.25095776984E+03  0.17681517990E+03 -0.11657830605E+04  0.12055269251E+04  0.12699999809E+01 0. -1.
       -4    1    3    3    0  502  0.25095776984E+03 -0.17681517990E+03  0.12398089069E+04  0.12772514038E+04  0.12699999809E+01 0.  1.
</event>
<event>
 5   0  0.5679750E-07  0.2143806E+04  0.7818609E-02  0.8542188E-01
        1   -1    0    0  501    0  0.00000000000E+00  0.00000000000E+00  0.12015707555E+04  0.12015707555E+04  0.50400001928E-02 0.  1.
       -1   -1    0    0    0  501  0.00000000000E+00  0.00000000000E+00 -0.95622814660E+03  0.95622814662E+03  0.50400001928E-02 0. -1.
    10030    2    1    2    0    0  0.00000000000E+00  0.00000000000E+00  0.24534260887E+03  0.21577989021E+04  0.21438057529E+04 0.  0.
        4    1    3    3  502    0  0.89734821770E+03  0.36990751687E+03 -0.33517001452E+03  0.10268427077E+04  0.12699999809E+01 0. -1.
       -4    1    3    3    0  502 -0.89734821770E+03 -0.36990751687E+03  0.58051262339E+03  0.11309561944E+04  0.12699999809E+01 0.  1.
</event>
<event>
 5   0  0.6186440E-07  0.3676661E+04  0.7818609E-02  0.8073154E-01
        1   -1    0    0  501    0  0.00000000000E+00  0.00000000000E+00  0.18137421730E+04  0.18137421730E+04  0.50400001928E-02 0.  1.
       -1   -1    0    0    0  501  0.00000000000E+00  0.00000000000E+00 -0.18632522248E+04  0.18632522248E+04  0.50400001928E-02 0. -1.
    10030    2    1    2    0    0  0.00000000000E+00  0.00000000000E+00 -0.49510051827E+02  0.36769943978E+04  0.36766610609E+04 0.  0.
        3    1    3    3  502    0  0.11430783880E+04 -0.12630035431E+04 -0.71594211530E+03  0.18478039057E+04  0.10100000352E+00 0. -1.
       -3    1    3    3    0  502 -0.11430783880E+04  0.12630035431E+04  0.66643206348E+03  0.18291904922E+04  0.10100000352E+00 0.  1.
</event>
<event>
 5   0  0.5875011E-07  0.3616432E+04  0.7818609E-02  0.8086738E-01
        1   -1    0    0  501    0  0.00000000000E+00  0.00000000000E+00  0.30336107843E+04  0.30336107843E+04  0.50400001928E-02 0. -1.
       -1   -1    0    0    0  501  0.00000000000E+00  0.00000000000E+00 -0.10778063459E+04  0.10778063459E+04  0.50400001928E-02 0.  1.
    10030    2    1    2    0    0  0.00000000000E+00  0.00000000000E+00  0.19558044385E+04  0.41114171302E+04  0.36164319179E+04 0.  0.
        2    1    3    3  502    0 -0.11189580927E+04 -0.44460915729E+03 -0.55577886866E+03  0.13261352370E+04  0.25500000920E-02 0.  1.
       -2    1    3    3    0  502  0.11189580927E+04  0.44460915729E+03  0.25115833071E+04  0.27852818932E+04  0.25500000920E-02 0. -1.
</event>
<event>
 5   0  0.1680194E-06  0.3708434E+04  0.7818609E-02  0.8066095E-01
        2   -1    0    0  501    0  0.00000000000E+00  0.00000000000E+00  0.24933893646E+04  0.24933893646E+04  0.25500000920E-02 0. -1.
       -2   -1    0    0    0  501  0.00000000000E+00  0.00000000000E+00 -0.13788942068E+04  0.13788942068E+04  0.25500000920E-02 0.  1.
    10030    2    1    2    0    0  0.00000000000E+00  0.00000000000E+00  0.11144951579E+04  0.38722835714E+04  0.37084337126E+04 0.  0.
        2    1    3    3  502    0  0.64586456766E+03 -0.12721237523E+04 -0.67942854806E+03  0.15802098066E+04  0.25500000920E-02 0.  1.
       -2    1    3    3    0  502 -0.64586456766E+03  0.12721237523E+04  0.17939237059E+04  0.22920737649E+04  0.25500000920E-02 0. -1.
</event>
<event>
 5   0  0.1724503E-06  0.3668684E+04  0.7818609E-02  0.8074938E-01
       -2   -1    0    0    0  501  0.00000000000E+00  0.00000000000E+00  0.11818702725E+04  0.11818702725E+04  0.25500000920E-02 0. -1.
        2   -1    0    0  501    0  0.00000000000E+00  0.00000000000E+00 -0.28470215916E+04  0.28470215916E+04  0.25500000920E-02 0.  1.
    10030    2    1    2    0    0  0.00000000000E+00  0.00000000000E+00 -0.16651513192E+04  0.40288918641E+04  0.36686837880E+04 0.  0.
        1    1    3    3  502    0 -0.96606656719E+03  0.77465879688E+03 -0.23187522350E+04  0.26286865145E+04  0.50400001928E-02 0.  1.
       -1    1    3    3    0  502  0.96606656719E+03 -0.77465879688E+03  0.65360091587E+03  0.14002053496E+04  0.50400001928E-02 0. -1.
</event>
<event>
 5   0  0.6186440E-07  0.2684807E+04  0.7818609E-02  0.8339951E-01
        1   -1    0    0  501    0  0.00000000000E+00  0.00000000000E+00  0.14767570775E+04  0.14767570775E+04  0.50400001928E-02 0.  1.
       -1   -1    0    0    0  501  0.00000000000E+00  0.00000000000E+00 -0.12202730863E+04  0.12202730863E+04  0.50400001928E-02 0. -1.
    10030    2    1    2    0    0  0.00000000000E+00  0.00000000000E+00  0.25648399125E+03  0.26970301638E+04  0.26848068211E+04 0.  0.
        3    1    3    3  502    0 -0.65490813296E+02 -0.35972342960E+03  0.14257715056E+04  0.14719084173E+04  0.10100000352E+00 0.  1.
       -3    1    3    3    0  502  0.65490813296E+02  0.35972342960E+03 -0.11692875143E+04  0.12251217465E+04  0.10100000352E+00 0. -1.
</event>
<event>
 5   0  0.1382881E-06  0.1869024E+04  0.7818609E-02  0.8670430E-01
       -2   -1    0    0    0  501  0.00000000000E+00  0.00000000000E+00  0.47940649725E+03  0.47940649725E+03  0.25500000920E-02 0. -1.
        2   -1    0    0  501    0  0.00000000000E+00  0.00000000000E+00 -0.18216543069E+04  0.18216543069E+04  0.25500000920E-02 0.  1.
    10030    2    1    2    0    0  0.00000000000E+00  0.00000000000E+00 -0.13422478096E+04  0.23010608041E+04  0.18690242486E+04 0.  0.
        5    1    3    3  502    0  0.82742046267E+03  0.32532678658E+03 -0.10254503196E+04  0.13572150118E+04  0.46999998093E+01 0.  1.
       -5    1    3    3    0  502 -0.82742046267E+03 -0.32532678658E+03 -0.31679748998E+03  0.94384579236E+03  0.46999998093E+01 0. -1.
</event>
<event>
 5   0  0.1685793E-06  0.1903700E+04  0.7818609E-02  0.8653017E-01
        2   -1    0    0  501    0  0.00000000000E+00  0.00000000000E+00  0.68543286306E+03  0.68543286307E+03  0.25500000920E-02 0. -1.
       -2   -1    0    0    0  501  0.00000000000E+00  0.00000000000E+00 -0.13218194304E+04  0.13218194304E+04  0.25500000920E-02 0.  1.
    10030    2    1    2    0    0  0.00000000000E+00  0.00000000000E+00 -0.63638656738E+03  0.20072522935E+04  0.19037000569E+04 0.  0.
        3    1    3    3  502    0  0.53696816084E+03 -0.11592250381E+03 -0.11378088545E+04  0.12634800482E+04  0.10100000352E+00 0.  1.
       -3    1    3    3    0  502 -0.53696816084E+03  0.11592250381E+03  0.50142228713E+03  0.74377224530E+03  0.10100000352E+00 0. -1.
</event>
<event>
 5   0  0.1151180E-06  0.2158141E+04  0.7818609E-02  0.8536055E-01
       -2   -1    0    0    0  501  0.00000000000E+00  0.00000000000E+00  0.68031151650E+03  0.68031151651E+03  0.25500000920E-02 0.  1.
        2   -1    0    0  501    0  0.00000000000E+00  0.00000000000E+00 -0.17115591576E+04  0.17115591576E+04  0.25500000920E-02 0. -1.
    10030    2    1    2    0    0  0.00000000000E+00  0.00000000000E+00 -0.10312476411E+04  0.23918706741E+04  0.21581412429E+04 0.  0.
        5    1    3    3  502    0 -0.19129670892E+03 -0.54274067139E+03 -0.15272846222E+04  0.16321097617E+04  0.46999998093E+01 0. -1.
       -5    1    3    3    0  502  0.19129670892E+03  0.54274067139E+03  0.49603698114E+03  0.75976091231E+03  0.46999998093E+01 0.  1.
</event>
<event>
 5   0  0.5679750E-07  0.3657824E+04  0.7818609E-02  0.8077373E-01
       -1   -1    0    0    0  501  0.00000000000E+00  0.00000000000E+00  0.31133341168E+04  0.31133341168E+04  0.50400001928E-02 0.  1.
        1   -1    0    0  501    0  0.00000000000E+00  0.00000000000E+00 -0.10743850299E+04  0.10743850299E+04  0.50400001928E-02 0. -1.
    10030    2    1    2    0    0  0.00000000000E+00  0.00000000000E+00  0.20389490869E+04  0.41877191467E+04  0.36578242539E+04 0.  0.
        4    1    3    3  502    0 -0.15813976647E+04  0.59563040949E+03  0.18203276799E+04  0.24837851424E+04  0.12699999809E+01 0.  1.
       -4    1    3    3    0  502  0.15813976647E+04 -0.59563040949E+03  0.21862140705E+03  0.17039340043E+04  0.12699999809E+01 0. -1.
</event>
<event>
 5   0  0.1184684E-06  0.3713843E+04  0.7818609E-02  0.8064901E-01
        2   -1    0    0  501    0  0.00000000000E+00  0.00000000000E+00  0.13374560924E+04  0.13374560924E+04  0.25500000920E-02 0. -1.
       -2   -1    0    0    0  501  0.00000000000E+00  0.00000000000E+00 -0.25781463919E+04  0.25781463919E+04  0.25500000920E-02 0.  1.
    10030    2    1    2    0    0  0.00000000000E+00  0.00000000000E+00 -0.12406902995E+04  0.39156024842E+04  0.37138430763E+04 0.  0.
        4    1    3    3  502    0  0.14943442861E+04  0.68528020867E+03  0.28997399892E+03  0.16693592612E+04  0.12699999809E+01 0. -1.
       -4    1    3    3    0  502 -0.14943442861E+04 -0.68528020867E+03 -0.15306642984E+04  0.22462432231E+04  0.12699999809E+01 0.  1.
</event>
<event>
 5   0  0.5679750E-07  0.2818942E+04  0.7818609E-02  0.8297412E-01
        1   -1    0    0  501    0  0.00000000000E+00  0.00000000000E+00  0.24280383965E+04  0.24280383965E+04  0.50400001928E-02 0.  1.
       -1   -1    0    0    0  501  0.00000000000E+00  0.00000000000E+00 -0.81819512470E+03  0.81819512472E+03  0.50400001928E-02 0. -1.
    10030    2    1    2    0    0  0.00000000000E+00  0.00000000000E+00  0.16098432718E+04  0.32462335212E+04  0.28189424816E+04 0.  0.
        4    1    3    3  502    0 -0.26592175951E+03 -0.41737863086E+03  0.23246947456E+04  0.23767891318E+04  0.12699999809E+01 0.  1.
       -4    1    3    3    0  502  0.26592175951E+03  0.41737863086E+03 -0.71485147387E+03  0.86944438941E+03  0.12699999809E+01 0. -1.
</event>
<event>
 5   0  0.6287345E-07  0.3830368E+04  0.7818609E-02  0.8039669E-01
        1   -1    0    0  501    0  0.00000000000E+00  0.00000000000E+00  0.28338731038E+04  0.28338731038E+04  0.50400001928E-02 0. -1.
       -1   -1    0    0    0  501  0.00000000000E+00  0.00000000000E+00 -0.12943167344E+04  0.12943167345E+04  0.50400001928E-02 0.  1.
    10030    2    1    2    0    0  0.00000000000E+00  0.00000000000E+00  0.15395563694E+04  0.41281898383E+04  0.38303678056E+04 0.  0.
        5    1    3    3  502    0  0.47621887179E+03  0.17589218330E+04  0.14049366884E+04  0.23009692777E+04  0.46999998093E+01 0. -1.
       -5    1    3    3    0  502 -0.47621887179E+03 -0.17589218330E+04  0.13461968093E+03  0.18272205606E+04  0.46999998093E+01 0.  1.
</event>
<event>
 5   0  0.5679750E-07  0.1836950E+04  0.7818609E-02  0.8686893E-01
       -1   -1    0    0    0  501  0.00000000000E+00  0.00000000000E+00  0.79504930797E+03  0.79504930799E+03  0.50400001928E-02 0. -1.
        1   -1    0    0  501    0  0.00000000000E+00  0.00000000000E+00 -0.10610621103E+04  0.10610621103E+04  0.50400001928E-02 0.  1.
    10030    2    1    2    0    0  0.00000000000E+00  0.00000000000E+00 -0.26601280234E+03  0.18561114183E+04  0.18369504038E+04 0.  0.
        4    1    3    3  502    0  0.83346099670E+03  0.38522165212E+03 -0.10947986034E+03  0.92468394979E+03  0.12699999809E+01 0. -1.
       -4    1    3    3    0  502 -0.83346099670E+03 -0.38522165212E+03 -0.15653294200E+03  0.93142746852E+03  0.12699999809E+01 0.  1.
</event>
<event>
 5   0  0.1151180E-06  0.3601492E+04  0.7818609E-02  0.8090150E-01
        2   -1    0    0  501    0  0.00000000000E+00  0.00000000000E+00  0.12531499357E+04  0.12531499357E+04  0.25500000920E-02 0. -1.
       -2   -1    0    0    0  501  0.00000000000E+00  0.00000000000E+00 -0.25876282630E+04  0.25876282630E+04  0.25500000920E-02 0.  1.
    10030    2    1    2    0    0  0.00000000000E+00  0.00000000000E+00 -0.13344783273E+04  0.38407781988E+04  0.36014920194E+04 0.  0.
        5    1    3    3  502    0 -0.99445817402E+02 -0.11000759256E+04  0.84943604263E+03  0.13934203218E+04  0.46999998093E+01 0.  1.
       -5    1    3    3    0  502  0.99445817402E+02  0.11000759256E+04 -0.21839143699E+04  0.24473578770E+04  0.46999998093E+01 0. -1.
</event>
<event>
 5   0  0.1184684E-06  0.3630423E+04  0.7818609E-02  0.8083558E-01
       -2   -1    0    0    0  501  0.00000000000E+00  0.00000000000E+00  0.23261393461E+04  0.23261393461E+04  0.25500000920E-02 0. -1.
        2   -1    0    0  501    0  0.00000000000E+00  0.00000000000E+00 -0.14165066644E+04  0.14165066644E+04  0.25500000920E-02 0.  1.
    10030    2    1    2    0    0  0.00000000000E+00  0.00000000000E+00  0.90963268171E+03  0.37426460104E+04  0.36304225021E+04 0.  0.
        4    1    3    3  502    0 -0.16268130918E+04 -0.42460119192E+03  0.11602067085E+04  0.20427648488E+04  0.12699999809E+01 0. -1.
       -4    1    3    3    0  502  0.16268130918E+04  0.42460119192E+03 -0.25057402681E+03  0.16998811617E+04  0.12699999809E+01 0.  1.
</event>
<event>
 5   0  0.5875011E-07  0.3138302E+04  0.7818609E-02  0.8205304E-01
       -1   -1    0    0    0  501  0.00000000000E+00  0.00000000000E+00  0.11991890330E+04  0.11991890330E+04  0.50400001928E-02 0.  1.
        1   -1    0    0  501    0  0.00000000000E+00  0.00000000000E+00 -0.20532495949E+04  0.20532495949E+04  0.50400001928E-02 0. -1.
    10030    2    1    2    0    0  0.00000000000E+00  0.00000000000E+00 -0.85406056191E+03  0.32524386278E+04  0.31383017039E+04 0.  0.
        2    1    3    3  502    0  0.93900705640E+03 -0.12307354059E+04 -0.16120515587E+03  0.15564160734E+04  0.25500000920E-02 0. -1.
       -2    1    3    3    0  502 -0.93900705640E+03  0.12307354059E+04 -0.69285540604E+03  0.16960225544E+04  0.25500000920E-02 0.  1.
</event>
<event>
 5   0  0.5679750E-07  0.3734009E+04  0.7818609E-02  0.8060467E-01
       -1   -1    0    0    0  501  0.00000000000E+00  0.00000000000E+00  0.17625534103E+04  0.17625534103E+04  0.50400001928E-02 0.  1.
        1   -1    0    0  501    0  0.00000000000E+00  0.00000000000E+00 -0.19776452062E+04  0.19776452062E+04  0.50400001928E-02 0. -1.
    10030    2    1    2    0    0  0.00000000000E+00  0.00000000000E+00 -0.21509179586E+03  0.37401986165E+04  0.37340087319E+04 0.  0.
        4    1    3    3  502    0 -0.96494086058E+03  0.14301939789E+03  0.14869906955E+04  0.17784005044E+04  0.12699999809E+01 0.  1.
       -4    1    3    3    0  502  0.96494086058E+03 -0.14301939789E+03 -0.17020824913E+04  0.19617981121E+04  0.12699999809E+01 0. -1.
</event>
<event>
 5   0  0.1724503E-06  0.3741771E+04  0.7818609E-02  0.8058767E-01
        2   -1    0    0  501    0  0.00000000000E+00  0.00000000000E+00  0.27864649269E+04  0.27864649269E+04  0.25500000920E-02 0. -1.
       -2   -1    0    0    0  501  0.00000000000E+00  0.00000000000E+00 -0.12561479303E+04  0.12561479303E+04  0.25500000920E-02 0.  1.
    10030    2    1    2    0    0  0.00000000000E+00  0.00000000000E+00  0.15303169966E+04  0.40426128572E+04  0.37417707844E+04 0.  0.
        1    1    3    3  502    0 -0.10220485087E+04  0.48130202481E+03 -0.84604410112E+03  0.14113913044E+04  0.50400001928E-02 0.  1.
       -1    1    3    3    0  502  0.10220485087E+04 -0.48130202481E+03  0.23763610977E+04  0.26312215528E+04  0.50400001928E-02 0. -1.
</event>
<event>
 5   0  0.6287345E-07  0.2440082E+04  0.7818609E-02  0.8424648E-01
       -1   -1    0    0    0  501  0.00000000000E+00  0.00000000000E+00  0.11586028646E+04  0.11586028646E+04  0.50400001928E-02 0. -1.
        1   -1    0    0  501    0  0.00000000000E+00  0.00000000000E+00 -0.12847368696E+04  0.12847368696E+04  0.50400001928E-02 0.  1.
    10030    2    1    2    0    0  0.00000000000E+00  0.00000000000E+00 -0.12613400508E+03  0.24433397342E+04  0.24400818162E+04 0.  0.
        5    1    3    3  502    0 -0.10691104995E+04  0.36896882717E+03  0.39508347445E+03  0.11980184879E+04  0.46999998093E+01 0. -1.
       -5    1    3    3    0  502  0.10691104995E+04 -0.36896882717E+03 -0.52121747953E+03  0.12453212463E+04  0.46999998093E+01 0.  1.
</event>
<event>
 5   0  0.1151180E-06  0.2718381E+04  0.7818609E-02  0.8329066E-01
       -2   -1    0    0    0  501  0.00000000000E+00  0.00000000000E+00  0.10032073491E+04  0.10032073491E+04  0.25500000920E-02 0.  1.
        2   -1    0    0  501    0  0.00000000000E+00  0.00000000000E+00 -0.18414924062E+04  0.18414924062E+04  0.25500000920E-02 0. -1.
    10030    2    1    2    0    0  0.00000000000E+00  0.00000000000E+00 -0.83828505712E+03  0.28446997554E+04  0.27183809264E+04 0.  0.
        5    1    3    3  502    0  0.12130708855E+04 -0.17534668816E+03 -0.10338829908E+04  0.16035035276E+04  0.46999998093E+01 0.  1.
       -5    1    3    3    0  502 -0.12130708855E+04  0.17534668816E+03  0.19559793370E+03  0.12411962278E+04  0.46999998093E+01 0. -1.
</event>
<event>
 5   0  0.5875011E-07  0.3630034E+04  0.7818609E-02  0.8083646E-01
       -1   -1    0    0    0  501  0.00000000000E+00  0.00000000000E+00  0.13535390344E+04  0.13535390345E+04  0.50400001928E-02 0.  1.
        1   -1    0    0  501    0  0.00000000000E+00  0.00000000000E+00 -0.24338325045E+04  0.24338325045E+04  0.50400001928E-02 0. -1.
    10030    2    1    2    0    0  0.00000000000E+00  0.00000000000E+00 -0.10802934700E+04  0.37873715389E+04  0.36300343239E+04 0.  0.
        2    1    3    3  502    0  0.81085167089E+03  0.75264581154E+03 -0.20413762275E+04  0.23218899742E+04  0.25500000920E-02 0. -1.
       -2    1    3    3    0  502 -0.81085167089E+03 -0.75264581154E+03  0.96108275751E+03  0.14654815647E+04  0.25500000920E-02 0.  1.
</event>
<event>
 5   0  0.1184684E-06  0.3822274E+04  0.7818609E-02  0.8041392E-01
        2   -1    0    0  501    0  0.00000000000E+00  0.00000000000E+00  0.18169653062E+04  0.18169653062E+04  0.25500000920E-02 0.  1.
       -2   -1    0    0    0  501  0.00000000000E+00  0.00000000000E+00 -0.20101896744E+04  0.20101896744E+04  0.25500000920E-02 0. -1.
    10030    2    1    2    0    0  0.00000000000E+00  0.00000000000E+00 -0.19322436821E+03  0.38271549805E+04  0.38222741383E+04 0.  0.
        4    1    3    3  502    0 -0.87071829871E+03 -0.26769143305E+03 -0.17788272528E+04  0.19985087108E+04  0.12699999809E+01 0. -1.
       -4    1    3    3    0  502  0.87071829871E+03  0.26769143305E+03  0.15856028846E+04  0.18286462697E+04  0.12699999809E+01 0.  1.
</event>
<event>
 5   0  0.1680194E-06  0.2787990E+04  0.7818609E-02  0.8307007E-01
       -2   -1    0    0    0  501  0.00000000000E+00  0.00000000000E+00  0.83534156522E+03  0.83534156523E+03  0.25500000920E-02 0.  1.
        2   -1    0    0  501    0  0.00000000000E+00  0.00000000000E+00 -0.23262609488E+04  0.23262609488E+04  0.25500000920E-02 0. -1.
    10030    2    1    2    0    0  0.00000000000E+00  0.00000000000E+00 -0.14909193836E+04  0.31616025141E+04  0.27879902884E+04 0.  0.
        2    1    3    3  502    0 -0.11740108980E+04 -0.60419302957E+03 -0.23847876915E+03  0.13417238647E+04  0.25500000920E-02 0. -1.
       -2    1    3    3    0  502  0.11740108980E+04  0.60419302957E+03 -0.12524406145E+04  0.18198786494E+04  0.25500000920E-02 0.  1.
</event>
<event>
 5   0  0.5679750E-07  0.3727676E+04  0.7818609E-02  0.8061856E-01
       -3   -1    0    0    0  501  0.00000000000E+00  0.00000000000E+00  0.15063008432E+04  0.15063008466E+04  0.10100000352E+00 0. -1.
        3   -1    0    0  501    0  0.00000000000E+00  0.00000000000E+00 -0.23062401984E+04  0.23062402006E+04  0.10100000352E+00 0.  1.
    10030    2    1    2    0    0  0.00000000000E+00  0.00000000000E+00 -0.79993935522E+03  0.38125410471E+04  0.37276757187E+04 0.  0.
        2    1    3    3  502    0  0.72680772628E+03  0.99760786588E+03 -0.18283391033E+04  0.22059679965E+04  0.25500000920E-02 0.  1.
       -2    1    3    3    0  502 -0.72680772628E+03 -0.99760786588E+03  0.10283997481E+04  0.16065730506E+04  0.25500000920E-02 0. -1.
</event>
<event>
 5   0  0.5679750E-07  0.1980564E+04  0.7818609E-02  0.8615762E-01
        1   -1    0    0  501    0  0.00000000000E+00  0.00000000000E+00  0.11763051316E+04  0.11763051316E+04  0.50400001928E-02 0. -1.
       -1   -1    0    0    0  501  0.00000000000E+00  0.00000000000E+00 -0.83367654899E+03  0.83367654901E+03  0.50400001928E-02 0.  1.
    10030    2    1    2    0    0  0.00000000000E+00  0.00000000000E+00  0.34262858258E+03  0.20099816806E+04  0.19805635589E+04 0.  0.
        4    1    3    3  502    0  0.72875863451E+02 -0.74676230917E+01  0.11735506211E+04  0.11758355880E+04  0.12699999809E+01 0. -1.
       -4    1    3    3    0  502 -0.72875863451E+02  0.74676230917E+01 -0.83092203849E+03  0.83414609261E+03  0.12699999809E+01 0.  1.
</event>
<event>
 5   0  0.1680194E-06  0.3641524E+04  0.7818609E-02  0.8081046E-01
       -2   -1    0    0    0  501  0.00000000000E+00  0.00000000000E+00  0.11691778123E+04  0.11691778123E+04  0.25500000920E-02 0. -1.
        2   -1    0    0  501    0  0.00000000000E+00  0.00000000000E+00 -0.28354744970E+04  0.28354744970E+04  0.25500000920E-02 0.  1.
    10030    2    1    2    0    0  0.00000000000E+00  0.00000000000E+00 -0.16662966847E+04  0.40046523093E+04  0.36415237850E+04 0.  0.
        2    1    3    3  502    0  0.11945119346E+04  0.97399382505E+03  0.23287075869E+03  0.15587660259E+04  0.25500000920E-02 0. -1.
       -2    1    3    3    0  502 -0.11945119346E+04 -0.97399382505E+03 -0.18991674434E+04  0.24458862834E+04  0.25500000920E-02 0.  1.
</event>
<event>
 5   0  0.1151180E-06  0.3845588E+04  0.7818609E-02  0.8036442E-01
        2   -1    0    0  501    0  0.00000000000E+00  0.00000000000E+00  0.10835710068E+04  0.10835710068E+04  0.25500000920E-02 0.  1.
       -2   -1    0    0    0  501  0.00000000000E+00  0.00000000000E+00 -0.34119928685E+04  0.34119928685E+04  0.25500000920E-02 0. -1.
    10030    2    1    2    0    0  0.00000000000E+00  0.00000000000E+00 -0.23284218617E+04  0.44955638753E+04  0.38455878863E+04 0.  0.
        5    1    3    3  502    0  0.13070662053E+04 -0.10222393745E+04 -0.28565406851E+02  0.16595883454E+04  0.46999998093E+01 0.  1.
       -5    1    3    3    0  502 -0.13070662053E+04  0.10222393745E+04 -0.22998564548E+04  0.28359755299E+04  0.46999998093E+01 0. -1.
</event>
<event>
 5   0  0.5875011E-07  0.2215540E+04  0.7818609E-02  0.8511988E-01
       -1   -1    0    0    0  501  0.00000000000E+00  0.00000000000E+00  0.14565783111E+04  0.14565783111E+04  0.50400001928E-02 0. -1.
        1   -1    0    0  501    0  0.00000000000E+00  0.00000000000E+00 -0.84249143324E+03  0.84249143326E+03  0.50400001928E-02 0.  1.
    10030    2    1    2    0    0  0.00000000000E+00  0.00000000000E+00  0.61408687789E+03  0.22990697444E+04  0.22155403395E+04 0.  0.
        2    1    3    3  502    0  0.86409109076E+03 -0.56873294451E+03 -0.10418524389E+03  0.10396947342E+04  0.25500000920E-02 0.  1.
       -2    1    3    3    0  502 -0.86409109076E+03  0.56873294451E+03  0.71827212179E+03  0.12593750102E+04  0.25500000920E-02 0. -1.
</event>
<event>
 5   0  0.5679750E-07  0.2424421E+04  0.7818609E-02  0.8430417E-01
       -3   -1    0    0    0  501  0.00000000000E+00  0.00000000000E+00  0.11385781231E+04  0.11385781276E+04  0.10100000352E+00 0.  1.
        3   -1    0    0  501    0  0.00000000000E+00  0.00000000000E+00 -0.12906042515E+04  0.12906042554E+04  0.10100000352E+00 0. -1.
    10030    2    1    2    0    0  0.00000000000E+00  0.00000000000E+00 -0.15202612836E+03  0.24291823830E+04  0.24244205713E+04 0.  0.
        4    1    3    3  502    0  0.97633911673E+03  0.70193365182E+03  0.77595716554E+02  0.12049778548E+04  0.12699999809E+01 0.  1.
       -4    1    3    3    0  502 -0.97633911673E+03 -0.70193365182E+03 -0.22962184491E+03  0.12242045282E+04  0.12699999809E+01 0. -1.
</event>
<event>
 5   0  0.1184684E-06  0.3249463E+04  0.7818609E-02  0.8175875E-01
        2   -1    0    0  501    0  0.00000000000E+00  0.00000000000E+00  0.89909897780E+03  0.89909897781E+03  0.25500000920E-02 0.  1.
       -2   -1    0    0    0  501  0.00000000000E+00  0.00000000000E+00 -0.29359977903E+04  0.29359977903E+04  0.25500000920E-02 0. -1.
    10030    2    1    2    0    0  0.00000000000E+00  0.00000000000E+00 -0.20368988125E+04  0.38350967681E+04  0.32494631016E+04 0.  0.
        4    1    3    3  502    0 -0.92917745881E+03 -0.10579653244E+03  0.54960136064E+03  0.10847243543E+04  0.12699999809E+01 0.  1.
       -4    1    3    3    0  502  0.92917745881E+03  0.10579653244E+03 -0.25865001731E+04  0.27503724138E+04  0.12699999809E+01 0. -1.
</event>
<event>
 5   0  0.1680194E-06  0.2279098E+04  0.7818609E-02  0.8486208E-01
        2   -1    0    0  501    0  0.00000000000E+00  0.00000000000E+00  0.31396377243E+04  0.31396377243E+04  0.25500000920E-02 0.  1.
       -2   -1    0    0    0  501  0.00000000000E+00  0.00000000000E+00 -0.41360560809E+03  0.41360560810E+03  0.25500000920E-02 0. -1.
    10030    2    1    2    0    0  0.00000000000E+00  0.00000000000E+00  0.27260321162E+04  0.35532433324E+04  0.22790978655E+04 0.  0.
        2    1    3    3  502    0 -0.32933161668E+03  0.84139279157E+03  0.24456019183E+04  0.26071766120E+04  0.25500000920E-02 0.  1.
       -2    1    3    3    0  502  0.32933161668E+03 -0.84139279157E+03  0.28043019788E+03  0.94606672034E+03  0.25500000920E-02 0. -1.
</event>
<event>
 5   0  0.5679750E-07  0.3688406E+04  0.7818609E-02  0.8070536E-01
       -1   -1    0    0    0  501  0.00000000000E+00  0.00000000000E+00  0.27018697849E+04  0.27018697849E+04  0.50400001928E-02 0. -1.
        1   -1    0    0  501    0  0.00000000000E+00  0.00000000000E+00 -0.12587890112E+04  0.12587890112E+04  0.50400001928E-02 0.  1.
    10030    2    1    2    0    0  0.00000000000E+00  0.00000000000E+00  0.14430807737E+04  0.39606587962E+04  0.36884056149E+04 0.  0.
        4    1    3    3  502    0 -0.12894978486E+04 -0.10044281159E+04 -0.19555008909E+03  0.16461840698E+04  0.12699999809E+01 0.  1.
       -4    1    3    3    0  502  0.12894978486E+04  0.10044281159E+04  0.16386308628E+04  0.23144747263E+04  0.12699999809E+01 0. -1.
</event>
<event>
 5   0  0.1151180E-06  0.3608868E+04  0.7818609E-02  0.8088463E-01
       -2   -1    0    0    0  501  0.00000000000E+00  0.00000000000E+00  0.17235197098E+04  0.17235197098E+04  0.25500000920E-02 0. -1.
        2   -1    0    0  501    0  0.00000000000E+00  0.00000000000E+00 -0.18891471774E+04  0.18891471774E+04  0.25500000920E-02 0.  1.
    10030    2    1    2    0    0  0.00000000000E+00  0.00000000000E+00 -0.16562746763E+03  0.36126668873E+04  0.36088681855E+04 0.  0.
        5    1    3    3  502    0  0.10586480931E+04  0.12466336141E+04  0.68030695879E+03  0.17713471712E+04  0.46999998093E+01 0. -1.
       -5    1    3    3    0  502 -0.10586480931E+04 -0.12466336141E+04 -0.84593442641E+03  0.18413197160E+04  0.46999998093E+01 0.  1.
</event>
<event>
 5   0  0.1724503E-06  0.3669080E+04  0.7818609E-02  0.8074849E-01
       -2   -1    0    0    0  501  0.00000000000E+00  0.00000000000E+00  0.13501374755E+04  0.13501374755E+04  0.25500000920E-02 0. -1.
        2   -1    0    0  501    0  0.00000000000E+00  0.00000000000E+00 -0.24927367123E+04  0.24927367123E+04  0.25500000920E-02 0.  1.
    10030    2    1    2    0    0  0.00000000000E+00  0.00000000000E+00 -0.11425992368E+04  0.38428741877E+04  0.36690801309E+04 0.  0.
        1    1    3    3  502    0 -0.93083965342E+03  0.13720165836E+04  0.25116396470E+03  0.16768945415E+04  0.50400001928E-02 0. -1.
       -1    1    3    3    0  502  0.93083965342E+03 -0.13720165836E+04 -0.13937632015E+04  0.21659796462E+04  0.50400001928E-02 0.  1.
</event>
<event>
 5   0  0.1151180E-06  0.3786374E+04  0.7818609E-02  0.8049085E-01
       -2   -1    0    0    0  501  0.00000000000E+00  0.00000000000E+00  0.17591406263E+04  0.17591406263E+04  0.25500000920E-02 0. -1.
        2   -1    0    0  501    0  0.00000000000E+00  0.00000000000E+00 -0.20374472184E+04  0.20374472184E+04  0.25500000920E-02 0.  1.
    10030    2    1    2    0    0  0.00000000000E+00  0.00000000000E+00 -0.27830659208E+03  0.37965878447E+04  0.37863735557E+04 0.  0.
        5    1    3    3  502    0  0.16691253409E+04 -0.41988010789E+03 -0.92985867223E+03  0.19562561051E+04  0.46999998093E+01 0.  1.
       -5    1    3    3    0  502 -0.16691253409E+04  0.41988010789E+03  0.65155208014E+03  0.18403317396E+04  0.46999998093E+01 0. -1.
</event>
<event>
 5   0  0.6261598E-07  0.3685875E+04  0.7818609E-02  0.8071099E-01
       -1   -1    0    0    0  501  0.00000000000E+00  0.00000000000E+00  0.19916657836E+04  0.19916657836E+04  0.50400001928E-02 0.  1.
        1   -1    0    0  501    0  0.00000000000E+00  0.00000000000E+00 -0.17053159014E+04  0.17053159014E+04  0.50400001928E-02 0. -1.
    10030    2    1    2    0    0  0.00000000000E+00  0.00000000000E+00  0.28634988215E+03  0.36969816850E+04  0.36858753810E+04 0.  0.
        1    1    3    3  502    0 -0.30779552163E+03  0.61033272753E+03 -0.15734654479E+04  0.17155283842E+04  0.50400001928E-02 0. -1.
       -1    1    3    3    0  502  0.30779552163E+03 -0.61033272753E+03  0.18598153300E+04  0.19814533008E+04  0.50400001928E-02 0.  1.
</event>
<event>
 5   0  0.6287345E-07  0.2218019E+04  0.7818609E-02  0.8510965E-01
       -1   -1    0    0    0  501  0.00000000000E+00  0.00000000000E+00  0.59458650040E+03  0.59458650042E+03  0.50400001928E-02 0.  1.
        1   -1    0    0  501    0  0.00000000000E+00  0.00000000000E+00 -0.20685004613E+04  0.20685004613E+04  0.50400001928E-02 0. -1.
    10030    2    1    2    0    0  0.00000000000E+00  0.00000000000E+00 -0.14739139609E+04  0.26630869618E+04  0.22180193420E+04 0.  0.
        5    1    3    3  502    0  0.31587132580E+03 -0.15409716672E+02 -0.20132015683E+04  0.20378946975E+04  0.46999998093E+01 0. -1.
       -5    1    3    3    0  502 -0.31587132580E+03  0.15409716672E+02  0.53928760732E+03  0.62519226422E+03  0.46999998093E+01 0.  1.
</event>
<event>
 5   0  0.1184684E-06  0.3657351E+04  0.7818609E-02  0.8077480E-01
       -2   -1    0    0    0  501  0.00000000000E+00  0.00000000000E+00  0.21264887634E+04  0.21264887634E+04  0.25500000920E-02 0. -1.
        2   -1    0    0  501    0  0.00000000000E+00  0.00000000000E+00 -0.15725704167E+04  0.15725704167E+04  0.25500000920E-02 0.  1.
    10030    2    1    2    0    0  0.00000000000E+00  0.00000000000E+00  0.55391834674E+03  0.36990591801E+04  0.36573505825E+04 0.  0.
        4    1    3    3  502    0 -0.14380552589E+04  0.89554144786E+03  0.97332705172E+03  0.19538077119E+04  0.12699999809E+01 0. -1.
       -4    1    3    3    0  502  0.14380552589E+04 -0.89554144786E+03 -0.41940870499E+03  0.17452514682E+04  0.12699999809E+01 0.  1.
</event>
<event>
 5   0  0.1184684E-06  0.3622334E+04  0.7818609E-02  0.8085395E-01
        2   -1    0    0  501    0  0.00000000000E+00  0.00000000000E+00  0.27711714059E+04  0.27711714059E+04  0.25500000920E-02 0. -1.
       -2   -1    0    0    0  501  0.00000000000E+00  0.00000000000E+00 -0.11837327482E+04  0.11837327482E+04  0.25500000920E-02 0.  1.
    10030    2    1    2    0    0  0.00000000000E+00  0.00000000000E+00  0.15874386577E+04  0.39549041541E+04  0.36223342442E+04 0.  0.
        4    1    3    3  502    0 -0.21558375244E+03  0.17657052483E+04  0.42164824114E+03  0.18281083749E+04  0.12699999809E+01 0.  1.
       -4    1    3    3    0  502  0.21558375244E+03 -0.17657052483E+04  0.11657904166E+04  0.21267957792E+04  0.12699999809E+01 0. -1.
</event>
<event>
 5   0  0.1184684E-06  0.3787934E+04  0.7818609E-02  0.8048749E-01
       -2   -1    0    0    0  501  0.00000000000E+00  0.00000000000E+00  0.16454221748E+04  0.16454221748E+04  0.25500000920E-02 0. -1.
        2   -1    0    0  501    0  0.00000000000E+00  0.00000000000E+00 -0.21800545257E+04  0.21800545257E+04  0.25500000920E-02 0.  1.
    10030    2    1    2    0    0  0.00000000000E+00  0.00000000000E+00 -0.53463235097E+03  0.38254767005E+04  0.37879335046E+04 0.  0.
        4    1    3    3  502    0  0.16080207621E+04 -0.22927092646E+03 -0.12510405159E+04  0.20502194795E+04  0.12699999809E+01 0.  1.
       -4    1    3    3    0  502 -0.16080207621E+04  0.22927092646E+03  0.71640816491E+03  0.17752572210E+04  0.12699999809E+01 0. -1.
</event>
<event>
 5   0  0.1685793E-06  0.3632958E+04  0.7818609E-02  0.8082984E-01
       -2   -1    0    0    0  501  0.00000000000E+00  0.00000000000E+00  0.15959975284E+04  0.15959975284E+04  0.25500000920E-02 0.  1.
        2   -1    0    0  501    0  0.00000000000E+00  0.00000000000E+00 -0.20674188021E+04  0.20674188021E+04  0.25500000920E-02 0. -1.
    10030    2    1    2    0    0  0.00000000000E+00  0.00000000000E+00 -0.47142127362E+03  0.36634163305E+04  0.36329576372E+04 0.  0.
        3    1    3    3  502    0  0.45369126292E+03 -0.12869556118E+04 -0.14447225826E+04  0.19872880666E+04  0.10100000352E+00 0. -1.
       -3    1    3    3    0  502 -0.45369126292E+03  0.12869556118E+04  0.97330130901E+03  0.16761282639E+04  0.10100000352E+00 0.  1.
</event>
<event>
 5   0  0.5679750E-07  0.3849444E+04  0.7818609E-02  0.8035627E-01
        1   -1    0    0  501    0  0.00000000000E+00  0.00000000000E+00  0.20893654300E+04  0.20893654300E+04  0.50400001928E-02 0.  1.
       -1   -1    0    0    0  501  0.00000000000E+00  0.00000000000E+00 -0.17730525131E+04  0.17730525131E+04  0.50400001928E-02 0. -1.
    10030    2    1    2    0    0  0.00000000000E+00  0.00000000000E+00  0.31631291695E+03  0.38624179431E+04  0.38494439217E+04 0.  0.
        4    1    3    3  502    0 -0.14522742365E+04  0.96223382995E+03  0.97917992239E+03  0.19984467305E+04  0.12699999809E+01 0.  1.
       -4    1    3    3    0  502  0.14522742365E+04 -0.96223382995E+03 -0.66286700544E+03  0.18639712126E+04  0.12699999809E+01 0. -1.
</event>
<event>
 5   0  0.1680194E-06  0.3611203E+04  0.7818609E-02  0.8087930E-01
       -2   -1    0    0    0  501  0.00000000000E+00  0.00000000000E+00  0.17077518949E+04  0.17077518949E+04  0.25500000920E-02 0.  1.
        2   -1    0    0  501    0  0.00000000000E+00  0.00000000000E+00 -0.19090581241E+04  0.19090581241E+04  0.25500000920E-02 0. -1.
    10030    2    1    2    0    0  0.00000000000E+00  0.00000000000E+00 -0.20130622921E+03  0.36168100191E+04  0.36112034720E+04 0.  0.
        2    1    3    3  502    0  0.23568837147E+03 -0.18771663411E+03  0.16823948423E+04  0.17091632305E+04  0.25500000920E-02 0.  1.
       -2    1    3    3    0  502 -0.23568837147E+03  0.18771663411E+03 -0.18837010715E+04  0.19076467886E+04  0.25500000920E-02 0. -1.
</event>
<event>
 5   0  0.1724503E-06  0.3684672E+04  0.7818609E-02  0.8071367E-01
       -2   -1    0    0    0  501  0.00000000000E+00  0.00000000000E+00  0.16563028139E+04  0.16563028139E+04  0.25500000920E-02 0.  1.
        2   -1    0    0  501    0  0.00000000000E+00  0.00000000000E+00 -0.20492641124E+04  0.20492641124E+04  0.25500000920E-02 0. -1.
    10030    2    1    2    0    0  0.00000000000E+00  0.00000000000E+00 -0.39296129848E+03  0.37055669263E+04  0.36846719885E+04 0.  0.
        1    1    3    3  502    0  0.24078280078E+03 -0.14576682912E+04 -0.13033714037E+04  0.19701650236E+04  0.50400001928E-02 0. -1.
       -1    1    3    3    0  502 -0.24078280078E+03  0.14576682912E+04  0.91041010519E+03  0.17354019027E+04  0.50400001928E-02 0.  1.
</event>
<event>
 5   0  0.1151180E-06  0.3669868E+04  0.7818609E-02  0.8074672E-01
        2   -1    0    0  501    0  0.00000000000E+00  0.00000000000E+00  0.10797898958E+04  0.10797898958E+04  0.25500000920E-02 0.  1.
       -2   -1    0    0    0  501  0.00000000000E+00  0.00000000000E+00 -0.31181830423E+04  0.31181830423E+04  0.25500000920E-02 0. -1.
    10030    2    1    2    0    0  0.00000000000E+00  0.00000000000E+00 -0.20383931464E+04  0.41979729381E+04  0.36698678681E+04 0.  0.
        5    1    3    3  502    0  0.24658803089E+03 -0.17334769239E+04 -0.39139017440E+03  0.17941449945E+04  0.46999998093E+01 0.  1.
       -5    1    3    3    0  502 -0.24658803089E+03  0.17334769239E+04 -0.16470029720E+04  0.24038279436E+04  0.46999998093E+01 0. -1.
</event>
<event>
 5   0  0.1151180E-06  0.3644035E+04  0.7818609E-02  0.8080479E-01
       -2   -1    0    0    0  501  0.00000000000E+00  0.00000000000E+00  0.17337807363E+04  0.17337807363E+04  0.25500000920E-02 0.  1.
        2   -1    0    0  501    0  0.00000000000E+00  0.00000000000E+00 -0.19147447088E+04  0.19147447088E+04  0.25500000920E-02 0. -1.
    10030    2    1    2    0    0  0.00000000000E+00  0.00000000000E+00 -0.18096397246E+03  0.36485254451E+04  0.36440348468E+04 0.  0.
        5    1    3    3  502    0  0.14881730742E+04 -0.10482356253E+04 -0.16975262892E+03  0.18281944837E+04  0.46999998093E+01 0. -1.
       -5    1    3    3    0  502 -0.14881730742E+04  0.10482356253E+04 -0.11211343543E+02  0.18203309615E+04  0.46999998093E+01 0.  1.
</event>
<event>
 5   0  0.1184684E-06  0.3715820E+04  0.7818609E-02  0.8064465E-01
       -2   -1    0    0    0  501  0.00000000000E+00  0.00000000000E+00  0.12256450962E+04  0.12256450962E+04  0.25500000920E-02 0.  1.
        2   -1    0    0  501    0  0.00000000000E+00  0.00000000000E+00 -0.28163371998E+04  0.28163371998E+04  0.25500000920E-02 0. -1.
    10030    2    1    2    0    0  0.00000000000E+00  0.00000000000E+00 -0.15906921036E+04  0.40419822960E+04  0.37158201669E+04 0.  0.
        4    1    3    3  502    0 -0.10017525815E+04  0.15337538687E+04 -0.45845283288E+03  0.18884093246E+04  0.12699999809E+01 0.  1.
       -4    1    3    3    0  502  0.10017525815E+04 -0.15337538687E+04 -0.11322392707E+04  0.21535729714E+04  0.12699999809E+01 0. -1.
</event>
<event>
 5   0  0.1184684E-06  0.1836011E+04  0.7818609E-02  0.8687380E-01
        2   -1    0    0  501    0  0.00000000000E+00  0.00000000000E+00  0.14132113918E+04  0.14132113918E+04  0.25500000920E-02 0.  1.
       -2   -1    0    0    0  501  0.00000000000E+00  0.00000000000E+00 -0.59632531361E+03  0.59632531361E+03  0.25500000920E-02 0. -1.
    10030    2    1    2    0    0  0.00000000000E+00  0.00000000000E+00  0.81688607818E+03  0.20095367054E+04  0.18360105952E+04 0.  0.
        4    1    3    3  502    0 -0.24367134570E+03 -0.27185008746E+03  0.13303410037E+04  0.13795241911E+04  0.12699999809E+01 0.  1.
       -4    1    3    3    0  502  0.24367134570E+03  0.27185008746E+03 -0.51345492552E+03  0.63001251432E+03  0.12699999809E+01 0. -1.
</event>
<event>
 5   0  0.1184684E-06  0.3683156E+04  0.7818609E-02  0.8071705E-01
       -2   -1    0    0    0  501  0.00000000000E+00  0.00000000000E+00  0.13716823447E+04  0.13716823447E+04  0.25500000920E-02 0.  1.
        2   -1    0    0  501    0  0.00000000000E+00  0.00000000000E+00 -0.24724451680E+04  0.24724451680E+04  0.25500000920E-02 0. -1.
    10030    2    1    2    0    0  0.00000000000E+00  0.00000000000E+00 -0.11007628233E+04  0.38441275127E+04  0.36831559213E+04 0.  0.
        4    1    3    3  502    0  0.17813854520E+04  0.45742768948E+03 -0.64847607513E+03  0.19501530844E+04  0.12699999809E+01 0.  1.
       -4    1    3    3    0  502 -0.17813854520E+04 -0.45742768948E+03 -0.45228674815E+03  0.18939744283E+04  0.12699999809E+01 0. -1.
</event>
<event>
 5   0  0.6261598E-07  0.3743491E+04  0.7818609E-02  0.8058392E-01
        1   -1    0    0  501    0  0.00000000000E+00  0.00000000000E+00  0.27182878499E+04  0.27182878499E+04  0.50400001928E-02 0.  1.
       -1   -1    0    0    0  501  0.00000000000E+00  0.00000000000E+00 -0.12888371568E+04  0.12888371568E+04  0.50400001928E-02 0. -1.
    10030    2    1    2    0    0  0.00000000000E+00  0.00000000000E+00  0.14294506931E+04  0.40071250067E+04  0.37434905550E+04 0.  0.
        1    1    3    3  502    0 -0.49320612518E+03 -0.17229804706E+04  0.13677883710E+03  0.17973932331E+04  0.50400001928E-02 0. -1.
       -1    1    3    3    0  502  0.49320612518E+03  0.17229804706E+04  0.12926718560E+04  0.22097317736E+04  0.50400001928E-02 0.  1.
</event>
<event>
 5   0  0.6287345E-07  0.3678136E+04  0.7818609E-02  0.8072824E-01
       -1   -1    0    0    0  501  0.00000000000E+00  0.00000000000E+00  0.17124313392E+04  0.17124313392E+04  0.50400001928E-02 0.  1.
        1   -1    0    0  501    0  0.00000000000E+00  0.00000000000E+00 -0.19750697166E+04  0.19750697166E+04  0.50400001928E-02 0. -1.
    10030    2    1    2    0    0  0.00000000000E+00  0.00000000000E+00 -0.26263837736E+03  0.36875010558E+04  0.36781360931E+04 0.  0.
        5    1    3    3  502    0 -0.12544363175E+04 -0.42649854314E+03 -0.14099635767E+04  0.19348206272E+04  0.46999998093E+01 0. -1.
       -5    1    3    3    0  502  0.12544363175E+04  0.42649854314E+03  0.11473251993E+04  0.17526804286E+04  0.46999998093E+01 0.  1.
</event>
<event>
 5   0  0.6261598E-07  0.3686839E+04  0.7818609E-02  0.8070885E-01
        1   -1    0    0  501    0  0.00000000000E+00  0.00000000000E+00  0.20691703541E+04  0.20691703541E+04  0.50400001928E-02 0. -1.
       -1   -1    0    0    0  501  0.00000000000E+00  0.00000000000E+00 -0.16422986805E+04  0.16422986805E+04  0.50400001928E-02 0.  1.
    10030    2    1    2    0    0  0.00000000000E+00  0.00000000000E+00  0.42687167361E+03  0.37114690346E+04  0.36868391569E+04 0.  0.
        1    1    3    3  502    0 -0.25186755279E+03 -0.16196361997E+04  0.10625975650E+04  0.19534001814E+04  0.50400001928E-02 0. -1.
       -1    1    3    3    0  502  0.25186755279E+03  0.16196361997E+04 -0.63572589143E+03  0.17580688532E+04  0.50400001928E-02 0.  1.
</event>
<event>
 5   0  0.1680194E-06  0.3196085E+04  0.7818609E-02  0.8189852E-01
        2   -1    0    0  501    0  0.00000000000E+00  0.00000000000E+00  0.24107831407E+04  0.24107831407E+04  0.25500000920E-02 0.  1.
       -2   -1    0    0    0  501  0.00000000000E+00  0.00000000000E+00 -0.10592989034E+04  0.10592989034E+04  0.25500000920E-02 0. -1.
    10030    2    1    2    0    0  0.00000000000E+00  0.00000000000E+00  0.13514842373E+04  0.34700820441E+04  0.31960850660E+04 0.  0.
        2    1    3    3  502    0 -0.51088235486E+03 -0.11513960803E+04 -0.39193648307E+03  0.13192148881E+04  0.25500000920E-02 0. -1.
       -2    1    3    3    0  502  0.51088235486E+03  0.11513960803E+04  0.17434207204E+04  0.21508671559E+04  0.25500000920E-02 0.  1.
</event>
<event>
 5   0  0.1151180E-06  0.3719966E+04  0.7818609E-02  0.8063552E-01
        2   -1    0    0  501    0  0.00000000000E+00  0.00000000000E+00  0.23084247882E+04  0.23084247882E+04  0.25500000920E-02 0. -1.
       -2   -1    0    0    0  501  0.00000000000E+00  0.00000000000E+00 -0.14986565948E+04  0.14986565948E+04  0.25500000920E-02 0.  1.
    10030    2    1    2    0    0  0.00000000000E+00  0.00000000000E+00  0.80976819342E+03  0.38070813831E+04  0.37199656088E+04 0.  0.
        5    1    3    3  502    0 -0.13473827523E+04  0.10293670374E+04  0.11872988116E+04  0.20699607090E+04  0.46999998093E+01 0. -1.
       -5    1    3    3    0  502  0.13473827523E+04 -0.10293670374E+04 -0.37753061814E+03  0.17371206741E+04  0.46999998093E+01 0.  1.
</event>
<event>
 5   0  0.1151180E-06  0.3743517E+04  0.7818609E-02  0.8058386E-01
       -2   -1    0    0    0  501  0.00000000000E+00  0.00000000000E+00  0.15791579020E+04  0.15791579020E+04  0.25500000920E-02 0. -1.
        2   -1    0    0  501    0  0.00000000000E+00  0.00000000000E+00 -0.22185743521E+04  0.22185743521E+04  0.25500000920E-02 0.  1.
    10030    2    1    2    0    0  0.00000000000E+00  0.00000000000E+00 -0.63941645015E+03  0.37977322541E+04  0.37435166458E+04 0.  0.
        5    1    3    3  502    0 -0.64461327092E+03  0.22801660455E+03  0.14479207653E+04  0.16012540316E+04  0.46999998093E+01 0. -1.
       -5    1    3    3    0  502  0.64461327092E+03 -0.22801660455E+03 -0.20873372155E+04  0.21964782225E+04  0.46999998093E+01 0.  1.
</event>
<event>
 5   0  0.5679750E-07  0.2144903E+04  0.7818609E-02  0.8541717E-01
        1   -1    0    0  501    0  0.00000000000E+00  0.00000000000E+00  0.50340668071E+03  0.50340668073E+03  0.50400001928E-02 0.  1.
       -1   -1    0    0    0  501  0.00000000000E+00  0.00000000000E+00 -0.22847382044E+04  0.22847382044E+04  0.50400001928E-02 0. -1.
    10030    2    1    2    0    0  0.00000000000E+00  0.00000000000E+00 -0.17813315237E+04  0.27881448852E+04  0.21449032387E+04 0.  0.
        4    1    3    3  502    0  0.38257451978E+03  0.47412054070E+03  0.25663059031E+03  0.66107066421E+03  0.12699999809E+01 0.  1.
       -4    1    3    3    0  502 -0.38257451978E+03 -0.47412054070E+03 -0.20379621140E+04  0.21270742209E+04  0.12699999809E+01 0. -1.
</event>
<event>
 5   0  0.1680194E-06  0.3495863E+04  0.7818609E-02  0.8114771E-01
       -2   -1    0    0    0  501  0.00000000000E+00  0.00000000000E+00  0.87424417833E+03  0.87424417833E+03  0.25500000920E-02 0.  1.
        2   -1    0    0  501    0  0.00000000000E+00  0.00000000000E+00 -0.34947505723E+04  0.34947505723E+04  0.25500000920E-02 0. -1.
    10030    2    1    2    0    0  0.00000000000E+00  0.00000000000E+00 -0.26205063940E+04  0.43689947506E+04  0.34958634656E+04 0.  0.
        2    1    3    3  502    0 -0.13931552979E+04  0.10555838777E+04 -0.13243004068E+04  0.21929228382E+04  0.25500000920E-02 0.  1.
       -2    1    3    3    0  502  0.13931552979E+04 -0.10555838777E+04 -0.12962059872E+04  0.21760719124E+04  0.25500000920E-02 0. -1.
</event>
<event>
 5   0  0.5679750E-07  0.3820887E+04  0.7818609E-02  0.8041687E-01
       -3   -1    0    0    0  501  0.00000000000E+00  0.00000000000E+00  0.20675879139E+04  0.20675879164E+04  0.10100000352E+00 0.  1.
        3   -1    0    0  501    0  0.00000000000E+00  0.00000000000E+00 -0.17652430450E+04  0.17652430478E+04  0.10100000352E+00 0. -1.
    10030    2    1    2    0    0  0.00000000000E+00  0.00000000000E+00  0.30234486896E+03  0.38328309642E+04  0.38208874336E+04 0.  0.
        1    1    3    3  502    0 -0.89984013601E+03 -0.11056601562E+04 -0.11246516514E+04  0.18157747626E+04  0.50400001928E-02 0. -1.
       -1    1    3    3    0  502  0.89984013601E+03  0.11056601562E+04  0.14269965204E+04  0.20170562016E+04  0.50400001928E-02 0.  1.
</event>
<event>
 5   0  0.1184684E-06  0.2003565E+04  0.7818609E-02  0.8604956E-01
        2   -1    0    0  501    0  0.00000000000E+00  0.00000000000E+00  0.16971833039E+04  0.16971833039E+04  0.25500000920E-02 0. -1.
       -2   -1    0    0    0  501  0.00000000000E+00  0.00000000000E+00 -0.59131397049E+03  0.59131397049E+03  0.25500000920E-02 0.  1.
    10030    2    1    2    0    0  0.00000000000E+00  0.00000000000E+00  0.11058693334E+04  0.22884972744E+04  0.20035650208E+04 0.  0.
        4    1    3    3  502    0 -0.33297605748E+03 -0.70001341784E+03 -0.17187529705E+03  0.79399909990E+03  0.12699999809E+01 0.  1.
       -4    1    3    3    0  502  0.33297605748E+03  0.70001341784E+03  0.12777446305E+04  0.14944981745E+04  0.12699999809E+01 0. -1.
</event>
<event>
 5   0  0.5679750E-07  0.3323524E+04  0.7818609E-02  0.8156935E-01
       -1   -1    0    0    0  501  0.00000000000E+00  0.00000000000E+00  0.13750480786E+04  0.13750480786E+04  0.50400001928E-02 0. -1.
        1   -1    0    0  501    0  0.00000000000E+00  0.00000000000E+00 -0.20082596928E+04  0.20082596928E+04  0.50400001928E-02 0.  1.
    10030    2    1    2    0    0  0.00000000000E+00  0.00000000000E+00 -0.63321161415E+03  0.33833077714E+04  0.33235244136E+04 0.  0.
        4    1    3    3  502    0 -0.13877455996E+04 -0.33555707047E+03  0.54899264999E+03  0.15296505939E+04  0.12699999809E+01 0. -1.
       -4    1    3    3    0  502  0.13877455996E+04  0.33555707047E+03 -0.11822042641E+04  0.18536571775E+04  0.12699999809E+01 0.  1.
</event>
<event>
 5   0  0.1184684E-06  0.2778279E+04  0.7818609E-02  0.8310044E-01
        2   -1    0    0  501    0  0.00000000000E+00  0.00000000000E+00  0.11338951710E+04  0.11338951710E+04  0.25500000920E-02 0.  1.
       -2   -1    0    0    0  501  0.00000000000E+00  0.00000000000E+00 -0.17018404999E+04  0.17018404999E+04  0.25500000920E-02 0. -1.
    10030    2    1    2    0    0  0.00000000000E+00  0.00000000000E+00 -0.56794532893E+03  0.28357356709E+04  0.27782791254E+04 0.  0.
        4    1    3    3  502    0 -0.38011997831E+03 -0.12612166027E+04 -0.73417103576E+03  0.15080342302E+04  0.12699999809E+01 0. -1.
       -4    1    3    3    0  502  0.38011997831E+03  0.12612166027E+04  0.16622570683E+03  0.13277014406E+04  0.12699999809E+01 0.  1.
</event>
<event>
 5   0  0.1151180E-06  0.3837323E+04  0.7818609E-02  0.8038193E-01
        2   -1    0    0  501    0  0.00000000000E+00  0.00000000000E+00  0.25113832803E+04  0.25113832803E+04  0.25500000920E-02 0. -1.
       -2   -1    0    0    0  501  0.00000000000E+00  0.00000000000E+00 -0.14658305587E+04  0.14658305587E+04  0.25500000920E-02 0.  1.
    10030    2    1    2    0    0  0.00000000000E+00  0.00000000000E+00  0.10455527216E+04  0.39772138390E+04  0.38373232112E+04 0.  0.
        5    1    3    3  502    0 -0.16577787863E+04  0.24440297769E+03 -0.44578370546E+03  0.17339863096E+04  0.46999998093E+01 0.  1.
       -5    1    3    3    0  502  0.16577787863E+04 -0.24440297769E+03  0.14913364270E+04  0.22432275294E+04  0.46999998093E+01 0. -1.
</event>
<event>
 5   0  0.5679750E-07  0.2586751E+04  0.7818609E-02  0.8372716E-01
        1   -1    0    0  501    0  0.00000000000E+00  0.00000000000E+00  0.16419647551E+04  0.16419647552E+04  0.50400001928E-02 0.  1.
       -1   -1    0    0    0  501  0.00000000000E+00  0.00000000000E+00 -0.10187914213E+04  0.10187914213E+04  0.50400001928E-02 0. -1.
    10030    2    1    2    0    0  0.00000000000E+00  0.00000000000E+00  0.62317333382E+03  0.26607561765E+04  0.25867505536E+04 0.  0.
        4    1    3    3  502    0  0.97876754074E+03 -0.63872116472E+03 -0.25821784389E+03  0.11969246814E+04  0.12699999809E+01 0. -1.
       -4    1    3    3    0  502 -0.97876754074E+03  0.63872116472E+03  0.88139117771E+03  0.14638314951E+04  0.12699999809E+01 0.  1.
</event>
<event>
 5   0  0.5679750E-07  0.1957844E+04  0.7818609E-02  0.8626588E-01
       -1   -1    0    0    0  501  0.00000000000E+00  0.00000000000E+00  0.76809112348E+03  0.76809112350E+03  0.50400001928E-02 0.  1.
        1   -1    0    0  501    0  0.00000000000E+00  0.00000000000E+00 -0.12476227130E+04  0.12476227130E+04  0.50400001928E-02 0. -1.
    10030    2    1    2    0    0  0.00000000000E+00  0.00000000000E+00 -0.47953158948E+03  0.20157138365E+04  0.19578436417E+04 0.  0.
        4    1    3    3  502    0 -0.61153010804E+03  0.37909959301E+03 -0.92316345095E+03  0.11704349382E+04  0.12699999809E+01 0. -1.
       -4    1    3    3    0  502  0.61153010804E+03 -0.37909959301E+03  0.44363186147E+03  0.84527889828E+03  0.12699999809E+01 0.  1.
</event>
<event>
 5   0  0.5679750E-07  0.3656873E+04  0.7818609E-02  0.8077587E-01
       -1   -1    0    0    0  501  0.00000000000E+00  0.00000000000E+00  0.15638084120E+04  0.15638084120E+04  0.50400001928E-02 0.  1.
        1   -1    0    0  501    0  0.00000000000E+00  0.00000000000E+00 -0.21378454885E+04  0.21378454885E+04  0.50400001928E-02 0. -1.
    10030    2    1    2    0    0  0.00000000000E+00  0.00000000000E+00 -0.57403707647E+03  0.37016539005E+04  0.36568733960E+04 0.  0.
        4    1    3    3  502    0  0.12409674842E+03 -0.50713735593E+03  0.14867496461E+04  0.15757583646E+04  0.12699999809E+01 0.  1.
       -4    1    3    3    0  502 -0.12409674842E+03  0.50713735593E+03 -0.20607867225E+04  0.21258955359E+04  0.12699999809E+01 0. -1.
</event>
<event>
 5   0  0.5679750E-07  0.3712920E+04  0.7818609E-02  0.8065105E-01
        1   -1    0    0  501    0  0.00000000000E+00  0.00000000000E+00  0.15060031889E+04  0.15060031889E+04  0.50400001928E-02 0. -1.
       -1   -1    0    0    0  501  0.00000000000E+00  0.00000000000E+00 -0.22884705990E+04  0.22884705990E+04  0.50400001928E-02 0.  1.
    10030    2    1    2    0    0  0.00000000000E+00  0.00000000000E+00 -0.78246741013E+03  0.37944737879E+04  0.37129201552E+04 0.  0.
        4    1    3    3  502    0  0.13448591164E+03  0.83862080688E+03 -0.20782717055E+04  0.22451249882E+04  0.12699999809E+01 0.  1.
       -4    1    3    3    0  502 -0.13448591164E+03 -0.83862080688E+03  0.12958042953E+04  0.15493487996E+04  0.12699999809E+01 0. -1.
</event>
<event>
 5   0  0.6287345E-07  0.3655365E+04  0.7818609E-02  0.8077926E-01
       -1   -1    0    0    0  501  0.00000000000E+00  0.00000000000E+00  0.21148364729E+04  0.21148364729E+04  0.50400001928E-02 0. -1.
        1   -1    0    0  501    0  0.00000000000E+00  0.00000000000E+00 -0.15795184729E+04  0.15795184729E+04  0.50400001928E-02 0.  1.
    10030    2    1    2    0    0  0.00000000000E+00  0.00000000000E+00  0.53531800000E+03  0.36943549458E+04  0.36553649756E+04 0.  0.
        5    1    3    3  502    0  0.15962945848E+04  0.41206541612E+03 -0.52970939783E+03  0.17316375039E+04  0.46999998093E+01 0.  1.
       -5    1    3    3    0  502 -0.15962945848E+04 -0.41206541612E+03  0.10650273978E+04  0.19627174419E+04  0.46999998093E+01 0. -1.
</event>
<event>
 5   0  0.1151180E-06  0.3592265E+04  0.7818609E-02  0.8092266E-01
        2   -1    0    0  501    0  0.00000000000E+00  0.00000000000E+00  0.17600867774E+04  0.17600867774E+04  0.25500000920E-02 0.  1.
       -2   -1    0    0    0  501  0.00000000000E+00  0.00000000000E+00 -0.18329161558E+04  0.18329161558E+04  0.25500000920E-02 0. -1.
    10030    2    1    2    0    0  0.00000000000E+00  0.00000000000E+00 -0.72829378401E+02  0.35930029333E+04  0.35922647397E+04 0.  0.
        5    1    3    3  502    0 -0.13121938746E+04 -0.83494263665E+03  0.86215037157E+03  0.17782877507E+04  0.46999998093E+01 0.  1.
       -5    1    3    3    0  502  0.13121938746E+04  0.83494263665E+03 -0.93497974997E+03  0.18147151826E+04  0.46999998093E+01 0. -1.
</event>
<event>
 5   0  0.5875011E-07  0.2701204E+04  0.7818609E-02  0.8334614E-01
       -1   -1    0    0    0  501  0.00000000000E+00  0.00000000000E+00  0.93131923838E+03  0.93131923840E+03  0.50400001928E-02 0.  1.
        1   -1    0    0  501    0  0.00000000000E+00  0.00000000000E+00 -0.19586470260E+04  0.19586470260E+04  0.50400001928E-02 0. -1.
    10030    2    1    2    0    0  0.00000000000E+00  0.00000000000E+00 -0.10273277876E+04  0.28899662644E+04  0.27012039216E+04 0.  0.
        2    1    3    3  502    0 -0.20614452212E+03  0.12235958467E+04  0.56938058317E+02  0.12421450409E+04  0.25500000920E-02 0.  1.
       -2    1    3    3    0  502  0.20614452212E+03 -0.12235958467E+04 -0.10842658460E+04  0.16478212236E+04  0.25500000920E-02 0. -1.
</event>
<event>
 5   0  0.1680194E-06  0.3633080E+04  0.7818609E-02  0.8082956E-01
       -2   -1    0    0    0  501  0.00000000000E+00  0.00000000000E+00  0.22998668547E+04  0.22998668547E+04  0.25500000920E-02 0.  1.
        2   -1    0    0  501    0  0.00000000000E+00  0.00000000000E+00 -0.14347859610E+04  0.14347859610E+04  0.25500000920E-02 0. -1.
    10030    2    1    2    0    0  0.00000000000E+00  0.00000000000E+00  0.86508089364E+03  0.37346528157E+04  0.36330795066E+04 0.  0.
        2    1    3    3  502    0 -0.33485670049E+03 -0.59868865863E+03 -0.12965261795E+04  0.14668119354E+04  0.25500000920E-02 0. -1.
       -2    1    3    3    0  502  0.33485670049E+03  0.59868865863E+03  0.21616070731E+04  0.22678408803E+04  0.25500000920E-02 0.  1.
</event>
<event>
 5   0  0.1151180E-06  0.3617798E+04  0.7818609E-02  0.8086427E-01
        2   -1    0    0  501    0  0.00000000000E+00  0.00000000000E+00  0.14327504421E+04  0.14327504421E+04  0.25500000920E-02 0. -1.
       -2   -1    0    0    0  501  0.00000000000E+00  0.00000000000E+00 -0.22838005074E+04  0.22838005074E+04  0.25500000920E-02 0.  1.
    10030    2    1    2    0    0  0.00000000000E+00  0.00000000000E+00 -0.85105006535E+03  0.37165509495E+04  0.36177983286E+04 0.  0.
        5    1    3    3  502    0  0.44456067838E+03  0.26847748793E+03  0.13545099903E+04  0.14506666613E+04  0.46999998093E+01 0. -1.
       -5    1    3    3    0  502 -0.44456067838E+03 -0.26847748793E+03 -0.22055600557E+04  0.22658842882E+04  0.46999998093E+01 0.  1.
</event>
<event>
 5   0  0.6186440E-07  0.3695973E+04  0.7818609E-02  0.8068855E-01
        1   -1    0    0  501    0  0.00000000000E+00  0.00000000000E+00  0.21646601053E+04  0.21646601053E+04  0.50400001928E-02 0. -1.
       -1   -1    0    0    0  501  0.00000000000E+00  0.00000000000E+00 -0.15776402637E+04  0.15776402638E+04  0.50400001928E-02 0.  1.
    10030    2    1    2    0    0  0.00000000000E+00  0.00000000000E+00  0.58701984152E+03  0.37423003690E+04  0.36959734520E+04 0.  0.
        3    1    3    3  502    0  0.18149815194E+04 -0.34375638087E+03  0.24061951649E+03  0.18628537589E+04  0.10100000352E+00 0. -1.
       -3    1    3    3    0  502 -0.18149815194E+04  0.34375638087E+03  0.34640032504E+03  0.18794466102E+04  0.10100000352E+00 0.  1.
</event>
<event>
 5   0  0.1184684E-06  0.3503922E+04  0.7818609E-02  0.8112861E-01
        2   -1    0    0  501    0  0.00000000000E+00  0.00000000000E+00  0.21868034725E+04  0.21868034725E+04  0.25500000920E-02 0.  1.
       -2   -1    0    0    0  501  0.00000000000E+00  0.00000000000E+00 -0.14035863724E+04  0.14035863725E+04  0.25500000920E-02 0. -1.
    10030    2    1    2    0    0  0.00000000000E+00  0.00000000000E+00  0.78321710003E+03  0.35903898449E+04  0.35039221185E+04 0.  0.
        4    1    3    3  502    0 -0.12155867590E+04  0.11374732533E+04 -0.16763384295E+03  0.16732003135E+04  0.12699999809E+01 0.  1.
       -4    1    3    3    0  502  0.12155867590E+04 -0.11374732533E+04  0.95085094298E+03  0.19171895315E+04  0.12699999809E+01 0. -1.
</event>
<event>
 5   0  0.1184684E-06  0.3724787E+04  0.7818609E-02  0.8062491E-01
        2   -1    0    0  501    0  0.00000000000E+00  0.00000000000E+00  0.15675009560E+04  0.15675009560E+04  0.25500000920E-02 0. -1.
       -2   -1    0    0    0  501  0.00000000000E+00  0.00000000000E+00 -0.22127641426E+04  0.22127641427E+04  0.25500000920E-02 0.  1.
    10030    2    1    2    0    0  0.00000000000E+00  0.00000000000E+00 -0.64526318662E+03  0.37802650987E+04  0.37247871934E+04 0.  0.
        4    1    3    3  502    0  0.24262783525E+03  0.13157454206E+04 -0.16374794877E+04  0.21145673231E+04  0.12699999809E+01 0.  1.
       -4    1    3    3    0  502 -0.24262783525E+03 -0.13157454206E+04  0.99221630112E+03  0.16656977756E+04  0.12699999809E+01 0. -1.
</event>
<event>
 5   0  0.1680194E-06  0.3463735E+04  0.7818609E-02  0.8122438E-01
        2   -1    0    0  501    0  0.00000000000E+00  0.00000000000E+00  0.19151895183E+04  0.19151895183E+04  0.25500000920E-02 0. -1.
       -2   -1    0    0    0  501  0.00000000000E+00  0.00000000000E+00 -0.15660929316E+04  0.15660929316E+04  0.25500000920E-02 0.  1.
    10030    2    1    2    0    0  0.00000000000E+00  0.00000000000E+00  0.34909658671E+03  0.34812824499E+04  0.34637348439E+04 0.  0.
        2    1    3    3  502    0 -0.11983075556E+04 -0.47068994816E+03 -0.98971340777E+03  0.16238912077E+04  0.25500000920E-02 0.  1.
       -2    1    3    3    0  502  0.11983075556E+04  0.47068994816E+03  0.13388099945E+04  0.18573912421E+04  0.25500000920E-02 0. -1.
</event>
<event>
 5   0  0.1151180E-06  0.3616040E+04  0.7818609E-02  0.8086827E-01
       -2   -1    0    0    0  501  0.00000000000E+00  0.00000000000E+00  0.20688515177E+04  0.20688515177E+04  0.25500000920E-02 0.  1.
        2   -1    0    0  501    0  0.00000000000E+00  0.00000000000E+00 -0.15800731031E+04  0.15800731031E+04  0.25500000920E-02 0. -1.
    10030    2    1    2    0    0  0.00000000000E+00  0.00000000000E+00  0.48877841455E+03  0.36489246208E+04  0.36160401753E+04 0.  0.
        5    1    3    3  502    0 -0.13721954142E+04  0.44272462428E+03  0.13451758593E+04  0.19719141792E+04  0.46999998093E+01 0. -1.
       -5    1    3    3    0  502  0.13721954142E+04 -0.44272462428E+03 -0.85639744480E+03  0.16770104416E+04  0.46999998093E+01 0.  1.
</event>
<event>
 5   0  0.5875011E-07  0.3827691E+04  0.7818609E-02  0.8040238E-01
        1   -1    0    0  501    0  0.00000000000E+00  0.00000000000E+00  0.24255669669E+04  0.24255669669E+04  0.50400001928E-02 0.  1.
       -1   -1    0    0    0  501  0.00000000000E+00  0.00000000000E+00 -0.15100819958E+04  0.15100819958E+04  0.50400001928E-02 0. -1.
    10030    2    1    2    0    0  0.00000000000E+00  0.00000000000E+00  0.91548497109E+03  0.39356489627E+04  0.38276912134E+04 0.  0.
        2    1    3    3  502    0 -0.51214235397E+03  0.16464942589E+04 -0.39608322532E+03  0.17692131180E+04  0.25500000920E-02 0. -1.
       -2    1    3    3    0  502  0.51214235397E+03 -0.16464942589E+04  0.13115681964E+04  0.21664358447E+04  0.25500000920E-02 0.  1.
</event>
<event>
 5   0  0.1724503E-06  0.2387568E+04  0.7818609E-02  0.8444173E-01
        2   -1    0    0  501    0  0.00000000000E+00  0.00000000000E+00  0.21945335189E+04  0.21945335189E+04  0.25500000920E-02 0.  1.
       -2   -1    0    0    0  501  0.00000000000E+00  0.00000000000E+00 -0.64939552037E+03  0.64939552037E+03  0.25500000920E-02 0. -1.
    10030    2    1    2    0    0  0.00000000000E+00  0.00000000000E+00  0.15451379986E+04  0.28439290393E+04  0.23875679982E+04 0.  0.
        1    1    3    3  502    0 -0.16165191971E+02 -0.27151661099E+03  0.21571322653E+04  0.21742130055E+04  0.50400001928E-02 0.  1.
       -1    1    3    3    0  502  0.16165191971E+02  0.27151661099E+03 -0.61199426668E+03  0.66971603381E+03  0.50400001928E-02 0. -1.
</event>
<event>
 5   0  0.5679750E-07  0.1836551E+04  0.7818609E-02  0.8687100E-01
        1   -1    0    0  501    0  0.00000000000E+00  0.00000000000E+00  0.78908199891E+03  0.78908199892E+03  0.50400001928E-02 0. -1.
       -1   -1    0    0    0  501  0.00000000000E+00  0.00000000000E+00 -0.10686217351E+04  0.10686217351E+04  0.50400001928E-02 0.  1.
    10030    2    1    2    0    0  0.00000000000E+00  0.00000000000E+00 -0.27953973620E+03  0.18577037340E+04  0.18365513059E+04 0.  0.
        4    1    3    3  502    0  0.60990967042E+03 -0.50296546350E+03  0.33279881698E+03  0.85774164469E+03  0.12699999809E+01 0. -1.
       -4    1    3    3    0  502 -0.60990967042E+03  0.50296546350E+03 -0.61233855319E+03  0.99996208936E+03  0.12699999809E+01 0.  1.
</event>
<event>
 5   0  0.1151180E-06  0.2530645E+04  0.7818609E-02  0.8392149E-01
       -2   -1    0    0    0  501  0.00000000000E+00  0.00000000000E+00  0.14064507103E+04  0.14064507103E+04  0.25500000920E-02 0.  1.
        2   -1    0    0  501    0  0.00000000000E+00  0.00000000000E+00 -0.11383551938E+04  0.11383551938E+04  0.25500000920E-02 0. -1.
    10030    2    1    2    0    0  0.00000000000E+00  0.00000000000E+00  0.26809551656E+03  0.25448059041E+04  0.25306445589E+04 0.  0.
        5    1    3    3  502    0 -0.10029628913E+04  0.33523092134E+03 -0.56460919205E+03  0.11987993834E+04  0.46999998093E+01 0. -1.
       -5    1    3    3    0  502  0.10029628913E+04 -0.33523092134E+03  0.83270470862E+03  0.13460065207E+04  0.46999998093E+01 0.  1.
</event>
<event>
 5   0  0.6287345E-07  0.2307032E+04  0.7818609E-02  0.8475154E-01
        1   -1    0    0  501    0  0.00000000000E+00  0.00000000000E+00  0.13685605534E+04  0.13685605534E+04  0.50400001928E-02 0.  1.
       -1   -1    0    0    0  501  0.00000000000E+00  0.00000000000E+00 -0.97226188491E+03  0.97226188492E+03  0.50400001928E-02 0. -1.
    10030    2    1    2    0    0  0.00000000000E+00  0.00000000000E+00  0.39629866849E+03  0.23408224383E+04  0.23070320876E+04 0.  0.
        5    1    3    3  502    0 -0.68608780595E+03  0.55786113422E+03 -0.55340984230E+03  0.10431730758E+04  0.46999998093E+01 0. -1.
       -5    1    3    3    0  502  0.68608780595E+03 -0.55786113422E+03  0.94970851079E+03  0.12976493625E+04  0.46999998093E+01 0.  1.
</event>
<event>
 5   0  0.5679750E-07  0.3702902E+04  0.7818609E-02  0.8067319E-01
        1   -1    0    0  501    0  0.00000000000E+00  0.00000000000E+00  0.22069123948E+04  0.22069123948E+04  0.50400001928E-02 0.  1.
       -1   -1    0    0    0  501  0.00000000000E+00  0.00000000000E+00 -0.15532425394E+04  0.15532425394E+04  0.50400001928E-02 0. -1.
    10030    2    1    2    0    0  0.00000000000E+00  0.00000000000E+00  0.65366985542E+03  0.37601549342E+04  0.37029016797E+04 0.  0.
        4    1    3    3  502    0  0.39519004105E+03  0.61642094550E+03 -0.13999632324E+04  0.15798887984E+04  0.12699999809E+01 0. -1.
       -4    1    3    3    0  502 -0.39519004105E+03 -0.61642094550E+03  0.20536330878E+04  0.21802661358E+04  0.12699999809E+01 0.  1.
</event>
<event>
 5   0  0.6186440E-07  0.3377558E+04  0.7818609E-02  0.8143436E-01
        1   -1    0    0  501    0  0.00000000000E+00  0.00000000000E+00  0.18051082848E+04  0.18051082848E+04  0.50400001928E-02 0.  1.
       -1   -1    0    0    0  501  0.00000000000E+00  0.00000000000E+00 -0.15799466980E+04  0.15799466980E+04  0.50400001928E-02 0. -1.
    10030    2    1    2    0    0  0.00000000000E+00  0.00000000000E+00  0.22516158680E+03  0.33850549829E+04  0.33775582152E+04 0.  0.
        3    1    3    3  502    0 -0.36593503258E+02 -0.16882436458E+04  0.13428925123E+03  0.16939714594E+04  0.10100000352E+00 0. -1.
       -3    1    3    3    0  502  0.36593503258E+02  0.16882436458E+04  0.90872335566E+02  0.16910835235E+04  0.10100000352E+00 0.  1.
</event>
<event>
 5   0  0.1151180E-06  0.3625300E+04  0.7818609E-02  0.8084721E-01
        2   -1    0    0  501    0  0.00000000000E+00  0.00000000000E+00  0.15861316036E+04  0.15861316036E+04  0.25500000920E-02 0.  1.
       -2   -1    0    0    0  501  0.00000000000E+00  0.00000000000E+00 -0.20715174337E+04  0.20715174338E+04  0.25500000920E-02 0. -1.
    10030    2    1    2    0    0  0.00000000000E+00  0.00000000000E+00 -0.48538583014E+03  0.36576490374E+04  0.36252995844E+04 0.  0.
        5    1    3    3  502    0 -0.17942862266E+04  0.23603580701E+03 -0.34608276036E+03  0.18425447978E+04  0.46999998093E+01 0.  1.
       -5    1    3    3    0  502  0.17942862266E+04 -0.23603580701E+03 -0.13930306978E+03  0.18151042395E+04  0.46999998093E+01 0. -1.
</event>
<event>
 5   0  0.1184684E-06  0.2248571E+04  0.7818609E-02  0.8498479E-01
       -2   -1    0    0    0  501  0.00000000000E+00  0.00000000000E+00  0.12449599560E+04  0.12449599560E+04  0.25500000920E-02 0.  1.
        2   -1    0    0  501    0  0.00000000000E+00  0.00000000000E+00 -0.10153081676E+04  0.10153081676E+04  0.25500000920E-02 0. -1.
    10030    2    1    2    0    0  0.00000000000E+00  0.00000000000E+00  0.22965178840E+03  0.22602681235E+04  0.22485711121E+04 0.  0.
        4    1    3    3  502    0  0.53183513528E+03 -0.49509872476E+03  0.97721950174E+03  0.12177565134E+04  0.12699999809E+01 0.  1.
       -4    1    3    3    0  502 -0.53183513528E+03  0.49509872476E+03 -0.74756771335E+03  0.10425116102E+04  0.12699999809E+01 0. -1.
</event>
<event>
 5   0  0.1685793E-06  0.3110362E+04  0.7818609E-02  0.8212900E-01
        2   -1    0    0  501    0  0.00000000000E+00  0.00000000000E+00  0.19378503937E+04  0.19378503937E+04  0.25500000920E-02 0. -1.
       -2   -1    0    0    0  501  0.00000000000E+00  0.00000000000E+00 -0.12480773411E+04  0.12480773411E+04  0.25500000920E-02 0.  1.
    10030    2    1    2    0    0  0.00000000000E+00  0.00000000000E+00  0.68977305256E+03  0.31859277348E+04  0.31103615011E+04 0.  0.
        3    1    3    3  502    0  0.15489373660E+04 -0.89507164448E+02  0.45410087486E+03  0.16166094491E+04  0.10100000352E+00 0. -1.
       -3    1    3    3    0  502 -0.15489373660E+04  0.89507164448E+02  0.23567217769E+03  0.15693182857E+04  0.10100000352E+00 0.  1.
</event>
<event>
 5   0  0.5679750E-07  0.2649531E+04  0.7818609E-02  0.8351568E-01
       -1   -1    0    0    0  501  0.00000000000E+00  0.00000000000E+00  0.63915610306E+03  0.63915610308E+03  0.50400001928E-02 0. -1.
        1   -1    0    0  501    0  0.00000000000E+00  0.00000000000E+00 -0.27458147516E+04  0.27458147516E+04  0.50400001928E-02 0.  1.
    10030    2    1    2    0    0  0.00000000000E+00  0.00000000000E+00 -0.21066586486E+04  0.33849708547E+04  0.26495314729E+04 0.  0.
        4    1    3    3  502    0  0.26543059741E+03 -0.77643098828E+02  0.60186585742E+03  0.66236393023E+03  0.12699999809E+01 0. -1.
       -4    1    3    3    0  502 -0.26543059741E+03  0.77643098828E+02 -0.27085245060E+04  0.27226069245E+04  0.12699999809E+01 0.  1.
</event>
<event>
 5   0  0.1151180E-06  0.3864015E+04  0.7818609E-02  0.8032555E-01
        2   -1    0    0  501    0  0.00000000000E+00  0.00000000000E+00  0.25373792799E+04  0.25373792799E+04  0.25500000920E-02 0. -1.
       -2   -1    0    0    0  501  0.00000000000E+00  0.00000000000E+00 -0.14710661664E+04  0.14710661664E+04  0.25500000920E-02 0.  1.
    10030    2    1    2    0    0  0.00000000000E+00  0.00000000000E+00  0.10663131136E+04  0.40084454463E+04  0.38640149119E+04 0.  0.
        5    1    3    3  502    0  0.12502064531E+03  0.10051239795E+03  0.25304528262E+04  0.25355367281E+04  0.46999998093E+01 0. -1.
       -5    1    3    3    0  502 -0.12502064531E+03 -0.10051239795E+03 -0.14641397127E+04  0.14729087182E+04  0.46999998093E+01 0.  1.
</event>
<event>
 5   0  0.6287345E-07  0.3546276E+04  0.7818609E-02  0.8102910E-01
        1   -1    0    0  501    0  0.00000000000E+00  0.00000000000E+00  0.22554006129E+04  0.22554006129E+04  0.50400001928E-02 0.  1.
       -1   -1    0    0    0  501  0.00000000000E+00  0.00000000000E+00 -0.13939956184E+04  0.13939956184E+04  0.50400001928E-02 0. -1.
    10030    2    1    2    0    0  0.00000000000E+00  0.00000000000E+00  0.86140499451E+03  0.36493962313E+04  0.35462761157E+04 0.  0.
        5    1    3    3  502    0  0.13803284087E+04  0.99823429717E+03 -0.75765381856E+02  0.17051512282E+04  0.46999998093E+01 0.  1.
       -5    1    3    3    0  502 -0.13803284087E+04 -0.99823429717E+03  0.93717037636E+03  0.19442450031E+04  0.46999998093E+01 0. -1.
</event>
<event>
 5   0  0.5679750E-07  0.3834266E+04  0.7818609E-02  0.8038841E-01
        1   -1    0    0  501    0  0.00000000000E+00  0.00000000000E+00  0.16870269365E+04  0.16870269365E+04  0.50400001928E-02 0. -1.
       -1   -1    0    0    0  501  0.00000000000E+00  0.00000000000E+00 -0.21786250447E+04  0.21786250447E+04  0.50400001928E-02 0.  1.
    10030    2    1    2    0    0  0.00000000000E+00  0.00000000000E+00 -0.49159810822E+03  0.38656519811E+04  0.38342661018E+04 0.  0.
        4    1    3    3  502    0  0.14751303924E+04  0.50576793437E+03 -0.13700895181E+04  0.20758029238E+04  0.12699999809E+01 0.  1.
       -4    1    3    3    0  502 -0.14751303924E+04 -0.50576793437E+03  0.87849140990E+03  0.17898490573E+04  0.12699999809E+01 0. -1.
</event>
<event>
 5   0  0.5679750E-07  0.3701231E+04  0.7818609E-02  0.8067689E-01
        4   -1    0    0  501    0  0.00000000000E+00  0.00000000000E+00  0.24063321176E+04  0.24063324528E+04  0.12699999809E+01 0. -1.
       -4   -1    0    0    0  501  0.00000000000E+00  0.00000000000E+00 -0.14232347406E+04  0.14232353072E+04  0.12699999809E+01 0.  1.
    10030    2    1    2    0    0  0.00000000000E+00  0.00000000000E+00  0.98309737705E+03  0.38295677600E+04  0.37012307110E+04 0.  0.
        2    1    3    3  502    0 -0.98835021347E+03  0.21125985604E+03  0.20955640647E+04  0.23265544525E+04  0.25500000920E-02 0. -1.
       -2    1    3    3    0  502  0.98835021347E+03 -0.21125985604E+03 -0.11124666877E+04  0.15030133075E+04  0.25500000920E-02 0.  1.
</event>
<event>
 5   0  0.6261598E-07  0.3758543E+04  0.7818609E-02  0.8055110E-01
       -1   -1    0    0    0  501  0.00000000000E+00  0.00000000000E+00  0.20146694800E+04  0.20146694800E+04  0.50400001928E-02 0. -1.
        1   -1    0    0  501    0  0.00000000000E+00  0.00000000000E+00 -0.17529734288E+04  0.17529734289E+04  0.50400001928E-02 0.  1.
    10030    2    1    2    0    0  0.00000000000E+00  0.00000000000E+00  0.26169605112E+03  0.37676429088E+04  0.37585433702E+04 0.  0.
        1    1    3    3  502    0  0.70906260771E+03  0.12012755747E+04  0.13931939558E+04  0.19715025200E+04  0.50400001928E-02 0. -1.
       -1    1    3    3    0  502 -0.70906260771E+03 -0.12012755747E+04 -0.11314979047E+04  0.17961403888E+04  0.50400001928E-02 0.  1.
</event>
<event>
 5   0  0.1184684E-06  0.2055575E+04  0.7818609E-02  0.8581069E-01
        2   -1    0    0  501    0  0.00000000000E+00  0.00000000000E+00  0.84072214546E+03  0.84072214547E+03  0.25500000920E-02 0. -1.
       -2   -1    0    0    0  501  0.00000000000E+00  0.00000000000E+00 -0.12564760344E+04  0.12564760344E+04  0.25500000920E-02 0.  1.
    10030    2    1    2    0    0  0.00000000000E+00  0.00000000000E+00 -0.41575388897E+03  0.20971981799E+04  0.20555750800E+04 0.  0.
        4    1    3    3  502    0 -0.13772774211E+03  0.85177953415E+03  0.36186451614E+03  0.93565209704E+03  0.12699999809E+01 0.  1.
       -4    1    3    3    0  502  0.13772774211E+03 -0.85177953415E+03 -0.77761840510E+03  0.11615460829E+04  0.12699999809E+01 0. -1.
</event>
<event>
 5   0  0.6186440E-07  0.3822574E+04  0.7818609E-02  0.8041328E-01
        1   -1    0    0  501    0  0.00000000000E+00  0.00000000000E+00  0.19669311878E+04  0.19669311878E+04  0.50400001928E-02 0. -1.
       -1   -1    0    0    0  501  0.00000000000E+00  0.00000000000E+00 -0.18572165526E+04  0.18572165526E+04  0.50400001928E-02 0.  1.
    10030    2    1    2    0    0  0.00000000000E+00  0.00000000000E+00  0.10971463527E+03  0.38241477404E+04  0.38225735623E+04 0.  0.
        3    1    3    3  502    0  0.53084808867E+03 -0.18355479255E+04  0.10327533983E+02  0.19107963126E+04  0.10100000352E+00 0. -1.
       -3    1    3    3    0  502 -0.53084808867E+03  0.18355479255E+04  0.99387101290E+02  0.19133514278E+04  0.10100000352E+00 0.  1.
</event>
<event>
 5   0  0.1680194E-06  0.2082290E+04  0.7818609E-02  0.8569085E-01
       -2   -1    0    0    0  501  0.00000000000E+00  0.00000000000E+00  0.75987993453E+03  0.75987993453E+03  0.25500000920E-02 0. -1.
        2   -1    0    0  501    0  0.00000000000E+00  0.00000000000E+00 -0.14265190993E+04  0.14265190993E+04  0.25500000920E-02 0.  1.
    10030    2    1    2    0    0  0.00000000000E+00  0.00000000000E+00 -0.66663916473E+03  0.21863990338E+04  0.20822903157E+04 0.  0.
        2    1    3    3  502    0  0.80080716281E+03  0.50540093208E+03 -0.78769188104E+03  0.12317388983E+04  0.25500000920E-02 0.  1.
       -2    1    3    3    0  502 -0.80080716281E+03 -0.50540093208E+03  0.12105271630E+03  0.95466013549E+03  0.25500000920E-02 0. -1.
</event>
<event>
 5   0  0.5679750E-07  0.3086711E+04  0.7818609E-02  0.8219394E-01
        4   -1    0    0  501    0  0.00000000000E+00  0.00000000000E+00  0.17397758353E+04  0.17397762988E+04  0.12699999809E+01 0. -1.
       -4   -1    0    0    0  501  0.00000000000E+00  0.00000000000E+00 -0.13691098385E+04  0.13691104275E+04  0.12699999809E+01 0.  1.
    10030    2    1    2    0    0  0.00000000000E+00  0.00000000000E+00  0.37066599680E+03  0.31088867263E+04  0.30867107729E+04 0.  0.
        2    1    3    3  502    0 -0.41824228726E+03 -0.13927393679E+03  0.16750202559E+04  0.17320556279E+04  0.25500000920E-02 0. -1.
       -2    1    3    3    0  502  0.41824228726E+03  0.13927393679E+03 -0.13043542591E+04  0.13768310984E+04  0.25500000920E-02 0.  1.
</event>
<event>
 5   0  0.1685793E-06  0.3700917E+04  0.7818609E-02  0.8067759E-01
       -2   -1    0    0    0  501  0.00000000000E+00  0.00000000000E+00  0.22532902708E+04  0.22532902708E+04  0.25500000920E-02 0.  1.
        2   -1    0    0  501    0  0.00000000000E+00  0.00000000000E+00 -0.15196428024E+04  0.15196428024E+04  0.25500000920E-02 0. -1.
    10030    2    1    2    0    0  0.00000000000E+00  0.00000000000E+00  0.73364746842E+03  0.37729330733E+04  0.37009168280E+04 0.  0.
        3    1    3    3  502    0  0.31619554641E+03 -0.15766429787E+04  0.13002906716E+04  0.20679793391E+04  0.10100000352E+00 0.  1.
       -3    1    3    3    0  502 -0.31619554641E+03  0.15766429787E+04 -0.56664320321E+03  0.17049537342E+04  0.10100000352E+00 0. -1.
</event>
<event>
 5   0  0.5679750E-07  0.2359478E+04  0.7818609E-02  0.8454832E-01
       -1   -1    0    0    0  501  0.00000000000E+00  0.00000000000E+00  0.88976869642E+03  0.88976869643E+03  0.50400001928E-02 0.  1.
        1   -1    0    0  501    0  0.00000000000E+00  0.00000000000E+00 -0.15642089448E+04  0.15642089448E+04  0.50400001928E-02 0. -1.
    10030    2    1    2    0    0  0.00000000000E+00  0.00000000000E+00 -0.67444024834E+03  0.24539776412E+04  0.23594780387E+04 0.  0.
        4    1    3    3  502    0  0.55986698585E+03  0.72009024788E+03  0.44094489503E+03  0.10131214243E+04  0.12699999809E+01 0.  1.
       -4    1    3    3    0  502 -0.55986698585E+03 -0.72009024788E+03 -0.11153851434E+04  0.14408562169E+04  0.12699999809E+01 0. -1.
</event>
<event>
 5   0  0.1724503E-06  0.3724880E+04  0.7818609E-02  0.8062470E-01
       -2   -1    0    0    0  501  0.00000000000E+00  0.00000000000E+00  0.15385080151E+04  0.15385080151E+04  0.25500000920E-02 0.  1.
        2   -1    0    0  501    0  0.00000000000E+00  0.00000000000E+00 -0.22545756902E+04  0.22545756902E+04  0.25500000920E-02 0. -1.
    10030    2    1    2    0    0  0.00000000000E+00  0.00000000000E+00 -0.71606767511E+03  0.37930837053E+04  0.37248800088E+04 0.  0.
        1    1    3    3  502    0  0.16288418354E+04 -0.73789268141E+03 -0.88821222252E+03  0.19966302327E+04  0.50400001928E-02 0. -1.
       -1    1    3    3    0  502 -0.16288418354E+04  0.73789268141E+03  0.17214454741E+03  0.17964534726E+04  0.50400001928E-02 0.  1.
</event>
<event>
 5   0  0.6261598E-07  0.4047137E+04  0.7818609E-02  0.7995104E-01
        1   -1    0    0  501    0  0.00000000000E+00  0.00000000000E+00  0.12500712914E+04  0.12500712914E+04  0.50400001928E-02 0. -1.
       -1   -1    0    0    0  501  0.00000000000E+00  0.00000000000E+00 -0.32756775067E+04  0.32756775067E+04  0.50400001928E-02 0.  1.
    10030    2    1    2    0    0  0.00000000000E+00  0.00000000000E+00 -0.20256062153E+04  0.45257487980E+04  0.40471374629E+04 0.  0.
        1    1    3    3  502    0  0.13266309038E+04 -0.13109192130E+04 -0.18907410626E+04  0.26558163535E+04  0.50400001928E-02 0.  1.
       -1    1    3    3    0  502 -0.13266309038E+04  0.13109192130E+04 -0.13486515274E+03  0.18699324446E+04  0.50400001928E-02 0. -1.
</event>
<event>
 5   0  0.6186440E-07  0.2792336E+04  0.7818609E-02  0.8305652E-01
        1   -1    0    0  501    0  0.00000000000E+00  0.00000000000E+00  0.20771776232E+04  0.20771776232E+04  0.50400001928E-02 0. -1.
       -1   -1    0    0    0  501  0.00000000000E+00  0.00000000000E+00 -0.93842944475E+03  0.93842944476E+03  0.50400001928E-02 0.  1.
    10030    2    1    2    0    0  0.00000000000E+00  0.00000000000E+00  0.11387481784E+04  0.30156070679E+04  0.27923356844E+04 0.  0.
        3    1    3    3  502    0 -0.12501898675E+04  0.92753341145E+02  0.12330934666E+04  0.17584360650E+04  0.10100000352E+00 0. -1.
       -3    1    3    3    0  502  0.12501898675E+04 -0.92753341145E+02 -0.94345288161E+02  0.12571710030E+04  0.10100000352E+00 0.  1.
</event>
<event>
 5   0  0.6261598E-07  0.3212546E+04  0.7818609E-02  0.8185512E-01
       -1   -1    0    0    0  501  0.00000000000E+00  0.00000000000E+00  0.34434209115E+04  0.34434209115E+04  0.50400001928E-02 0. -1.
        1   -1    0    0  501    0  0.00000000000E+00  0.00000000000E+00 -0.74928773505E+03  0.74928773506E+03  0.50400001928E-02 0.  1.
    10030    2    1    2    0    0  0.00000000000E+00  0.00000000000E+00  0.26941331765E+04  0.41927086466E+04  0.32125460654E+04 0.  0.
        1    1    3    3  502    0  0.83214230226E+03  0.61535780556E+03 -0.25613476835E+03  0.10661759047E+04  0.50400001928E-02 0.  1.
       -1    1    3    3    0  502 -0.83214230226E+03 -0.61535780556E+03  0.29502679448E+04  0.31265327419E+04  0.50400001928E-02 0. -1.
</event>
<event>
 5   0  0.1685793E-06  0.3345314E+04  0.7818609E-02  0.8151460E-01
       -2   -1    0    0    0  501  0.00000000000E+00  0.00000000000E+00  0.10797679142E+04  0.10797679142E+04  0.25500000920E-02 0.  1.
        2   -1    0    0  501    0  0.00000000000E+00  0.00000000000E+00 -0.25910956420E+04  0.25910956420E+04  0.25500000920E-02 0. -1.
    10030    2    1    2    0    0  0.00000000000E+00  0.00000000000E+00 -0.15113277279E+04  0.36708635562E+04  0.33453142972E+04 0.  0.
        3    1    3    3  502    0  0.45455026942E+03 -0.15961952203E+04 -0.98407097026E+03  0.19294690496E+04  0.10100000352E+00 0.  1.
       -3    1    3    3    0  502 -0.45455026942E+03  0.15961952203E+04 -0.52725675761E+03  0.17413945066E+04  0.10100000352E+00 0. -1.
</event>
<event>
 5   0  0.1724503E-06  0.3542931E+04  0.7818609E-02  0.8103691E-01
       -2   -1    0    0    0  501  0.00000000000E+00  0.00000000000E+00  0.11480818364E+04  0.11480818364E+04  0.25500000920E-02 0.  1.
        2   -1    0    0  501    0  0.00000000000E+00  0.00000000000E+00 -0.27333326383E+04  0.27333326383E+04  0.25500000920E-02 0. -1.
    10030    2    1    2    0    0  0.00000000000E+00  0.00000000000E+00 -0.15852508019E+04  0.38814144746E+04  0.35429307387E+04 0.  0.
        1    1    3    3  502    0  0.97434462586E+02 -0.17443896303E+04 -0.47190983069E+03  0.18097202947E+04  0.50400001928E-02 0.  1.
       -1    1    3    3    0  502 -0.97434462586E+02  0.17443896303E+04 -0.11133409712E+04  0.20716941799E+04  0.50400001928E-02 0. -1.
</event>
<event>
 5   0  0.1184684E-06  0.3565422E+04  0.7818609E-02  0.8098458E-01
       -2   -1    0    0    0  501  0.00000000000E+00  0.00000000000E+00  0.12003893302E+04  0.12003893302E+04  0.25500000920E-02 0.  1.
        2   -1    0    0  501    0  0.00000000000E+00  0.00000000000E+00 -0.26475236032E+04  0.26475236032E+04  0.25500000920E-02 0. -1.
    10030    2    1    2    0    0  0.00000000000E+00  0.00000000000E+00 -0.14471342730E+04  0.38479129335E+04  0.35654223227E+04 0.  0.
        4    1    3    3  502    0  0.12138721353E+03  0.17426193042E+04 -0.33956636247E+03  0.17795403402E+04  0.12699999809E+01 0.  1.
       -4    1    3    3    0  502 -0.12138721353E+03 -0.17426193042E+04 -0.11075679105E+04  0.20683725932E+04  0.12699999809E+01 0. -1.
</event>
<event>
 5   0  0.1151180E-06  0.2610193E+04  0.7818609E-02  0.8364747E-01
        2   -1    0    0  501    0  0.00000000000E+00  0.00000000000E+00  0.14768819966E+04  0.14768819966E+04  0.25500000920E-02 0.  1.
       -2   -1    0    0    0  501  0.00000000000E+00  0.00000000000E+00 -0.11532925564E+04  0.11532925564E+04  0.25500000920E-02 0. -1.
    10030    2    1    2    0    0  0.00000000000E+00  0.00000000000E+00  0.32358944022E+03  0.26301745530E+04  0.26101931066E+04 0.  0.
        5    1    3    3  502    0  0.21025985518E+03  0.12717619826E+04  0.36748272635E+03  0.13403929988E+04  0.46999998093E+01 0.  1.
       -5    1    3    3    0  502 -0.21025985518E+03 -0.12717619826E+04 -0.43893286137E+02  0.12897815542E+04  0.46999998093E+01 0. -1.
</event>
<event>
 5   0  0.1151180E-06  0.3651445E+04  0.7818609E-02  0.8078808E-01
       -2   -1    0    0    0  501  0.00000000000E+00  0.00000000000E+00  0.14928131998E+04  0.14928131998E+04  0.25500000920E-02 0. -1.
        2   -1    0    0  501    0  0.00000000000E+00  0.00000000000E+00 -0.22328733630E+04  0.22328733630E+04  0.25500000920E-02 0.  1.
    10030    2    1    2    0    0  0.00000000000E+00  0.00000000000E+00 -0.74006016318E+03  0.37256865628E+04  0.36514451001E+04 0.  0.
        5    1    3    3  502    0 -0.48075478847E+02 -0.12615260552E+04 -0.17157399811E+04  0.21301514060E+04  0.46999998093E+01 0. -1.
       -5    1    3    3    0  502  0.48075478847E+02  0.12615260552E+04  0.97567981792E+03  0.15955351568E+04  0.46999998093E+01 0.  1.
</event>
<event>
 5   0  0.1680194E-06  0.3565044E+04  0.7818609E-02  0.8098546E-01
        2   -1    0    0  501    0  0.00000000000E+00  0.00000000000E+00  0.20898336012E+04  0.20898336012E+04  0.25500000920E-02 0.  1.
       -2   -1    0    0    0  501  0.00000000000E+00  0.00000000000E+00 -0.15204004515E+04  0.15204004515E+04  0.25500000920E-02 0. -1.
    10030    2    1    2    0    0  0.00000000000E+00  0.00000000000E+00  0.56943314966E+03  0.36102340527E+04  0.35650435907E+04 0.  0.
        2    1    3    3  502    0  0.77553789816E+03 -0.11584978926E+03  0.19057903060E+04  0.20608049145E+04  0.25500000920E-02 0.  1.
       -2    1    3    3    0  502 -0.77553789816E+03  0.11584978926E+03 -0.13363571563E+04  0.15494291382E+04  0.25500000920E-02 0. -1.
</event>
<event>
 5   0  0.6186440E-07  0.3780176E+04  0.7818609E-02  0.8050422E-01
        1   -1    0    0  501    0  0.00000000000E+00  0.00000000000E+00  0.10946928292E+04  0.10946928293E+04  0.50400001928E-02 0. -1.
       -1   -1    0    0    0  501  0.00000000000E+00  0.00000000000E+00 -0.32634117773E+04  0.32634117773E+04  0.50400001928E-02 0.  1.
    10030    2    1    2    0    0  0.00000000000E+00  0.00000000000E+00 -0.21687189481E+04  0.43581046066E+04  0.37801764358E+04 0.  0.
        3    1    3    3  502    0  0.17226559587E+04  0.15781234313E+02 -0.19808265139E+04  0.26251602404E+04  0.10100000352E+00 0.  1.
       -3    1    3    3    0  502 -0.17226559587E+04 -0.15781234313E+02 -0.18789243419E+03  0.17329443662E+04  0.10100000352E+00 0. -1.
</event>
<event>
 5   0  0.5875011E-07  0.2628948E+04  0.7818609E-02  0.8358434E-01
        1   -1    0    0  501    0  0.00000000000E+00  0.00000000000E+00  0.11709439623E+04  0.11709439623E+04  0.50400001928E-02 0. -1.
       -1   -1    0    0    0  501  0.00000000000E+00  0.00000000000E+00 -0.14755970138E+04  0.14755970138E+04  0.50400001928E-02 0.  1.
    10030    2    1    2    0    0  0.00000000000E+00  0.00000000000E+00 -0.30465305150E+03  0.26465409762E+04  0.26289476330E+04 0.  0.
        2    1    3    3  502    0 -0.23248456606E+03 -0.10612723517E+04 -0.89720616968E+03  0.14090163196E+04  0.25500000920E-02 0.  1.
       -2    1    3    3    0  502  0.23248456606E+03  0.10612723517E+04  0.59255311818E+03  0.12375246566E+04  0.25500000920E-02 0. -1.
</event>
<event>
 5   0  0.6261598E-07  0.3567599E+04  0.7818609E-02  0.8097954E-01
       -1   -1    0    0    0  501  0.00000000000E+00  0.00000000000E+00  0.12722970219E+04  0.12722970219E+04  0.50400001928E-02 0. -1.
        1   -1    0    0  501    0  0.00000000000E+00  0.00000000000E+00 -0.25009410536E+04  0.25009410536E+04  0.50400001928E-02 0.  1.
    10030    2    1    2    0    0  0.00000000000E+00  0.00000000000E+00 -0.12286440317E+04  0.37732380754E+04  0.35675985505E+04 0.  0.
        1    1    3    3  502    0 -0.17795877540E+04 -0.53229130451E+02 -0.49762659778E+03  0.18486206061E+04  0.50400001928E-02 0.  1.
       -1    1    3    3    0  502  0.17795877540E+04  0.53229130451E+02 -0.73101743391E+03  0.19246174693E+04  0.50400001928E-02 0. -1.
</event>
<event>
 5   0  0.6186440E-07  0.2075943E+04  0.7818609E-02  0.8571915E-01
       -1   -1    0    0    0  501  0.00000000000E+00  0.00000000000E+00  0.11468763102E+04  0.11468763102E+04  0.50400001928E-02 0.  1.
        1   -1    0    0  501    0  0.00000000000E+00  0.00000000000E+00 -0.93940809943E+03  0.93940809945E+03  0.50400001928E-02 0. -1.
    10030    2    1    2    0    0  0.00000000000E+00  0.00000000000E+00  0.20746821077E+03  0.20862844097E+04  0.20759430579E+04 0.  0.
        3    1    3    3  502    0  0.23688654357E+03  0.87416714881E+03  0.61331171301E+03  0.10938165779E+04  0.10100000352E+00 0.  1.
       -3    1    3    3    0  502 -0.23688654357E+03 -0.87416714881E+03 -0.40584350224E+03  0.99246783176E+03  0.10100000352E+00 0. -1.
</event>
<event>
 5   0  0.1680194E-06  0.2103002E+04  0.7818609E-02  0.8559922E-01
       -2   -1    0    0    0  501  0.00000000000E+00  0.00000000000E+00  0.97612513341E+03  0.97612513341E+03  0.25500000920E-02 0. -1.
        2   -1    0    0  501    0  0.00000000000E+00  0.00000000000E+00 -0.11326975218E+04  0.11326975218E+04  0.25500000920E-02 0.  1.
    10030    2    1    2    0    0  0.00000000000E+00  0.00000000000E+00 -0.15657238843E+03  0.21088226552E+04  0.21030021585E+04 0.  0.
        2    1    3    3  502    0 -0.23580371499E+03 -0.58481064929E+03  0.76549837229E+03  0.99176340198E+03  0.25500000920E-02 0. -1.
       -2    1    3    3    0  502  0.23580371499E+03  0.58481064929E+03 -0.92207076072E+03  0.11170592533E+04  0.25500000920E-02 0.  1.
</event>
<event>
 5   0  0.1680194E-06  0.3671212E+04  0.7818609E-02  0.8074372E-01
       -2   -1    0    0    0  501  0.00000000000E+00  0.00000000000E+00  0.12468456291E+04  0.12468456291E+04  0.25500000920E-02 0.  1.
        2   -1    0    0  501    0  0.00000000000E+00  0.00000000000E+00 -0.27023796180E+04  0.27023796180E+04  0.25500000920E-02 0. -1.
    10030    2    1    2    0    0  0.00000000000E+00  0.00000000000E+00 -0.14555339889E+04  0.39492252471E+04  0.36712124509E+04 0.  0.
        2    1    3    3  502    0  0.14838442856E+04 -0.47482475401E+02 -0.18890557557E+04  0.24026194242E+04  0.25500000920E-02 0. -1.
       -2    1    3    3    0  502 -0.14838442856E+04  0.47482475401E+02  0.43352176678E+03  0.15466058230E+04  0.25500000920E-02 0.  1.
</event>
<event>
 5   0  0.5875011E-07  0.3651720E+04  0.7818609E-02  0.8078746E-01
       -1   -1    0    0    0  501  0.00000000000E+00  0.00000000000E+00  0.18391076076E+04  0.18391076076E+04  0.50400001928E-02 0.  1.
        1   -1    0    0  501    0  0.00000000000E+00  0.00000000000E+00 -0.18127076767E+04  0.18127076767E+04  0.50400001928E-02 0. -1.
    10030    2    1    2    0    0  0.00000000000E+00  0.00000000000E+00  0.26399930896E+02  0.36518152844E+04  0.36517198571E+04 0.  0.
        2    1    3    3  502    0 -0.73807276176E+03  0.13515823130E+04 -0.96776314274E+03  0.18188160025E+04  0.25500000920E-02 0. -1.
       -2    1    3    3    0  502  0.73807276176E+03 -0.13515823130E+04  0.99416307364E+03  0.18329992819E+04  0.25500000920E-02 0.  1.
</event>
<event>
 5   0  0.5679750E-07  0.3737357E+04  0.7818609E-02  0.8059733E-01
       -1   -1    0    0    0  501  0.00000000000E+00  0.00000000000E+00  0.13966775992E+04  0.13966775992E+04  0.50400001928E-02 0. -1.
        1   -1    0    0  501    0  0.00000000000E+00  0.00000000000E+00 -0.25001896688E+04  0.25001896688E+04  0.50400001928E-02 0.  1.
    10030    2    1    2    0    0  0.00000000000E+00  0.00000000000E+00 -0.11035120696E+04  0.38968672679E+04  0.37373567687E+04 0.  0.
        4    1    3    3  502    0  0.15513067965E+04 -0.10344807817E+04 -0.68053451812E+03  0.19849010322E+04  0.12699999809E+01 0.  1.
       -4    1    3    3    0  502 -0.15513067965E+04  0.10344807817E+04 -0.42297755146E+03  0.19119662357E+04  0.12699999809E+01 0. -1.
</event>
<event>
 5   0  0.6287345E-07  0.3752114E+04  0.7818609E-02  0.8056510E-01
        1   -1    0    0  501    0  0.00000000000E+00  0.00000000000E+00  0.17359259036E+04  0.17359259036E+04  0.50400001928E-02 0. -1.
       -1   -1    0    0    0  501  0.00000000000E+00  0.00000000000E+00 -0.20275001487E+04  0.20275001487E+04  0.50400001928E-02 0.  1.
    10030    2    1    2    0    0  0.00000000000E+00  0.00000000000E+00 -0.29157424508E+03  0.37634260523E+04  0.37521140855E+04 0.  0.
        5    1    3    3  502    0 -0.15441628619E+04 -0.44161686535E+03  0.82672538507E+03  0.18063668930E+04  0.46999998093E+01 0. -1.
       -5    1    3    3    0  502  0.15441628619E+04  0.44161686535E+03 -0.11182996301E+04  0.19570591592E+04  0.46999998093E+01 0.  1.
</event>
<event>
 5   0  0.5679750E-07  0.3663170E+04  0.7818609E-02  0.8076173E-01
       -1   -1    0    0    0  501  0.00000000000E+00  0.00000000000E+00  0.12298060373E+04  0.12298060374E+04  0.50400001928E-02 0. -1.
        1   -1    0    0  501    0  0.00000000000E+00  0.00000000000E+00 -0.27278321321E+04  0.27278321321E+04  0.50400001928E-02 0.  1.
    10030    2    1    2    0    0  0.00000000000E+00  0.00000000000E+00 -0.14980260948E+04  0.39576381695E+04  0.36631704437E+04 0.  0.
        4    1    3    3  502    0 -0.12019705968E+04  0.95014695277E+03  0.33525015536E+03  0.15684090114E+04  0.12699999809E+01 0. -1.
       -4    1    3    3    0  502  0.12019705968E+04 -0.95014695277E+03 -0.18332762501E+04  0.23892291581E+04  0.12699999809E+01 0.  1.
</event>
<event>
 5   0  0.6287345E-07  0.2904720E+04  0.7818609E-02  0.8271475E-01
       -1   -1    0    0    0  501  0.00000000000E+00  0.00000000000E+00  0.18883907617E+04  0.18883907617E+04  0.50400001928E-02 0. -1.
        1   -1    0    0  501    0  0.00000000000E+00  0.00000000000E+00 -0.11170088424E+04  0.11170088424E+04  0.50400001928E-02 0.  1.
    10030    2    1    2    0    0  0.00000000000E+00  0.00000000000E+00  0.77138191927E+03  0.30053996042E+04  0.29047197309E+04 0.  0.
        5    1    3    3  502    0 -0.63054285893E+03 -0.68258449194E+03  0.15405416788E+04  0.17991099577E+04  0.46999998093E+01 0. -1.
       -5    1    3    3    0  502  0.63054285893E+03  0.68258449194E+03 -0.76915975954E+03  0.12062896465E+04  0.46999998093E+01 0.  1.
</event>
<event>
 5   0  0.6287345E-07  0.3959932E+04  0.7818609E-02  0.8012679E-01
        1   -1    0    0  501    0  0.00000000000E+00  0.00000000000E+00  0.21689231195E+04  0.21689231195E+04  0.50400001928E-02 0. -1.
       -1   -1    0    0    0  501  0.00000000000E+00  0.00000000000E+00 -0.18074710642E+04  0.18074710642E+04  0.50400001928E-02 0.  1.
    10030    2    1    2    0    0  0.00000000000E+00  0.00000000000E+00  0.36145205528E+03  0.39763941837E+04  0.39599322110E+04 0.  0.
        5    1    3    3  502    0  0.13934336414E+04  0.12853725684E+04 -0.39296656095E+03  0.19360487495E+04  0.46999998093E+01 0.  1.
       -5    1    3    3    0  502 -0.13934336414E+04 -0.12853725684E+04  0.75441861623E+03  0.20403454342E+04  0.46999998093E+01 0. -1.
</event>
<event>
 5   0  0.6186440E-07  0.2871935E+04  0.7818609E-02  0.8281277E-01
        1   -1    0    0  501    0  0.00000000000E+00  0.00000000000E+00  0.16603821184E+04  0.16603821185E+04  0.50400001928E-02 0.  1.
       -1   -1    0    0    0  501  0.00000000000E+00  0.00000000000E+00 -0.12418848360E+04  0.12418848360E+04  0.50400001928E-02 0. -1.
    10030    2    1    2    0    0  0.00000000000E+00  0.00000000000E+00  0.41849728242E+03  0.29022669545E+04  0.28719354971E+04 0.  0.
        3    1    3    3  502    0 -0.12963337686E+04  0.23156688889E+02  0.83300806911E+03  0.15410775208E+04  0.10100000352E+00 0. -1.
       -3    1    3    3    0  502  0.12963337686E+04 -0.23156688889E+02 -0.41451078669E+03  0.13611894337E+04  0.10100000352E+00 0.  1.
</event>
<event>
 5   0  0.1184684E-06  0.3680705E+04  0.7818609E-02  0.8072251E-01
       -2   -1    0    0    0  501  0.00000000000E+00  0.00000000000E+00  0.13030517131E+04  0.13030517132E+04  0.25500000920E-02 0.  1.
        2   -1    0    0  501    0  0.00000000000E+00  0.00000000000E+00 -0.25992041035E+04  0.25992041035E+04  0.25500000920E-02 0. -1.
    10030    2    1    2    0    0  0.00000000000E+00  0.00000000000E+00 -0.12961523903E+04  0.39022558166E+04  0.36807050193E+04 0.  0.
        4    1    3    3  502    0 -0.53852416549E+03  0.22055100949E+03 -0.24990899180E+04  0.25659507119E+04  0.12699999809E+01 0. -1.
       -4    1    3    3    0  502  0.53852416549E+03 -0.22055100949E+03  0.12029375277E+04  0.13363051048E+04  0.12699999809E+01 0.  1.
</event>
<event>
 5   0  0.1724503E-06  0.3685152E+04  0.7818609E-02  0.8071260E-01
        2   -1    0    0  501    0  0.00000000000E+00  0.00000000000E+00  0.12117288541E+04  0.12117288541E+04  0.25500000920E-02 0.  1.
       -2   -1    0    0    0  501  0.00000000000E+00  0.00000000000E+00 -0.28018527954E+04  0.28018527954E+04  0.25500000920E-02 0. -1.
    10030    2    1    2    0    0  0.00000000000E+00  0.00000000000E+00 -0.15901239414E+04  0.40135816495E+04  0.36851517619E+04 0.  0.
        1    1    3    3  502    0 -0.46161079234E+03  0.50677094036E+03 -0.26578067783E+04  0.27447838130E+04  0.50400001928E-02 0. -1.
       -1    1    3    3    0  502  0.46161079234E+03 -0.50677094036E+03  0.10676828369E+04  0.12687978365E+04  0.50400001928E-02 0.  1.
</event>
<event>
 5   0  0.1724503E-06  0.3726070E+04  0.7818609E-02  0.8062209E-01
       -2   -1    0    0    0  501  0.00000000000E+00  0.00000000000E+00  0.15773950011E+04  0.15773950011E+04  0.25500000920E-02 0.  1.
        2   -1    0    0  501    0  0.00000000000E+00  0.00000000000E+00 -0.22004001398E+04  0.22004001398E+04  0.25500000920E-02 0. -1.
    10030    2    1    2    0    0  0.00000000000E+00  0.00000000000E+00 -0.62300513868E+03  0.37777951409E+04  0.37260704131E+04 0.  0.
        1    1    3    3  502    0 -0.16382141389E+04 -0.21145789660E+03  0.56210839864E+03  0.17448283179E+04  0.50400001928E-02 0.  1.
       -1    1    3    3    0  502  0.16382141389E+04  0.21145789660E+03 -0.11851135373E+04  0.20329668230E+04  0.50400001928E-02 0. -1.
</event>
<event>
 5   0  0.6287345E-07  0.3872209E+04  0.7818609E-02  0.8030834E-01
        1   -1    0    0  501    0  0.00000000000E+00  0.00000000000E+00  0.14608388810E+04  0.14608388810E+04  0.50400001928E-02 0.  1.
       -1   -1    0    0    0  501  0.00000000000E+00  0.00000000000E+00 -0.25659917953E+04  0.25659917953E+04  0.50400001928E-02 0. -1.
    10030    2    1    2    0    0  0.00000000000E+00  0.00000000000E+00 -0.11051529143E+04  0.40268306763E+04  0.38722089732E+04 0.  0.
        5    1    3    3  502    0 -0.94438546835E+03  0.13008650586E+04 -0.16747217519E+04  0.23213851145E+04  0.46999998093E+01 0. -1.
       -5    1    3    3    0  502  0.94438546835E+03 -0.13008650586E+04  0.56956883763E+03  0.17054455618E+04  0.46999998093E+01 0.  1.
</event>
<event>
 5   0  0.1685793E-06  0.1820539E+04  0.7818609E-02  0.8695453E-01
        2   -1    0    0  501    0  0.00000000000E+00  0.00000000000E+00  0.11022084824E+04  0.11022084824E+04  0.25500000920E-02 0. -1.
       -2   -1    0    0    0  501  0.00000000000E+00  0.00000000000E+00 -0.75175467305E+03  0.75175467306E+03  0.25500000920E-02 0.  1.
    10030    2    1    2    0    0  0.00000000000E+00  0.00000000000E+00  0.35045380934E+03  0.18539631554E+04  0.18205387964E+04 0.  0.
        3    1    3    3  502    0  0.22845892557E+01 -0.90967276111E+03  0.20870315073E+03  0.93330957724E+03  0.10100000352E+00 0.  1.
       -3    1    3    3    0  502 -0.22845892557E+01  0.90967276111E+03  0.14175065861E+03  0.92065357821E+03  0.10100000352E+00 0. -1.
</event>
<event>
 5   0  0.1685793E-06  0.3773904E+04  0.7818609E-02  0.8051778E-01
        2   -1    0    0  501    0  0.00000000000E+00  0.00000000000E+00  0.23822615207E+04  0.23822615207E+04  0.25500000920E-02 0.  1.
       -2   -1    0    0    0  501  0.00000000000E+00  0.00000000000E+00 -0.14946254166E+04  0.14946254166E+04  0.25500000920E-02 0. -1.
    10030    2    1    2    0    0  0.00000000000E+00  0.00000000000E+00  0.88763610410E+03  0.38768869372E+04  0.37739044067E+04 0.  0.
        3    1    3    3  502    0  0.80846171507E+03  0.17026394091E+04  0.53568601345E+03  0.19594771796E+04  0.10100000352E+00 0.  1.
       -3    1    3    3    0  502 -0.80846171507E+03 -0.17026394091E+04  0.35195009065E+03  0.19174097576E+04  0.10100000352E+00 0. -1.
</event>
<event>
 5   0  0.1151180E-06  0.3769453E+04  0.7818609E-02  0.8052742E-01
       -2   -1    0    0    0  501  0.00000000000E+00  0.00000000000E+00  0.13435405597E+04  0.13435405597E+04  0.25500000920E-02 0.  1.
        2   -1    0    0  501    0  0.00000000000E+00  0.00000000000E+00 -0.26439057590E+04  0.26439057590E+04  0.25500000920E-02 0. -1.
    10030    2    1    2    0    0  0.00000000000E+00  0.00000000000E+00 -0.13003651993E+04  0.39874463187E+04  0.37694533414E+04 0.  0.
        5    1    3    3  502    0  0.10888030487E+03 -0.77382653099E+03  0.11640862766E+04  0.14020632547E+04  0.46999998093E+01 0.  1.
       -5    1    3    3    0  502 -0.10888030487E+03  0.77382653099E+03 -0.24644514759E+04  0.25853830640E+04  0.46999998093E+01 0. -1.
</event>
<event>
 5   0  0.5679750E-07  0.3674288E+04  0.7818609E-02  0.8073684E-01
       -1   -1    0    0    0  501  0.00000000000E+00  0.00000000000E+00  0.30992605463E+04  0.30992605463E+04  0.50400001928E-02 0. -1.
        1   -1    0    0  501    0  0.00000000000E+00  0.00000000000E+00 -0.10890007870E+04  0.10890007870E+04  0.50400001928E-02 0.  1.
    10030    2    1    2    0    0  0.00000000000E+00  0.00000000000E+00  0.20102597593E+04  0.41882613334E+04  0.36742875087E+04 0.  0.
        4    1    3    3  502    0  0.39287894809E+03  0.17927532667E+04  0.91128884747E+03  0.20490893391E+04  0.12699999809E+01 0.  1.
       -4    1    3    3    0  502 -0.39287894809E+03 -0.17927532667E+04  0.10989709119E+04  0.21391719943E+04  0.12699999809E+01 0. -1.
</event>
<event>
 5   0  0.1184684E-06  0.3637167E+04  0.7818609E-02  0.8082031E-01
        2   -1    0    0  501    0  0.00000000000E+00  0.00000000000E+00  0.15799424173E+04  0.15799424173E+04  0.25500000920E-02 0.  1.
       -2   -1    0    0    0  501  0.00000000000E+00  0.00000000000E+00 -0.20932702633E+04  0.20932702633E+04  0.25500000920E-02 0. -1.
    10030    2    1    2    0    0  0.00000000000E+00  0.00000000000E+00 -0.51332784605E+03  0.36732126806E+04  0.36371672933E+04 0.  0.
        4    1    3    3  502    0 -0.17117715255E+04  0.59778805766E+03 -0.39852864135E+03  0.18564317946E+04  0.12699999809E+01 0.  1.
       -4    1    3    3    0  502  0.17117715255E+04 -0.59778805766E+03 -0.11479920470E+03  0.18167808860E+04  0.12699999809E+01 0. -1.
</event>
<event>
 5   0  0.6261598E-07  0.3669113E+04  0.7818609E-02  0.8074841E-01
        1   -1    0    0  501    0  0.00000000000E+00  0.00000000000E+00  0.23596513213E+04  0.23596513213E+04  0.50400001928E-02 0. -1.
       -1   -1    0    0    0  501  0.00000000000E+00  0.00000000000E+00 -0.14263117645E+04  0.14263117645E+04  0.50400001928E-02 0.  1.
    10030    2    1    2    0    0  0.00000000000E+00  0.00000000000E+00  0.93333955681E+03  0.37859630859E+04  0.36691134841E+04 0.  0.
        1    1    3    3  502    0  0.10837992506E+04 -0.90646350769E+03 -0.74076804989E+03  0.15953163354E+04  0.50400001928E-02 0.  1.
       -1    1    3    3    0  502 -0.10837992506E+04  0.90646350769E+03  0.16741076067E+04  0.21906467504E+04  0.50400001928E-02 0. -1.
</event>
<event>
 5   0  0.6287345E-07  0.3643706E+04  0.7818609E-02  0.8080553E-01
        1   -1    0    0  501    0  0.00000000000E+00  0.00000000000E+00  0.20421752962E+04  0.20421752962E+04  0.50400001928E-02 0. -1.
       -1   -1    0    0    0  501  0.00000000000E+00  0.00000000000E+00 -0.16253003712E+04  0.16253003712E+04  0.50400001928E-02 0.  1.
    10030    2    1    2    0    0  0.00000000000E+00  0.00000000000E+00  0.41687492496E+03  0.36674756674E+04  0.36437059524E+04 0.  0.
        5    1    3    3  502    0  0.42537038898E+03 -0.12670621519E+04  0.14545524628E+04  0.19753813358E+04  0.46999998093E+01 0. -1.
       -5    1    3    3    0  502 -0.42537038898E+03  0.12670621519E+04 -0.10376775378E+04  0.16920943316E+04  0.46999998093E+01 0.  1.
</event>
<event>
 5   0  0.1151180E-06  0.3720564E+04  0.7818609E-02  0.8063420E-01
       -2   -1    0    0    0  501  0.00000000000E+00  0.00000000000E+00  0.14475678263E+04  0.14475678263E+04  0.25500000920E-02 0. -1.
        2   -1    0    0  501    0  0.00000000000E+00  0.00000000000E+00 -0.23906649632E+04  0.23906649632E+04  0.25500000920E-02 0.  1.
    10030    2    1    2    0    0  0.00000000000E+00  0.00000000000E+00 -0.94309713684E+03  0.38382327895E+04  0.37205643036E+04 0.  0.
        5    1    3    3  502    0 -0.67382634063E+03  0.32037328511E+03  0.12864430914E+04  0.14871579931E+04  0.46999998093E+01 0. -1.
       -5    1    3    3    0  502  0.67382634063E+03 -0.32037328511E+03 -0.22295402282E+04  0.23510747964E+04  0.46999998093E+01 0.  1.
</event>
<event>
 5   0  0.5875011E-07  0.3643192E+04  0.7818609E-02  0.8080669E-01
        1   -1    0    0  501    0  0.00000000000E+00  0.00000000000E+00  0.20147053951E+04  0.20147053951E+04  0.50400001928E-02 0.  1.
       -1   -1    0    0    0  501  0.00000000000E+00  0.00000000000E+00 -0.16469963896E+04  0.16469963896E+04  0.50400001928E-02 0. -1.
    10030    2    1    2    0    0  0.00000000000E+00  0.00000000000E+00  0.36770900553E+03  0.36617017847E+04  0.36431922880E+04 0.  0.
        2    1    3    3  502    0  0.11500883738E+04  0.55067237429E+03  0.14913361465E+04  0.19621485248E+04  0.25500000920E-02 0.  1.
       -2    1    3    3    0  502 -0.11500883738E+04 -0.55067237429E+03 -0.11236271410E+04  0.16995532599E+04  0.25500000920E-02 0. -1.
</event>
<event>
 5   0  0.1184684E-06  0.1850449E+04  0.7818609E-02  0.8679922E-01
        2   -1    0    0  501    0  0.00000000000E+00  0.00000000000E+00  0.17158811231E+04  0.17158811231E+04  0.25500000920E-02 0.  1.
       -2   -1    0    0    0  501  0.00000000000E+00  0.00000000000E+00 -0.49889267937E+03  0.49889267937E+03  0.25500000920E-02 0. -1.
    10030    2    1    2    0    0  0.00000000000E+00  0.00000000000E+00  0.12169884437E+04  0.22147738024E+04  0.18504491681E+04 0.  0.
        4    1    3    3  502    0  0.18594661545E+03 -0.90439443621E+03  0.53734774230E+03  0.10682928667E+04  0.12699999809E+01 0. -1.
       -4    1    3    3    0  502 -0.18594661545E+03  0.90439443621E+03  0.67964070140E+03  0.11464809357E+04  0.12699999809E+01 0.  1.
</event>
<event>
 5   0  0.6186440E-07  0.1882915E+04  0.7818609E-02  0.8663408E-01
       -1   -1    0    0    0  501  0.00000000000E+00  0.00000000000E+00  0.10509833873E+04  0.10509833873E+04  0.50400001928E-02 0.  1.
        1   -1    0    0  501    0  0.00000000000E+00  0.00000000000E+00 -0.84334594780E+03  0.84334594782E+03  0.50400001928E-02 0. -1.
    10030    2    1    2    0    0  0.00000000000E+00  0.00000000000E+00  0.20763743945E+03  0.18943293351E+04  0.18829153787E+04 0.  0.
        3    1    3    3  502    0 -0.15384515503E+03 -0.75162754026E+03  0.65277301154E+03  0.10073355478E+04  0.10100000352E+00 0.  1.
       -3    1    3    3    0  502  0.15384515503E+03  0.75162754026E+03 -0.44513557208E+03  0.88699378732E+03  0.10100000352E+00 0. -1.
</event>
<event>
 5   0  0.6287345E-07  0.3638303E+04  0.7818609E-02  0.8081774E-01
       -1   -1    0    0    0  501  0.00000000000E+00  0.00000000000E+00  0.19459626392E+04  0.19459626392E+04  0.50400001928E-02 0.  1.
        1   -1    0    0  501    0  0.00000000000E+00  0.00000000000E+00 -0.17006044678E+04  0.17006044678E+04  0.50400001928E-02 0. -1.
    10030    2    1    2    0    0  0.00000000000E+00  0.00000000000E+00  0.24535817140E+03  0.36465671069E+04  0.36383033179E+04 0.  0.
        5    1    3    3  502    0  0.10162899907E+04  0.10007698328E+04 -0.10090024523E+04  0.17471387014E+04  0.46999998093E+01 0. -1.
       -5    1    3    3    0  502 -0.10162899907E+04 -0.10007698328E+04  0.12543606237E+04  0.18994284055E+04  0.46999998093E+01 0.  1.
</event>
<event>
 5   0  0.6186440E-07  0.3667510E+04  0.7818609E-02  0.8075200E-01
        1   -1    0    0  501    0  0.00000000000E+00  0.00000000000E+00  0.13340550346E+04  0.13340550346E+04  0.50400001928E-02 0.  1.
       -1   -1    0    0    0  501  0.00000000000E+00  0.00000000000E+00 -0.25206280948E+04  0.25206280948E+04  0.50400001928E-02 0. -1.
    10030    2    1    2    0    0  0.00000000000E+00  0.00000000000E+00 -0.11865730601E+04  0.38546831294E+04  0.36675095639E+04 0.  0.
        3    1    3    3  502    0 -0.79919636660E+03  0.58369312470E+03  0.10292769273E+04  0.14278737687E+04  0.10100000352E+00 0.  1.
       -3    1    3    3    0  502  0.79919636660E+03 -0.58369312470E+03 -0.22158499874E+04  0.24268093607E+04  0.10100000352E+00 0. -1.
</event>
<event>
 5   0  0.6186440E-07  0.3698580E+04  0.7818609E-02  0.8068277E-01
       -1   -1    0    0    0  501  0.00000000000E+00  0.00000000000E+00  0.22466484744E+04  0.22466484744E+04  0.50400001928E-02 0.  1.
        1   -1    0    0  501    0  0.00000000000E+00  0.00000000000E+00 -0.15222110596E+04  0.15222110596E+04  0.50400001928E-02 0. -1.
    10030    2    1    2    0    0  0.00000000000E+00  0.00000000000E+00  0.72443741486E+03  0.37688595340E+04  0.36985798111E+04 0.  0.
        3    1    3    3  502    0 -0.17527059426E+04  0.54203860368E+03  0.12522864411E+03  0.18388763397E+04  0.10100000352E+00 0.  1.
       -3    1    3    3    0  502  0.17527059426E+04 -0.54203860368E+03  0.59920877075E+03  0.19299831943E+04  0.10100000352E+00 0. -1.
</event>
<event>
 5   0  0.1685793E-06  0.3906047E+04  0.7818609E-02  0.8023773E-01
        2   -1    0    0  501    0  0.00000000000E+00  0.00000000000E+00  0.24499744000E+04  0.24499744000E+04  0.25500000920E-02 0.  1.
       -2   -1    0    0    0  501  0.00000000000E+00  0.00000000000E+00 -0.15568736146E+04  0.15568736146E+04  0.25500000920E-02 0. -1.
    10030    2    1    2    0    0  0.00000000000E+00  0.00000000000E+00  0.89310078536E+03  0.40068480146E+04  0.39060468506E+04 0.  0.
        3    1    3    3  502    0 -0.14444749769E+04  0.75884753001E+01 -0.90180376925E+03  0.17028844918E+04  0.10100000352E+00 0. -1.
       -3    1    3    3    0  502  0.14444749769E+04 -0.75884753001E+01  0.17949045546E+04  0.23039635228E+04  0.10100000352E+00 0.  1.
</event>
<event>
 5   0  0.1724503E-06  0.2149324E+04  0.7818609E-02  0.8539822E-01
       -2   -1    0    0    0  501  0.00000000000E+00  0.00000000000E+00  0.14849176943E+04  0.14849176943E+04  0.25500000920E-02 0.  1.
        2   -1    0    0  501    0  0.00000000000E+00  0.00000000000E+00 -0.77775257740E+03  0.77775257740E+03  0.25500000920E-02 0. -1.
    10030    2    1    2    0    0  0.00000000000E+00  0.00000000000E+00  0.70716511694E+03  0.22626702717E+04  0.21493241394E+04 0.  0.
        1    1    3    3  502    0  0.28450280588E+03  0.97461900281E+03 -0.17235307971E+02  0.10154413341E+04  0.50400001928E-02 0.  1.
       -1    1    3    3    0  502 -0.28450280588E+03 -0.97461900281E+03  0.72440042491E+03  0.12472289376E+04  0.50400001928E-02 0. -1.
</event>
<event>
 5   0  0.1151180E-06  0.3783700E+04  0.7818609E-02  0.8049662E-01
       -2   -1    0    0    0  501  0.00000000000E+00  0.00000000000E+00  0.17029590768E+04  0.17029590768E+04  0.25500000920E-02 0. -1.
        2   -1    0    0  501    0  0.00000000000E+00  0.00000000000E+00 -0.21016928173E+04  0.21016928173E+04  0.25500000920E-02 0.  1.
    10030    2    1    2    0    0  0.00000000000E+00  0.00000000000E+00 -0.39873374047E+03  0.38046518941E+04  0.37837002312E+04 0.  0.
        5    1    3    3  502    0 -0.17268013759E+04 -0.58262944286E+03 -0.70989345182E+03  0.19558299677E+04  0.46999998093E+01 0. -1.
       -5    1    3    3    0  502  0.17268013759E+04  0.58262944286E+03  0.31115971135E+03  0.18488219264E+04  0.46999998093E+01 0.  1.
</event>
<event>
 5   0  0.1151180E-06  0.3820208E+04  0.7818609E-02  0.8041832E-01
        2   -1    0    0  501    0  0.00000000000E+00  0.00000000000E+00  0.23393750698E+04  0.23393750698E+04  0.25500000920E-02 0. -1.
       -2   -1    0    0    0  501  0.00000000000E+00  0.00000000000E+00 -0.15596034860E+04  0.15596034860E+04  0.25500000920E-02 0.  1.
    10030    2    1    2    0    0  0.00000000000E+00  0.00000000000E+00  0.77977158377E+03  0.38989785558E+04  0.38202081168E+04 0.  0.
        5    1    3    3  502    0 -0.79377371657E+03  0.14089439097E+04  0.14273471898E+04  0.21569751375E+04  0.46999998093E+01 0. -1.
       -5    1    3    3    0  502  0.79377371657E+03 -0.14089439097E+04 -0.64757560604E+03  0.17420034183E+04  0.46999998093E+01 0.  1.
</event>
<event>
 5   0  0.1724503E-06  0.3666571E+04  0.7818609E-02  0.8075411E-01
       -2   -1    0    0    0  501  0.00000000000E+00  0.00000000000E+00  0.20235097089E+04  0.20235097089E+04  0.25500000920E-02 0. -1.
        2   -1    0    0  501    0  0.00000000000E+00  0.00000000000E+00 -0.16609432871E+04  0.16609432871E+04  0.25500000920E-02 0.  1.
    10030    2    1    2    0    0  0.00000000000E+00  0.00000000000E+00  0.36256642179E+03  0.36844529960E+04  0.36665705325E+04 0.  0.
        1    1    3    3  502    0  0.79150558100E+03 -0.95017213686E+03 -0.11786934605E+04  0.17083987966E+04  0.50400001928E-02 0.  1.
       -1    1    3    3    0  502 -0.79150558100E+03  0.95017213686E+03  0.15412598823E+04  0.19760541994E+04  0.50400001928E-02 0. -1.
</event>
<event>
 5   0  0.6287345E-07  0.1963144E+04  0.7818609E-02  0.8624048E-01
        1   -1    0    0  501    0  0.00000000000E+00  0.00000000000E+00  0.17461734404E+04  0.17461734404E+04  0.50400001928E-02 0.  1.
       -1   -1    0    0    0  501  0.00000000000E+00  0.00000000000E+00 -0.55176874911E+03  0.55176874914E+03  0.50400001928E-02 0. -1.
    10030    2    1    2    0    0  0.00000000000E+00  0.00000000000E+00  0.11944046913E+04  0.22979421895E+04  0.19631443502E+04 0.  0.
        5    1    3    3  502    0  0.42512198957E+03 -0.34952061654E+03  0.15485643157E+04  0.16434618636E+04  0.46999998093E+01 0.  1.
       -5    1    3    3    0  502 -0.42512198957E+03  0.34952061654E+03 -0.35415962442E+03  0.65448032589E+03  0.46999998093E+01 0. -1.
</event>
<event>
 5   0  0.1724503E-06  0.2583685E+04  0.7818609E-02  0.8373764E-01
       -2   -1    0    0    0  501  0.00000000000E+00  0.00000000000E+00  0.59807828437E+03  0.59807828438E+03  0.25500000920E-02 0.  1.
        2   -1    0    0  501    0  0.00000000000E+00  0.00000000000E+00 -0.27903658714E+04  0.27903658714E+04  0.25500000920E-02 0. -1.
    10030    2    1    2    0    0  0.00000000000E+00  0.00000000000E+00 -0.21922875870E+04  0.33884441558E+04  0.25836851458E+04 0.  0.
        1    1    3    3  502    0 -0.85313882227E+03 -0.49038218179E+03  0.15373150115E+01  0.98403399212E+03  0.50400001928E-02 0. -1.
       -1    1    3    3    0  502  0.85313882227E+03  0.49038218179E+03 -0.21938249020E+04  0.24044101636E+04  0.50400001928E-02 0.  1.
</event>
<event>
 5   0  0.1685793E-06  0.3583070E+04  0.7818609E-02  0.8094381E-01
        2   -1    0    0  501    0  0.00000000000E+00  0.00000000000E+00  0.29433522083E+04  0.29433522083E+04  0.25500000920E-02 0. -1.
       -2   -1    0    0    0  501  0.00000000000E+00  0.00000000000E+00 -0.10904566727E+04  0.10904566727E+04  0.25500000920E-02 0.  1.
    10030    2    1    2    0    0  0.00000000000E+00  0.00000000000E+00  0.18528955356E+04  0.40338088810E+04  0.35830702229E+04 0.  0.
        3    1    3    3  502    0  0.13007549420E+04 -0.10169044761E+04  0.17092934525E+04  0.23764978960E+04  0.10100000352E+00 0. -1.
       -3    1    3    3    0  502 -0.13007549420E+04  0.10169044761E+04  0.14360208315E+03  0.16573109850E+04  0.10100000352E+00 0.  1.
</event>
<event>
 5   0  0.5875011E-07  0.2150284E+04  0.7818609E-02  0.8539411E-01
       -1   -1    0    0    0  501  0.00000000000E+00  0.00000000000E+00  0.14842021612E+04  0.14842021612E+04  0.50400001928E-02 0. -1.
        1   -1    0    0  501    0  0.00000000000E+00  0.00000000000E+00 -0.77882260742E+03  0.77882260743E+03  0.50400001928E-02 0.  1.
    10030    2    1    2    0    0  0.00000000000E+00  0.00000000000E+00  0.70537955378E+03  0.22630247686E+04  0.21502838856E+04 0.  0.
        2    1    3    3  502    0  0.74155420225E+02  0.71810003429E+03 -0.48580330552E+03  0.87015604191E+03  0.25500000920E-02 0.  1.
       -2    1    3    3    0  502 -0.74155420225E+02 -0.71810003429E+03  0.11911828593E+04  0.13928687267E+04  0.25500000920E-02 0. -1.
</event>
<event>
 5   0  0.5875011E-07  0.3572819E+04  0.7818609E-02  0.8096746E-01
       -1   -1    0    0    0  501  0.00000000000E+00  0.00000000000E+00  0.17670334949E+04  0.17670334949E+04  0.50400001928E-02 0.  1.
        1   -1    0    0  501    0  0.00000000000E+00  0.00000000000E+00 -0.18059984136E+04  0.18059984136E+04  0.50400001928E-02 0. -1.
    10030    2    1    2    0    0  0.00000000000E+00  0.00000000000E+00 -0.38964918633E+02  0.35730319085E+04  0.35728194405E+04 0.  0.
        2    1    3    3  502    0 -0.10244340282E+04 -0.39085297623E+02 -0.14825345814E+04  0.18024709494E+04  0.25500000920E-02 0. -1.
       -2    1    3    3    0  502  0.10244340282E+04  0.39085297623E+02  0.14435696627E+04  0.17705609591E+04  0.25500000920E-02 0.  1.
</event>
<event>
 5   0  0.5679750E-07  0.3556664E+04  0.7818609E-02  0.8100491E-01
        1   -1    0    0  501    0  0.00000000000E+00  0.00000000000E+00  0.16739587742E+04  0.16739587742E+04  0.50400001928E-02 0. -1.
       -1   -1    0    0    0  501  0.00000000000E+00  0.00000000000E+00 -0.18892125314E+04  0.18892125314E+04  0.50400001928E-02 0.  1.
    10030    2    1    2    0    0  0.00000000000E+00  0.00000000000E+00 -0.21525375724E+03  0.35631713056E+04  0.35566635451E+04 0.  0.
        4    1    3    3  502    0 -0.27946017968E+03  0.10329967220E+04  0.13152824676E+04  0.16956266694E+04  0.12699999809E+01 0. -1.
       -4    1    3    3    0  502  0.27946017968E+03 -0.10329967220E+04 -0.15305362248E+04  0.18675446362E+04  0.12699999809E+01 0.  1.
</event>
<event>
 5   0  0.1685793E-06  0.1828360E+04  0.7818609E-02  0.8691361E-01
        2   -1    0    0  501    0  0.00000000000E+00  0.00000000000E+00  0.11780700508E+04  0.11780700508E+04  0.25500000920E-02 0.  1.
       -2   -1    0    0    0  501  0.00000000000E+00  0.00000000000E+00 -0.70940218744E+03  0.70940218745E+03  0.25500000920E-02 0. -1.
    10030    2    1    2    0    0  0.00000000000E+00  0.00000000000E+00  0.46866786332E+03  0.18874722382E+04  0.18283604360E+04 0.  0.
        3    1    3    3  502    0 -0.68276809516E+02  0.34764493940E+03 -0.63564983800E+03  0.72771522821E+03  0.10100000352E+00 0. -1.
       -3    1    3    3    0  502  0.68276809516E+02 -0.34764493940E+03  0.11043177013E+04  0.11597570100E+04  0.10100000352E+00 0.  1.
</event>
<event>
 5   0  0.5679750E-07  0.3633006E+04  0.7818609E-02  0.8082973E-01
       -1   -1    0    0    0  501  0.00000000000E+00  0.00000000000E+00  0.14008750088E+04  0.14008750088E+04  0.50400001928E-02 0. -1.
        1   -1    0    0  501    0  0.00000000000E+00  0.00000000000E+00 -0.23554445619E+04  0.23554445619E+04  0.50400001928E-02 0.  1.
    10030    2    1    2    0    0  0.00000000000E+00  0.00000000000E+00 -0.95456955310E+03  0.37563195706E+04  0.36330061499E+04 0.  0.
        4    1    3    3  502    0 -0.15270635120E+04  0.68991694238E+03  0.24778355925E+03  0.16939027901E+04  0.12699999809E+01 0.  1.
       -4    1    3    3    0  502  0.15270635120E+04 -0.68991694238E+03 -0.12023531123E+04  0.20624167806E+04  0.12699999809E+01 0. -1.
</event>
<event>
 5   0  0.6287345E-07  0.3694498E+04  0.7818609E-02  0.8069182E-01
       -1   -1    0    0    0  501  0.00000000000E+00  0.00000000000E+00  0.10582608907E+04  0.10582608908E+04  0.50400001928E-02 0.  1.
        1   -1    0    0  501    0  0.00000000000E+00  0.00000000000E+00 -0.32244689701E+04  0.32244689701E+04  0.50400001928E-02 0. -1.
    10030    2    1    2    0    0  0.00000000000E+00  0.00000000000E+00 -0.21662080794E+04  0.42827298609E+04  0.36944982905E+04 0.  0.
        5    1    3    3  502    0 -0.61070401326E+03 -0.24101568325E+01 -0.31040514183E+04  0.31635616792E+04  0.46999998093E+01 0. -1.
       -5    1    3    3    0  502  0.61070401326E+03  0.24101568325E+01  0.93784333889E+03  0.11191681817E+04  0.46999998093E+01 0.  1.
</event>
<event>
 5   0  0.1151180E-06  0.3624229E+04  0.7818609E-02  0.8084964E-01
       -2   -1    0    0    0  501  0.00000000000E+00  0.00000000000E+00  0.13268047104E+04  0.13268047104E+04  0.25500000920E-02 0.  1.
        2   -1    0    0  501    0  0.00000000000E+00  0.00000000000E+00 -0.24749382789E+04  0.24749382789E+04  0.25500000920E-02 0. -1.
    10030    2    1    2    0    0  0.00000000000E+00  0.00000000000E+00 -0.11481335685E+04  0.38017429894E+04  0.36242294445E+04 0.  0.
        5    1    3    3  502    0 -0.61409726023E+03  0.17788102449E+03 -0.23526923336E+04  0.24380197724E+04  0.46999998093E+01 0. -1.
       -5    1    3    3    0  502  0.61409726023E+03 -0.17788102449E+03  0.12045587651E+04  0.13637232170E+04  0.46999998093E+01 0.  1.
</event>
<event>
 5   0  0.1184684E-06  0.3647350E+04  0.7818609E-02  0.8079731E-01
       -2   -1    0    0    0  501  0.00000000000E+00  0.00000000000E+00  0.20145979776E+04  0.20145979776E+04  0.25500000920E-02 0. -1.
        2   -1    0    0  501    0  0.00000000000E+00  0.00000000000E+00 -0.16508459351E+04  0.16508459351E+04  0.25500000920E-02 0.  1.
    10030    2    1    2    0    0  0.00000000000E+00  0.00000000000E+00  0.36375204250E+03  0.36654439128E+04  0.36473502065E+04 0.  0.
        4    1    3    3  502    0  0.19833224139E+03 -0.96158229687E+03 -0.13625669450E+04  0.16794542221E+04  0.12699999809E+01 0.  1.
       -4    1    3    3    0  502 -0.19833224139E+03  0.96158229687E+03  0.17263189875E+04  0.19859896906E+04  0.12699999809E+01 0. -1.
</event>
<event>
 5   0  0.1184684E-06  0.3731143E+04  0.7818609E-02  0.8061095E-01
       -2   -1    0    0    0  501  0.00000000000E+00  0.00000000000E+00  0.15514268006E+04  0.15514268006E+04  0.25500000920E-02 0. -1.
        2   -1    0    0  501    0  0.00000000000E+00  0.00000000000E+00 -0.22433269451E+04  0.22433269451E+04  0.25500000920E-02 0.  1.
    10030    2    1    2    0    0  0.00000000000E+00  0.00000000000E+00 -0.69190014450E+03  0.37947537457E+04  0.37311432807E+04 0.  0.
        4    1    3    3  502    0  0.17942868213E+04 -0.21152119791E+03 -0.81879507919E+03  0.19835910387E+04  0.12699999809E+01 0.  1.
       -4    1    3    3    0  502 -0.17942868213E+04  0.21152119791E+03  0.12689493469E+03  0.18111627071E+04  0.12699999809E+01 0. -1.
</event>
<event>
 5   0  0.1151180E-06  0.3782560E+04  0.7818609E-02  0.8049908E-01
       -2   -1    0    0    0  501  0.00000000000E+00  0.00000000000E+00  0.22816281587E+04  0.22816281587E+04  0.25500000920E-02 0. -1.
        2   -1    0    0  501    0  0.00000000000E+00  0.00000000000E+00 -0.15677134897E+04  0.15677134897E+04  0.25500000920E-02 0.  1.
    10030    2    1    2    0    0  0.00000000000E+00  0.00000000000E+00  0.71391466904E+03  0.38493416484E+04  0.37825595793E+04 0.  0.
        5    1    3    3  502    0  0.25206528147E+03  0.18437362906E+04  0.13332150217E+02  0.18609406900E+04  0.46999998093E+01 0.  1.
       -5    1    3    3    0  502 -0.25206528147E+03 -0.18437362906E+04  0.70058251883E+03  0.19884009584E+04  0.46999998093E+01 0. -1.
</event>
<event>
 5   0  0.5875011E-07  0.3705443E+04  0.7818609E-02  0.8066757E-01
        1   -1    0    0  501    0  0.00000000000E+00  0.00000000000E+00  0.21527978744E+04  0.21527978744E+04  0.50400001928E-02 0.  1.
       -1   -1    0    0    0  501  0.00000000000E+00  0.00000000000E+00 -0.15944723804E+04  0.15944723804E+04  0.50400001928E-02 0. -1.
    10030    2    1    2    0    0  0.00000000000E+00  0.00000000000E+00  0.55832549401E+03  0.37472702547E+04  0.37054428891E+04 0.  0.
        2    1    3    3  502    0  0.10534324954E+04  0.13609097218E+04 -0.41471756729E+03  0.17702502517E+04  0.25500000920E-02 0. -1.
       -2    1    3    3    0  502 -0.10534324954E+04 -0.13609097218E+04  0.97304306130E+03  0.19770200030E+04  0.25500000920E-02 0.  1.
</event>
<event>
 5   0  0.1184684E-06  0.3737947E+04  0.7818609E-02  0.8059604E-01
       -2   -1    0    0    0  501  0.00000000000E+00  0.00000000000E+00  0.21858510278E+04  0.21858510278E+04  0.25500000920E-02 0.  1.
        2   -1    0    0  501    0  0.00000000000E+00  0.00000000000E+00 -0.15980328386E+04  0.15980328386E+04  0.25500000920E-02 0. -1.
    10030    2    1    2    0    0  0.00000000000E+00  0.00000000000E+00  0.58781818927E+03  0.37838838664E+04  0.37379468818E+04 0.  0.
        4    1    3    3  502    0 -0.64445114776E+03  0.45899708801E+02  0.20692106934E+04  0.21677312037E+04  0.12699999809E+01 0.  1.
       -4    1    3    3    0  502  0.64445114776E+03 -0.45899708801E+02 -0.14813925041E+04  0.16161526627E+04  0.12699999809E+01 0. -1.
</event>
<event>
 5   0  0.6287345E-07  0.1919340E+04  0.7818609E-02  0.8645289E-01
        1   -1    0    0  501    0  0.00000000000E+00  0.00000000000E+00  0.12277913209E+04  0.12277913209E+04  0.50400001928E-02 0.  1.
       -1   -1    0    0    0  501  0.00000000000E+00  0.00000000000E+00 -0.75010019456E+03  0.75010019458E+03  0.50400001928E-02 0. -1.
    10030    2    1    2    0    0  0.00000000000E+00  0.00000000000E+00  0.47769112634E+03  0.19778915155E+04  0.19193399998E+04 0.  0.
        5    1    3    3  502    0 -0.16353347219E+03 -0.72191435755E+03 -0.39055737823E+03  0.83693529729E+03  0.46999998093E+01 0. -1.
       -5    1    3    3    0  502  0.16353347219E+03  0.72191435755E+03  0.86824850457E+03  0.11409562182E+04  0.46999998093E+01 0.  1.
</event>
<event>
 5   0  0.5875011E-07  0.3787862E+04  0.7818609E-02  0.8048765E-01
       -1   -1    0    0    0  501  0.00000000000E+00  0.00000000000E+00  0.26814778250E+04  0.26814778250E+04  0.50400001928E-02 0.  1.
        1   -1    0    0  501    0  0.00000000000E+00  0.00000000000E+00 -0.13376857991E+04  0.13376857991E+04  0.50400001928E-02 0. -1.
    10030    2    1    2    0    0  0.00000000000E+00  0.00000000000E+00  0.13437920259E+04  0.40191636242E+04  0.37878620921E+04 0.  0.
        2    1    3    3  502    0 -0.67867959904E+03  0.90535269023E+03 -0.93963098778E+03  0.14707739068E+04  0.25500000920E-02 0. -1.
       -2    1    3    3    0  502  0.67867959904E+03 -0.90535269023E+03  0.22834230137E+04  0.25483897173E+04  0.25500000920E-02 0.  1.
</event>
<event>
 5   0  0.1151180E-06  0.3657269E+04  0.7818609E-02  0.8077498E-01
       -2   -1    0    0    0  501  0.00000000000E+00  0.00000000000E+00  0.19338256144E+04  0.19338256144E+04  0.25500000920E-02 0.  1.
        2   -1    0    0  501    0  0.00000000000E+00  0.00000000000E+00 -0.17291650169E+04  0.17291650169E+04  0.25500000920E-02 0. -1.
    10030    2    1    2    0    0  0.00000000000E+00  0.00000000000E+00  0.20466059751E+03  0.36629906313E+04  0.36572687083E+04 0.  0.
        5    1    3    3  502    0 -0.14091804868E+04  0.47209302272E+03  0.11694643135E+04  0.18911188056E+04  0.46999998093E+01 0.  1.
       -5    1    3    3    0  502  0.14091804868E+04 -0.47209302272E+03 -0.96480371596E+03  0.17718718257E+04  0.46999998093E+01 0. -1.
</event>
<event>
 5   0  0.1151180E-06  0.3777761E+04  0.7818609E-02  0.8050944E-01
        2   -1    0    0  501    0  0.00000000000E+00  0.00000000000E+00  0.27099296463E+04  0.27099296463E+04  0.25500000920E-02 0.  1.
       -2   -1    0    0    0  501  0.00000000000E+00  0.00000000000E+00 -0.13165914016E+04  0.13165914016E+04  0.25500000920E-02 0. -1.
    10030    2    1    2    0    0  0.00000000000E+00  0.00000000000E+00  0.13933382447E+04  0.40265210480E+04  0.37777612796E+04 0.  0.
        5    1    3    3  502    0 -0.15912431758E+04  0.24288135902E+03  0.17500821484E+04  0.23777838033E+04  0.46999998093E+01 0.  1.
       -5    1    3    3    0  502  0.15912431758E+04 -0.24288135902E+03 -0.35674390365E+03  0.16487372447E+04  0.46999998093E+01 0. -1.
</event>
<event>
 5   0  0.5679750E-07  0.3677370E+04  0.7818609E-02  0.8072995E-01
        1   -1    0    0  501    0  0.00000000000E+00  0.00000000000E+00  0.17895971386E+04  0.17895971386E+04  0.50400001928E-02 0.  1.
       -1   -1    0    0    0  501  0.00000000000E+00  0.00000000000E+00 -0.18891198154E+04  0.18891198154E+04  0.50400001928E-02 0. -1.
    10030    2    1    2    0    0  0.00000000000E+00  0.00000000000E+00 -0.99522676784E+02  0.36787169540E+04  0.36773704824E+04 0.  0.
        4    1    3    3  502    0  0.17916758972E+03  0.28730136061E+03  0.17581410171E+04  0.17904481411E+04  0.12699999809E+01 0.  1.
       -4    1    3    3    0  502 -0.17916758972E+03 -0.28730136061E+03 -0.18576636939E+04  0.18882688129E+04  0.12699999809E+01 0. -1.
</event>
<event>
 5   0  0.5875011E-07  0.3551371E+04  0.7818609E-02  0.8101722E-01
        1   -1    0    0  501    0  0.00000000000E+00  0.00000000000E+00  0.20966962105E+04  0.20966962106E+04  0.50400001928E-02 0. -1.
       -1   -1    0    0    0  501  0.00000000000E+00  0.00000000000E+00 -0.15038225351E+04  0.15038225351E+04  0.50400001928E-02 0.  1.
    10030    2    1    2    0    0  0.00000000000E+00  0.00000000000E+00  0.59287367546E+03  0.36005187456E+04  0.35513710089E+04 0.  0.
        2    1    3    3  502    0 -0.83658048100E+03 -0.15042317711E+04 -0.14604194952E+03  0.17273993092E+04  0.25500000920E-02 0.  1.
       -2    1    3    3    0  502  0.83658048100E+03  0.15042317711E+04  0.73891562498E+03  0.18731194365E+04  0.25500000920E-02 0. -1.
</event>
<event>
 5   0  0.1184684E-06  0.3604400E+04  0.7818609E-02  0.8089485E-01
        2   -1    0    0  501    0  0.00000000000E+00  0.00000000000E+00  0.11959861157E+04  0.11959861157E+04  0.25500000920E-02 0. -1.
       -2   -1    0    0    0  501  0.00000000000E+00  0.00000000000E+00 -0.27156875035E+04  0.27156875035E+04  0.25500000920E-02 0.  1.
    10030    2    1    2    0    0  0.00000000000E+00  0.00000000000E+00 -0.15197013878E+04  0.39116736192E+04  0.36043998384E+04 0.  0.
        4    1    3    3  502    0  0.74429356417E+03 -0.95268590439E+03 -0.22103304162E+04  0.25193541839E+04  0.12699999809E+01 0.  1.
       -4    1    3    3    0  502 -0.74429356417E+03  0.95268590439E+03  0.69062902842E+03  0.13923194353E+04  0.12699999809E+01 0. -1.
</event>
<event>
 5   0  0.1680194E-06  0.2154410E+04  0.7818609E-02  0.8537647E-01
        2   -1    0    0  501    0  0.00000000000E+00  0.00000000000E+00  0.14398261804E+04  0.14398261804E+04  0.25500000920E-02 0.  1.
       -2   -1    0    0    0  501  0.00000000000E+00  0.00000000000E+00 -0.80591014015E+03  0.80591014015E+03  0.25500000920E-02 0. -1.
    10030    2    1    2    0    0  0.00000000000E+00  0.00000000000E+00  0.63391604029E+03  0.22457363206E+04  0.21544099135E+04 0.  0.
        2    1    3    3  502    0  0.96197733520E+03 -0.42355477564E+03  0.56268701027E+03  0.11922314008E+04  0.25500000920E-02 0.  1.
       -2    1    3    3    0  502 -0.96197733520E+03  0.42355477564E+03  0.71229030019E+02  0.10535049198E+04  0.25500000920E-02 0. -1.
</event>
<event>
 5   0  0.6186440E-07  0.3640508E+04  0.7818609E-02  0.8081275E-01
       -1   -1    0    0    0  501  0.00000000000E+00  0.00000000000E+00  0.11914239164E+04  0.11914239164E+04  0.50400001928E-02 0. -1.
        1   -1    0    0  501    0  0.00000000000E+00  0.00000000000E+00 -0.27809787882E+04  0.27809787882E+04  0.50400001928E-02 0.  1.
    10030    2    1    2    0    0  0.00000000000E+00  0.00000000000E+00 -0.15895548718E+04  0.39724027046E+04  0.36405080081E+04 0.  0.
        3    1    3    3  502    0  0.12836489984E+04 -0.12554228559E+03 -0.21963258814E+04  0.25470302323E+04  0.10100000352E+00 0.  1.
       -3    1    3    3    0  502 -0.12836489984E+04  0.12554228559E+03  0.60677100961E+03  0.14253724723E+04  0.10100000352E+00 0. -1.
</event>
<event>
 5   0  0.1680194E-06  0.3668671E+04  0.7818609E-02  0.8074940E-01
       -2   -1    0    0    0  501  0.00000000000E+00  0.00000000000E+00  0.20738020210E+04  0.20738020210E+04  0.25500000920E-02 0.  1.
        2   -1    0    0  501    0  0.00000000000E+00  0.00000000000E+00 -0.16225209190E+04  0.16225209190E+04  0.25500000920E-02 0. -1.
    10030    2    1    2    0    0  0.00000000000E+00  0.00000000000E+00  0.45128110198E+03  0.36963229401E+04  0.36686712369E+04 0.  0.
        2    1    3    3  502    0  0.92342023508E+03 -0.15785727558E+04  0.36880406141E+03  0.18656401882E+04  0.25500000920E-02 0.  1.
       -2    1    3    3    0  502 -0.92342023508E+03  0.15785727558E+04  0.82477040574E+02  0.18306827519E+04  0.25500000920E-02 0. -1.
</event>
<event>
 5   0  0.6186440E-07  0.3216618E+04  0.7818609E-02  0.8184442E-01
       -1   -1    0    0    0  501  0.00000000000E+00  0.00000000000E+00  0.13879982773E+04  0.13879982773E+04  0.50400001928E-02 0. -1.
        1   -1    0    0  501    0  0.00000000000E+00  0.00000000000E+00 -0.18635881622E+04  0.18635881622E+04  0.50400001928E-02 0.  1.
    10030    2    1    2    0    0  0.00000000000E+00  0.00000000000E+00 -0.47558988486E+03  0.32515864395E+04  0.32166175768E+04 0.  0.
        3    1    3    3  502    0  0.10902479512E+04  0.59184943011E+03 -0.12725099058E+04  0.17771347201E+04  0.10100000352E+00 0.  1.
       -3    1    3    3    0  502 -0.10902479512E+04 -0.59184943011E+03  0.79692002090E+03  0.14744517194E+04  0.10100000352E+00 0. -1.
</event>
<event>
 5   0  0.1184684E-06  0.3660975E+04  0.7818609E-02  0.8076666E-01
       -2   -1    0    0    0  501  0.00000000000E+00  0.00000000000E+00  0.22420880435E+04  0.22420880435E+04  0.25500000920E-02 0.  1.
        2   -1    0    0  501    0  0.00000000000E+00  0.00000000000E+00 -0.14944483097E+04  0.14944483097E+04  0.25500000920E-02 0. -1.
    10030    2    1    2    0    0  0.00000000000E+00  0.00000000000E+00  0.74763973384E+03  0.37365363532E+04  0.36609751088E+04 0.  0.
        4    1    3    3  502    0 -0.25691858307E+03  0.15918497532E+04 -0.51048666256E+03  0.16913281884E+04  0.12699999809E+01 0. -1.
       -4    1    3    3    0  502  0.25691858307E+03 -0.15918497532E+04  0.12581263964E+04  0.20452081648E+04  0.12699999809E+01 0.  1.
</event>
<event>
 5   0  0.1184684E-06  0.3662782E+04  0.7818609E-02  0.8076260E-01
       -2   -1    0    0    0  501  0.00000000000E+00  0.00000000000E+00  0.17068692144E+04  0.17068692144E+04  0.25500000920E-02 0.  1.
        2   -1    0    0  501    0  0.00000000000E+00  0.00000000000E+00 -0.19649965495E+04  0.19649965495E+04  0.25500000920E-02 0. -1.
    10030    2    1    2    0    0  0.00000000000E+00  0.00000000000E+00 -0.25812733514E+03  0.36718657639E+04  0.36627815205E+04 0.  0.
        4    1    3    3  502    0 -0.62505762863E+03 -0.11821383063E+04 -0.13835034494E+04  0.19241183492E+04  0.12699999809E+01 0. -1.
       -4    1    3    3    0  502  0.62505762863E+03  0.11821383063E+04  0.11253761143E+04  0.17477474147E+04  0.12699999809E+01 0.  1.
</event>
<event>
 5   0  0.6261598E-07  0.3163807E+04  0.7818609E-02  0.8198441E-01
        1   -1    0    0  501    0  0.00000000000E+00  0.00000000000E+00  0.14288026826E+04  0.14288026826E+04  0.50400001928E-02 0.  1.
       -1   -1    0    0    0  501  0.00000000000E+00  0.00000000000E+00 -0.17514100183E+04  0.17514100183E+04  0.50400001928E-02 0. -1.
    10030    2    1    2    0    0  0.00000000000E+00  0.00000000000E+00 -0.32260733566E+03  0.31802127009E+04  0.31638074104E+04 0.  0.
        1    1    3    3  502    0  0.82914205757E+02  0.12875748227E+04 -0.10813066965E+04  0.16834333552E+04  0.50400001928E-02 0. -1.
       -1    1    3    3    0  502 -0.82914205757E+02 -0.12875748227E+04  0.75869936084E+03  0.14967793457E+04  0.50400001928E-02 0.  1.
</event>
<event>
 5   0  0.1184684E-06  0.3139837E+04  0.7818609E-02  0.8204889E-01
       -2   -1    0    0    0  501  0.00000000000E+00  0.00000000000E+00  0.81411483268E+03  0.81411483269E+03  0.25500000920E-02 0.  1.
        2   -1    0    0  501    0  0.00000000000E+00  0.00000000000E+00 -0.30273917554E+04  0.30273917554E+04  0.25500000920E-02 0. -1.
    10030    2    1    2    0    0  0.00000000000E+00  0.00000000000E+00 -0.22132769227E+04  0.38415065881E+04  0.31398372776E+04 0.  0.
        4    1    3    3  502    0  0.35010059710E+03 -0.35190361191E+03 -0.29288481392E+04  0.29706160330E+04  0.12699999809E+01 0. -1.
       -4    1    3    3    0  502 -0.35010059710E+03  0.35190361191E+03  0.71557121649E+03  0.87089055508E+03  0.12699999809E+01 0.  1.
</event>
<event>
 5   0  0.1151180E-06  0.1976833E+04  0.7818609E-02  0.8617529E-01
       -2   -1    0    0    0  501  0.00000000000E+00  0.00000000000E+00  0.69009014150E+03  0.69009014150E+03  0.25500000920E-02 0.  1.
        2   -1    0    0  501    0  0.00000000000E+00  0.00000000000E+00 -0.14157095257E+04  0.14157095257E+04  0.25500000920E-02 0. -1.
    10030    2    1    2    0    0  0.00000000000E+00  0.00000000000E+00 -0.72561938418E+03  0.21057996672E+04  0.19768330095E+04 0.  0.
        5    1    3    3  502    0  0.68822672018E+03  0.47184976287E+03  0.20151256247E+03  0.85844488462E+03  0.46999998093E+01 0.  1.
       -5    1    3    3    0  502 -0.68822672018E+03 -0.47184976287E+03 -0.92713194665E+03  0.12473547826E+04  0.46999998093E+01 0. -1.
</event>
<event>
 5   0  0.1724503E-06  0.2366712E+04  0.7818609E-02  0.8452072E-01
       -2   -1    0    0    0  501  0.00000000000E+00  0.00000000000E+00  0.70571030319E+03  0.70571030319E+03  0.25500000920E-02 0.  1.
        2   -1    0    0  501    0  0.00000000000E+00  0.00000000000E+00 -0.19842869872E+04  0.19842869872E+04  0.25500000920E-02 0. -1.
    10030    2    1    2    0    0  0.00000000000E+00  0.00000000000E+00 -0.12785766840E+04  0.26899972904E+04  0.23667122946E+04 0.  0.
        1    1    3    3  502    0  0.44184178677E+03  0.49120318447E+03  0.47656194228E+03  0.81462630563E+03  0.50400001928E-02 0.  1.
       -1    1    3    3    0  502 -0.44184178677E+03 -0.49120318447E+03 -0.17551386263E+04  0.18753709848E+04  0.50400001928E-02 0. -1.
</event>
<event>
 5   0  0.5875011E-07  0.3664014E+04  0.7818609E-02  0.8075984E-01
       -1   -1    0    0    0  501  0.00000000000E+00  0.00000000000E+00  0.16235782220E+04  0.16235782220E+04  0.50400001928E-02 0. -1.
        1   -1    0    0  501    0  0.00000000000E+00  0.00000000000E+00 -0.20671930484E+04  0.20671930484E+04  0.50400001928E-02 0.  1.
    10030    2    1    2    0    0  0.00000000000E+00  0.00000000000E+00 -0.44361482639E+03  0.36907712704E+04  0.36640139814E+04 0.  0.
        2    1    3    3  502    0  0.56455428314E+03  0.14091891310E+04  0.81121287444E+03  0.17212210414E+04  0.25500000920E-02 0. -1.
       -2    1    3    3    0  502 -0.56455428314E+03 -0.14091891310E+04 -0.12548277008E+04  0.19695502290E+04  0.25500000920E-02 0.  1.
</event>
<event>
 5   0  0.1184684E-06  0.1836418E+04  0.7818609E-02  0.8687169E-01
       -2   -1    0    0    0  501  0.00000000000E+00  0.00000000000E+00  0.42065231306E+03  0.42065231307E+03  0.25500000920E-02 0.  1.
        2   -1    0    0  501    0  0.00000000000E+00  0.00000000000E+00 -0.20042875084E+04  0.20042875084E+04  0.25500000920E-02 0. -1.
    10030    2    1    2    0    0  0.00000000000E+00  0.00000000000E+00 -0.15836351953E+04  0.24249398215E+04  0.18364184452E+04 0.  0.
        4    1    3    3  502    0  0.22154658361E+03 -0.69084803034E+03 -0.15349898121E+04  0.16978071816E+04  0.12699999809E+01 0. -1.
       -4    1    3    3    0  502 -0.22154658361E+03  0.69084803034E+03 -0.48645383214E+02  0.72713263985E+03  0.12699999809E+01 0.  1.
</event>
<event>
 5   0  0.1151180E-06  0.2369261E+04  0.7818609E-02  0.8451102E-01
       -2   -1    0    0    0  501  0.00000000000E+00  0.00000000000E+00  0.75744462148E+03  0.75744462149E+03  0.25500000920E-02 0. -1.
        2   -1    0    0  501    0  0.00000000000E+00  0.00000000000E+00 -0.18527418279E+04  0.18527418279E+04  0.25500000920E-02 0.  1.
    10030    2    1    2    0    0  0.00000000000E+00  0.00000000000E+00 -0.10952972064E+04  0.26101864494E+04  0.23692609249E+04 0.  0.
        5    1    3    3  502    0  0.53367722569E+03  0.18187203993E+03  0.60013821879E+03  0.82345418317E+03  0.46999998093E+01 0. -1.
       -5    1    3    3    0  502 -0.53367722569E+03 -0.18187203993E+03 -0.16954354252E+04  0.17867322662E+04  0.46999998093E+01 0.  1.
</event>
<event>
 5   0  0.1724503E-06  0.3613791E+04  0.7818609E-02  0.8087340E-01
        2   -1    0    0  501    0  0.00000000000E+00  0.00000000000E+00  0.19926236126E+04  0.19926236126E+04  0.25500000920E-02 0. -1.
       -2   -1    0    0    0  501  0.00000000000E+00  0.00000000000E+00 -0.16384791049E+04  0.16384791049E+04  0.25500000920E-02 0.  1.
    10030    2    1    2    0    0  0.00000000000E+00  0.00000000000E+00  0.35414450771E+03  0.36311027176E+04  0.36137914457E+04 0.  0.
        1    1    3    3  502    0  0.92748280957E+03  0.93712840998E+03 -0.10643372122E+04  0.16944756475E+04  0.50400001928E-02 0.  1.
       -1    1    3    3    0  502 -0.92748280957E+03 -0.93712840998E+03  0.14184817199E+04  0.19366270701E+04  0.50400001928E-02 0. -1.
</event>
<event>
 5   0  0.6287345E-07  0.3757024E+04  0.7818609E-02  0.8055441E-01
       -1   -1    0    0    0  501  0.00000000000E+00  0.00000000000E+00  0.12313885276E+04  0.12313885277E+04  0.50400001928E-02 0.  1.
        1   -1    0    0  501    0  0.00000000000E+00  0.00000000000E+00 -0.28657137648E+04  0.28657137648E+04  0.50400001928E-02 0. -1.
    10030    2    1    2    0    0  0.00000000000E+00  0.00000000000E+00 -0.16343252372E+04  0.40971022925E+04  0.37570238506E+04 0.  0.
        5    1    3    3  502    0 -0.22630549136E+03 -0.46038937994E+03 -0.27878383744E+04  0.28346494401E+04  0.46999998093E+01 0. -1.
       -5    1    3    3    0  502  0.22630549136E+03  0.46038937994E+03  0.11535131372E+04  0.12624528523E+04  0.46999998093E+01 0.  1.
</event>
<event>
 5   0  0.5875011E-07  0.3516959E+04  0.7818609E-02  0.8109783E-01
        1   -1    0    0  501    0  0.00000000000E+00  0.00000000000E+00  0.19558116916E+04  0.19558116916E+04  0.50400001928E-02 0.  1.
       -1   -1    0    0    0  501  0.00000000000E+00  0.00000000000E+00 -0.15810568572E+04  0.15810568572E+04  0.50400001928E-02 0. -1.
    10030    2    1    2    0    0  0.00000000000E+00  0.00000000000E+00  0.37475483436E+03  0.35368685488E+04  0.35169586216E+04 0.  0.
        2    1    3    3  502    0 -0.47763998915E+02 -0.87340949340E+03 -0.13467499514E+04  0.16058832381E+04  0.25500000920E-02 0. -1.
       -2    1    3    3    0  502  0.47763998915E+02  0.87340949340E+03  0.17215047858E+04  0.19309853107E+04  0.25500000920E-02 0.  1.
</event>
<event>
 5   0  0.5875011E-07  0.3764427E+04  0.7818609E-02  0.8053832E-01
       -1   -1    0    0    0  501  0.00000000000E+00  0.00000000000E+00  0.17342132093E+04  0.17342132093E+04  0.50400001928E-02 0.  1.
        1   -1    0    0  501    0  0.00000000000E+00  0.00000000000E+00 -0.20428447609E+04  0.20428447609E+04  0.50400001928E-02 0. -1.
    10030    2    1    2    0    0  0.00000000000E+00  0.00000000000E+00 -0.30863155156E+03  0.37770579702E+04  0.37644273769E+04 0.  0.
        2    1    3    3  502    0  0.19538242402E+02 -0.12956311708E+04 -0.15240652940E+04  0.20004541720E+04  0.25500000920E-02 0. -1.
       -2    1    3    3    0  502 -0.19538242402E+02  0.12956311708E+04  0.12154337425E+04  0.17766037983E+04  0.25500000920E-02 0.  1.
</event>
<event>
 5   0  0.1724503E-06  0.3663610E+04  0.7818609E-02  0.8076074E-01
        2   -1    0    0  501    0  0.00000000000E+00  0.00000000000E+00  0.20674441147E+04  0.20674441147E+04  0.25500000920E-02 0.  1.
       -2   -1    0    0    0  501  0.00000000000E+00  0.00000000000E+00 -0.16230233623E+04  0.16230233624E+04  0.25500000920E-02 0. -1.
    10030    2    1    2    0    0  0.00000000000E+00  0.00000000000E+00  0.44442075231E+03  0.36904674770E+04  0.36636102950E+04 0.  0.
        1    1    3    3  502    0  0.10963371622E+04 -0.14299467565E+04  0.55448787027E+03  0.18852479142E+04  0.50400001928E-02 0.  1.
       -1    1    3    3    0  502 -0.10963371622E+04  0.14299467565E+04 -0.11006711796E+03  0.18052195628E+04  0.50400001928E-02 0. -1.
</event>
<event>
 5   0  0.1184684E-06  0.3610313E+04  0.7818609E-02  0.8088133E-01
       -2   -1    0    0    0  501  0.00000000000E+00  0.00000000000E+00  0.22577208836E+04  0.22577208836E+04  0.25500000920E-02 0. -1.
        2   -1    0    0  501    0  0.00000000000E+00  0.00000000000E+00 -0.14433093648E+04  0.14433093648E+04  0.25500000920E-02 0.  1.
    10030    2    1    2    0    0  0.00000000000E+00  0.00000000000E+00  0.81441151874E+03  0.37010302484E+04  0.36103128366E+04 0.  0.
        4    1    3    3  502    0  0.21354650383E+03  0.15477171526E+04 -0.51970297769E+03  0.16465489036E+04  0.12699999809E+01 0. -1.
       -4    1    3    3    0  502 -0.21354650383E+03 -0.15477171526E+04  0.13341144964E+04  0.20544813449E+04  0.12699999809E+01 0.  1.
</event>
<event>
 5   0  0.6186440E-07  0.3696676E+04  0.7818609E-02  0.8068699E-01
       -1   -1    0    0    0  501  0.00000000000E+00  0.00000000000E+00  0.17138474278E+04  0.17138474278E+04  0.50400001928E-02 0.  1.
        1   -1    0    0  501    0  0.00000000000E+00  0.00000000000E+00 -0.19933821051E+04  0.19933821051E+04  0.50400001928E-02 0. -1.
    10030    2    1    2    0    0  0.00000000000E+00  0.00000000000E+00 -0.27953467733E+03  0.37072295329E+04  0.36966756923E+04 0.  0.
        3    1    3    3  502    0 -0.22914705054E+03  0.29284740265E+03  0.16759499013E+04  0.17167049991E+04  0.10100000352E+00 0.  1.
       -3    1    3    3    0  502  0.22914705054E+03 -0.29284740265E+03 -0.19554845787E+04  0.19905245338E+04  0.10100000352E+00 0. -1.
</event>
<event>
 5   0  0.1184684E-06  0.3701381E+04  0.7818609E-02  0.8067656E-01
        2   -1    0    0  501    0  0.00000000000E+00  0.00000000000E+00  0.14718209228E+04  0.14718209228E+04  0.25500000920E-02 0.  1.
       -2   -1    0    0    0  501  0.00000000000E+00  0.00000000000E+00 -0.23270870242E+04  0.23270870242E+04  0.25500000920E-02 0. -1.
    10030    2    1    2    0    0  0.00000000000E+00  0.00000000000E+00 -0.85526610141E+03  0.37989079470E+04  0.37013810241E+04 0.  0.
        4    1    3    3  502    0  0.12339296243E+02  0.15492459633E+04  0.61133332114E+03  0.16655465636E+04  0.12699999809E+01 0.  1.
       -4    1    3    3    0  502 -0.12339296243E+02 -0.15492459633E+04 -0.14665994225E+04  0.21333613834E+04  0.12699999809E+01 0. -1.
</event>
<event>
 5   0  0.1724503E-06  0.3728670E+04  0.7818609E-02  0.8061638E-01
       -2   -1    0    0    0  501  0.00000000000E+00  0.00000000000E+00  0.20228122276E+04  0.20228122276E+04  0.25500000920E-02 0. -1.
        2   -1    0    0  501    0  0.00000000000E+00  0.00000000000E+00 -0.17182740485E+04  0.17182740485E+04  0.25500000920E-02 0.  1.
    10030    2    1    2    0    0  0.00000000000E+00  0.00000000000E+00  0.30453817900E+03  0.37410862761E+04  0.37286704095E+04 0.  0.
        1    1    3    3  502    0  0.58506006458E+03  0.16781150140E+04 -0.41297213894E+03  0.18245304236E+04  0.50400001928E-02 0.  1.
       -1    1    3    3    0  502 -0.58506006458E+03 -0.16781150140E+04  0.71751031795E+03  0.19165558525E+04  0.50400001928E-02 0. -1.
</event>
<event>
 5   0  0.5679750E-07  0.3561553E+04  0.7818609E-02  0.8099356E-01
        1   -1    0    0  501    0  0.00000000000E+00  0.00000000000E+00  0.12164567412E+04  0.12164567412E+04  0.50400001928E-02 0.  1.
       -1   -1    0    0    0  501  0.00000000000E+00  0.00000000000E+00 -0.26068866135E+04  0.26068866135E+04  0.50400001928E-02 0. -1.
    10030    2    1    2    0    0  0.00000000000E+00  0.00000000000E+00 -0.13904298723E+04  0.38233433547E+04  0.35615529167E+04 0.  0.
        4    1    3    3  502    0  0.68142108400E+03 -0.78910776088E+03 -0.22449843191E+04  0.24752741178E+04  0.12699999809E+01 0. -1.
       -4    1    3    3    0  502 -0.68142108400E+03  0.78910776088E+03  0.85455444688E+03  0.13480692369E+04  0.12699999809E+01 0.  1.
</event>
<event>
 5   0  0.5875011E-07  0.1817856E+04  0.7818609E-02  0.8696861E-01
        1   -1    0    0  501    0  0.00000000000E+00  0.00000000000E+00  0.97768639100E+03  0.97768639101E+03  0.50400001928E-02 0. -1.
       -1   -1    0    0    0  501  0.00000000000E+00  0.00000000000E+00 -0.84500533880E+03  0.84500533881E+03  0.50400001928E-02 0.  1.
    10030    2    1    2    0    0  0.00000000000E+00  0.00000000000E+00  0.13268105220E+03  0.18226917298E+04  0.18178561220E+04 0.  0.
        2    1    3    3  502    0  0.37350749082E+03 -0.20816937941E+03 -0.73785777782E+03  0.85280504016E+03  0.25500000920E-02 0.  1.
       -2    1    3    3    0  502 -0.37350749082E+03  0.20816937941E+03  0.87053883002E+03  0.96988668967E+03  0.25500000920E-02 0. -1.
</event>
<event>
 5   0  0.6261598E-07  0.3743513E+04  0.7818609E-02  0.8058387E-01
        1   -1    0    0  501    0  0.00000000000E+00  0.00000000000E+00  0.11583298713E+04  0.11583298713E+04  0.50400001928E-02 0.  1.
       -1   -1    0    0    0  501  0.00000000000E+00  0.00000000000E+00 -0.30245903314E+04  0.30245903314E+04  0.50400001928E-02 0. -1.
    10030    2    1    2    0    0  0.00000000000E+00  0.00000000000E+00 -0.18662604601E+04  0.41829202027E+04  0.37435134990E+04 0.  0.
        1    1    3    3  502    0 -0.17208957430E+04 -0.16942699198E+03 -0.13259629953E+03  0.17342922021E+04  0.50400001928E-02 0.  1.
       -1    1    3    3    0  502  0.17208957430E+04  0.16942699198E+03 -0.17336641605E+04  0.24486280006E+04  0.50400001928E-02 0. -1.
</event>
<event>
 5   0  0.6186440E-07  0.2716715E+04  0.7818609E-02  0.8329602E-01
       -1   -1    0    0    0  501  0.00000000000E+00  0.00000000000E+00  0.10640079327E+04  0.10640079328E+04  0.50400001928E-02 0. -1.
        1   -1    0    0  501    0  0.00000000000E+00  0.00000000000E+00 -0.17341366852E+04  0.17341366852E+04  0.50400001928E-02 0.  1.
    10030    2    1    2    0    0  0.00000000000E+00  0.00000000000E+00 -0.67012875249E+03  0.27981446180E+04  0.27167150676E+04 0.  0.
        3    1    3    3  502    0 -0.92145111061E+03  0.60729295007E+02  0.69097486034E+03  0.11533457696E+04  0.10100000352E+00 0. -1.
       -3    1    3    3    0  502  0.92145111061E+03 -0.60729295007E+02 -0.13611036128E+04  0.16447988484E+04  0.10100000352E+00 0.  1.
</event>
<event>
 5   0  0.6287345E-07  0.3595435E+04  0.7818609E-02  0.8091538E-01
       -1   -1    0    0    0  501  0.00000000000E+00  0.00000000000E+00  0.12287794868E+04  0.12287794868E+04  0.50400001928E-02 0.  1.
        1   -1    0    0  501    0  0.00000000000E+00  0.00000000000E+00 -0.26300802855E+04  0.26300802855E+04  0.50400001928E-02 0. -1.
    10030    2    1    2    0    0  0.00000000000E+00  0.00000000000E+00 -0.14013007987E+04  0.38588597723E+04  0.35954352747E+04 0.  0.
        5    1    3    3  502    0 -0.15854013258E+04  0.81159941620E+03 -0.96261455489E+03  0.20245591736E+04  0.46999998093E+01 0. -1.
       -5    1    3    3    0  502  0.15854013258E+04 -0.81159941620E+03 -0.43868624377E+03  0.18343005987E+04  0.46999998093E+01 0.  1.
</event>
<event>
 5   0  0.6287345E-07  0.2627570E+04  0.7818609E-02  0.8358896E-01
        1   -1    0    0  501    0  0.00000000000E+00  0.00000000000E+00  0.23232722060E+04  0.23232722060E+04  0.50400001928E-02 0.  1.
       -1   -1    0    0    0  501  0.00000000000E+00  0.00000000000E+00 -0.74293116648E+03  0.74293116649E+03  0.50400001928E-02 0. -1.
    10030    2    1    2    0    0  0.00000000000E+00  0.00000000000E+00  0.15803410396E+04  0.30662033725E+04  0.26275702313E+04 0.  0.
        5    1    3    3  502    0 -0.77154153441E+02 -0.46710598315E+03  0.22202579026E+04  0.22701779681E+04  0.46999998093E+01 0.  1.
       -5    1    3    3    0  502  0.77154153441E+02  0.46710598315E+03 -0.63991686304E+03  0.79602540442E+03  0.46999998093E+01 0. -1.
</event>
<event>
 5   0  0.6261598E-07  0.1973179E+04  0.7818609E-02  0.8619264E-01
        1   -1    0    0  501    0  0.00000000000E+00  0.00000000000E+00  0.15099980920E+04  0.15099980920E+04  0.50400001928E-02 0. -1.
       -1   -1    0    0    0  501  0.00000000000E+00  0.00000000000E+00 -0.64460953737E+03  0.64460953739E+03  0.50400001928E-02 0.  1.
    10030    2    1    2    0    0  0.00000000000E+00  0.00000000000E+00  0.86538855465E+03  0.21546076294E+04  0.19731793345E+04 0.  0.
        1    1    3    3  502    0 -0.80233802185E+03  0.18026565833E+03  0.10278978159E+04  0.13163646641E+04  0.50400001928E-02 0. -1.
       -1    1    3    3    0  502  0.80233802185E+03 -0.18026565833E+03 -0.16250926126E+03  0.83824296532E+03  0.50400001928E-02 0.  1.
</event>
<event>
 5   0  0.1184684E-06  0.3550374E+04  0.7818609E-02  0.8101955E-01
       -2   -1    0    0    0  501  0.00000000000E+00  0.00000000000E+00  0.16359294646E+04  0.16359294646E+04  0.25500000920E-02 0. -1.
        2   -1    0    0  501    0  0.00000000000E+00  0.00000000000E+00 -0.19262983251E+04  0.19262983251E+04  0.25500000920E-02 0.  1.
    10030    2    1    2    0    0  0.00000000000E+00  0.00000000000E+00 -0.29036886050E+03  0.35622277897E+04  0.35503736072E+04 0.  0.
        4    1    3    3  502    0 -0.11904951184E+04 -0.45584720771E+03  0.10943396241E+04  0.16800762273E+04  0.12699999809E+01 0. -1.
       -4    1    3    3    0  502  0.11904951184E+04  0.45584720771E+03 -0.13847084846E+04  0.18821515624E+04  0.12699999809E+01 0.  1.
</event>
<event>
 5   0  0.1724503E-06  0.3671012E+04  0.7818609E-02  0.8074416E-01
       -2   -1    0    0    0  501  0.00000000000E+00  0.00000000000E+00  0.12398443562E+04  0.12398443562E+04  0.25500000920E-02 0. -1.
        2   -1    0    0  501    0  0.00000000000E+00  0.00000000000E+00 -0.27173435366E+04  0.27173435366E+04  0.25500000920E-02 0.  1.
    10030    2    1    2    0    0  0.00000000000E+00  0.00000000000E+00 -0.14774991804E+04  0.39571878928E+04  0.36710124204E+04 0.  0.
        1    1    3    3  502    0  0.88933932775E+03 -0.12636072598E+04 -0.18066630990E+04  0.23773218756E+04  0.50400001928E-02 0.  1.
       -1    1    3    3    0  502 -0.88933932775E+03  0.12636072598E+04  0.32916391862E+03  0.15798660172E+04  0.50400001928E-02 0. -1.
</event>
<event>
 5   0  0.1151180E-06  0.3645623E+04  0.7818609E-02  0.8080120E-01
       -2   -1    0    0    0  501  0.00000000000E+00  0.00000000000E+00  0.11738613403E+04  0.11738613403E+04  0.25500000920E-02 0. -1.
        2   -1    0    0  501    0  0.00000000000E+00  0.00000000000E+00 -0.28305232359E+04  0.28305232359E+04  0.25500000920E-02 0.  1.
    10030    2    1    2    0    0  0.00000000000E+00  0.00000000000E+00 -0.16566618956E+04  0.40043845762E+04  0.36456230192E+04 0.  0.
        5    1    3    3  502    0  0.13302825967E+04 -0.96995626261E+02 -0.21929949879E+04  0.25667701583E+04  0.46999998093E+01 0.  1.
       -5    1    3    3    0  502 -0.13302825967E+04  0.96995626261E+02  0.53633309238E+03  0.14376144179E+04  0.46999998093E+01 0. -1.
</event>
<event>
 5   0  0.1685793E-06  0.3506308E+04  0.7818609E-02  0.8112297E-01
       -2   -1    0    0    0  501  0.00000000000E+00  0.00000000000E+00  0.12679064097E+04  0.12679064097E+04  0.25500000920E-02 0.  1.
        2   -1    0    0  501    0  0.00000000000E+00  0.00000000000E+00 -0.24241127403E+04  0.24241127403E+04  0.25500000920E-02 0. -1.
    10030    2    1    2    0    0  0.00000000000E+00  0.00000000000E+00 -0.11562063306E+04  0.36920191500E+04  0.35063075057E+04 0.  0.
        3    1    3    3  502    0 -0.11102403710E+04 -0.12739506399E+04 -0.86509266456E+02  0.16920602170E+04  0.10100000352E+00 0.  1.
       -3    1    3    3    0  502  0.11102403710E+04  0.12739506399E+04 -0.10696970641E+04  0.19999589330E+04  0.10100000352E+00 0. -1.
</event>
<event>
 5   0  0.6287345E-07  0.3592136E+04  0.7818609E-02  0.8092295E-01
       -1   -1    0    0    0  501  0.00000000000E+00  0.00000000000E+00  0.11316686603E+04  0.11316686603E+04  0.50400001928E-02 0.  1.
        1   -1    0    0  501    0  0.00000000000E+00  0.00000000000E+00 -0.28505336606E+04  0.28505336606E+04  0.50400001928E-02 0. -1.
    10030    2    1    2    0    0  0.00000000000E+00  0.00000000000E+00 -0.17188650003E+04  0.39822023209E+04  0.35921356371E+04 0.  0.
        5    1    3    3  502    0 -0.93919053084E+03 -0.12926867294E+04 -0.17686916127E+04  0.23835708390E+04  0.46999998093E+01 0. -1.
       -5    1    3    3    0  502  0.93919053084E+03  0.12926867294E+04  0.49826612420E+02  0.15986314819E+04  0.46999998093E+01 0.  1.
</event>
<event>
 5   0  0.6287345E-07  0.3707253E+04  0.7818609E-02  0.8066356E-01
       -1   -1    0    0    0  501  0.00000000000E+00  0.00000000000E+00  0.22339326651E+04  0.22339326651E+04  0.50400001928E-02 0.  1.
        1   -1    0    0  501    0  0.00000000000E+00  0.00000000000E+00 -0.15380637393E+04  0.15380637393E+04  0.50400001928E-02 0. -1.
    10030    2    1    2    0    0  0.00000000000E+00  0.00000000000E+00  0.69586892577E+03  0.37719964044E+04  0.37072527987E+04 0.  0.
        5    1    3    3  502    0 -0.15239942409E+04  0.44751957828E+03  0.13201726064E+04  0.20653595377E+04  0.46999998093E+01 0.  1.
       -5    1    3    3    0  502  0.15239942409E+04 -0.44751957828E+03 -0.62430368063E+03  0.17066368667E+04  0.46999998093E+01 0. -1.
</event>
<event>
 5   0  0.1151180E-06  0.3783401E+04  0.7818609E-02  0.8049726E-01
        2   -1    0    0  501    0  0.00000000000E+00  0.00000000000E+00  0.25090538977E+04  0.25090538977E+04  0.25500000920E-02 0. -1.
       -2   -1    0    0    0  501  0.00000000000E+00  0.00000000000E+00 -0.14262470119E+04  0.14262470119E+04  0.25500000920E-02 0.  1.
    10030    2    1    2    0    0  0.00000000000E+00  0.00000000000E+00  0.10828068858E+04  0.39353009096E+04  0.37834009168E+04 0.  0.
        5    1    3    3  502    0  0.17649918642E+04  0.31670221501E+03 -0.85291295401E+02  0.17952139897E+04  0.46999998093E+01 0. -1.
       -5    1    3    3    0  502 -0.17649918642E+04 -0.31670221501E+03  0.11680981812E+04  0.21400869199E+04  0.46999998093E+01 0.  1.
</event>
<event>
 5   0  0.1680194E-06  0.3143579E+04  0.7818609E-02  0.8203879E-01
       -2   -1    0    0    0  501  0.00000000000E+00  0.00000000000E+00  0.13672509521E+04  0.13672509521E+04  0.25500000920E-02 0.  1.
        2   -1    0    0  501    0  0.00000000000E+00  0.00000000000E+00 -0.18069266715E+04  0.18069266715E+04  0.25500000920E-02 0. -1.
    10030    2    1    2    0    0  0.00000000000E+00  0.00000000000E+00 -0.43967571939E+03  0.31741776235E+04  0.31435789870E+04 0.  0.
        2    1    3    3  502    0  0.50499646524E+03  0.12160905181E+04  0.64678465498E+03  0.14670473639E+04  0.25500000920E-02 0.  1.
       -2    1    3    3    0  502 -0.50499646524E+03 -0.12160905181E+04 -0.10864603744E+04  0.17071302596E+04  0.25500000920E-02 0. -1.
</event>
<event>
 5   0  0.1724503E-06  0.1848325E+04  0.7818609E-02  0.8681015E-01
        2   -1    0    0  501    0  0.00000000000E+00  0.00000000000E+00  0.15968124516E+04  0.15968124516E+04  0.25500000920E-02 0. -1.
       -2   -1    0    0    0  501  0.00000000000E+00  0.00000000000E+00 -0.53486314316E+03  0.53486314317E+03  0.25500000920E-02 0.  1.
    10030    2    1    2    0    0  0.00000000000E+00  0.00000000000E+00  0.10619493084E+04  0.21316755948E+04  0.18483247841E+04 0.  0.
        1    1    3    3  502    0  0.72528946038E+03 -0.45429009144E+03  0.12871899370E+03  0.86544374045E+03  0.50400001928E-02 0.  1.
       -1    1    3    3    0  502 -0.72528946038E+03  0.45429009144E+03  0.93323031474E+03  0.12662318543E+04  0.50400001928E-02 0. -1.
</event>
<event>
 5   0  0.6287345E-07  0.3520017E+04  0.7818609E-02  0.8109062E-01
       -1   -1    0    0    0  501  0.00000000000E+00  0.00000000000E+00  0.22889725357E+04  0.22889725357E+04  0.50400001928E-02 0.  1.
        1   -1    0    0  501    0  0.00000000000E+00  0.00000000000E+00 -0.13532840024E+04  0.13532840025E+04  0.50400001928E-02 0. -1.
    10030    2    1    2    0    0  0.00000000000E+00  0.00000000000E+00  0.93568853326E+03  0.36422565382E+04  0.35200169969E+04 0.  0.
        5    1    3    3  502    0 -0.47527550129E+03 -0.14745970748E+04  0.13318781493E+04  0.20430968723E+04  0.46999998093E+01 0.  1.
       -5    1    3    3    0  502  0.47527550129E+03  0.14745970748E+04 -0.39618961601E+03  0.15991596659E+04  0.46999998093E+01 0. -1.
</event>
<event>
 5   0  0.1184684E-06  0.3670463E+04  0.7818609E-02  0.8074539E-01
       -2   -1    0    0    0  501  0.00000000000E+00  0.00000000000E+00  0.19877993512E+04  0.19877993512E+04  0.25500000920E-02 0.  1.
        2   -1    0    0  501    0  0.00000000000E+00  0.00000000000E+00 -0.16943733040E+04  0.16943733040E+04  0.25500000920E-02 0. -1.
    10030    2    1    2    0    0  0.00000000000E+00  0.00000000000E+00  0.29342604724E+03  0.36821726552E+04  0.36704627253E+04 0.  0.
        4    1    3    3  502    0  0.18153244858E+04 -0.25940255687E+03  0.22029459825E+03  0.18469499176E+04  0.12699999809E+01 0.  1.
       -4    1    3    3    0  502 -0.18153244858E+04  0.25940255687E+03  0.73131448986E+02  0.18352227377E+04  0.12699999809E+01 0. -1.
</event>
<event>
 5   0  0.1184684E-06  0.3945091E+04  0.7818609E-02  0.8015716E-01
       -2   -1    0    0    0  501  0.00000000000E+00  0.00000000000E+00  0.19244313275E+04  0.19244313275E+04  0.25500000920E-02 0. -1.
        2   -1    0    0  501    0  0.00000000000E+00  0.00000000000E+00 -0.20218627659E+04  0.20218627659E+04  0.25500000920E-02 0.  1.
    10030    2    1    2    0    0  0.00000000000E+00  0.00000000000E+00 -0.97431438434E+02  0.39462940934E+04  0.39450911506E+04 0.  0.
        4    1    3    3  502    0 -0.12611346605E+04  0.14766165895E+04  0.29791158631E+03  0.19645890436E+04  0.12699999809E+01 0.  1.
       -4    1    3    3    0  502  0.12611346605E+04 -0.14766165895E+04 -0.39534302474E+03  0.19817050498E+04  0.12699999809E+01 0. -1.
</event>
<event>
 5   0  0.6186440E-07  0.2479630E+04  0.7818609E-02  0.8410278E-01
       -1   -1    0    0    0  501  0.00000000000E+00  0.00000000000E+00  0.10220261906E+04  0.10220261906E+04  0.50400001928E-02 0. -1.
        1   -1    0    0  501    0  0.00000000000E+00  0.00000000000E+00 -0.15040140365E+04  0.15040140365E+04  0.50400001928E-02 0.  1.
    10030    2    1    2    0    0  0.00000000000E+00  0.00000000000E+00 -0.48198784590E+03  0.25260402271E+04  0.24796304050E+04 0.  0.
        3    1    3    3  502    0 -0.52266759248E+01 -0.11185681150E+04 -0.78571654289E+03  0.13669573666E+04  0.10100000352E+00 0.  1.
       -3    1    3    3    0  502  0.52266759248E+01  0.11185681150E+04  0.30372869698E+03  0.11590828606E+04  0.10100000352E+00 0. -1.
</event>
<event>
 5   0  0.5875011E-07  0.1971684E+04  0.7818609E-02  0.8619975E-01
       -1   -1    0    0    0  501  0.00000000000E+00  0.00000000000E+00  0.89425022819E+03  0.89425022821E+03  0.50400001928E-02 0. -1.
        1   -1    0    0  501    0  0.00000000000E+00  0.00000000000E+00 -0.10868143684E+04  0.10868143684E+04  0.50400001928E-02 0.  1.
    10030    2    1    2    0    0  0.00000000000E+00  0.00000000000E+00 -0.19256414020E+03  0.19810645966E+04  0.19716835415E+04 0.  0.
        2    1    3    3  502    0 -0.83811568779E+03  0.23023741091E+03  0.37115914613E+03  0.94509591221E+03  0.25500000920E-02 0. -1.
       -2    1    3    3    0  502  0.83811568779E+03 -0.23023741091E+03 -0.56372328633E+03  0.10359686844E+04  0.25500000920E-02 0.  1.
</event>
<event>
 5   0  0.6186440E-07  0.3724469E+04  0.7818609E-02  0.8062561E-01
       -1   -1    0    0    0  501  0.00000000000E+00  0.00000000000E+00  0.15339700096E+04  0.15339700096E+04  0.50400001928E-02 0. -1.
        1   -1    0    0  501    0  0.00000000000E+00  0.00000000000E+00 -0.22607465225E+04  0.22607465225E+04  0.50400001928E-02 0.  1.
    10030    2    1    2    0    0  0.00000000000E+00  0.00000000000E+00 -0.72677651287E+03  0.37947165321E+04  0.37244690171E+04 0.  0.
        3    1    3    3  502    0  0.94101109710E+03 -0.21440600169E+02  0.12737651373E+04  0.15838052972E+04  0.10100000352E+00 0. -1.
       -3    1    3    3    0  502 -0.94101109710E+03  0.21440600169E+02 -0.20005416502E+04  0.22109112349E+04  0.10100000352E+00 0.  1.
</event>
<event>
 5   0  0.1724503E-06  0.3806401E+04  0.7818609E-02  0.8044783E-01
        2   -1    0    0  501    0  0.00000000000E+00  0.00000000000E+00  0.18681793815E+04  0.18681793815E+04  0.25500000920E-02 0.  1.
       -2   -1    0    0    0  501  0.00000000000E+00  0.00000000000E+00 -0.19388780456E+04  0.19388780456E+04  0.25500000920E-02 0. -1.
    10030    2    1    2    0    0  0.00000000000E+00  0.00000000000E+00 -0.70698664101E+02  0.38070574271E+04  0.38064009184E+04 0.  0.
        1    1    3    3  502    0 -0.35334823903E+03 -0.54098495702E+03 -0.18258123520E+04  0.19367783679E+04  0.50400001928E-02 0. -1.
       -1    1    3    3    0  502  0.35334823903E+03  0.54098495702E+03  0.17551136879E+04  0.18702790592E+04  0.50400001928E-02 0.  1.
</event>
<event>
 5   0  0.1680194E-06  0.3607241E+04  0.7818609E-02  0.8088835E-01
        2   -1    0    0  501    0  0.00000000000E+00  0.00000000000E+00  0.22662659179E+04  0.22662659179E+04  0.25500000920E-02 0. -1.
       -2   -1    0    0    0  501  0.00000000000E+00  0.00000000000E+00 -0.14354212933E+04  0.14354212933E+04  0.25500000920E-02 0.  1.
    10030    2    1    2    0    0  0.00000000000E+00  0.00000000000E+00  0.83084462466E+03  0.37016872112E+04  0.36072406933E+04 0.  0.
        2    1    3    3  502    0  0.14286976972E+04 -0.71979356184E+03 -0.43931222149E+03  0.16589982247E+04  0.25500000920E-02 0.  1.
       -2    1    3    3    0  502 -0.14286976972E+04  0.71979356184E+03  0.12701568462E+04  0.20426889865E+04  0.25500000920E-02 0. -1.
</event>
<event>
 5   0  0.1685793E-06  0.3640466E+04  0.7818609E-02  0.8081285E-01
        2   -1    0    0  501    0  0.00000000000E+00  0.00000000000E+00  0.19372537967E+04  0.19372537967E+04  0.25500000920E-02 0.  1.
       -2   -1    0    0    0  501  0.00000000000E+00  0.00000000000E+00 -0.17102812674E+04  0.17102812674E+04  0.25500000920E-02 0. -1.
    10030    2    1    2    0    0  0.00000000000E+00  0.00000000000E+00  0.22697252932E+03  0.36475350641E+04  0.36404663870E+04 0.  0.
        3    1    3    3  502    0  0.16786125784E+04  0.70391738898E+03  0.11649039002E+03  0.18239544676E+04  0.10100000352E+00 0. -1.
       -3    1    3    3    0  502 -0.16786125784E+04 -0.70391738898E+03  0.11048213930E+03  0.18235805965E+04  0.10100000352E+00 0.  1.
</event>
<event>
 5   0  0.6287345E-07  0.1993942E+04  0.7818609E-02  0.8609458E-01
       -1   -1    0    0    0  501  0.00000000000E+00  0.00000000000E+00  0.90627948253E+03  0.90627948255E+03  0.50400001928E-02 0.  1.
        1   -1    0    0  501    0  0.00000000000E+00  0.00000000000E+00 -0.10967381641E+04  0.10967381641E+04  0.50400001928E-02 0. -1.
    10030    2    1    2    0    0  0.00000000000E+00  0.00000000000E+00 -0.19045868155E+03  0.20030176466E+04  0.19939421214E+04 0.  0.
        5    1    3    3  502    0  0.41125109314E+03  0.67106410835E+03 -0.70995801630E+03  0.10599608361E+04  0.46999998093E+01 0.  1.
       -5    1    3    3    0  502 -0.41125109314E+03 -0.67106410835E+03  0.51949933475E+03  0.94305681055E+03  0.46999998093E+01 0. -1.
</event>
<event>
 5   0  0.5875011E-07  0.3731478E+04  0.7818609E-02  0.8061022E-01
       -1   -1    0    0    0  501  0.00000000000E+00  0.00000000000E+00  0.19519852771E+04  0.19519852771E+04  0.50400001928E-02 0. -1.
        1   -1    0    0  501    0  0.00000000000E+00  0.00000000000E+00 -0.17833032531E+04  0.17833032531E+04  0.50400001928E-02 0.  1.
    10030    2    1    2    0    0  0.00000000000E+00  0.00000000000E+00  0.16868202402E+03  0.37352885302E+04  0.37314778277E+04 0.  0.
        2    1    3    3  502    0  0.91114424102E+03 -0.83761637110E+03  0.14819031309E+04  0.19307568212E+04  0.25500000920E-02 0. -1.
       -2    1    3    3    0  502 -0.91114424102E+03  0.83761637110E+03 -0.13132211069E+04  0.18045317090E+04  0.25500000920E-02 0.  1.
</event>
<event>
 5   0  0.5679750E-07  0.3727626E+04  0.7818609E-02  0.8061867E-01
       -1   -1    0    0    0  501  0.00000000000E+00  0.00000000000E+00  0.24741870103E+04  0.24741870103E+04  0.50400001928E-02 0. -1.
        1   -1    0    0  501    0  0.00000000000E+00  0.00000000000E+00 -0.14040160487E+04  0.14040160487E+04  0.50400001928E-02 0.  1.
    10030    2    1    2    0    0  0.00000000000E+00  0.00000000000E+00  0.10701709617E+04  0.38782030590E+04  0.37276256625E+04 0.  0.
        4    1    3    3  502    0 -0.15335086210E+03  0.30562415033E+03 -0.13711027113E+04  0.14130983214E+04  0.12699999809E+01 0.  1.
       -4    1    3    3    0  502  0.15335086210E+03 -0.30562415033E+03  0.24412736730E+04  0.24651047376E+04  0.12699999809E+01 0. -1.
</event>
<event>
 5   0  0.1680194E-06  0.3583822E+04  0.7818609E-02  0.8094207E-01
       -2   -1    0    0    0  501  0.00000000000E+00  0.00000000000E+00  0.10463269247E+04  0.10463269247E+04  0.25500000920E-02 0. -1.
        2   -1    0    0  501    0  0.00000000000E+00  0.00000000000E+00 -0.30687783308E+04  0.30687783308E+04  0.25500000920E-02 0.  1.
    10030    2    1    2    0    0  0.00000000000E+00  0.00000000000E+00 -0.20224514061E+04  0.41151052554E+04  0.35838222017E+04 0.  0.
        2    1    3    3  502    0  0.97068153187E+03  0.51951109958E+03  0.61216303122E+03  0.12597055194E+04  0.25500000920E-02 0.  1.
       -2    1    3    3    0  502 -0.97068153187E+03 -0.51951109958E+03 -0.26346144373E+04  0.28553997360E+04  0.25500000920E-02 0. -1.
</event>
<event>
 5   0  0.6287345E-07  0.2302257E+04  0.7818609E-02  0.8477032E-01
       -1   -1    0    0    0  501  0.00000000000E+00  0.00000000000E+00  0.15350694474E+04  0.15350694474E+04  0.50400001928E-02 0.  1.
        1   -1    0    0  501    0  0.00000000000E+00  0.00000000000E+00 -0.86321654059E+03  0.86321654061E+03  0.50400001928E-02 0. -1.
    10030    2    1    2    0    0  0.00000000000E+00  0.00000000000E+00  0.67185290679E+03  0.23982859880E+04  0.23022574469E+04 0.  0.
        5    1    3    3  502    0 -0.10294183318E+04  0.45903298305E+03  0.92375792542E+02  0.11309150094E+04  0.46999998093E+01 0.  1.
       -5    1    3    3    0  502  0.10294183318E+04 -0.45903298305E+03  0.57947711425E+03  0.12673709786E+04  0.46999998093E+01 0. -1.
</event>
<event>
 5   0  0.5875011E-07  0.2785102E+04  0.7818609E-02  0.8307909E-01
       -1   -1    0    0    0  501  0.00000000000E+00  0.00000000000E+00  0.79841670898E+03  0.79841670900E+03  0.50400001928E-02 0. -1.
        1   -1    0    0  501    0  0.00000000000E+00  0.00000000000E+00 -0.24288041667E+04  0.24288041667E+04  0.50400001928E-02 0.  1.
    10030    2    1    2    0    0  0.00000000000E+00  0.00000000000E+00 -0.16303874577E+04  0.32272208757E+04  0.27851016711E+04 0.  0.
        2    1    3    3  502    0 -0.85829341920E+03 -0.48225596308E+03 -0.19564007091E+04  0.21901466028E+04  0.25500000920E-02 0.  1.
       -2    1    3    3    0  502  0.85829341920E+03  0.48225596308E+03  0.32601325138E+03  0.10370742729E+04  0.25500000920E-02 0. -1.
</event>
<event>
 5   0  0.1184684E-06  0.2115738E+04  0.7818609E-02  0.8554342E-01
       -2   -1    0    0    0  501  0.00000000000E+00  0.00000000000E+00  0.10977277315E+04  0.10977277315E+04  0.25500000920E-02 0. -1.
        2   -1    0    0  501    0  0.00000000000E+00  0.00000000000E+00 -0.10194574501E+04  0.10194574501E+04  0.25500000920E-02 0.  1.
    10030    2    1    2    0    0  0.00000000000E+00  0.00000000000E+00  0.78270281401E+02  0.21171851816E+04  0.21157378988E+04 0.  0.
        4    1    3    3  502    0  0.98133325704E+03 -0.38640993890E+03 -0.43125099203E+02  0.10555515096E+04  0.12699999809E+01 0.  1.
       -4    1    3    3    0  502 -0.98133325704E+03  0.38640993890E+03  0.12139538060E+03  0.10616336720E+04  0.12699999809E+01 0. -1.
</event>
<event>
 5   0  0.6186440E-07  0.1842997E+04  0.7818609E-02  0.8683763E-01
        1   -1    0    0  501    0  0.00000000000E+00  0.00000000000E+00  0.24177816885E+04  0.24177816885E+04  0.50400001928E-02 0. -1.
       -1   -1    0    0    0  501  0.00000000000E+00  0.00000000000E+00 -0.35121422825E+03  0.35121422829E+03  0.50400001928E-02 0.  1.
    10030    2    1    2    0    0  0.00000000000E+00  0.00000000000E+00  0.20665674602E+04  0.27689959168E+04  0.18429968311E+04 0.  0.
        3    1    3    3  502    0 -0.78366587714E+02 -0.85133649444E+03  0.15499232177E+04  0.17700782863E+04  0.10100000352E+00 0. -1.
       -3    1    3    3    0  502  0.78366587714E+02  0.85133649444E+03  0.51664424255E+03  0.99891763044E+03  0.10100000352E+00 0.  1.
</event>
<event>
 5   0  0.1685793E-06  0.3324405E+04  0.7818609E-02  0.8156713E-01
       -2   -1    0    0    0  501  0.00000000000E+00  0.00000000000E+00  0.11345435246E+04  0.11345435246E+04  0.25500000920E-02 0.  1.
        2   -1    0    0  501    0  0.00000000000E+00  0.00000000000E+00 -0.24352675876E+04  0.24352675876E+04  0.25500000920E-02 0. -1.
    10030    2    1    2    0    0  0.00000000000E+00  0.00000000000E+00 -0.13007240629E+04  0.35698111122E+04  0.33244049526E+04 0.  0.
        3    1    3    3  502    0  0.17719602694E+03 -0.87162024557E+03  0.85750273268E+03  0.12354882562E+04  0.10100000352E+00 0.  1.
       -3    1    3    3    0  502 -0.17719602694E+03  0.87162024557E+03 -0.21582267956E+04  0.23343228560E+04  0.10100000352E+00 0. -1.
</event>
<event>
 5   0  0.1724503E-06  0.3880066E+04  0.7818609E-02  0.8029188E-01
       -2   -1    0    0    0  501  0.00000000000E+00  0.00000000000E+00  0.22808265942E+04  0.22808265942E+04  0.25500000920E-02 0. -1.
        2   -1    0    0  501    0  0.00000000000E+00  0.00000000000E+00 -0.16501600139E+04  0.16501600139E+04  0.25500000920E-02 0.  1.
    10030    2    1    2    0    0  0.00000000000E+00  0.00000000000E+00  0.63066658040E+03  0.39309866081E+04  0.38800664141E+04 0.  0.
        1    1    3    3  502    0 -0.16974233475E+04  0.98681263762E+02 -0.63113495539E+03  0.18136469735E+04  0.50400001928E-02 0.  1.
       -1    1    3    3    0  502  0.16974233475E+04 -0.98681263762E+02  0.12618015358E+04  0.21173396346E+04  0.50400001928E-02 0. -1.
</event>
<event>
 5   0  0.5679750E-07  0.3706271E+04  0.7818609E-02  0.8066573E-01
        1   -1    0    0  501    0  0.00000000000E+00  0.00000000000E+00  0.26508919294E+04  0.26508919294E+04  0.50400001928E-02 0.  1.
       -1   -1    0    0    0  501  0.00000000000E+00  0.00000000000E+00 -0.12954551386E+04  0.12954551386E+04  0.50400001928E-02 0. -1.
    10030    2    1    2    0    0  0.00000000000E+00  0.00000000000E+00  0.13554367908E+04  0.39463470681E+04  0.37062712108E+04 0.  0.
        4    1    3    3  502    0  0.27549459329E+03  0.12046567347E+04  0.21481171204E+04  0.24782057815E+04  0.12699999809E+01 0.  1.
       -4    1    3    3    0  502 -0.27549459329E+03 -0.12046567347E+04 -0.79268032965E+03  0.14681412866E+04  0.12699999809E+01 0. -1.
</event>
<event>
 5   0  0.6287345E-07  0.3224523E+04  0.7818609E-02  0.8182371E-01
        1   -1    0    0  501    0  0.00000000000E+00  0.00000000000E+00  0.19327749336E+04  0.19327749336E+04  0.50400001928E-02 0. -1.
       -1   -1    0    0    0  501  0.00000000000E+00  0.00000000000E+00 -0.13448986949E+04  0.13448986949E+04  0.50400001928E-02 0.  1.
    10030    2    1    2    0    0  0.00000000000E+00  0.00000000000E+00  0.58787623868E+03  0.32776736285E+04  0.32245225915E+04 0.  0.
        5    1    3    3  502    0  0.11478456085E+04  0.11138520034E+04  0.50013289313E+03  0.16758194494E+04  0.46999998093E+01 0. -1.
       -5    1    3    3    0  502 -0.11478456085E+04 -0.11138520034E+04  0.87743345547E+02  0.16018541791E+04  0.46999998093E+01 0.  1.
</event>
<event>
 5   0  0.5875011E-07  0.3365407E+04  0.7818609E-02  0.8146449E-01
       -1   -1    0    0    0  501  0.00000000000E+00  0.00000000000E+00  0.10796103782E+04  0.10796103782E+04  0.50400001928E-02 0. -1.
        1   -1    0    0  501    0  0.00000000000E+00  0.00000000000E+00 -0.26226973177E+04  0.26226973177E+04  0.50400001928E-02 0.  1.
    10030    2    1    2    0    0  0.00000000000E+00  0.00000000000E+00 -0.15430869396E+04  0.37023076959E+04  0.33654071035E+04 0.  0.
        2    1    3    3  502    0  0.61440411284E+03  0.24864780266E+03 -0.24730405331E+04  0.25603217810E+04  0.25500000920E-02 0.  1.
       -2    1    3    3    0  502 -0.61440411284E+03 -0.24864780266E+03  0.92995359357E+03  0.11419859149E+04  0.25500000920E-02 0. -1.
</event>
<event>
 5   0  0.5875011E-07  0.3519940E+04  0.7818609E-02  0.8109081E-01
       -1   -1    0    0    0  501  0.00000000000E+00  0.00000000000E+00  0.17644093291E+04  0.17644093291E+04  0.50400001928E-02 0.  1.
        1   -1    0    0  501    0  0.00000000000E+00  0.00000000000E+00 -0.17555419762E+04  0.17555419762E+04  0.50400001928E-02 0. -1.
    10030    2    1    2    0    0  0.00000000000E+00  0.00000000000E+00  0.88673529689E+01  0.35199513053E+04  0.35199401361E+04 0.  0.
        2    1    3    3  502    0  0.12419492010E+04 -0.11957172086E+04 -0.34956911302E+03  0.17590838597E+04  0.25500000920E-02 0. -1.
       -2    1    3    3    0  502 -0.12419492010E+04  0.11957172086E+04  0.35843646599E+03  0.17608674456E+04  0.25500000920E-02 0.  1.
</event>
<event>
 5   0  0.5875011E-07  0.3603667E+04  0.7818609E-02  0.8089652E-01
       -1   -1    0    0    0  501  0.00000000000E+00  0.00000000000E+00  0.15558634265E+04  0.15558634265E+04  0.50400001928E-02 0. -1.
        1   -1    0    0  501    0  0.00000000000E+00  0.00000000000E+00 -0.20866899703E+04  0.20866899703E+04  0.50400001928E-02 0.  1.
    10030    2    1    2    0    0  0.00000000000E+00  0.00000000000E+00 -0.53082654375E+03  0.36425533968E+04  0.36036673583E+04 0.  0.
        2    1    3    3  502    0 -0.45269649904E+03  0.77199182083E+03  0.13153351036E+04  0.15909154366E+04  0.25500000920E-02 0. -1.
       -2    1    3    3    0  502  0.45269649904E+03 -0.77199182083E+03 -0.18461616473E+04  0.20516379602E+04  0.25500000920E-02 0.  1.
</event>
<event>
 5   0  0.5679750E-07  0.2024567E+04  0.7818609E-02  0.8595220E-01
       -1   -1    0    0    0  501  0.00000000000E+00  0.00000000000E+00  0.61152749453E+03  0.61152749455E+03  0.50400001928E-02 0.  1.
        1   -1    0    0  501    0  0.00000000000E+00  0.00000000000E+00 -0.16756701053E+04  0.16756701053E+04  0.50400001928E-02 0. -1.
    10030    2    1    2    0    0  0.00000000000E+00  0.00000000000E+00 -0.10641426108E+04  0.22871975999E+04  0.20245674513E+04 0.  0.
        4    1    3    3  502    0  0.88137997680E+03 -0.34846260843E+03 -0.93381383589E+03  0.13305137151E+04  0.12699999809E+01 0.  1.
       -4    1    3    3    0  502 -0.88137997680E+03  0.34846260843E+03 -0.13032877489E+03  0.95668388480E+03  0.12699999809E+01 0. -1.
</event>
<event>
 5   0  0.1685793E-06  0.3689032E+04  0.7818609E-02  0.8070397E-01
        2   -1    0    0  501    0  0.00000000000E+00  0.00000000000E+00  0.21273741103E+04  0.21273741103E+04  0.25500000920E-02 0. -1.
       -2   -1    0    0    0  501  0.00000000000E+00  0.00000000000E+00 -0.15992666917E+04  0.15992666917E+04  0.25500000920E-02 0.  1.
    10030    2    1    2    0    0  0.00000000000E+00  0.00000000000E+00  0.52810741864E+03  0.37266408020E+04  0.36890316102E+04 0.  0.
        3    1    3    3  502    0  0.90087730242E+03  0.79761173042E+03  0.16763314834E+04  0.20634562363E+04  0.10100000352E+00 0. -1.
       -3    1    3    3    0  502 -0.90087730242E+03 -0.79761173042E+03 -0.11482240648E+04  0.16631845657E+04  0.10100000352E+00 0.  1.
</event>
<event>
 5   0  0.1680194E-06  0.1902595E+04  0.7818609E-02  0.8653566E-01
       -2   -1    0    0    0  501  0.00000000000E+00  0.00000000000E+00  0.57800360825E+03  0.57800360825E+03  0.25500000920E-02 0.  1.
        2   -1    0    0  501    0  0.00000000000E+00  0.00000000000E+00 -0.15656766030E+04  0.15656766030E+04  0.25500000920E-02 0. -1.
    10030    2    1    2    0    0  0.00000000000E+00  0.00000000000E+00 -0.98767299473E+03  0.21436802112E+04  0.19025947817E+04 0.  0.
        2    1    3    3  502    0  0.80098473846E+03 -0.10589712294E+03 -0.10596398950E+04  0.13325267198E+04  0.25500000920E-02 0. -1.
       -2    1    3    3    0  502 -0.80098473846E+03  0.10589712294E+03  0.71966900295E+02  0.81115349142E+03  0.25500000920E-02 0.  1.
</event>
<event>
 5   0  0.1151180E-06  0.3530894E+04  0.7818609E-02  0.8106507E-01
        2   -1    0    0  501    0  0.00000000000E+00  0.00000000000E+00  0.16161086477E+04  0.16161086477E+04  0.25500000920E-02 0.  1.
       -2   -1    0    0    0  501  0.00000000000E+00  0.00000000000E+00 -0.19285855485E+04  0.19285855485E+04  0.25500000920E-02 0. -1.
    10030    2    1    2    0    0  0.00000000000E+00  0.00000000000E+00 -0.31247690087E+03  0.35446941962E+04  0.35308943812E+04 0.  0.
        5    1    3    3  502    0  0.21720057249E+03  0.73036780965E+03  0.14425208968E+04  0.16314110008E+04  0.46999998093E+01 0.  1.
       -5    1    3    3    0  502 -0.21720057249E+03 -0.73036780965E+03 -0.17549977976E+04  0.19132831954E+04  0.46999998093E+01 0. -1.
</event>
<event>
 5   0  0.5679750E-07  0.3217838E+04  0.7818609E-02  0.8184122E-01
        1   -1    0    0  501    0  0.00000000000E+00  0.00000000000E+00  0.15492776575E+04  0.15492776575E+04  0.50400001928E-02 0. -1.
       -1   -1    0    0    0  501  0.00000000000E+00  0.00000000000E+00 -0.16708562322E+04  0.16708562323E+04  0.50400001928E-02 0.  1.
    10030    2    1    2    0    0  0.00000000000E+00  0.00000000000E+00 -0.12157857472E+03  0.32201338898E+04  0.32178379261E+04 0.  0.
        4    1    3    3  502    0 -0.64121647822E+03 -0.14629538515E+04 -0.25386754750E+03  0.16173567597E+04  0.12699999809E+01 0.  1.
       -4    1    3    3    0  502  0.64121647822E+03  0.14629538515E+04  0.13228897278E+03  0.16027771301E+04  0.12699999809E+01 0. -1.
</event>
<event>
 5   0  0.6261598E-07  0.2364745E+04  0.7818609E-02  0.8452822E-01
        1   -1    0    0  501    0  0.00000000000E+00  0.00000000000E+00  0.10558970946E+04  0.10558970946E+04  0.50400001928E-02 0.  1.
       -1   -1    0    0    0  501  0.00000000000E+00  0.00000000000E+00 -0.13239965819E+04  0.13239965819E+04  0.50400001928E-02 0. -1.
    10030    2    1    2    0    0  0.00000000000E+00  0.00000000000E+00 -0.26809948732E+03  0.23798936765E+04  0.23647445055E+04 0.  0.
        1    1    3    3  502    0 -0.40162397217E+03  0.10493462362E+04  0.23651391461E+03  0.11482021470E+04  0.50400001928E-02 0.  1.
       -1    1    3    3    0  502  0.40162397217E+03 -0.10493462362E+04 -0.50461340193E+03  0.12316915295E+04  0.50400001928E-02 0. -1.
</event>
<event>
 5   0  0.5679750E-07  0.3729637E+04  0.7818609E-02  0.8061426E-01
       -1   -1    0    0    0  501  0.00000000000E+00  0.00000000000E+00  0.11736302026E+04  0.11736302026E+04  0.50400001928E-02 0. -1.
        1   -1    0    0  501    0  0.00000000000E+00  0.00000000000E+00 -0.29630691569E+04  0.29630691569E+04  0.50400001928E-02 0.  1.
    10030    2    1    2    0    0  0.00000000000E+00  0.00000000000E+00 -0.17894389543E+04  0.41366993595E+04  0.37296366874E+04 0.  0.
        4    1    3    3  502    0 -0.56184206251E+02  0.10822285066E+04  0.78853775211E+03  0.13402121492E+04  0.12699999809E+01 0. -1.
       -4    1    3    3    0  502  0.56184206251E+02 -0.10822285066E+04 -0.25779767064E+04  0.27964872103E+04  0.12699999809E+01 0.  1.
</event>
<event>
 5   0  0.6287345E-07  0.3609525E+04  0.7818609E-02  0.8088313E-01
        1   -1    0    0  501    0  0.00000000000E+00  0.00000000000E+00  0.14949863210E+04  0.14949863210E+04  0.50400001928E-02 0. -1.
       -1   -1    0    0    0  501  0.00000000000E+00  0.00000000000E+00 -0.21787268877E+04  0.21787268877E+04  0.50400001928E-02 0.  1.
    10030    2    1    2    0    0  0.00000000000E+00  0.00000000000E+00 -0.68374056668E+03  0.36737132088E+04  0.36095245639E+04 0.  0.
        5    1    3    3  502    0  0.74923595809E+03 -0.10363237907E+04  0.95428493813E+03  0.15956200529E+04  0.46999998093E+01 0. -1.
       -5    1    3    3    0  502 -0.74923595809E+03  0.10363237907E+04 -0.16380255048E+04  0.20780931559E+04  0.46999998093E+01 0.  1.
</event>
<event>
 5   0  0.5875011E-07  0.3705743E+04  0.7818609E-02  0.8066690E-01
        1   -1    0    0  501    0  0.00000000000E+00  0.00000000000E+00  0.15827360014E+04  0.15827360014E+04  0.50400001928E-02 0. -1.
       -1   -1    0    0    0  501  0.00000000000E+00  0.00000000000E+00 -0.21691130092E+04  0.21691130092E+04  0.50400001928E-02 0.  1.
    10030    2    1    2    0    0  0.00000000000E+00  0.00000000000E+00 -0.58637700780E+03  0.37518490106E+04  0.37057432457E+04 0.  0.
        2    1    3    3  502    0  0.85790511265E+03 -0.11256174058E+03 -0.19520061656E+04  0.21351813502E+04  0.25500000920E-02 0.  1.
       -2    1    3    3    0  502 -0.85790511265E+03  0.11256174058E+03  0.13656291578E+04  0.16166676604E+04  0.25500000920E-02 0. -1.
</event>
<event>
 5   0  0.5875011E-07  0.3681914E+04  0.7818609E-02  0.8071982E-01
        1   -1    0    0  501    0  0.00000000000E+00  0.00000000000E+00  0.10977984421E+04  0.10977984421E+04  0.50400001928E-02 0. -1.
       -1   -1    0    0    0  501  0.00000000000E+00  0.00000000000E+00 -0.30871994639E+04  0.30871994640E+04  0.50400001928E-02 0.  1.
    10030    2    1    2    0    0  0.00000000000E+00  0.00000000000E+00 -0.19894010219E+04  0.41849979060E+04  0.36819140467E+04 0.  0.
        2    1    3    3  502    0  0.11579738161E+04 -0.13748959885E+04 -0.54306743433E+03  0.18778084503E+04  0.25500000920E-02 0. -1.
       -2    1    3    3    0  502 -0.11579738161E+04  0.13748959885E+04 -0.14463335876E+04  0.23071894557E+04  0.25500000920E-02 0.  1.
</event>
<event>
 5   0  0.6261598E-07  0.2134475E+04  0.7818609E-02  0.8546207E-01
       -1   -1    0    0    0  501  0.00000000000E+00  0.00000000000E+00  0.46954565276E+03  0.46954565278E+03  0.50400001928E-02 0. -1.
        1   -1    0    0  501    0  0.00000000000E+00  0.00000000000E+00 -0.24257412300E+04  0.24257412300E+04  0.50400001928E-02 0.  1.
    10030    2    1    2    0    0  0.00000000000E+00  0.00000000000E+00 -0.19561955772E+04  0.28952868828E+04  0.21344753447E+04 0.  0.
        1    1    3    3  502    0 -0.86472942260E+03  0.35982144426E+03 -0.28409922068E+03  0.97874450868E+03  0.50400001928E-02 0. -1.
       -1    1    3    3    0  502  0.86472942260E+03 -0.35982144426E+03 -0.16720963566E+04  0.19165423741E+04  0.50400001928E-02 0.  1.
</event>
<event>
 5   0  0.1680194E-06  0.2107063E+04  0.7818609E-02  0.8558138E-01
        2   -1    0    0  501    0  0.00000000000E+00  0.00000000000E+00  0.14038375892E+04  0.14038375892E+04  0.25500000920E-02 0.  1.
       -2   -1    0    0    0  501  0.00000000000E+00  0.00000000000E+00 -0.79063923215E+03  0.79063923216E+03  0.25500000920E-02 0. -1.
    10030    2    1    2    0    0  0.00000000000E+00  0.00000000000E+00  0.61319835703E+03  0.21944768213E+04  0.21070634291E+04 0.  0.
        2    1    3    3  502    0 -0.47974682141E+03 -0.62662846206E+03 -0.42028696562E+03  0.89412604011E+03  0.25500000920E-02 0.  1.
       -2    1    3    3    0  502  0.47974682141E+03  0.62662846206E+03  0.10334853227E+04  0.13003507812E+04  0.25500000920E-02 0. -1.
</event>
<event>
 5   0  0.6186440E-07  0.3514511E+04  0.7818609E-02  0.8110360E-01
       -1   -1    0    0    0  501  0.00000000000E+00  0.00000000000E+00  0.16367669952E+04  0.16367669953E+04  0.50400001928E-02 0. -1.
        1   -1    0    0  501    0  0.00000000000E+00  0.00000000000E+00 -0.18866139357E+04  0.18866139357E+04  0.50400001928E-02 0.  1.
    10030    2    1    2    0    0  0.00000000000E+00  0.00000000000E+00 -0.24984694045E+03  0.35233809310E+04  0.35145113019E+04 0.  0.
        3    1    3    3  502    0 -0.16576614262E+04  0.21075184623E+03 -0.67006934509E+03  0.18003473781E+04  0.10100000352E+00 0. -1.
       -3    1    3    3    0  502  0.16576614262E+04 -0.21075184623E+03  0.42022240464E+03  0.17230335528E+04  0.10100000352E+00 0.  1.
</event>
<event>
 5   0  0.1724503E-06  0.3688173E+04  0.7818609E-02  0.8070588E-01
        2   -1    0    0  501    0  0.00000000000E+00  0.00000000000E+00  0.29639194561E+04  0.29639194561E+04  0.25500000920E-02 0. -1.
       -2   -1    0    0    0  501  0.00000000000E+00  0.00000000000E+00 -0.11473504696E+04  0.11473504696E+04  0.25500000920E-02 0.  1.
    10030    2    1    2    0    0  0.00000000000E+00  0.00000000000E+00  0.18165689866E+04  0.41112699257E+04  0.36881726531E+04 0.  0.
        1    1    3    3  502    0  0.14160947563E+04 -0.50879094912E+03 -0.28005947858E+03  0.15305639158E+04  0.50400001928E-02 0.  1.
       -1    1    3    3    0  502 -0.14160947563E+04  0.50879094912E+03  0.20966284651E+04  0.25807060099E+04  0.50400001928E-02 0. -1.
</event>
<event>
 5   0  0.6261598E-07  0.2144825E+04  0.7818609E-02  0.8541751E-01
       -1   -1    0    0    0  501  0.00000000000E+00  0.00000000000E+00  0.32526657771E+03  0.32526657775E+03  0.50400001928E-02 0.  1.
        1   -1    0    0  501    0  0.00000000000E+00  0.00000000000E+00 -0.35357716007E+04  0.35357716007E+04  0.50400001928E-02 0. -1.
    10030    2    1    2    0    0  0.00000000000E+00  0.00000000000E+00 -0.32105050230E+04  0.38610381784E+04  0.21448247744E+04 0.  0.
        1    1    3    3  502    0 -0.38574841735E+03  0.36516470677E+01  0.19603993035E+03  0.43272026799E+03  0.50400001928E-02 0. -1.
       -1    1    3    3    0  502  0.38574841735E+03 -0.36516470677E+01 -0.34065449533E+04  0.34283179105E+04  0.50400001928E-02 0.  1.
</event>
<event>
 5   0  0.1184684E-06  0.3711524E+04  0.7818609E-02  0.8065413E-01
        2   -1    0    0  501    0  0.00000000000E+00  0.00000000000E+00  0.19112123430E+04  0.19112123430E+04  0.25500000920E-02 0.  1.
       -2   -1    0    0    0  501  0.00000000000E+00  0.00000000000E+00 -0.18019204765E+04  0.18019204765E+04  0.25500000920E-02 0. -1.
    10030    2    1    2    0    0  0.00000000000E+00  0.00000000000E+00  0.10929186647E+03  0.37131328195E+04  0.37115240297E+04 0.  0.
        4    1    3    3  502    0 -0.99283524395E+03 -0.18059132271E+03  0.16127278213E+04  0.19024267886E+04  0.12699999809E+01 0.  1.
       -4    1    3    3    0  502  0.99283524395E+03  0.18059132271E+03 -0.15034359548E+04  0.18107060310E+04  0.12699999809E+01 0. -1.
</event>
<event>
 5   0  0.5679750E-07  0.3250381E+04  0.7818609E-02  0.8175637E-01
        1   -1    0    0  501    0  0.00000000000E+00  0.00000000000E+00  0.14512412813E+04  0.14512412813E+04  0.50400001928E-02 0. -1.
       -1   -1    0    0    0  501  0.00000000000E+00  0.00000000000E+00 -0.18199895423E+04  0.18199895423E+04  0.50400001928E-02 0.  1.
    10030    2    1    2    0    0  0.00000000000E+00  0.00000000000E+00 -0.36874826098E+03  0.32712308236E+04  0.32503808733E+04 0.  0.
        4    1    3    3  502    0  0.50105042136E+03 -0.65853735110E+03  0.12233547240E+04  0.14769297076E+04  0.12699999809E+01 0. -1.
       -4    1    3    3    0  502 -0.50105042136E+03  0.65853735110E+03 -0.15921029849E+04  0.17943011161E+04  0.12699999809E+01 0.  1.
</event>
<event>
 5   0  0.1151180E-06  0.3534858E+04  0.7818609E-02  0.8105578E-01
       -2   -1    0    0    0  501  0.00000000000E+00  0.00000000000E+00  0.18336016676E+04  0.18336016676E+04  0.25500000920E-02 0.  1.
        2   -1    0    0  501    0  0.00000000000E+00  0.00000000000E+00 -0.17036443384E+04  0.17036443384E+04  0.25500000920E-02 0. -1.
    10030    2    1    2    0    0  0.00000000000E+00  0.00000000000E+00  0.12995732918E+03  0.35372460061E+04  0.35348579038E+04 0.  0.
        5    1    3    3  502    0 -0.10920131266E+04  0.11270116513E+04 -0.74867278952E+03  0.17387296991E+04  0.46999998093E+01 0.  1.
       -5    1    3    3    0  502  0.10920131266E+04 -0.11270116513E+04  0.87863011870E+03  0.17985163069E+04  0.46999998093E+01 0. -1.
</event>
<event>
 5   0  0.1151180E-06  0.2314123E+04  0.7818609E-02  0.8472374E-01
        2   -1    0    0  501    0  0.00000000000E+00  0.00000000000E+00  0.23765405043E+04  0.23765405043E+04  0.25500000920E-02 0. -1.
       -2   -1    0    0    0  501  0.00000000000E+00  0.00000000000E+00 -0.56333597511E+03  0.56333597511E+03  0.25500000920E-02 0.  1.
    10030    2    1    2    0    0  0.00000000000E+00  0.00000000000E+00  0.18132045292E+04  0.29398764794E+04  0.23141225226E+04 0.  0.
        5    1    3    3  502    0 -0.15840743179E+03  0.10066791471E+03  0.23570604179E+04  0.23645259244E+04  0.46999998093E+01 0. -1.
       -5    1    3    3    0  502  0.15840743179E+03 -0.10066791471E+03 -0.54385588870E+03  0.57535055503E+03  0.46999998093E+01 0.  1.
</event>
<event>
 5   0  0.1724503E-06  0.3750837E+04  0.7818609E-02  0.8056788E-01
        2   -1    0    0  501    0  0.00000000000E+00  0.00000000000E+00  0.15593440389E+04  0.15593440389E+04  0.25500000920E-02 0.  1.
       -2   -1    0    0    0  501  0.00000000000E+00  0.00000000000E+00 -0.22555607975E+04  0.22555607975E+04  0.25500000920E-02 0. -1.
    10030    2    1    2    0    0  0.00000000000E+00  0.00000000000E+00 -0.69621675863E+03  0.38149048364E+04  0.37508373913E+04 0.  0.
        1    1    3    3  502    0 -0.42355836167E+03  0.16593746077E+04 -0.11255397901E+04  0.20493329631E+04  0.50400001928E-02 0. -1.
       -1    1    3    3    0  502  0.42355836167E+03 -0.16593746077E+04  0.42932303149E+03  0.17655718733E+04  0.50400001928E-02 0.  1.
</event>
<event>
 5   0  0.1680194E-06  0.2337196E+04  0.7818609E-02  0.8463398E-01
        2   -1    0    0  501    0  0.00000000000E+00  0.00000000000E+00  0.16130443395E+04  0.16130443395E+04  0.25500000920E-02 0.  1.
       -2   -1    0    0    0  501  0.00000000000E+00  0.00000000000E+00 -0.84661128620E+03  0.84661128621E+03  0.25500000920E-02 0. -1.
    10030    2    1    2    0    0  0.00000000000E+00  0.00000000000E+00  0.76643305326E+03  0.24596556257E+04  0.23371962202E+04 0.  0.
        2    1    3    3  502    0  0.57049579463E+03 -0.73350382118E+03  0.11289548337E+04  0.14622011913E+04  0.25500000920E-02 0.  1.
       -2    1    3    3    0  502 -0.57049579463E+03  0.73350382118E+03 -0.36252178041E+03  0.99745443437E+03  0.25500000920E-02 0. -1.
</event>
<event>
 5   0  0.1151180E-06  0.3735561E+04  0.7818609E-02  0.8060127E-01
       -2   -1    0    0    0  501  0.00000000000E+00  0.00000000000E+00  0.14668048810E+04  0.14668048810E+04  0.25500000920E-02 0.  1.
        2   -1    0    0  501    0  0.00000000000E+00  0.00000000000E+00 -0.23783690769E+04  0.23783690769E+04  0.25500000920E-02 0. -1.
    10030    2    1    2    0    0  0.00000000000E+00  0.00000000000E+00 -0.91156419592E+03  0.38451739578E+04  0.37355606651E+04 0.  0.
        5    1    3    3  502    0 -0.68598312118E+03  0.17021084998E+04 -0.81359561172E+03  0.20074127869E+04  0.46999998093E+01 0. -1.
       -5    1    3    3    0  502  0.68598312118E+03 -0.17021084998E+04 -0.97968584200E+02  0.18377611709E+04  0.46999998093E+01 0.  1.
</event>
<event>
 5   0  0.1151180E-06  0.3595846E+04  0.7818609E-02  0.8091444E-01
        2   -1    0    0  501    0  0.00000000000E+00  0.00000000000E+00  0.25634706886E+04  0.25634706886E+04  0.25500000920E-02 0.  1.
       -2   -1    0    0    0  501  0.00000000000E+00  0.00000000000E+00 -0.12609962789E+04  0.12609962789E+04  0.25500000920E-02 0. -1.
    10030    2    1    2    0    0  0.00000000000E+00  0.00000000000E+00  0.13024744097E+04  0.38244669675E+04  0.35958459363E+04 0.  0.
        5    1    3    3  502    0 -0.69963410202E+03  0.48989065128E+03  0.23339204128E+04  0.24852942100E+04  0.46999998093E+01 0.  1.
       -5    1    3    3    0  502  0.69963410202E+03 -0.48989065128E+03 -0.10314460031E+04  0.13391727575E+04  0.46999998093E+01 0. -1.
</event>
<event>
 5   0  0.1685793E-06  0.3654530E+04  0.7818609E-02  0.8078114E-01
       -2   -1    0    0    0  501  0.00000000000E+00  0.00000000000E+00  0.16106926887E+04  0.16106926887E+04  0.25500000920E-02 0. -1.
        2   -1    0    0  501    0  0.00000000000E+00  0.00000000000E+00 -0.20729569561E+04  0.20729569561E+04  0.25500000920E-02 0.  1.
    10030    2    1    2    0    0  0.00000000000E+00  0.00000000000E+00 -0.46226426742E+03  0.36836496448E+04  0.36545295802E+04 0.  0.
        3    1    3    3  502    0  0.70873198103E+03  0.16607764217E+04 -0.51339429668E+03  0.18772461367E+04  0.10100000352E+00 0.  1.
       -3    1    3    3    0  502 -0.70873198103E+03 -0.16607764217E+04  0.51130029255E+02  0.18064035080E+04  0.10100000352E+00 0. -1.
</event>
<event>
 5   0  0.1685793E-06  0.3597131E+04  0.7818609E-02  0.8091149E-01
        2   -1    0    0  501    0  0.00000000000E+00  0.00000000000E+00  0.25586447674E+04  0.25586447674E+04  0.25500000920E-02 0. -1.
       -2   -1    0    0    0  501  0.00000000000E+00  0.00000000000E+00 -0.12642777546E+04  0.12642777547E+04  0.25500000920E-02 0.  1.
    10030    2    1    2    0    0  0.00000000000E+00  0.00000000000E+00  0.12943670128E+04  0.38229225221E+04  0.35971308909E+04 0.  0.
        3    1    3    3  502    0  0.65015423627E+03 -0.14453150275E+04  0.15509764413E+04  0.22174679234E+04  0.10100000352E+00 0. -1.
       -3    1    3    3    0  502 -0.65015423627E+03  0.14453150275E+04 -0.25660942850E+03  0.16054545987E+04  0.10100000352E+00 0.  1.
</event>
<event>
 5   0  0.1184684E-06  0.3703125E+04  0.7818609E-02  0.8067270E-01
       -2   -1    0    0    0  501  0.00000000000E+00  0.00000000000E+00  0.13888982360E+04  0.13888982360E+04  0.25500000920E-02 0.  1.
        2   -1    0    0  501    0  0.00000000000E+00  0.00000000000E+00 -0.24683474262E+04  0.24683474262E+04  0.25500000920E-02 0. -1.
    10030    2    1    2    0    0  0.00000000000E+00  0.00000000000E+00 -0.10794491902E+04  0.38572456621E+04  0.37031248350E+04 0.  0.
        4    1    3    3  502    0 -0.15507597264E+04 -0.72897303795E+03  0.19091338931E+03  0.17241539821E+04  0.12699999809E+01 0.  1.
       -4    1    3    3    0  502  0.15507597264E+04  0.72897303795E+03 -0.12703625795E+04  0.21330916800E+04  0.12699999809E+01 0. -1.
</event>
<event>
 5   0  0.6186440E-07  0.3135924E+04  0.7818609E-02  0.8205947E-01
       -1   -1    0    0    0  501  0.00000000000E+00  0.00000000000E+00  0.15383245316E+04  0.15383245316E+04  0.50400001928E-02 0.  1.
        1   -1    0    0  501    0  0.00000000000E+00  0.00000000000E+00 -0.15981707574E+04  0.15981707574E+04  0.50400001928E-02 0. -1.
    10030    2    1    2    0    0  0.00000000000E+00  0.00000000000E+00 -0.59846225798E+02  0.31364952890E+04  0.31359242859E+04 0.  0.
        3    1    3    3  502    0  0.11952161028E+04  0.58894719829E+03  0.79672900568E+03  0.15524746224E+04  0.10100000352E+00 0.  1.
       -3    1    3    3    0  502 -0.11952161028E+04 -0.58894719829E+03 -0.85657523148E+03  0.15840206665E+04  0.10100000352E+00 0. -1.
</event>
<event>
 5   0  0.5679750E-07  0.3682613E+04  0.7818609E-02  0.8071826E-01
        1   -1    0    0  501    0  0.00000000000E+00  0.00000000000E+00  0.17662590918E+04  0.17662590918E+04  0.50400001928E-02 0. -1.
       -1   -1    0    0    0  501  0.00000000000E+00  0.00000000000E+00 -0.19195430199E+04  0.19195430199E+04  0.50400001928E-02 0.  1.
    10030    2    1    2    0    0  0.00000000000E+00  0.00000000000E+00 -0.15328392818E+03  0.36858021117E+04  0.36826133715E+04 0.  0.
        4    1    3    3  502    0 -0.37813397717E+03  0.17391513164E+04  0.39575835191E+03  0.18232550266E+04  0.12699999809E+01 0. -1.
       -4    1    3    3    0  502  0.37813397717E+03 -0.17391513164E+04 -0.54904228008E+03  0.18625470851E+04  0.12699999809E+01 0.  1.
</event>
<event>
 5   0  0.6287345E-07  0.2092128E+04  0.7818609E-02  0.8564719E-01
        1   -1    0    0  501    0  0.00000000000E+00  0.00000000000E+00  0.73223984963E+03  0.73223984965E+03  0.50400001928E-02 0.  1.
       -1   -1    0    0    0  501  0.00000000000E+00  0.00000000000E+00 -0.14943869524E+04  0.14943869524E+04  0.50400001928E-02 0. -1.
    10030    2    1    2    0    0  0.00000000000E+00  0.00000000000E+00 -0.76214710274E+03  0.22266268020E+04  0.20921277947E+04 0.  0.
        5    1    3    3  502    0  0.30993303214E+03  0.34280357167E+03  0.61768860855E+03  0.77144933748E+03  0.46999998093E+01 0.  1.
       -5    1    3    3    0  502 -0.30993303214E+03 -0.34280357167E+03 -0.13798357113E+04  0.14551774645E+04  0.46999998093E+01 0. -1.
</event>
<event>
 5   0  0.1680194E-06  0.3828887E+04  0.7818609E-02  0.8039984E-01
       -2   -1    0    0    0  501  0.00000000000E+00  0.00000000000E+00  0.19109550903E+04  0.19109550903E+04  0.25500000920E-02 0. -1.
        2   -1    0    0  501    0  0.00000000000E+00  0.00000000000E+00 -0.19179379642E+04  0.19179379642E+04  0.25500000920E-02 0.  1.
    10030    2    1    2    0    0  0.00000000000E+00  0.00000000000E+00 -0.69828739136E+01  0.38288930545E+04  0.38288866870E+04 0.  0.
        2    1    3    3  502    0 -0.16349745379E+04  0.82409406107E+03 -0.56279600057E+03  0.19154665487E+04  0.25500000920E-02 0. -1.
       -2    1    3    3    0  502  0.16349745379E+04 -0.82409406107E+03  0.55581312666E+03  0.19134265057E+04  0.25500000920E-02 0.  1.
</event>
<event>
 5   0  0.1151180E-06  0.3027497E+04  0.7818609E-02  0.8235922E-01
       -2   -1    0    0    0  501  0.00000000000E+00  0.00000000000E+00  0.91581846407E+03  0.91581846408E+03  0.25500000920E-02 0.  1.
        2   -1    0    0  501    0  0.00000000000E+00  0.00000000000E+00 -0.25020612135E+04  0.25020612135E+04  0.25500000920E-02 0. -1.
    10030    2    1    2    0    0  0.00000000000E+00  0.00000000000E+00 -0.15862427495E+04  0.34178796776E+04  0.30274965616E+04 0.  0.
        5    1    3    3  502    0 -0.89110300005E+03 -0.69366203326E+02 -0.21723474271E+04  0.23490405831E+04  0.46999998093E+01 0. -1.
       -5    1    3    3    0  502  0.89110300005E+03  0.69366203326E+02  0.58610467765E+03  0.10688390945E+04  0.46999998093E+01 0.  1.
</event>
<event>
 5   0  0.1724503E-06  0.2686216E+04  0.7818609E-02  0.8339491E-01
        2   -1    0    0  501    0  0.00000000000E+00  0.00000000000E+00  0.15411167910E+04  0.15411167910E+04  0.25500000920E-02 0. -1.
       -2   -1    0    0    0  501  0.00000000000E+00  0.00000000000E+00 -0.11705397863E+04  0.11705397863E+04  0.25500000920E-02 0.  1.
    10030    2    1    2    0    0  0.00000000000E+00  0.00000000000E+00  0.37057700472E+03  0.27116565773E+04  0.26862155678E+04 0.  0.
        1    1    3    3  502    0 -0.19635853581E+03 -0.13118893272E+03  0.15199951363E+04  0.15382302899E+04  0.50400001928E-02 0. -1.
       -1    1    3    3    0  502  0.19635853581E+03  0.13118893272E+03 -0.11494181315E+04  0.11734262873E+04  0.50400001928E-02 0.  1.
</event>
<event>
 5   0  0.1151180E-06  0.3608798E+04  0.7818609E-02  0.8088479E-01
       -2   -1    0    0    0  501  0.00000000000E+00  0.00000000000E+00  0.13751346629E+04  0.13751346629E+04  0.25500000920E-02 0. -1.
        2   -1    0    0  501    0  0.00000000000E+00  0.00000000000E+00 -0.23676634861E+04  0.23676634861E+04  0.25500000920E-02 0.  1.
    10030    2    1    2    0    0  0.00000000000E+00  0.00000000000E+00 -0.99252882324E+03  0.37427981490E+04  0.36087982098E+04 0.  0.
        5    1    3    3  502    0 -0.23229131297E+03 -0.17051511239E+04 -0.10589351640E+04  0.20206101507E+04  0.46999998093E+01 0.  1.
       -5    1    3    3    0  502  0.23229131297E+03  0.17051511239E+04  0.66406340763E+02  0.17221879983E+04  0.46999998093E+01 0. -1.
</event>
<event>
 5   0  0.6287345E-07  0.3656800E+04  0.7818609E-02  0.8077603E-01
       -1   -1    0    0    0  501  0.00000000000E+00  0.00000000000E+00  0.12771381934E+04  0.12771381934E+04  0.50400001928E-02 0. -1.
        1   -1    0    0  501    0  0.00000000000E+00  0.00000000000E+00 -0.26176073675E+04  0.26176073675E+04  0.50400001928E-02 0.  1.
    10030    2    1    2    0    0  0.00000000000E+00  0.00000000000E+00 -0.13404691741E+04  0.38947455609E+04  0.36567998821E+04 0.  0.
        5    1    3    3  502    0  0.88663981685E+03 -0.10118299549E+04 -0.19889841283E+04  0.24012517517E+04  0.46999998093E+01 0.  1.
       -5    1    3    3    0  502 -0.88663981685E+03  0.10118299549E+04  0.64851495420E+03  0.14934938092E+04  0.46999998093E+01 0. -1.
</event>
<event>
 5   0  0.6261598E-07  0.2437650E+04  0.7818609E-02  0.8425541E-01
        1   -1    0    0  501    0  0.00000000000E+00  0.00000000000E+00  0.17586250213E+04  0.17586250214E+04  0.50400001928E-02 0.  1.
       -1   -1    0    0    0  501  0.00000000000E+00  0.00000000000E+00 -0.84471337336E+03  0.84471337338E+03  0.50400001928E-02 0. -1.
    10030    2    1    2    0    0  0.00000000000E+00  0.00000000000E+00  0.91391164799E+03  0.26033383947E+04  0.24376497487E+04 0.  0.
        1    1    3    3  502    0 -0.58938329433E+03 -0.16115608756E+03 -0.66933056487E+03  0.90628216207E+03  0.50400001928E-02 0. -1.
       -1    1    3    3    0  502  0.58938329433E+03  0.16115608756E+03  0.15832422129E+04  0.16970562327E+04  0.50400001928E-02 0.  1.
</event>
<event>
 5   0  0.6186440E-07  0.3725311E+04  0.7818609E-02  0.8062376E-01
       -1   -1    0    0    0  501  0.00000000000E+00  0.00000000000E+00  0.10620300618E+04  0.10620300618E+04  0.50400001928E-02 0.  1.
        1   -1    0    0  501    0  0.00000000000E+00  0.00000000000E+00 -0.32668431016E+04  0.32668431016E+04  0.50400001928E-02 0. -1.
    10030    2    1    2    0    0  0.00000000000E+00  0.00000000000E+00 -0.22048130398E+04  0.43288731634E+04  0.37253110373E+04 0.  0.
        3    1    3    3  502    0  0.17111532989E+04  0.73518261875E+03 -0.10666572598E+04  0.21462285096E+04  0.10100000352E+00 0. -1.
       -3    1    3    3    0  502 -0.17111532989E+04 -0.73518261875E+03 -0.11381557800E+04  0.21826446539E+04  0.10100000352E+00 0.  1.
</event>
<event>
 5   0  0.1184684E-06  0.2407960E+04  0.7818609E-02  0.8436530E-01
        2   -1    0    0  501    0  0.00000000000E+00  0.00000000000E+00  0.10720481011E+04  0.10720481011E+04  0.25500000920E-02 0.  1.
       -2   -1    0    0    0  501  0.00000000000E+00  0.00000000000E+00 -0.13521479616E+04  0.13521479616E+04  0.25500000920E-02 0. -1.
    10030    2    1    2    0    0  0.00000000000E+00  0.00000000000E+00 -0.28009986051E+03  0.24241960627E+04  0.24079598457E+04 0.  0.
        4    1    3    3  502    0  0.57913901156E+03 -0.10449731959E+04  0.99346905087E+01  0.11947682980E+04  0.12699999809E+01 0.  1.
       -4    1    3    3    0  502 -0.57913901156E+03  0.10449731959E+04 -0.29003455102E+03  0.12294277647E+04  0.12699999809E+01 0. -1.
</event>
<event>
 5   0  0.1184684E-06  0.3349811E+04  0.7818609E-02  0.8150335E-01
        2   -1    0    0  501    0  0.00000000000E+00  0.00000000000E+00  0.17864509418E+04  0.17864509418E+04  0.25500000920E-02 0.  1.
       -2   -1    0    0    0  501  0.00000000000E+00  0.00000000000E+00 -0.15703252985E+04  0.15703252985E+04  0.25500000920E-02 0. -1.
    10030    2    1    2    0    0  0.00000000000E+00  0.00000000000E+00  0.21612564336E+03  0.33567762403E+04  0.33498114028E+04 0.  0.
        4    1    3    3  502    0 -0.11041990338E+02  0.15769057201E+04  0.67364213057E+03  0.17148028774E+04  0.12699999809E+01 0.  1.
       -4    1    3    3    0  502  0.11041990338E+02 -0.15769057201E+04 -0.45751648721E+03  0.16419733629E+04  0.12699999809E+01 0. -1.
</event>
<event>
 5   0  0.1954680E-06  0.1892015E+04  0.7818609E-02  0.8658841E-01
        2   -1    0    0  501    0  0.00000000000E+00  0.00000000000E+00  0.20231897250E+04  0.20231897250E+04  0.25500000920E-02 0.  1.
       -2   -1    0    0    0  501  0.00000000000E+00  0.00000000000E+00 -0.44233619588E+03  0.44233619589E+03  0.25500000920E-02 0. -1.
    10030    2    1    2    0    0  0.00000000000E+00  0.00000000000E+00  0.15808535291E+04  0.24655259209E+04  0.18920148483E+04 0.  0.
        5    1    3    3  502    0  0.15463894354E+03  0.29454287396E+03  0.19444360926E+04  0.19726942276E+04  0.46999998093E+01 0.  1.
       -5    1    3    3    0  502 -0.15463894354E+03 -0.29454287396E+03 -0.36358256347E+03  0.49283169329E+03  0.46999998093E+01 0. -1.
</event>
<event>
 5   0  0.5875011E-07  0.3660066E+04  0.7818609E-02  0.8076870E-01
       -1   -1    0    0    0  501  0.00000000000E+00  0.00000000000E+00  0.11976213383E+04  0.11976213383E+04  0.50400001928E-02 0.  1.
        1   -1    0    0  501    0  0.00000000000E+00  0.00000000000E+00 -0.27963937280E+04  0.27963937280E+04  0.50400001928E-02 0. -1.
    10030    2    1    2    0    0  0.00000000000E+00  0.00000000000E+00 -0.15987723897E+04  0.39940150662E+04  0.36600660097E+04 0.  0.
        2    1    3    3  502    0  0.10192657466E+04  0.79827166423E+03  0.61202396222E+03  0.14320312994E+04  0.25500000920E-02 0.  1.
       -2    1    3    3    0  502 -0.10192657466E+04 -0.79827166423E+03 -0.22107963519E+04  0.25619837669E+04  0.25500000920E-02 0. -1.
</event>
<event>
 5   0  0.5679750E-07  0.1888754E+04  0.7818609E-02  0.8660475E-01
       -3   -1    0    0    0  501  0.00000000000E+00  0.00000000000E+00  0.12479025317E+04  0.12479025358E+04  0.10100000352E+00 0.  1.
        3   -1    0    0  501    0  0.00000000000E+00  0.00000000000E+00 -0.71467741050E+03  0.71467741763E+03  0.10100000352E+00 0. -1.
    10030    2    1    2    0    0  0.00000000000E+00  0.00000000000E+00  0.53322512123E+03  0.19625799534E+04  0.18887538336E+04 0.  0.
        5    1    3    3  502    0 -0.93375943493E+03 -0.14113042555E+03  0.26774683524E+03  0.98159815460E+03  0.46999998093E+01 0.  1.
       -5    1    3    3    0  502  0.93375943493E+03  0.14113042555E+03  0.26547828599E+03  0.98098179885E+03  0.46999998093E+01 0. -1.
</event>
<event>
 5   0  0.1685793E-06  0.3182575E+04  0.7818609E-02  0.8193434E-01
        2   -1    0    0  501    0  0.00000000000E+00  0.00000000000E+00  0.24740050940E+04  0.24740050940E+04  0.25500000920E-02 0.  1.
       -2   -1    0    0    0  501  0.00000000000E+00  0.00000000000E+00 -0.10235208051E+04  0.10235208051E+04  0.25500000920E-02 0. -1.
    10030    2    1    2    0    0  0.00000000000E+00  0.00000000000E+00  0.14504842889E+04  0.34975258990E+04  0.31825748604E+04 0.  0.
        3    1    3    3  502    0  0.77296801698E+03 -0.96558679846E+03 -0.37501398546E+03  0.12924677637E+04  0.10100000352E+00 0. -1.
       -3    1    3    3    0  502 -0.77296801698E+03  0.96558679846E+03  0.18254982743E+04  0.22050581354E+04  0.10100000352E+00 0.  1.
</event>
<event>
 5   0  0.5679750E-07  0.3375587E+04  0.7818609E-02  0.8143924E-01
       -1   -1    0    0    0  501  0.00000000000E+00  0.00000000000E+00  0.11923141332E+04  0.11923141332E+04  0.50400001928E-02 0. -1.
        1   -1    0    0  501    0  0.00000000000E+00  0.00000000000E+00 -0.23891753996E+04  0.23891753996E+04  0.50400001928E-02 0.  1.
    10030    2    1    2    0    0  0.00000000000E+00  0.00000000000E+00 -0.11968612663E+04  0.35814895328E+04  0.33755874130E+04 0.  0.
        4    1    3    3  502    0 -0.16813403358E+04 -0.12060590839E+03 -0.50843407842E+03  0.17606697405E+04  0.12699999809E+01 0.  1.
       -4    1    3    3    0  502  0.16813403358E+04  0.12060590839E+03 -0.68842718793E+03  0.18208197923E+04  0.12699999809E+01 0. -1.
</event>
<event>
 5   0  0.1685793E-06  0.3637941E+04  0.7818609E-02  0.8081856E-01
       -2   -1    0    0    0  501  0.00000000000E+00  0.00000000000E+00  0.15621313580E+04  0.15621313580E+04  0.25500000920E-02 0.  1.
        2   -1    0    0  501    0  0.00000000000E+00  0.00000000000E+00 -0.21180376558E+04  0.21180376558E+04  0.25500000920E-02 0. -1.
    10030    2    1    2    0    0  0.00000000000E+00  0.00000000000E+00 -0.55590629782E+03  0.36801690138E+04  0.36379406479E+04 0.  0.
        3    1    3    3  502    0  0.98700031006E+03  0.14695465452E+04 -0.70103790837E+03  0.19039933875E+04  0.10100000352E+00 0.  1.
       -3    1    3    3    0  502 -0.98700031006E+03 -0.14695465452E+04  0.14513161055E+03  0.17761756262E+04  0.10100000352E+00 0. -1.
</event>
<event>
 5   0  0.1151180E-06  0.3760101E+04  0.7818609E-02  0.8054772E-01
        2   -1    0    0  501    0  0.00000000000E+00  0.00000000000E+00  0.26823637273E+04  0.26823637273E+04  0.25500000920E-02 0. -1.
       -2   -1    0    0    0  501  0.00000000000E+00  0.00000000000E+00 -0.13177149452E+04  0.13177149452E+04  0.25500000920E-02 0.  1.
    10030    2    1    2    0    0  0.00000000000E+00  0.00000000000E+00  0.13646487821E+04  0.40000786725E+04  0.37601014731E+04 0.  0.
        5    1    3    3  502    0  0.17366842927E+04 -0.30985935164E+03  0.13737952150E+04  0.22359384010E+04  0.46999998093E+01 0. -1.
       -5    1    3    3    0  502 -0.17366842927E+04  0.30985935164E+03 -0.91464328744E+01  0.17641402715E+04  0.46999998093E+01 0.  1.
</event>
<event>
 5   0  0.1724503E-06  0.3637684E+04  0.7818609E-02  0.8081914E-01
       -2   -1    0    0    0  501  0.00000000000E+00  0.00000000000E+00  0.18176583645E+04  0.18176583645E+04  0.25500000920E-02 0. -1.
        2   -1    0    0  501    0  0.00000000000E+00  0.00000000000E+00 -0.18200259433E+04  0.18200259433E+04  0.25500000920E-02 0.  1.
    10030    2    1    2    0    0  0.00000000000E+00  0.00000000000E+00 -0.23675787811E+01  0.36376843078E+04  0.36376835373E+04 0.  0.
        1    1    3    3  502    0 -0.10112430375E+04 -0.24780167853E+03  0.14901807431E+04  0.18178715026E+04  0.50400001928E-02 0. -1.
       -1    1    3    3    0  502  0.10112430375E+04  0.24780167853E+03 -0.14925483219E+04  0.18198128052E+04  0.50400001928E-02 0.  1.
</event>
<event>
 5   0  0.1680194E-06  0.3542166E+04  0.7818609E-02  0.8103869E-01
       -2   -1    0    0    0  501  0.00000000000E+00  0.00000000000E+00  0.12160263899E+04  0.12160263899E+04  0.25500000920E-02 0.  1.
        2   -1    0    0  501    0  0.00000000000E+00  0.00000000000E+00 -0.25794956634E+04  0.25794956634E+04  0.25500000920E-02 0. -1.
    10030    2    1    2    0    0  0.00000000000E+00  0.00000000000E+00 -0.13634692735E+04  0.37955220533E+04  0.35421658907E+04 0.  0.
        2    1    3    3  502    0  0.12491738930E+04  0.21688032835E+03  0.64334998759E+03  0.14217495203E+04  0.25500000920E-02 0.  1.
       -2    1    3    3    0  502 -0.12491738930E+04 -0.21688032835E+03 -0.20068192611E+04  0.23737725330E+04  0.25500000920E-02 0. -1.
</event>
<event>
 5   0  0.6287345E-07  0.3667834E+04  0.7818609E-02  0.8075128E-01
       -1   -1    0    0    0  501  0.00000000000E+00  0.00000000000E+00  0.27964888743E+04  0.27964888743E+04  0.50400001928E-02 0.  1.
        1   -1    0    0  501    0  0.00000000000E+00  0.00000000000E+00 -0.12026695915E+04  0.12026695916E+04  0.50400001928E-02 0. -1.
    10030    2    1    2    0    0  0.00000000000E+00  0.00000000000E+00  0.15938192828E+04  0.39991584659E+04  0.36678343105E+04 0.  0.
        5    1    3    3  502    0 -0.10917947789E+04 -0.10716178938E+04 -0.30580903236E+03  0.15601032030E+04  0.46999998093E+01 0. -1.
       -5    1    3    3    0  502  0.10917947789E+04  0.10716178938E+04  0.18996283151E+04  0.24390552629E+04  0.46999998093E+01 0.  1.
</event>
<event>
 5   0  0.6287345E-07  0.2088191E+04  0.7818609E-02  0.8566463E-01
       -1   -1    0    0    0  501  0.00000000000E+00  0.00000000000E+00  0.11684708830E+04  0.11684708830E+04  0.50400001928E-02 0. -1.
        1   -1    0    0  501    0  0.00000000000E+00  0.00000000000E+00 -0.93295897076E+03  0.93295897077E+03  0.50400001928E-02 0.  1.
    10030    2    1    2    0    0  0.00000000000E+00  0.00000000000E+00  0.23551191221E+03  0.21014298538E+04  0.20881909801E+04 0.  0.
        5    1    3    3  502    0  0.12924805805E+03  0.96968928463E+03  0.48491273085E+03  0.10918630023E+04  0.46999998093E+01 0. -1.
       -5    1    3    3    0  502 -0.12924805805E+03 -0.96968928463E+03 -0.24940081864E+03  0.10095668515E+04  0.46999998093E+01 0.  1.
</event>
<event>
 5   0  0.5875011E-07  0.3695672E+04  0.7818609E-02  0.8068922E-01
        1   -1    0    0  501    0  0.00000000000E+00  0.00000000000E+00  0.27439842447E+04  0.27439842447E+04  0.50400001928E-02 0. -1.
       -1   -1    0    0    0  501  0.00000000000E+00  0.00000000000E+00 -0.12443579579E+04  0.12443579579E+04  0.50400001928E-02 0.  1.
    10030    2    1    2    0    0  0.00000000000E+00  0.00000000000E+00  0.14996262868E+04  0.39883422026E+04  0.36956724049E+04 0.  0.
        2    1    3    3  502    0 -0.16562905138E+04 -0.30165770071E+03 -0.72219247641E+02  0.16850849398E+04  0.25500000920E-02 0.  1.
       -2    1    3    3    0  502  0.16562905138E+04  0.30165770071E+03  0.15718455345E+04  0.23032572628E+04  0.25500000920E-02 0. -1.
</event>
<event>
 5   0  0.6287345E-07  0.3759016E+04  0.7818609E-02  0.8055008E-01
        1   -1    0    0  501    0  0.00000000000E+00  0.00000000000E+00  0.19664853510E+04  0.19664853510E+04  0.50400001928E-02 0.  1.
       -1   -1    0    0    0  501  0.00000000000E+00  0.00000000000E+00 -0.17963778466E+04  0.17963778466E+04  0.50400001928E-02 0. -1.
    10030    2    1    2    0    0  0.00000000000E+00  0.00000000000E+00  0.17010750443E+03  0.37628631976E+04  0.37590162119E+04 0.  0.
        5    1    3    3  502    0 -0.20927432067E+03  0.86865798768E+03  0.17402774099E+04  0.19562591838E+04  0.46999998093E+01 0.  1.
       -5    1    3    3    0  502  0.20927432067E+03 -0.86865798768E+03 -0.15701699055E+04  0.18066040138E+04  0.46999998093E+01 0. -1.
</event>
<event>
 5   0  0.1184684E-06  0.3771805E+04  0.7818609E-02  0.8052233E-01
        2   -1    0    0  501    0  0.00000000000E+00  0.00000000000E+00  0.22310380213E+04  0.22310380213E+04  0.25500000920E-02 0. -1.
       -2   -1    0    0    0  501  0.00000000000E+00  0.00000000000E+00 -0.15941584322E+04  0.15941584322E+04  0.25500000920E-02 0.  1.
    10030    2    1    2    0    0  0.00000000000E+00  0.00000000000E+00  0.63687958909E+03  0.38251964536E+04  0.37718049124E+04 0.  0.
        4    1    3    3  502    0 -0.12745689461E+04 -0.81997482897E+03  0.14567097763E+04  0.21021155306E+04  0.12699999809E+01 0. -1.
       -4    1    3    3    0  502  0.12745689461E+04  0.81997482897E+03 -0.81983018723E+03  0.17230809230E+04  0.12699999809E+01 0.  1.
</event>
<event>
 5   0  0.1151180E-06  0.3749292E+04  0.7818609E-02  0.8057125E-01
       -2   -1    0    0    0  501  0.00000000000E+00  0.00000000000E+00  0.12920766905E+04  0.12920766905E+04  0.25500000920E-02 0. -1.
        2   -1    0    0  501    0  0.00000000000E+00  0.00000000000E+00 -0.27198834747E+04  0.27198834747E+04  0.25500000920E-02 0.  1.
    10030    2    1    2    0    0  0.00000000000E+00  0.00000000000E+00 -0.14278067842E+04  0.40119601652E+04  0.37492922205E+04 0.  0.
        5    1    3    3  502    0  0.17298394228E+04  0.72089859141E+03 -0.76451092324E+03  0.20239906743E+04  0.46999998093E+01 0.  1.
       -5    1    3    3    0  502 -0.17298394228E+04 -0.72089859141E+03 -0.66329586094E+03  0.19879694910E+04  0.46999998093E+01 0. -1.
</event>
<event>
 5   0  0.5679750E-07  0.2002756E+04  0.7818609E-02  0.8605333E-01
       -1   -1    0    0    0  501  0.00000000000E+00  0.00000000000E+00  0.82594420405E+03  0.82594420407E+03  0.50400001928E-02 0. -1.
        1   -1    0    0  501    0  0.00000000000E+00  0.00000000000E+00 -0.12140742571E+04  0.12140742571E+04  0.50400001928E-02 0.  1.
    10030    2    1    2    0    0  0.00000000000E+00  0.00000000000E+00 -0.38813005303E+03  0.20400184612E+04  0.20027556975E+04 0.  0.
        4    1    3    3  502    0 -0.65371972629E+03 -0.29956579772E+03 -0.90392934311E+03  0.11550666725E+04  0.12699999809E+01 0.  1.
       -4    1    3    3    0  502  0.65371972629E+03  0.29956579772E+03  0.51579929008E+03  0.88495178866E+03  0.12699999809E+01 0. -1.
</event>
<event>
 5   0  0.1184684E-06  0.3694312E+04  0.7818609E-02  0.8069224E-01
        2   -1    0    0  501    0  0.00000000000E+00  0.00000000000E+00  0.14888330283E+04  0.14888330283E+04  0.25500000920E-02 0.  1.
       -2   -1    0    0    0  501  0.00000000000E+00  0.00000000000E+00 -0.22917177082E+04  0.22917177082E+04  0.25500000920E-02 0. -1.
    10030    2    1    2    0    0  0.00000000000E+00  0.00000000000E+00 -0.80288467984E+03  0.37805507365E+04  0.36943118523E+04 0.  0.
        4    1    3    3  502    0 -0.57798641707E+03 -0.13709310329E+03  0.13884207648E+04  0.15101578230E+04  0.12699999809E+01 0.  1.
       -4    1    3    3    0  502  0.57798641707E+03  0.13709310329E+03 -0.21913054446E+04  0.22703929135E+04  0.12699999809E+01 0. -1.
</event>
<event>
 5   0  0.6287345E-07  0.3706400E+04  0.7818609E-02  0.8066545E-01
        1   -1    0    0  501    0  0.00000000000E+00  0.00000000000E+00  0.23146896648E+04  0.23146896648E+04  0.50400001928E-02 0.  1.
       -1   -1    0    0    0  501  0.00000000000E+00  0.00000000000E+00 -0.14837191313E+04  0.14837191313E+04  0.50400001928E-02 0. -1.
    10030    2    1    2    0    0  0.00000000000E+00  0.00000000000E+00  0.83097053349E+03  0.37984087961E+04  0.37063995136E+04 0.  0.
        5    1    3    3  502    0 -0.87859782921E+03 -0.39632477341E+02 -0.12562111606E+04  0.15334906093E+04  0.46999998093E+01 0. -1.
       -5    1    3    3    0  502  0.87859782921E+03  0.39632477341E+02  0.20871816941E+04  0.22649181868E+04  0.46999998093E+01 0.  1.
</event>
<event>
 5   0  0.5679750E-07  0.3006699E+04  0.7818609E-02  0.8241821E-01
        3   -1    0    0  501    0  0.00000000000E+00  0.00000000000E+00  0.17227370228E+04  0.17227370257E+04  0.10100000352E+00 0.  1.
       -3   -1    0    0    0  501  0.00000000000E+00  0.00000000000E+00 -0.13119004272E+04  0.13119004310E+04  0.10100000352E+00 0. -1.
    10030    2    1    2    0    0  0.00000000000E+00  0.00000000000E+00  0.41083659560E+03  0.30346374568E+04  0.30066988186E+04 0.  0.
        3    1    3    3  502    0  0.12482046160E+04  0.22881139622E+03 -0.60810497989E+03  0.14071819695E+04  0.10100000352E+00 0. -1.
       -3    1    3    3    0  502 -0.12482046160E+04 -0.22881139622E+03  0.10189415755E+04  0.16274554873E+04  0.10100000352E+00 0.  1.
</event>
<event>
 5   0  0.6261598E-07  0.3330884E+04  0.7818609E-02  0.8155081E-01
       -1   -1    0    0    0  501  0.00000000000E+00  0.00000000000E+00  0.13982004944E+04  0.13982004944E+04  0.50400001928E-02 0. -1.
        1   -1    0    0  501    0  0.00000000000E+00  0.00000000000E+00 -0.19837619763E+04  0.19837619763E+04  0.50400001928E-02 0.  1.
    10030    2    1    2    0    0  0.00000000000E+00  0.00000000000E+00 -0.58556148191E+03  0.33819624707E+04  0.33308839524E+04 0.  0.
        1    1    3    3  502    0  0.69077325612E+03  0.89579983998E+03  0.94828570851E+03  0.14760998712E+04  0.50400001928E-02 0. -1.
       -1    1    3    3    0  502 -0.69077325612E+03 -0.89579983998E+03 -0.15338471904E+04  0.19058625995E+04  0.50400001928E-02 0.  1.
</event>
<event>
 5   0  0.1151180E-06  0.2071370E+04  0.7818609E-02  0.8573961E-01
        2   -1    0    0  501    0  0.00000000000E+00  0.00000000000E+00  0.16434400125E+04  0.16434400125E+04  0.25500000920E-02 0. -1.
       -2   -1    0    0    0  501  0.00000000000E+00  0.00000000000E+00 -0.65268203757E+03  0.65268203758E+03  0.25500000920E-02 0.  1.
    10030    2    1    2    0    0  0.00000000000E+00  0.00000000000E+00  0.99075797490E+03  0.22961220501E+04  0.20713703445E+04 0.  0.
        5    1    3    3  502    0 -0.50187497749E+03  0.88776345315E+03  0.69558363822E+03  0.12344477022E+04  0.46999998093E+01 0. -1.
       -5    1    3    3    0  502  0.50187497749E+03 -0.88776345315E+03  0.29517433669E+03  0.10616743478E+04  0.46999998093E+01 0.  1.
</event>
<event>
 5   0  0.1151180E-06  0.3687513E+04  0.7818609E-02  0.8070735E-01
        2   -1    0    0  501    0  0.00000000000E+00  0.00000000000E+00  0.24079978823E+04  0.24079978823E+04  0.25500000920E-02 0. -1.
       -2   -1    0    0    0  501  0.00000000000E+00  0.00000000000E+00 -0.14117277599E+04  0.14117277599E+04  0.25500000920E-02 0.  1.
    10030    2    1    2    0    0  0.00000000000E+00  0.00000000000E+00  0.99627012233E+03  0.38197256422E+04  0.36875126881E+04 0.  0.
        5    1    3    3  502    0 -0.15347588397E+04  0.84133203114E+03  0.10986545999E+04  0.20664917862E+04  0.46999998093E+01 0.  1.
       -5    1    3    3    0  502  0.15347588397E+04 -0.84133203114E+03 -0.10238447756E+03  0.17532338560E+04  0.46999998093E+01 0. -1.
</event>
<event>
 5   0  0.5679750E-07  0.3664138E+04  0.7818609E-02  0.8075956E-01
       -1   -1    0    0    0  501  0.00000000000E+00  0.00000000000E+00  0.12787248060E+04  0.12787248060E+04  0.50400001928E-02 0.  1.
        1   -1    0    0  501    0  0.00000000000E+00  0.00000000000E+00 -0.26248624331E+04  0.26248624331E+04  0.50400001928E-02 0. -1.
    10030    2    1    2    0    0  0.00000000000E+00  0.00000000000E+00 -0.13461376272E+04  0.39035872391E+04  0.36641379371E+04 0.  0.
        4    1    3    3  502    0 -0.17810157913E+03  0.28025747377E+03 -0.25925348217E+04  0.26137143758E+04  0.12699999809E+01 0. -1.
       -4    1    3    3    0  502  0.17810157913E+03 -0.28025747377E+03  0.12463971945E+04  0.12898728633E+04  0.12699999809E+01 0.  1.
</event>
<event>
 5   0  0.6186440E-07  0.2270975E+04  0.7818609E-02  0.8489454E-01
        1   -1    0    0  501    0  0.00000000000E+00  0.00000000000E+00  0.14210111316E+04  0.14210111317E+04  0.50400001928E-02 0.  1.
       -1   -1    0    0    0  501  0.00000000000E+00  0.00000000000E+00 -0.90733377492E+03  0.90733377494E+03  0.50400001928E-02 0. -1.
    10030    2    1    2    0    0  0.00000000000E+00  0.00000000000E+00  0.51367735672E+03  0.23283449066E+04  0.22709745875E+04 0.  0.
        3    1    3    3  502    0  0.18461796379E+03  0.30363155357E+03  0.13625334457E+04  0.14081098372E+04  0.10100000352E+00 0.  1.
       -3    1    3    3    0  502 -0.18461796379E+03 -0.30363155357E+03 -0.84885608897E+03  0.92023506935E+03  0.10100000352E+00 0. -1.
</event>
<event>
 5   0  0.1151180E-06  0.3369541E+04  0.7818609E-02  0.8145423E-01
       -2   -1    0    0    0  501  0.00000000000E+00  0.00000000000E+00  0.11266659755E+04  0.11266659755E+04  0.25500000920E-02 0. -1.
        2   -1    0    0  501    0  0.00000000000E+00  0.00000000000E+00 -0.25193379072E+04  0.25193379072E+04  0.25500000920E-02 0.  1.
    10030    2    1    2    0    0  0.00000000000E+00  0.00000000000E+00 -0.13926719317E+04  0.36460038827E+04  0.33695413936E+04 0.  0.
        5    1    3    3  502    0  0.20775554070E+03 -0.81459305457E+03 -0.22761646138E+04  0.24264524822E+04  0.46999998093E+01 0.  1.
       -5    1    3    3    0  502 -0.20775554070E+03  0.81459305457E+03  0.88349268204E+03  0.12195514005E+04  0.46999998093E+01 0. -1.
</event>
<event>
 5   0  0.1184684E-06  0.3671171E+04  0.7818609E-02  0.8074381E-01
        2   -1    0    0  501    0  0.00000000000E+00  0.00000000000E+00  0.21040028561E+04  0.21040028561E+04  0.25500000920E-02 0.  1.
       -2   -1    0    0    0  501  0.00000000000E+00  0.00000000000E+00 -0.16014114219E+04  0.16014114219E+04  0.25500000920E-02 0. -1.
    10030    2    1    2    0    0  0.00000000000E+00  0.00000000000E+00  0.50259143422E+03  0.37054142780E+04  0.36711710423E+04 0.  0.
        4    1    3    3  502    0  0.32743376828E+03 -0.61266186183E+03 -0.14636125275E+04  0.16201020564E+04  0.12699999809E+01 0. -1.
       -4    1    3    3    0  502 -0.32743376828E+03  0.61266186183E+03  0.19662039617E+04  0.20853122216E+04  0.12699999809E+01 0.  1.
</event>
<event>
 5   0  0.1184684E-06  0.3514796E+04  0.7818609E-02  0.8110292E-01
       -2   -1    0    0    0  501  0.00000000000E+00  0.00000000000E+00  0.18628126017E+04  0.18628126017E+04  0.25500000920E-02 0. -1.
        2   -1    0    0  501    0  0.00000000000E+00  0.00000000000E+00 -0.16579488244E+04  0.16579488244E+04  0.25500000920E-02 0.  1.
    10030    2    1    2    0    0  0.00000000000E+00  0.00000000000E+00  0.20486377739E+03  0.35207614261E+04  0.35147961324E+04 0.  0.
        4    1    3    3  502    0  0.16631518406E+04 -0.36937238901E+03  0.53436709172E+03  0.17855138779E+04  0.12699999809E+01 0.  1.
       -4    1    3    3    0  502 -0.16631518406E+04  0.36937238901E+03 -0.32950331433E+03  0.17352475482E+04  0.12699999809E+01 0. -1.
</event>
<event>
 5   0  0.1184684E-06  0.3908259E+04  0.7818609E-02  0.8023314E-01
       -2   -1    0    0    0  501  0.00000000000E+00  0.00000000000E+00  0.13117404395E+04  0.13117404395E+04  0.25500000920E-02 0. -1.
        2   -1    0    0  501    0  0.00000000000E+00  0.00000000000E+00 -0.29111109595E+04  0.29111109595E+04  0.25500000920E-02 0.  1.
    10030    2    1    2    0    0  0.00000000000E+00  0.00000000000E+00 -0.15993705200E+04  0.42228513990E+04  0.39082589317E+04 0.  0.
        4    1    3    3  502    0 -0.13993104350E+04  0.54849494238E+03  0.54972360046E+03  0.16003481012E+04  0.12699999809E+01 0. -1.
       -4    1    3    3    0  502  0.13993104350E+04 -0.54849494238E+03 -0.21490941205E+04  0.26225032978E+04  0.12699999809E+01 0.  1.
</event>
<event>
 5   0  0.5875011E-07  0.2573708E+04  0.7818609E-02  0.8377187E-01
        1   -1    0    0  501    0  0.00000000000E+00  0.00000000000E+00  0.74815239030E+03  0.74815239031E+03  0.50400001928E-02 0. -1.
       -1   -1    0    0    0  501  0.00000000000E+00  0.00000000000E+00 -0.22134443214E+04  0.22134443214E+04  0.50400001928E-02 0.  1.
    10030    2    1    2    0    0  0.00000000000E+00  0.00000000000E+00 -0.14652919311E+04  0.29615967118E+04  0.25737083439E+04 0.  0.
        2    1    3    3  502    0  0.10849530673E+04  0.17248232431E+03  0.38520179344E+02  0.10992529803E+04  0.25500000920E-02 0.  1.
       -2    1    3    3    0  502 -0.10849530673E+04 -0.17248232431E+03 -0.15038121105E+04  0.18623437315E+04  0.25500000920E-02 0. -1.
</event>
<event>
 5   0  0.5875011E-07  0.3702242E+04  0.7818609E-02  0.8067465E-01
        1   -1    0    0  501    0  0.00000000000E+00  0.00000000000E+00  0.26126282869E+04  0.26126282869E+04  0.50400001928E-02 0. -1.
       -1   -1    0    0    0  501  0.00000000000E+00  0.00000000000E+00 -0.13115717452E+04  0.13115717452E+04  0.50400001928E-02 0.  1.
    10030    2    1    2    0    0  0.00000000000E+00  0.00000000000E+00  0.13010565417E+04  0.39242000321E+04  0.37022422621E+04 0.  0.
        2    1    3    3  502    0 -0.81133693135E+03 -0.16582259181E+04  0.79535293480E+03  0.20101161913E+04  0.25500000920E-02 0. -1.
       -2    1    3    3    0  502  0.81133693135E+03  0.16582259181E+04  0.50570360687E+03  0.19140838408E+04  0.25500000920E-02 0.  1.
</event>
<event>
 5   0  0.1685793E-06  0.3729956E+04  0.7818609E-02  0.8061355E-01
       -2   -1    0    0    0  501  0.00000000000E+00  0.00000000000E+00  0.28010481993E+04  0.28010481993E+04  0.25500000920E-02 0.  1.
        2   -1    0    0  501    0  0.00000000000E+00  0.00000000000E+00 -0.12417289596E+04  0.12417289596E+04  0.25500000920E-02 0. -1.
    10030    2    1    2    0    0  0.00000000000E+00  0.00000000000E+00  0.15593192397E+04  0.40427771589E+04  0.37299558530E+04 0.  0.
        3    1    3    3  502    0  0.91019388681E+03  0.46139561052E+03 -0.91228598454E+03  0.13687967522E+04  0.10100000352E+00 0. -1.
       -3    1    3    3    0  502 -0.91019388681E+03 -0.46139561052E+03  0.24716052242E+04  0.26739804067E+04  0.10100000352E+00 0.  1.
</event>
<event>
 5   0  0.6186440E-07  0.3563233E+04  0.7818609E-02  0.8098966E-01
        1   -1    0    0  501    0  0.00000000000E+00  0.00000000000E+00  0.19090389890E+04  0.19090389890E+04  0.50400001928E-02 0. -1.
       -1   -1    0    0    0  501  0.00000000000E+00  0.00000000000E+00 -0.16626991541E+04  0.16626991541E+04  0.50400001928E-02 0.  1.
    10030    2    1    2    0    0  0.00000000000E+00  0.00000000000E+00  0.24633983488E+03  0.35717381431E+04  0.35632330893E+04 0.  0.
        3    1    3    3  502    0 -0.10539963461E+04  0.10529499051E+04  0.11025104791E+04  0.18534133826E+04  0.10100000352E+00 0. -1.
       -3    1    3    3    0  502  0.10539963461E+04 -0.10529499051E+04 -0.85617064418E+03  0.17183247605E+04  0.10100000352E+00 0.  1.
</event>
<event>
 5   0  0.6186440E-07  0.2285064E+04  0.7818609E-02  0.8483834E-01
        1   -1    0    0  501    0  0.00000000000E+00  0.00000000000E+00  0.23656844749E+04  0.23656844749E+04  0.50400001928E-02 0. -1.
       -1   -1    0    0    0  501  0.00000000000E+00  0.00000000000E+00 -0.55179776488E+03  0.55179776491E+03  0.50400001928E-02 0.  1.
    10030    2    1    2    0    0  0.00000000000E+00  0.00000000000E+00  0.18138867100E+04  0.29174822398E+04  0.22850640304E+04 0.  0.
        3    1    3    3  502    0 -0.76602981365E+03 -0.10223025989E+03  0.19813416984E+04  0.21267269776E+04  0.10100000352E+00 0. -1.
       -3    1    3    3    0  502  0.76602981365E+03  0.10223025989E+03 -0.16745498831E+03  0.79075526223E+03  0.10100000352E+00 0.  1.
</event>
<event>
 5   0  0.1680194E-06  0.3758452E+04  0.7818609E-02  0.8055130E-01
        2   -1    0    0  501    0  0.00000000000E+00  0.00000000000E+00  0.25011379721E+04  0.25011379721E+04  0.25500000920E-02 0.  1.
       -2   -1    0    0    0  501  0.00000000000E+00  0.00000000000E+00 -0.14119535942E+04  0.14119535942E+04  0.25500000920E-02 0. -1.
    10030    2    1    2    0    0  0.00000000000E+00  0.00000000000E+00  0.10891843779E+04  0.39130915662E+04  0.37584522076E+04 0.  0.
        2    1    3    3  502    0  0.40926591411E+03 -0.96288813823E+03 -0.10806734755E+04  0.15041633275E+04  0.25500000920E-02 0. -1.
       -2    1    3    3    0  502 -0.40926591411E+03  0.96288813823E+03  0.21698578534E+04  0.24089282387E+04  0.25500000920E-02 0.  1.
</event>
<event>
 5   0  0.6261598E-07  0.3697007E+04  0.7818609E-02  0.8068625E-01
       -1   -1    0    0    0  501  0.00000000000E+00  0.00000000000E+00  0.32788630635E+04  0.32788630635E+04  0.50400001928E-02 0. -1.
        1   -1    0    0  501    0  0.00000000000E+00  0.00000000000E+00 -0.10421187968E+04  0.10421187968E+04  0.50400001928E-02 0.  1.
    10030    2    1    2    0    0  0.00000000000E+00  0.00000000000E+00  0.22367442666E+04  0.43209818603E+04  0.36970068059E+04 0.  0.
        1    1    3    3  502    0 -0.21242095838E+03  0.98263238008E+03  0.29314017238E+04  0.30990006654E+04  0.50400001928E-02 0. -1.
       -1    1    3    3    0  502  0.21242095838E+03 -0.98263238008E+03 -0.69465745712E+03  0.12219811949E+04  0.50400001928E-02 0.  1.
</event>
<event>
 5   0  0.1685793E-06  0.2202878E+04  0.7818609E-02  0.8517231E-01
       -2   -1    0    0    0  501  0.00000000000E+00  0.00000000000E+00  0.14818087758E+04  0.14818087758E+04  0.25500000920E-02 0.  1.
        2   -1    0    0  501    0  0.00000000000E+00  0.00000000000E+00 -0.81870775074E+03  0.81870775074E+03  0.25500000920E-02 0. -1.
    10030    2    1    2    0    0  0.00000000000E+00  0.00000000000E+00  0.66310102509E+03  0.23005165266E+04  0.22028784169E+04 0.  0.
        3    1    3    3  502    0  0.37355915603E+03  0.35974682458E+03 -0.68321983984E+03  0.85776079451E+03  0.10100000352E+00 0. -1.
       -3    1    3    3    0  502 -0.37355915603E+03 -0.35974682458E+03  0.13463208649E+04  0.14427557321E+04  0.10100000352E+00 0.  1.
</event>
<event>
 5   0  0.6287345E-07  0.2252857E+04  0.7818609E-02  0.8496744E-01
       -1   -1    0    0    0  501  0.00000000000E+00  0.00000000000E+00  0.65276971042E+03  0.65276971044E+03  0.50400001928E-02 0.  1.
        1   -1    0    0  501    0  0.00000000000E+00  0.00000000000E+00 -0.19437808323E+04  0.19437808323E+04  0.50400001928E-02 0. -1.
    10030    2    1    2    0    0  0.00000000000E+00  0.00000000000E+00 -0.12910111219E+04  0.25965505427E+04  0.22528570759E+04 0.  0.
        5    1    3    3  502    0  0.10872466414E+04  0.21218763952E+03 -0.88083740019E+03  0.14152828230E+04  0.46999998093E+01 0. -1.
       -5    1    3    3    0  502 -0.10872466414E+04 -0.21218763952E+03 -0.41017372169E+03  0.11812677197E+04  0.46999998093E+01 0.  1.
</event>
<event>
 5   0  0.1184684E-06  0.2607324E+04  0.7818609E-02  0.8365718E-01
        2   -1    0    0  501    0  0.00000000000E+00  0.00000000000E+00  0.15101069525E+04  0.15101069525E+04  0.25500000920E-02 0.  1.
       -2   -1    0    0    0  501  0.00000000000E+00  0.00000000000E+00 -0.11254402741E+04  0.11254402741E+04  0.25500000920E-02 0. -1.
    10030    2    1    2    0    0  0.00000000000E+00  0.00000000000E+00  0.38466667839E+03  0.26355472266E+04  0.26073244390E+04 0.  0.
        4    1    3    3  502    0  0.10251938228E+04  0.26935512772E+03 -0.57480116310E+03  0.12058078409E+04  0.12699999809E+01 0. -1.
       -4    1    3    3    0  502 -0.10251938228E+04 -0.26935512772E+03  0.95946784149E+03  0.14297393857E+04  0.12699999809E+01 0.  1.
</event>
<event>
 5   0  0.1184684E-06  0.2523520E+04  0.7818609E-02  0.8394654E-01
        2   -1    0    0  501    0  0.00000000000E+00  0.00000000000E+00  0.19140064255E+04  0.19140064255E+04  0.25500000920E-02 0.  1.
       -2   -1    0    0    0  501  0.00000000000E+00  0.00000000000E+00 -0.83178306642E+03  0.83178306642E+03  0.25500000920E-02 0. -1.
    10030    2    1    2    0    0  0.00000000000E+00  0.00000000000E+00  0.10822233591E+04  0.27457894919E+04  0.25235198701E+04 0.  0.
        4    1    3    3  502    0 -0.62693447051E+03  0.27626012894E+03  0.16939982356E+04  0.18272925667E+04  0.12699999809E+01 0.  1.
       -4    1    3    3    0  502  0.62693447051E+03 -0.27626012894E+03 -0.61177487654E+03  0.91849692521E+03  0.12699999809E+01 0. -1.
</event>
<event>
 5   0  0.1151180E-06  0.3496668E+04  0.7818609E-02  0.8114580E-01
        2   -1    0    0  501    0  0.00000000000E+00  0.00000000000E+00  0.18216493970E+04  0.18216493970E+04  0.25500000920E-02 0. -1.
       -2   -1    0    0    0  501  0.00000000000E+00  0.00000000000E+00 -0.16779693175E+04  0.16779693175E+04  0.25500000920E-02 0.  1.
    10030    2    1    2    0    0  0.00000000000E+00  0.00000000000E+00  0.14368007948E+03  0.34996187146E+04  0.34966680114E+04 0.  0.
        5    1    3    3  502    0 -0.50298857783E+03 -0.12022573157E+04 -0.10945744771E+04  0.17019211317E+04  0.46999998093E+01 0.  1.
       -5    1    3    3    0  502  0.50298857783E+03  0.12022573157E+04  0.12382545566E+04  0.17976975829E+04  0.46999998093E+01 0. -1.
</event>
<event>
 5   0  0.1184684E-06  0.2548178E+04  0.7818609E-02  0.8386020E-01
       -2   -1    0    0    0  501  0.00000000000E+00  0.00000000000E+00  0.92983148672E+03  0.92983148672E+03  0.25500000920E-02 0. -1.
        2   -1    0    0  501    0  0.00000000000E+00  0.00000000000E+00 -0.17458027372E+04  0.17458027372E+04  0.25500000920E-02 0.  1.
    10030    2    1    2    0    0  0.00000000000E+00  0.00000000000E+00 -0.81597125052E+03  0.26756342240E+04  0.25481776663E+04 0.  0.
        4    1    3    3  502    0 -0.66231085229E+03  0.10771036515E+04 -0.57231540062E+03  0.13879317245E+04  0.12699999809E+01 0. -1.
       -4    1    3    3    0  502  0.66231085229E+03 -0.10771036515E+04 -0.24365584991E+03  0.12877024995E+04  0.12699999809E+01 0.  1.
</event>
<event>
 5   0  0.6287345E-07  0.3769210E+04  0.7818609E-02  0.8052795E-01
       -1   -1    0    0    0  501  0.00000000000E+00  0.00000000000E+00  0.20391865434E+04  0.20391865434E+04  0.50400001928E-02 0. -1.
        1   -1    0    0  501    0  0.00000000000E+00  0.00000000000E+00 -0.17417413229E+04  0.17417413229E+04  0.50400001928E-02 0.  1.
    10030    2    1    2    0    0  0.00000000000E+00  0.00000000000E+00  0.29744522049E+03  0.37809278663E+04  0.37692097143E+04 0.  0.
        5    1    3    3  502    0  0.15474474349E+04 -0.77288279561E+03  0.89922775705E+03  0.19495060986E+04  0.46999998093E+01 0. -1.
       -5    1    3    3    0  502 -0.15474474349E+04  0.77288279561E+03 -0.60178253657E+03  0.18314217676E+04  0.46999998093E+01 0.  1.
</event>
<event>
 5   0  0.5679750E-07  0.1980680E+04  0.7818609E-02  0.8615707E-01
        3   -1    0    0  501    0  0.00000000000E+00  0.00000000000E+00  0.61736608851E+03  0.61736609677E+03  0.10100000352E+00 0. -1.
       -3   -1    0    0    0  501  0.00000000000E+00  0.00000000000E+00 -0.15886418711E+04  0.15886418744E+04  0.10100000352E+00 0.  1.
    10030    2    1    2    0    0  0.00000000000E+00  0.00000000000E+00 -0.97127578264E+03  0.22060079711E+04  0.19806803182E+04 0.  0.
        3    1    3    3  502    0  0.72087465173E+02 -0.98714154368E+03 -0.44822158572E+03  0.10865300870E+04  0.10100000352E+00 0.  1.
       -3    1    3    3    0  502 -0.72087465173E+02  0.98714154368E+03 -0.52305419692E+03  0.11194778841E+04  0.10100000352E+00 0. -1.
</event>
<event>
 5   0  0.5679750E-07  0.3242759E+04  0.7818609E-02  0.8177615E-01
       -1   -1    0    0    0  501  0.00000000000E+00  0.00000000000E+00  0.14301641284E+04  0.14301641284E+04  0.50400001928E-02 0.  1.
        1   -1    0    0  501    0  0.00000000000E+00  0.00000000000E+00 -0.18381606491E+04  0.18381606491E+04  0.50400001928E-02 0. -1.
    10030    2    1    2    0    0  0.00000000000E+00  0.00000000000E+00 -0.40799652072E+03  0.32683247775E+04  0.32427589627E+04 0.  0.
        4    1    3    3  502    0  0.15114356285E+03 -0.15750833620E+04 -0.56053546710E+03  0.16786701870E+04  0.12699999809E+01 0. -1.
       -4    1    3    3    0  502 -0.15114356285E+03  0.15750833620E+04  0.15253894638E+03  0.15896545905E+04  0.12699999809E+01 0.  1.
</event>
<event>
 5   0  0.6186440E-07  0.3495855E+04  0.7818609E-02  0.8114773E-01
        1   -1    0    0  501    0  0.00000000000E+00  0.00000000000E+00  0.15077943726E+04  0.15077943726E+04  0.50400001928E-02 0.  1.
       -1   -1    0    0    0  501  0.00000000000E+00  0.00000000000E+00 -0.20263046808E+04  0.20263046808E+04  0.50400001928E-02 0. -1.
    10030    2    1    2    0    0  0.00000000000E+00  0.00000000000E+00 -0.51851030824E+03  0.35340990534E+04  0.34958551428E+04 0.  0.
        3    1    3    3  502    0 -0.15583307085E+04  0.34840025722E+03  0.45948922782E+03  0.16615979348E+04  0.10100000352E+00 0.  1.
       -3    1    3    3    0  502  0.15583307085E+04 -0.34840025722E+03 -0.97799953606E+03  0.18725011186E+04  0.10100000352E+00 0. -1.
</event>
<event>
 5   0  0.1184684E-06  0.3674328E+04  0.7818609E-02  0.8073675E-01
        2   -1    0    0  501    0  0.00000000000E+00  0.00000000000E+00  0.15946994047E+04  0.15946994047E+04  0.25500000920E-02 0. -1.
       -2   -1    0    0    0  501  0.00000000000E+00  0.00000000000E+00 -0.21164934455E+04  0.21164934455E+04  0.25500000920E-02 0.  1.
    10030    2    1    2    0    0  0.00000000000E+00  0.00000000000E+00 -0.52179404083E+03  0.37111928502E+04  0.36743276052E+04 0.  0.
        4    1    3    3  502    0  0.12586040996E+04 -0.52634700796E+03  0.98191333363E+03  0.16808571801E+04  0.12699999809E+01 0. -1.
       -4    1    3    3    0  502 -0.12586040996E+04  0.52634700796E+03 -0.15037073745E+04  0.20303356701E+04  0.12699999809E+01 0.  1.
</event>
<event>
 5   0  0.6186440E-07  0.3565823E+04  0.7818609E-02  0.8098366E-01
        1   -1    0    0  501    0  0.00000000000E+00  0.00000000000E+00  0.19606972254E+04  0.19606972255E+04  0.50400001928E-02 0.  1.
       -1   -1    0    0    0  501  0.00000000000E+00  0.00000000000E+00 -0.16212463961E+04  0.16212463961E+04  0.50400001928E-02 0. -1.
    10030    2    1    2    0    0  0.00000000000E+00  0.00000000000E+00  0.33945082935E+03  0.35819436216E+04  0.35658229404E+04 0.  0.
        3    1    3    3  502    0  0.13463752244E+04  0.50368161571E+03 -0.88972361846E+03  0.16905707741E+04  0.10100000352E+00 0. -1.
       -3    1    3    3    0  502 -0.13463752244E+04 -0.50368161571E+03  0.12291744478E+04  0.18913728475E+04  0.10100000352E+00 0.  1.
</event>
<event>
 5   0  0.6261598E-07  0.3674788E+04  0.7818609E-02  0.8073572E-01
       -1   -1    0    0    0  501  0.00000000000E+00  0.00000000000E+00  0.19139959453E+04  0.19139959453E+04  0.50400001928E-02 0.  1.
        1   -1    0    0  501    0  0.00000000000E+00  0.00000000000E+00 -0.17638574909E+04  0.17638574909E+04  0.50400001928E-02 0. -1.
    10030    2    1    2    0    0  0.00000000000E+00  0.00000000000E+00  0.15013845442E+03  0.36778534362E+04  0.36747876596E+04 0.  0.
        1    1    3    3  502    0 -0.44457846898E+03 -0.10018885204E+04 -0.14008086042E+04  0.17786779833E+04  0.50400001928E-02 0. -1.
       -1    1    3    3    0  502  0.44457846898E+03  0.10018885204E+04  0.15509470586E+04  0.18991754530E+04  0.50400001928E-02 0.  1.
</event>
<event>
 5   0  0.5875011E-07  0.2177267E+04  0.7818609E-02  0.8527950E-01
        1   -1    0    0  501    0  0.00000000000E+00  0.00000000000E+00  0.15485884533E+04  0.15485884533E+04  0.50400001928E-02 0.  1.
       -1   -1    0    0    0  501  0.00000000000E+00  0.00000000000E+00 -0.76529242246E+03  0.76529242247E+03  0.50400001928E-02 0. -1.
    10030    2    1    2    0    0  0.00000000000E+00  0.00000000000E+00  0.78329603081E+03  0.23138808757E+04  0.21772671024E+04 0.  0.
        2    1    3    3  502    0 -0.89135288227E+03 -0.48598541797E+03  0.80928296904E+03  0.12983184167E+04  0.25500000920E-02 0.  1.
       -2    1    3    3    0  502  0.89135288227E+03  0.48598541797E+03 -0.25986938228E+02  0.10155624590E+04  0.25500000920E-02 0. -1.
</event>
<event>
 5   0  0.1685793E-06  0.3145934E+04  0.7818609E-02  0.8203244E-01
        2   -1    0    0  501    0  0.00000000000E+00  0.00000000000E+00  0.12503747879E+04  0.12503747879E+04  0.25500000920E-02 0. -1.
       -2   -1    0    0    0  501  0.00000000000E+00  0.00000000000E+00 -0.19787864825E+04  0.19787864825E+04  0.25500000920E-02 0.  1.
    10030    2    1    2    0    0  0.00000000000E+00  0.00000000000E+00 -0.72841169465E+03  0.32291612704E+04  0.31459337109E+04 0.  0.
        3    1    3    3  502    0  0.26109307612E+03 -0.89742352377E+03  0.93444756332E+03  0.13216394494E+04  0.10100000352E+00 0. -1.
       -3    1    3    3    0  502 -0.26109307612E+03  0.89742352377E+03 -0.16628592580E+04  0.19075218210E+04  0.10100000352E+00 0.  1.
</event>
<event>
 5   0  0.1724503E-06  0.3844051E+04  0.7818609E-02  0.8036767E-01
       -2   -1    0    0    0  501  0.00000000000E+00  0.00000000000E+00  0.14593735515E+04  0.14593735515E+04  0.25500000920E-02 0.  1.
        2   -1    0    0  501    0  0.00000000000E+00  0.00000000000E+00 -0.25313477109E+04  0.25313477109E+04  0.25500000920E-02 0. -1.
    10030    2    1    2    0    0  0.00000000000E+00  0.00000000000E+00 -0.10719741595E+04  0.39907212624E+04  0.38440509356E+04 0.  0.
        1    1    3    3  502    0  0.99712721486E+03 -0.14573927291E+04  0.25186642551E+03  0.17837300653E+04  0.50400001928E-02 0.  1.
       -1    1    3    3    0  502 -0.99712721486E+03  0.14573927291E+04 -0.13238405850E+04  0.22069911971E+04  0.50400001928E-02 0. -1.
</event>
<event>
 5   0  0.1151180E-06  0.3758278E+04  0.7818609E-02  0.8055168E-01
        2   -1    0    0  501    0  0.00000000000E+00  0.00000000000E+00  0.24340400222E+04  0.24340400222E+04  0.25500000920E-02 0. -1.
       -2   -1    0    0    0  501  0.00000000000E+00  0.00000000000E+00 -0.14507416418E+04  0.14507416418E+04  0.25500000920E-02 0.  1.
    10030    2    1    2    0    0  0.00000000000E+00  0.00000000000E+00  0.98329838040E+03  0.38847816640E+04  0.37582779131E+04 0.  0.
        5    1    3    3  502    0 -0.77977547403E+02  0.47797558610E+03  0.23684183085E+04  0.24174301506E+04  0.46999998093E+01 0. -1.
       -5    1    3    3    0  502  0.77977547403E+02 -0.47797558610E+03 -0.13851199281E+04  0.14673515135E+04  0.46999998093E+01 0.  1.
</event>
<event>
 5   0  0.6186440E-07  0.3694202E+04  0.7818609E-02  0.8069248E-01
        1   -1    0    0  501    0  0.00000000000E+00  0.00000000000E+00  0.24889242029E+04  0.24889242029E+04  0.50400001928E-02 0. -1.
       -1   -1    0    0    0  501  0.00000000000E+00  0.00000000000E+00 -0.13707860950E+04  0.13707860950E+04  0.50400001928E-02 0.  1.
    10030    2    1    2    0    0  0.00000000000E+00  0.00000000000E+00  0.11181381079E+04  0.38597102980E+04  0.36942023166E+04 0.  0.
        3    1    3    3  502    0  0.84903168402E+03 -0.59985709179E+03  0.21542664195E+04  0.23919755742E+04  0.10100000352E+00 0. -1.
       -3    1    3    3    0  502 -0.84903168402E+03  0.59985709179E+03 -0.10361283116E+04  0.14677347238E+04  0.10100000352E+00 0.  1.
</event>
<event>
 5   0  0.1685793E-06  0.3521705E+04  0.7818609E-02  0.8108665E-01
        2   -1    0    0  501    0  0.00000000000E+00  0.00000000000E+00  0.24258352511E+04  0.24258352511E+04  0.25500000920E-02 0. -1.
       -2   -1    0    0    0  501  0.00000000000E+00  0.00000000000E+00 -0.12781585229E+04  0.12781585229E+04  0.25500000920E-02 0.  1.
    10030    2    1    2    0    0  0.00000000000E+00  0.00000000000E+00  0.11476767282E+04  0.37039937740E+04  0.35217052695E+04 0.  0.
        3    1    3    3  502    0  0.18477202988E+03 -0.72240776010E+03 -0.11039068368E+04  0.13321501377E+04  0.10100000352E+00 0.  1.
       -3    1    3    3    0  502 -0.18477202988E+03  0.72240776010E+03  0.22515835650E+04  0.23718436363E+04  0.10100000352E+00 0. -1.
</event>
<event>
 5   0  0.1724503E-06  0.2244372E+04  0.7818609E-02  0.8500183E-01
       -2   -1    0    0    0  501  0.00000000000E+00  0.00000000000E+00  0.88554506129E+03  0.88554506130E+03  0.25500000920E-02 0. -1.
        2   -1    0    0  501    0  0.00000000000E+00  0.00000000000E+00 -0.14220638928E+04  0.14220638928E+04  0.25500000920E-02 0.  1.
    10030    2    1    2    0    0  0.00000000000E+00  0.00000000000E+00 -0.53651883148E+03  0.23076089541E+04  0.22443722125E+04 0.  0.
        1    1    3    3  502    0  0.14180687131E+03  0.56330894104E+03 -0.12554556049E+04  0.13833274839E+04  0.50400001928E-02 0.  1.
       -1    1    3    3    0  502 -0.14180687131E+03 -0.56330894104E+03  0.71893677345E+03  0.92428147014E+03  0.50400001928E-02 0. -1.
</event>
<event>
 5   0  0.6287345E-07  0.2130640E+04  0.7818609E-02  0.8547865E-01
       -1   -1    0    0    0  501  0.00000000000E+00  0.00000000000E+00  0.57854031887E+03  0.57854031889E+03  0.50400001928E-02 0. -1.
        1   -1    0    0  501    0  0.00000000000E+00  0.00000000000E+00 -0.19616728875E+04  0.19616728875E+04  0.50400001928E-02 0.  1.
    10030    2    1    2    0    0  0.00000000000E+00  0.00000000000E+00 -0.13831325686E+04  0.25402132064E+04  0.21306401459E+04 0.  0.
        5    1    3    3  502    0 -0.34837782102E+03 -0.37396443866E+03  0.42281380249E+03  0.66333257808E+03  0.46999998093E+01 0. -1.
       -5    1    3    3    0  502  0.34837782102E+03  0.37396443866E+03 -0.18059463711E+04  0.18768806283E+04  0.46999998093E+01 0.  1.
</event>
<event>
 5   0  0.7672582E-07  0.1971161E+04  0.7818609E-02  0.8620224E-01
       -1   -1    0    0    0  501  0.00000000000E+00  0.00000000000E+00  0.54249652843E+03  0.54249652845E+03  0.50400001928E-02 0.  1.
        1   -1    0    0  501    0  0.00000000000E+00  0.00000000000E+00 -0.17905526577E+04  0.17905526577E+04  0.50400001928E-02 0. -1.
    10030    2    1    2    0    0  0.00000000000E+00  0.00000000000E+00 -0.12480561293E+04  0.23330491862E+04  0.19711606741E+04 0.  0.
        3    1    3    3  502    0  0.19499078642E+03 -0.91245980309E+03 -0.24831595194E+03  0.96553877252E+03  0.10100000352E+00 0. -1.
       -3    1    3    3    0  502 -0.19499078642E+03  0.91245980309E+03 -0.99974017732E+03  0.13675104136E+04  0.10100000352E+00 0.  1.
</event>
<event>
 5   0  0.1151180E-06  0.3660499E+04  0.7818609E-02  0.8076773E-01
        2   -1    0    0  501    0  0.00000000000E+00  0.00000000000E+00  0.15324493567E+04  0.15324493567E+04  0.25500000920E-02 0.  1.
       -2   -1    0    0    0  501  0.00000000000E+00  0.00000000000E+00 -0.21859208641E+04  0.21859208641E+04  0.25500000920E-02 0. -1.
    10030    2    1    2    0    0  0.00000000000E+00  0.00000000000E+00 -0.65347150733E+03  0.37183702208E+04  0.36604988851E+04 0.  0.
        5    1    3    3  502    0  0.13537384988E+04  0.12298809377E+04 -0.39545051449E+03  0.18712611372E+04  0.46999998093E+01 0.  1.
       -5    1    3    3    0  502 -0.13537384988E+04 -0.12298809377E+04 -0.25802099284E+03  0.18471090836E+04  0.46999998093E+01 0. -1.
</event>
<event>
 5   0  0.6186440E-07  0.3728795E+04  0.7818609E-02  0.8061610E-01
       -1   -1    0    0    0  501  0.00000000000E+00  0.00000000000E+00  0.12310869481E+04  0.12310869481E+04  0.50400001928E-02 0.  1.
        1   -1    0    0  501    0  0.00000000000E+00  0.00000000000E+00 -0.28235040047E+04  0.28235040047E+04  0.50400001928E-02 0. -1.
    10030    2    1    2    0    0  0.00000000000E+00  0.00000000000E+00 -0.15924170567E+04  0.40545909528E+04  0.37287954774E+04 0.  0.
        3    1    3    3  502    0  0.42109954905E+03 -0.13308831250E+04  0.54765594616E+03  0.14995005062E+04  0.10100000352E+00 0.  1.
       -3    1    3    3    0  502 -0.42109954905E+03  0.13308831250E+04 -0.21400730028E+04  0.25550904466E+04  0.10100000352E+00 0. -1.
</event>
<event>
 5   0  0.1151180E-06  0.2598538E+04  0.7818609E-02  0.8368698E-01
        2   -1    0    0  501    0  0.00000000000E+00  0.00000000000E+00  0.32564522238E+04  0.32564522238E+04  0.25500000920E-02 0.  1.
       -2   -1    0    0    0  501  0.00000000000E+00  0.00000000000E+00 -0.51838624743E+03  0.51838624744E+03  0.25500000920E-02 0. -1.
    10030    2    1    2    0    0  0.00000000000E+00  0.00000000000E+00  0.27380659763E+04  0.37748384712E+04  0.25985380876E+04 0.  0.
        5    1    3    3  502    0 -0.12362244750E+04  0.17756774326E+03  0.18893607909E+04  0.22648372004E+04  0.46999998093E+01 0.  1.
       -5    1    3    3    0  502  0.12362244750E+04 -0.17756774326E+03  0.84870518547E+03  0.15100012708E+04  0.46999998093E+01 0. -1.
</event>
<event>
 5   0  0.6186440E-07  0.3734542E+04  0.7818609E-02  0.8060350E-01
       -1   -1    0    0    0  501  0.00000000000E+00  0.00000000000E+00  0.20427579511E+04  0.20427579511E+04  0.50400001928E-02 0. -1.
        1   -1    0    0  501    0  0.00000000000E+00  0.00000000000E+00 -0.17068595450E+04  0.17068595450E+04  0.50400001928E-02 0.  1.
    10030    2    1    2    0    0  0.00000000000E+00  0.00000000000E+00  0.33589840615E+03  0.37496174961E+04  0.37345419569E+04 0.  0.
        3    1    3    3  502    0  0.25274615510E+03  0.13313405680E+04 -0.11218971820E+04  0.17592616701E+04  0.10100000352E+00 0.  1.
       -3    1    3    3    0  502 -0.25274615510E+03 -0.13313405680E+04  0.14577955881E+04  0.19903558259E+04  0.10100000352E+00 0. -1.
</event>
<event>
 5   0  0.1151180E-06  0.3179058E+04  0.7818609E-02  0.8194370E-01
       -2   -1    0    0    0  501  0.00000000000E+00  0.00000000000E+00  0.90027213063E+03  0.90027213063E+03  0.25500000920E-02 0. -1.
        2   -1    0    0  501    0  0.00000000000E+00  0.00000000000E+00 -0.28064879402E+04  0.28064879402E+04  0.25500000920E-02 0.  1.
    10030    2    1    2    0    0  0.00000000000E+00  0.00000000000E+00 -0.19062158095E+04  0.37067600708E+04  0.31790582741E+04 0.  0.
        5    1    3    3  502    0 -0.12639171514E+04  0.48491114079E+03  0.18210838775E+02  0.13538755869E+04  0.46999998093E+01 0. -1.
       -5    1    3    3    0  502  0.12639171514E+04 -0.48491114079E+03 -0.19244266483E+04  0.23528844839E+04  0.46999998093E+01 0.  1.
</event>
<event>
 5   0  0.1685793E-06  0.3777659E+04  0.7818609E-02  0.8050966E-01
        2   -1    0    0  501    0  0.00000000000E+00  0.00000000000E+00  0.25766214559E+04  0.25766214559E+04  0.25500000920E-02 0. -1.
       -2   -1    0    0    0  501  0.00000000000E+00  0.00000000000E+00 -0.13846333850E+04  0.13846333850E+04  0.25500000920E-02 0.  1.
    10030    2    1    2    0    0  0.00000000000E+00  0.00000000000E+00  0.11919880709E+04  0.39612548410E+04  0.37776585809E+04 0.  0.
        3    1    3    3  502    0 -0.82333585198E+03 -0.12350576361E+04  0.18208504961E+04  0.23492011044E+04  0.10100000352E+00 0. -1.
       -3    1    3    3    0  502  0.82333585198E+03  0.12350576361E+04 -0.62886242517E+03  0.16120537366E+04  0.10100000352E+00 0.  1.
</event>
<event>
 5   0  0.1680194E-06  0.3668726E+04  0.7818609E-02  0.8074928E-01
        2   -1    0    0  501    0  0.00000000000E+00  0.00000000000E+00  0.18378451984E+04  0.18378451984E+04  0.25500000920E-02 0. -1.
       -2   -1    0    0    0  501  0.00000000000E+00  0.00000000000E+00 -0.18308871271E+04  0.18308871271E+04  0.25500000920E-02 0.  1.
    10030    2    1    2    0    0  0.00000000000E+00  0.00000000000E+00  0.69580713020E+01  0.36687323254E+04  0.36687257271E+04 0.  0.
        2    1    3    3  502    0  0.99734245961E+03  0.12261467849E+04 -0.92752166959E+03  0.18326004386E+04  0.25500000920E-02 0.  1.
       -2    1    3    3    0  502 -0.99734245961E+03 -0.12261467849E+04  0.93447974089E+03  0.18361318869E+04  0.25500000920E-02 0. -1.
</event>
<event>
 5   0  0.1184684E-06  0.3750681E+04  0.7818609E-02  0.8056822E-01
        2   -1    0    0  501    0  0.00000000000E+00  0.00000000000E+00  0.18485484908E+04  0.18485484908E+04  0.25500000920E-02 0.  1.
       -2   -1    0    0    0  501  0.00000000000E+00  0.00000000000E+00 -0.19025210725E+04  0.19025210726E+04  0.25500000920E-02 0. -1.
    10030    2    1    2    0    0  0.00000000000E+00  0.00000000000E+00 -0.53972581789E+02  0.37510695633E+04  0.37506812487E+04 0.  0.
        4    1    3    3  502    0  0.17298230090E+01  0.57290645759E+03 -0.18128576008E+04  0.19012309421E+04  0.12699999809E+01 0. -1.
       -4    1    3    3    0  502 -0.17298230090E+01 -0.57290645759E+03  0.17588850190E+04  0.18498386212E+04  0.12699999809E+01 0.  1.
</event>
<event>
 5   0  0.1151180E-06  0.3774711E+04  0.7818609E-02  0.8051604E-01
       -2   -1    0    0    0  501  0.00000000000E+00  0.00000000000E+00  0.20113595578E+04  0.20113595578E+04  0.25500000920E-02 0. -1.
        2   -1    0    0  501    0  0.00000000000E+00  0.00000000000E+00 -0.17709966774E+04  0.17709966774E+04  0.25500000920E-02 0.  1.
    10030    2    1    2    0    0  0.00000000000E+00  0.00000000000E+00  0.24036288037E+03  0.37823562352E+04  0.37747111645E+04 0.  0.
        5    1    3    3  502    0 -0.10989714941E+04  0.15047713136E+04 -0.18044946277E+03  0.18720734894E+04  0.46999998093E+01 0. -1.
       -5    1    3    3    0  502  0.10989714941E+04 -0.15047713136E+04  0.42081234314E+03  0.19102827458E+04  0.46999998093E+01 0.  1.
</event>
<event>
 5   0  0.1184684E-06  0.3750858E+04  0.7818609E-02  0.8056784E-01
        2   -1    0    0  501    0  0.00000000000E+00  0.00000000000E+00  0.17661762666E+04  0.17661762666E+04  0.25500000920E-02 0.  1.
       -2   -1    0    0    0  501  0.00000000000E+00  0.00000000000E+00 -0.19914404560E+04  0.19914404560E+04  0.25500000920E-02 0. -1.
    10030    2    1    2    0    0  0.00000000000E+00  0.00000000000E+00 -0.22526418939E+03  0.37576167227E+04  0.37508584990E+04 0.  0.
        4    1    3    3  502    0 -0.24095225322E+03 -0.12226555062E+04 -0.15166882165E+04  0.19629796826E+04  0.12699999809E+01 0. -1.
       -4    1    3    3    0  502  0.24095225322E+03  0.12226555062E+04  0.12914240271E+04  0.17946370401E+04  0.12699999809E+01 0.  1.
</event>
<event>
 5   0  0.5679750E-07  0.3723758E+04  0.7818609E-02  0.8062717E-01
       -1   -1    0    0    0  501  0.00000000000E+00  0.00000000000E+00  0.13075074909E+04  0.13075074909E+04  0.50400001928E-02 0. -1.
        1   -1    0    0  501    0  0.00000000000E+00  0.00000000000E+00 -0.26512997769E+04  0.26512997769E+04  0.50400001928E-02 0.  1.
    10030    2    1    2    0    0  0.00000000000E+00  0.00000000000E+00 -0.13437922860E+04  0.39588072679E+04  0.37237584879E+04 0.  0.
        4    1    3    3  502    0  0.10138332540E+04 -0.98651137974E+03 -0.19589011294E+04  0.24162694008E+04  0.12699999809E+01 0.  1.
       -4    1    3    3    0  502 -0.10138332540E+04  0.98651137974E+03  0.61510884340E+03  0.15425378671E+04  0.12699999809E+01 0. -1.
</event>
<event>
 5   0  0.5875011E-07  0.3698110E+04  0.7818609E-02  0.8068381E-01
        1   -1    0    0  501    0  0.00000000000E+00  0.00000000000E+00  0.27421069426E+04  0.27421069426E+04  0.50400001928E-02 0.  1.
       -1   -1    0    0    0  501  0.00000000000E+00  0.00000000000E+00 -0.12468529679E+04  0.12468529679E+04  0.50400001928E-02 0. -1.
    10030    2    1    2    0    0  0.00000000000E+00  0.00000000000E+00  0.14952539747E+04  0.39889599105E+04  0.36981098846E+04 0.  0.
        2    1    3    3  502    0  0.11191144387E+04  0.67448105170E+03 -0.66357412723E+03  0.14654939230E+04  0.25500000920E-02 0. -1.
       -2    1    3    3    0  502 -0.11191144387E+04 -0.67448105170E+03  0.21588281020E+04  0.25234659875E+04  0.25500000920E-02 0.  1.
</event>
<event>
 5   0  0.1724503E-06  0.3675950E+04  0.7818609E-02  0.8073313E-01
        2   -1    0    0  501    0  0.00000000000E+00  0.00000000000E+00  0.25807508874E+04  0.25807508874E+04  0.25500000920E-02 0. -1.
       -2   -1    0    0    0  501  0.00000000000E+00  0.00000000000E+00 -0.13089802384E+04  0.13089802384E+04  0.25500000920E-02 0.  1.
    10030    2    1    2    0    0  0.00000000000E+00  0.00000000000E+00  0.12717706489E+04  0.38897311258E+04  0.36759498973E+04 0.  0.
        1    1    3    3  502    0 -0.50964047119E+03  0.77878471614E+03  0.23129595487E+04  0.24931949218E+04  0.50400001928E-02 0. -1.
       -1    1    3    3    0  502  0.50964047119E+03 -0.77878471614E+03 -0.10411888998E+04  0.13965362040E+04  0.50400001928E-02 0.  1.
</event>
<event>
 5   0  0.6186440E-07  0.2569220E+04  0.7818609E-02  0.8378732E-01
       -1   -1    0    0    0  501  0.00000000000E+00  0.00000000000E+00  0.79815723780E+03  0.79815723782E+03  0.50400001928E-02 0.  1.
        1   -1    0    0  501    0  0.00000000000E+00  0.00000000000E+00 -0.20675407965E+04  0.20675407965E+04  0.50400001928E-02 0. -1.
    10030    2    1    2    0    0  0.00000000000E+00  0.00000000000E+00 -0.12693835587E+04  0.28656980343E+04  0.25692198436E+04 0.  0.
        3    1    3    3  502    0 -0.33935003821E+03  0.59853812695E+03 -0.18446865581E+04  0.19688257530E+04  0.10100000352E+00 0. -1.
       -3    1    3    3    0  502  0.33935003821E+03 -0.59853812695E+03  0.57530299935E+03  0.89687228138E+03  0.10100000352E+00 0.  1.
</event>
<event>
 5   0  0.1685793E-06  0.2782797E+04  0.7818609E-02  0.8308629E-01
       -2   -1    0    0    0  501  0.00000000000E+00  0.00000000000E+00  0.96975042293E+03  0.96975042293E+03  0.25500000920E-02 0.  1.
        2   -1    0    0  501    0  0.00000000000E+00  0.00000000000E+00 -0.19963793031E+04  0.19963793031E+04  0.25500000920E-02 0. -1.
    10030    2    1    2    0    0  0.00000000000E+00  0.00000000000E+00 -0.10266288802E+04  0.29661297261E+04  0.27827969193E+04 0.  0.
        3    1    3    3  502    0 -0.98394890235E+03  0.85468395573E+03  0.59670470736E+01  0.13033325448E+04  0.10100000352E+00 0.  1.
       -3    1    3    3    0  502  0.98394890235E+03 -0.85468395573E+03 -0.10325959273E+04  0.16627971812E+04  0.10100000352E+00 0. -1.
</event>
<event>
 5   0  0.6287345E-07  0.2124258E+04  0.7818609E-02  0.8550632E-01
        1   -1    0    0  501    0  0.00000000000E+00  0.00000000000E+00  0.88523375869E+03  0.88523375871E+03  0.50400001928E-02 0.  1.
       -1   -1    0    0    0  501  0.00000000000E+00  0.00000000000E+00 -0.12743725324E+04  0.12743725325E+04  0.50400001928E-02 0. -1.
    10030    2    1    2    0    0  0.00000000000E+00  0.00000000000E+00 -0.38913877375E+03  0.21596062912E+04  0.21242575992E+04 0.  0.
        5    1    3    3  502    0 -0.11487972090E+02 -0.10589004305E+04 -0.27774401164E+03  0.10947903549E+04  0.46999998093E+01 0. -1.
       -5    1    3    3    0  502  0.11487972090E+02  0.10589004305E+04 -0.11139476211E+03  0.10648159363E+04  0.46999998093E+01 0.  1.
</event>
<event>
 5   0  0.5875011E-07  0.3747642E+04  0.7818609E-02  0.8057485E-01
        1   -1    0    0  501    0  0.00000000000E+00  0.00000000000E+00  0.19796522421E+04  0.19796522421E+04  0.50400001928E-02 0. -1.
       -1   -1    0    0    0  501  0.00000000000E+00  0.00000000000E+00 -0.17736474801E+04  0.17736474801E+04  0.50400001928E-02 0.  1.
    10030    2    1    2    0    0  0.00000000000E+00  0.00000000000E+00  0.20600476197E+03  0.37532997223E+04  0.37476420378E+04 0.  0.
        2    1    3    3  502    0 -0.15388279864E+04 -0.10675006233E+04  0.16355901270E+03  0.18799735910E+04  0.25500000920E-02 0.  1.
       -2    1    3    3    0  502  0.15388279864E+04  0.10675006233E+04  0.42445749271E+02  0.18733261312E+04  0.25500000920E-02 0. -1.
</event>
<event>
 5   0  0.6186440E-07  0.3619518E+04  0.7818609E-02  0.8086036E-01
       -1   -1    0    0    0  501  0.00000000000E+00  0.00000000000E+00  0.19810052161E+04  0.19810052161E+04  0.50400001928E-02 0. -1.
        1   -1    0    0  501    0  0.00000000000E+00  0.00000000000E+00 -0.16533155862E+04  0.16533155862E+04  0.50400001928E-02 0.  1.
    10030    2    1    2    0    0  0.00000000000E+00  0.00000000000E+00  0.32768962998E+03  0.36343208023E+04  0.36195175370E+04 0.  0.
        3    1    3    3  502    0 -0.17702911093E+04  0.36585752174E+02 -0.21179438978E+03  0.17832907791E+04  0.10100000352E+00 0. -1.
       -3    1    3    3    0  502  0.17702911093E+04 -0.36585752174E+02  0.53948401976E+03  0.18510300232E+04  0.10100000352E+00 0.  1.
</event>
<event>
 5   0  0.1879229E-06  0.1975491E+04  0.7818609E-02  0.8618166E-01
       -2   -1    0    0    0  501  0.00000000000E+00  0.00000000000E+00  0.61331208435E+03  0.61331208435E+03  0.25500000920E-02 0.  1.
        2   -1    0    0  501    0  0.00000000000E+00  0.00000000000E+00 -0.15907746006E+04  0.15907746006E+04  0.25500000920E-02 0. -1.
    10030    2    1    2    0    0  0.00000000000E+00  0.00000000000E+00 -0.97746251622E+03  0.22040866849E+04  0.19754911146E+04 0.  0.
        3    1    3    3  502    0  0.69427305254E+03  0.63054042403E+03 -0.14295838311E+03  0.94870090509E+03  0.10100000352E+00 0.  1.
       -3    1    3    3    0  502 -0.69427305254E+03 -0.63054042403E+03 -0.83450413311E+03  0.12553857798E+04  0.10100000352E+00 0. -1.
</event>
<event>
 5   0  0.5679750E-07  0.3724593E+04  0.7818609E-02  0.8062533E-01
       -1   -1    0    0    0  501  0.00000000000E+00  0.00000000000E+00  0.16751455260E+04  0.16751455260E+04  0.50400001928E-02 0.  1.
        1   -1    0    0  501    0  0.00000000000E+00  0.00000000000E+00 -0.20703568582E+04  0.20703568582E+04  0.50400001928E-02 0. -1.
    10030    2    1    2    0    0  0.00000000000E+00  0.00000000000E+00 -0.39521133225E+03  0.37455023842E+04  0.37245934158E+04 0.  0.
        4    1    3    3  502    0 -0.99978338596E+03 -0.15457553232E+04  0.85436786480E+02  0.18428856165E+04  0.12699999809E+01 0. -1.
       -4    1    3    3    0  502  0.99978338596E+03  0.15457553232E+04 -0.48064811873E+03  0.19026167677E+04  0.12699999809E+01 0.  1.
</event>
<event>
 5   0  0.1151180E-06  0.3763293E+04  0.7818609E-02  0.8054078E-01
       -2   -1    0    0    0  501  0.00000000000E+00  0.00000000000E+00  0.28379361827E+04  0.28379361827E+04  0.25500000920E-02 0.  1.
        2   -1    0    0  501    0  0.00000000000E+00  0.00000000000E+00 -0.12475944813E+04  0.12475944813E+04  0.25500000920E-02 0. -1.
    10030    2    1    2    0    0  0.00000000000E+00  0.00000000000E+00  0.15903417014E+04  0.40855306640E+04  0.37632929835E+04 0.  0.
        5    1    3    3  502    0 -0.13739988352E+04 -0.58209178970E+03  0.20395601700E+04  0.25271587658E+04  0.46999998093E+01 0.  1.
       -5    1    3    3    0  502  0.13739988352E+04  0.58209178970E+03 -0.44921846860E+03  0.15583718982E+04  0.46999998093E+01 0. -1.
</event>
<event>
 5   0  0.1151180E-06  0.3728336E+04  0.7818609E-02  0.8061711E-01
        2   -1    0    0  501    0  0.00000000000E+00  0.00000000000E+00  0.20275561230E+04  0.20275561230E+04  0.25500000920E-02 0. -1.
       -2   -1    0    0    0  501  0.00000000000E+00  0.00000000000E+00 -0.17139461041E+04  0.17139461041E+04  0.25500000920E-02 0.  1.
    10030    2    1    2    0    0  0.00000000000E+00  0.00000000000E+00  0.31361001888E+03  0.37415022270E+04  0.37283357777E+04 0.  0.
        5    1    3    3  502    0  0.39553480815E+02  0.67603291981E+03 -0.15861401511E+04  0.17246587069E+04  0.46999998093E+01 0.  1.
       -5    1    3    3    0  502 -0.39553480815E+02 -0.67603291981E+03  0.18997501699E+04  0.20168435201E+04  0.46999998093E+01 0. -1.
</event>
<event>
 5   0  0.6261598E-07  0.3733732E+04  0.7818609E-02  0.8060527E-01
        1   -1    0    0  501    0  0.00000000000E+00  0.00000000000E+00  0.21547729980E+04  0.21547729980E+04  0.50400001928E-02 0. -1.
       -1   -1    0    0    0  501  0.00000000000E+00  0.00000000000E+00 -0.16174271000E+04  0.16174271001E+04  0.50400001928E-02 0.  1.
    10030    2    1    2    0    0  0.00000000000E+00  0.00000000000E+00  0.53734589793E+03  0.37722000980E+04  0.37337317747E+04 0.  0.
        1    1    3    3  502    0  0.16160581018E+03 -0.13819366632E+04 -0.98886926047E+03  0.17069644968E+04  0.50400001928E-02 0.  1.
       -1    1    3    3    0  502 -0.16160581018E+03  0.13819366632E+04  0.15262151584E+04  0.20652356013E+04  0.50400001928E-02 0. -1.
</event>
<event>
 5   0  0.6287345E-07  0.2477422E+04  0.7818609E-02  0.8411073E-01
        1   -1    0    0  501    0  0.00000000000E+00  0.00000000000E+00  0.80043610806E+03  0.80043610807E+03  0.50400001928E-02 0. -1.
       -1   -1    0    0    0  501  0.00000000000E+00  0.00000000000E+00 -0.19169615418E+04  0.19169615418E+04  0.50400001928E-02 0.  1.
    10030    2    1    2    0    0  0.00000000000E+00  0.00000000000E+00 -0.11165254337E+04  0.27173976499E+04  0.24774222376E+04 0.  0.
        5    1    3    3  502    0 -0.71572151064E+02 -0.96972206303E+03 -0.13999946976E+04  0.17045499980E+04  0.46999998093E+01 0.  1.
       -5    1    3    3    0  502  0.71572151064E+02  0.96972206303E+03  0.28346926388E+03  0.10128476519E+04  0.46999998093E+01 0. -1.
</event>
<event>
 5   0  0.6186440E-07  0.3735330E+04  0.7818609E-02  0.8060177E-01
        1   -1    0    0  501    0  0.00000000000E+00  0.00000000000E+00  0.22411251557E+04  0.22411251557E+04  0.50400001928E-02 0. -1.
       -1   -1    0    0    0  501  0.00000000000E+00  0.00000000000E+00 -0.15564383478E+04  0.15564383478E+04  0.50400001928E-02 0.  1.
    10030    2    1    2    0    0  0.00000000000E+00  0.00000000000E+00  0.68468680790E+03  0.37975635036E+04  0.37353303119E+04 0.  0.
        3    1    3    3  502    0  0.16778023511E+04  0.67529890296E+03  0.81607214625E+03  0.19841933111E+04  0.10100000352E+00 0. -1.
       -3    1    3    3    0  502 -0.16778023511E+04 -0.67529890296E+03 -0.13138533836E+03  0.18133701925E+04  0.10100000352E+00 0.  1.
</event>
<event>
 5   0  0.1680194E-06  0.3603126E+04  0.7818609E-02  0.8089776E-01
       -2   -1    0    0    0  501  0.00000000000E+00  0.00000000000E+00  0.17351880371E+04  0.17351880371E+04  0.25500000920E-02 0.  1.
        2   -1    0    0  501    0  0.00000000000E+00  0.00000000000E+00 -0.18704771252E+04  0.18704771252E+04  0.25500000920E-02 0. -1.
    10030    2    1    2    0    0  0.00000000000E+00  0.00000000000E+00 -0.13528908810E+03  0.36056651622E+04  0.36031261600E+04 0.  0.
        2    1    3    3  502    0  0.36288372233E+03 -0.13413595926E+04 -0.12150559265E+04  0.18458848981E+04  0.25500000920E-02 0. -1.
       -2    1    3    3    0  502 -0.36288372233E+03  0.13413595926E+04  0.10797668384E+04  0.17597802641E+04  0.25500000920E-02 0.  1.
</event>
<event>
 5   0  0.1724503E-06  0.3723085E+04  0.7818609E-02  0.8062865E-01
       -2   -1    0    0    0  501  0.00000000000E+00  0.00000000000E+00  0.23760556741E+04  0.23760556741E+04  0.25500000920E-02 0. -1.
        2   -1    0    0  501    0  0.00000000000E+00  0.00000000000E+00 -0.14584420874E+04  0.14584420874E+04  0.25500000920E-02 0.  1.
    10030    2    1    2    0    0  0.00000000000E+00  0.00000000000E+00  0.91761358670E+03  0.38344977615E+04  0.37230845260E+04 0.  0.
        1    1    3    3  502    0  0.14149076790E+04 -0.11969725996E+04  0.63906559426E+03  0.19603856708E+04  0.50400001928E-02 0. -1.
       -1    1    3    3    0  502 -0.14149076790E+04  0.11969725996E+04  0.27854799244E+03  0.18741120907E+04  0.50400001928E-02 0.  1.
</event>
<event>
 5   0  0.5679750E-07  0.3723576E+04  0.7818609E-02  0.8062757E-01
        1   -1    0    0  501    0  0.00000000000E+00  0.00000000000E+00  0.21260958430E+04  0.21260958431E+04  0.50400001928E-02 0.  1.
       -1   -1    0    0    0  501  0.00000000000E+00  0.00000000000E+00 -0.16303382995E+04  0.16303382995E+04  0.50400001928E-02 0. -1.
    10030    2    1    2    0    0  0.00000000000E+00  0.00000000000E+00  0.49575754358E+03  0.37564341425E+04  0.37235764965E+04 0.  0.
        4    1    3    3  502    0 -0.86586329455E+03 -0.40156889245E+03  0.18605078849E+04  0.20910447204E+04  0.12699999809E+01 0.  1.
       -4    1    3    3    0  502  0.86586329455E+03  0.40156889245E+03 -0.13647503413E+04  0.16653894221E+04  0.12699999809E+01 0. -1.
</event>
<event>
 5   0  0.6261598E-07  0.2937880E+04  0.7818609E-02  0.8261695E-01
       -1   -1    0    0    0  501  0.00000000000E+00  0.00000000000E+00  0.10463809768E+04  0.10463809768E+04  0.50400001928E-02 0.  1.
        1   -1    0    0  501    0  0.00000000000E+00  0.00000000000E+00 -0.20621409766E+04  0.20621409766E+04  0.50400001928E-02 0. -1.
    10030    2    1    2    0    0  0.00000000000E+00  0.00000000000E+00 -0.10157599998E+04  0.31085219534E+04  0.29378802490E+04 0.  0.
        1    1    3    3  502    0 -0.85563393916E+03 -0.97065875264E+03  0.22784726021E+03  0.13138501535E+04  0.50400001928E-02 0.  1.
       -1    1    3    3    0  502  0.85563393916E+03  0.97065875264E+03 -0.12436072601E+04  0.17946717999E+04  0.50400001928E-02 0. -1.
</event>
<event>
 5   0  0.6261598E-07  0.3645927E+04  0.7818609E-02  0.8080052E-01
        1   -1    0    0  501    0  0.00000000000E+00  0.00000000000E+00  0.14980614531E+04  0.14980614531E+04  0.50400001928E-02 0.  1.
       -1   -1    0    0    0  501  0.00000000000E+00  0.00000000000E+00 -0.22183308393E+04  0.22183308393E+04  0.50400001928E-02 0. -1.
    10030    2    1    2    0    0  0.00000000000E+00  0.00000000000E+00 -0.72026938621E+03  0.37163922924E+04  0.36459269990E+04 0.  0.
        1    1    3    3  502    0 -0.69430183446E+03  0.15342239551E+04  0.35142408396E+03  0.17202898211E+04  0.50400001928E-02 0.  1.
       -1    1    3    3    0  502  0.69430183446E+03 -0.15342239551E+04 -0.10716934702E+04  0.19961024713E+04  0.50400001928E-02 0. -1.
</event>
<event>
 5   0  0.1151180E-06  0.2177785E+04  0.7818609E-02  0.8527732E-01
        2   -1    0    0  501    0  0.00000000000E+00  0.00000000000E+00  0.11902325679E+04  0.11902325679E+04  0.25500000920E-02 0.  1.
       -2   -1    0    0    0  501  0.00000000000E+00  0.00000000000E+00 -0.99618055547E+03  0.99618055548E+03  0.25500000920E-02 0. -1.
    10030    2    1    2    0    0  0.00000000000E+00  0.00000000000E+00  0.19405201240E+03  0.21864131234E+04  0.21777846915E+04 0.  0.
        5    1    3    3  502    0 -0.10696619602E+03  0.10039399078E+03  0.11802557748E+04  0.11893470917E+04  0.46999998093E+01 0.  1.
       -5    1    3    3    0  502  0.10696619602E+03 -0.10039399078E+03 -0.98620376243E+03  0.99706603167E+03  0.46999998093E+01 0. -1.
</event>
<event>
 5   0  0.1184684E-06  0.3577262E+04  0.7818609E-02  0.8095720E-01
        2   -1    0    0  501    0  0.00000000000E+00  0.00000000000E+00  0.28651651168E+04  0.28651651168E+04  0.25500000920E-02 0. -1.
       -2   -1    0    0    0  501  0.00000000000E+00  0.00000000000E+00 -0.11165853172E+04  0.11165853172E+04  0.25500000920E-02 0.  1.
    10030    2    1    2    0    0  0.00000000000E+00  0.00000000000E+00  0.17485797996E+04  0.39817504340E+04  0.35772622497E+04 0.  0.
        4    1    3    3  502    0  0.17000081073E+04 -0.42970251070E+03  0.12670763934E+04  0.21633668233E+04  0.12699999809E+01 0. -1.
       -4    1    3    3    0  502 -0.17000081073E+04  0.42970251070E+03  0.48150340620E+03  0.18183836107E+04  0.12699999809E+01 0.  1.
</event>
<event>
 5   0  0.1724503E-06  0.3656794E+04  0.7818609E-02  0.8077605E-01
       -2   -1    0    0    0  501  0.00000000000E+00  0.00000000000E+00  0.11068818173E+04  0.11068818173E+04  0.25500000920E-02 0. -1.
        2   -1    0    0  501    0  0.00000000000E+00  0.00000000000E+00 -0.30202284341E+04  0.30202284341E+04  0.25500000920E-02 0.  1.
    10030    2    1    2    0    0  0.00000000000E+00  0.00000000000E+00 -0.19133466168E+04  0.41271102513E+04  0.36567941904E+04 0.  0.
        1    1    3    3  502    0 -0.54101472343E+03 -0.13783551832E+04 -0.21672277716E+04  0.26247735438E+04  0.50400001928E-02 0.  1.
       -1    1    3    3    0  502  0.54101472343E+03  0.13783551832E+04  0.25388115480E+03  0.15023367076E+04  0.50400001928E-02 0. -1.
</event>
<event>
 5   0  0.6261598E-07  0.3718472E+04  0.7818609E-02  0.8063880E-01
       -1   -1    0    0    0  501  0.00000000000E+00  0.00000000000E+00  0.14214188472E+04  0.14214188473E+04  0.50400001928E-02 0. -1.
        1   -1    0    0  501    0  0.00000000000E+00  0.00000000000E+00 -0.24319074350E+04  0.24319074350E+04  0.50400001928E-02 0.  1.
    10030    2    1    2    0    0  0.00000000000E+00  0.00000000000E+00 -0.10104885878E+04  0.38533262823E+04  0.37184723008E+04 0.  0.
        1    1    3    3  502    0 -0.16071226747E+04 -0.22517267531E+03 -0.14454596801E+04  0.21732233461E+04  0.50400001928E-02 0.  1.
       -1    1    3    3    0  502  0.16071226747E+04  0.22517267531E+03  0.43497109230E+03  0.16801029362E+04  0.50400001928E-02 0. -1.
</event>
<event>
 5   0  0.5679750E-07  0.1843578E+04  0.7818609E-02  0.8683462E-01
       -3   -1    0    0    0  501  0.00000000000E+00  0.00000000000E+00  0.71662113202E+03  0.71662113914E+03  0.10100000352E+00 0.  1.
        3   -1    0    0  501    0  0.00000000000E+00  0.00000000000E+00 -0.11856961099E+04  0.11856961142E+04  0.10100000352E+00 0. -1.
    10030    2    1    2    0    0  0.00000000000E+00  0.00000000000E+00 -0.46907497787E+03  0.19023172533E+04  0.18435779337E+04 0.  0.
        5    1    3    3  502    0 -0.36687218924E+03  0.70179634053E+03  0.25225572627E+03  0.83112474891E+03  0.46999998093E+01 0.  1.
       -5    1    3    3    0  502  0.36687218924E+03 -0.70179634053E+03 -0.72133070414E+03  0.10711925044E+04  0.46999998093E+01 0. -1.
</event>
<event>
 5   0  0.1184684E-06  0.3907701E+04  0.7818609E-02  0.8023430E-01
        2   -1    0    0  501    0  0.00000000000E+00  0.00000000000E+00  0.27690849443E+04  0.27690849443E+04  0.25500000920E-02 0. -1.
       -2   -1    0    0    0  501  0.00000000000E+00  0.00000000000E+00 -0.13786254861E+04  0.13786254861E+04  0.25500000920E-02 0.  1.
    10030    2    1    2    0    0  0.00000000000E+00  0.00000000000E+00  0.13904594582E+04  0.41477104304E+04  0.39077006423E+04 0.  0.
        4    1    3    3  502    0  0.11426466551E+04  0.75598173528E+03 -0.78330150673E+03  0.15781991718E+04  0.12699999809E+01 0.  1.
       -4    1    3    3    0  502 -0.11426466551E+04 -0.75598173528E+03  0.21737609650E+04  0.25695112586E+04  0.12699999809E+01 0. -1.
</event>
<event>
 5   0  0.6261598E-07  0.1965423E+04  0.7818609E-02  0.8622959E-01
       -1   -1    0    0    0  501  0.00000000000E+00  0.00000000000E+00  0.12509984191E+04  0.12509984191E+04  0.50400001928E-02 0.  1.
        1   -1    0    0  501    0  0.00000000000E+00  0.00000000000E+00 -0.77196083662E+03  0.77196083664E+03  0.50400001928E-02 0. -1.
    10030    2    1    2    0    0  0.00000000000E+00  0.00000000000E+00  0.47903758245E+03  0.20229592557E+04  0.19654228921E+04 0.  0.
        1    1    3    3  502    0  0.59208051914E+03  0.51282130547E+03  0.85033628757E+03  0.11561214618E+04  0.50400001928E-02 0.  1.
       -1    1    3    3    0  502 -0.59208051914E+03 -0.51282130547E+03 -0.37129870512E+03  0.86683779390E+03  0.50400001928E-02 0. -1.
</event>
<event>
 5   0  0.6261598E-07  0.1993819E+04  0.7818609E-02  0.8609516E-01
        1   -1    0    0  501    0  0.00000000000E+00  0.00000000000E+00  0.13011029986E+04  0.13011029986E+04  0.50400001928E-02 0. -1.
       -1   -1    0    0    0  501  0.00000000000E+00  0.00000000000E+00 -0.76383561952E+03  0.76383561954E+03  0.50400001928E-02 0.  1.
    10030    2    1    2    0    0  0.00000000000E+00  0.00000000000E+00  0.53726737908E+03  0.20649386181E+04  0.19938192646E+04 0.  0.
        1    1    3    3  502    0  0.52284499314E+03 -0.84709282469E+03  0.32436461182E+03  0.10469696948E+04  0.50400001928E-02 0. -1.
       -1    1    3    3    0  502 -0.52284499314E+03  0.84709282469E+03  0.21290276725E+03  0.10179689233E+04  0.50400001928E-02 0.  1.
</event>
<event>
 5   0  0.1685793E-06  0.3653308E+04  0.7818609E-02  0.8078389E-01
       -2   -1    0    0    0  501  0.00000000000E+00  0.00000000000E+00  0.18570920105E+04  0.18570920105E+04  0.25500000920E-02 0. -1.
        2   -1    0    0  501    0  0.00000000000E+00  0.00000000000E+00 -0.17967153158E+04  0.17967153158E+04  0.25500000920E-02 0.  1.
    10030    2    1    2    0    0  0.00000000000E+00  0.00000000000E+00  0.60376694653E+02  0.36538073263E+04  0.36533084502E+04 0.  0.
        3    1    3    3  502    0  0.54257310124E+03 -0.16711164001E+04  0.52990650922E+03  0.18351611678E+04  0.10100000352E+00 0. -1.
       -3    1    3    3    0  502 -0.54257310124E+03  0.16711164001E+04 -0.46952981456E+03  0.18186461585E+04  0.10100000352E+00 0.  1.
</event>
<event>
 5   0  0.5679750E-07  0.2384913E+04  0.7818609E-02  0.8445174E-01
        3   -1    0    0  501    0  0.00000000000E+00  0.00000000000E+00  0.12174582151E+04  0.12174582193E+04  0.10100000352E+00 0.  1.
       -3   -1    0    0    0  501  0.00000000000E+00  0.00000000000E+00 -0.11679680618E+04  0.11679680662E+04  0.10100000352E+00 0. -1.
    10030    2    1    2    0    0  0.00000000000E+00  0.00000000000E+00  0.49490153311E+02  0.23854262854E+04  0.23849128470E+04 0.  0.
        2    1    3    3  502    0 -0.92693869624E+02 -0.66515896630E+03 -0.96082167181E+03  0.11722657075E+04  0.25500000920E-02 0. -1.
       -2    1    3    3    0  502  0.92693869624E+02  0.66515896630E+03  0.10103118251E+04  0.12131605780E+04  0.25500000920E-02 0.  1.
</event>
<event>
 5   0  0.5875011E-07  0.1970690E+04  0.7818609E-02  0.8620448E-01
        1   -1    0    0  501    0  0.00000000000E+00  0.00000000000E+00  0.10648306991E+04  0.10648306991E+04  0.50400001928E-02 0.  1.
       -1   -1    0    0    0  501  0.00000000000E+00  0.00000000000E+00 -0.91179241193E+03  0.91179241194E+03  0.50400001928E-02 0. -1.
    10030    2    1    2    0    0  0.00000000000E+00  0.00000000000E+00  0.15303828718E+03  0.19766231111E+04  0.19706897792E+04 0.  0.
        2    1    3    3  502    0  0.33665100569E+02  0.96500668964E+03 -0.12037088157E+03  0.97306752037E+03  0.25500000920E-02 0.  1.
       -2    1    3    3    0  502 -0.33665100569E+02 -0.96500668964E+03  0.27340916875E+03  0.10035555907E+04  0.25500000920E-02 0. -1.
</event>
<event>
 5   0  0.6261598E-07  0.3691553E+04  0.7818609E-02  0.8069836E-01
        1   -1    0    0  501    0  0.00000000000E+00  0.00000000000E+00  0.27557924497E+04  0.27557924497E+04  0.50400001928E-02 0.  1.
       -1   -1    0    0    0  501  0.00000000000E+00  0.00000000000E+00 -0.12362652679E+04  0.12362652679E+04  0.50400001928E-02 0. -1.
    10030    2    1    2    0    0  0.00000000000E+00  0.00000000000E+00  0.15195271818E+04  0.39920577177E+04  0.36915527851E+04 0.  0.
        1    1    3    3  502    0 -0.50134235522E+03 -0.26785430858E+03 -0.11392621847E+04  0.12731882866E+04  0.50400001928E-02 0. -1.
       -1    1    3    3    0  502  0.50134235522E+03  0.26785430858E+03  0.26587893665E+04  0.27188694310E+04  0.50400001928E-02 0.  1.
</event>
<event>
 5   0  0.1680194E-06  0.3422947E+04  0.7818609E-02  0.8132297E-01
       -2   -1    0    0    0  501  0.00000000000E+00  0.00000000000E+00  0.20102440791E+04  0.20102440791E+04  0.25500000920E-02 0. -1.
        2   -1    0    0  501    0  0.00000000000E+00  0.00000000000E+00 -0.14571072576E+04  0.14571072576E+04  0.25500000920E-02 0.  1.
    10030    2    1    2    0    0  0.00000000000E+00  0.00000000000E+00  0.55313682148E+03  0.34673513366E+04  0.34229468223E+04 0.  0.
        2    1    3    3  502    0  0.50433623695E+03 -0.14712604116E+04  0.10001024805E+04  0.18490990266E+04  0.25500000920E-02 0. -1.
       -2    1    3    3    0  502 -0.50433623695E+03  0.14712604116E+04 -0.44696565905E+03  0.16182523100E+04  0.25500000920E-02 0.  1.
</event>
<event>
 5   0  0.5875011E-07  0.1942374E+04  0.7818609E-02  0.8634047E-01
       -1   -1    0    0    0  501  0.00000000000E+00  0.00000000000E+00  0.59329622429E+03  0.59329622431E+03  0.50400001928E-02 0.  1.
        1   -1    0    0  501    0  0.00000000000E+00  0.00000000000E+00 -0.15897695703E+04  0.15897695703E+04  0.50400001928E-02 0. -1.
    10030    2    1    2    0    0  0.00000000000E+00  0.00000000000E+00 -0.99647334605E+03  0.21830657947E+04  0.19423740974E+04 0.  0.
        2    1    3    3  502    0  0.76459444873E+03  0.32720618934E+03  0.65444828172E+02  0.83423712870E+03  0.25500000920E-02 0.  1.
       -2    1    3    3    0  502 -0.76459444873E+03 -0.32720618934E+03 -0.10619181742E+04  0.13488286660E+04  0.25500000920E-02 0. -1.
</event>
<event>
 5   0  0.1184684E-06  0.3593853E+04  0.7818609E-02  0.8091901E-01
        2   -1    0    0  501    0  0.00000000000E+00  0.00000000000E+00  0.29757933545E+04  0.29757933545E+04  0.25500000920E-02 0.  1.
       -2   -1    0    0    0  501  0.00000000000E+00  0.00000000000E+00 -0.10850703083E+04  0.10850703083E+04  0.25500000920E-02 0. -1.
    10030    2    1    2    0    0  0.00000000000E+00  0.00000000000E+00  0.18907230462E+04  0.40608636627E+04  0.35938530924E+04 0.  0.
        4    1    3    3  502    0  0.66952037705E+03  0.99495880018E+03  0.24574412881E+04  0.27344505567E+04  0.12699999809E+01 0.  1.
       -4    1    3    3    0  502 -0.66952037705E+03 -0.99495880018E+03 -0.56671824191E+03  0.13264131061E+04  0.12699999809E+01 0. -1.
</event>
<event>
 5   0  0.1151180E-06  0.3652167E+04  0.7818609E-02  0.8078646E-01
        2   -1    0    0  501    0  0.00000000000E+00  0.00000000000E+00  0.23338098368E+04  0.23338098368E+04  0.25500000920E-02 0. -1.
       -2   -1    0    0    0  501  0.00000000000E+00  0.00000000000E+00 -0.14288141240E+04  0.14288141240E+04  0.25500000920E-02 0.  1.
    10030    2    1    2    0    0  0.00000000000E+00  0.00000000000E+00  0.90499571276E+03  0.37626239608E+04  0.36521667309E+04 0.  0.
        5    1    3    3  502    0  0.12333808729E+04  0.89714219514E+03 -0.58209821165E+03  0.16324683501E+04  0.46999998093E+01 0.  1.
       -5    1    3    3    0  502 -0.12333808729E+04 -0.89714219514E+03  0.14870939244E+04  0.21301556107E+04  0.46999998093E+01 0. -1.
</event>
<event>
 5   0  0.5875011E-07  0.2273538E+04  0.7818609E-02  0.8488429E-01
        1   -1    0    0  501    0  0.00000000000E+00  0.00000000000E+00  0.16656037786E+04  0.16656037786E+04  0.50400001928E-02 0. -1.
       -1   -1    0    0    0  501  0.00000000000E+00  0.00000000000E+00 -0.77584073984E+03  0.77584073986E+03  0.50400001928E-02 0.  1.
    10030    2    1    2    0    0  0.00000000000E+00  0.00000000000E+00  0.88976303874E+03  0.24414445184E+04  0.22735375677E+04 0.  0.
        2    1    3    3  502    0 -0.43397741373E+03 -0.77338584384E+03  0.12085872855E+04  0.14990481266E+04  0.25500000920E-02 0. -1.
       -2    1    3    3    0  502  0.43397741373E+03  0.77338584384E+03 -0.31882424677E+03  0.94239639187E+03  0.25500000920E-02 0.  1.
</event>
<event>
 5   0  0.1724503E-06  0.3660249E+04  0.7818609E-02  0.8076829E-01
        2   -1    0    0  501    0  0.00000000000E+00  0.00000000000E+00  0.15007108421E+04  0.15007108421E+04  0.25500000920E-02 0. -1.
       -2   -1    0    0    0  501  0.00000000000E+00  0.00000000000E+00 -0.22318466684E+04  0.22318466684E+04  0.25500000920E-02 0.  1.
    10030    2    1    2    0    0  0.00000000000E+00  0.00000000000E+00 -0.73113582635E+03  0.37325575105E+04  0.36602494413E+04 0.  0.
        1    1    3    3  502    0  0.37183252194E+03 -0.15005298655E+04  0.63332732318E+03  0.16706144977E+04  0.50400001928E-02 0. -1.
       -1    1    3    3    0  502 -0.37183252194E+03  0.15005298655E+04 -0.13644631495E+04  0.20619430128E+04  0.50400001928E-02 0.  1.
</event>
<event>
 5   0  0.6261598E-07  0.3416769E+04  0.7818609E-02  0.8133803E-01
        1   -1    0    0  501    0  0.00000000000E+00  0.00000000000E+00  0.27673679237E+04  0.27673679237E+04  0.50400001928E-02 0. -1.
       -1   -1    0    0    0  501  0.00000000000E+00  0.00000000000E+00 -0.10546399927E+04  0.10546399927E+04  0.50400001928E-02 0.  1.
    10030    2    1    2    0    0  0.00000000000E+00  0.00000000000E+00  0.17127279310E+04  0.38220079164E+04  0.34167685826E+04 0.  0.
        1    1    3    3  502    0 -0.76543336774E+03 -0.70582075510E+03  0.23714439153E+04  0.25899454477E+04  0.50400001928E-02 0. -1.
       -1    1    3    3    0  502  0.76543336774E+03  0.70582075510E+03 -0.65871598425E+03  0.12320624687E+04  0.50400001928E-02 0.  1.
</event>
<event>
 5   0  0.1680194E-06  0.3758110E+04  0.7818609E-02  0.8055205E-01
       -2   -1    0    0    0  501  0.00000000000E+00  0.00000000000E+00  0.16301204915E+04  0.16301204915E+04  0.25500000920E-02 0. -1.
        2   -1    0    0  501    0  0.00000000000E+00  0.00000000000E+00 -0.21660045085E+04  0.21660045085E+04  0.25500000920E-02 0.  1.
    10030    2    1    2    0    0  0.00000000000E+00  0.00000000000E+00 -0.53588401701E+03  0.37961249999E+04  0.37581103411E+04 0.  0.
        2    1    3    3  502    0 -0.15538740005E+04  0.59638519225E+02  0.79760626501E+03  0.17476432464E+04  0.25500000920E-02 0. -1.
       -2    1    3    3    0  502  0.15538740005E+04 -0.59638519225E+02 -0.13334902820E+04  0.20484817536E+04  0.25500000920E-02 0.  1.
</event>
<event>
 5   0  0.1724503E-06  0.4315898E+04  0.7818609E-02  0.7943685E-01
       -2   -1    0    0    0  501  0.00000000000E+00  0.00000000000E+00  0.18770745894E+04  0.18770745894E+04  0.25500000920E-02 0. -1.
        2   -1    0    0  501    0  0.00000000000E+00  0.00000000000E+00 -0.24808522309E+04  0.24808522309E+04  0.25500000920E-02 0.  1.
    10030    2    1    2    0    0  0.00000000000E+00  0.00000000000E+00 -0.60377764154E+03  0.43579268203E+04  0.43158983689E+04 0.  0.
        1    1    3    3  502    0  0.15273694492E+04  0.73593097820E+02  0.12355915731E+04  0.19659501301E+04  0.50400001928E-02 0. -1.
       -1    1    3    3    0  502 -0.15273694492E+04 -0.73593097820E+02 -0.18393692147E+04  0.23919766902E+04  0.50400001928E-02 0.  1.
</event>
<event>
 5   0  0.1680194E-06  0.2362580E+04  0.7818609E-02  0.8453647E-01
       -2   -1    0    0    0  501  0.00000000000E+00  0.00000000000E+00  0.10426330490E+04  0.10426330490E+04  0.25500000920E-02 0.  1.
        2   -1    0    0  501    0  0.00000000000E+00  0.00000000000E+00 -0.13383865659E+04  0.13383865659E+04  0.25500000920E-02 0. -1.
    10030    2    1    2    0    0  0.00000000000E+00  0.00000000000E+00 -0.29575351696E+03  0.23810196149E+04  0.23625800015E+04 0.  0.
        2    1    3    3  502    0 -0.48762557980E+03  0.93467943973E+03 -0.68499203532E+03  0.12572264910E+04  0.25500000920E-02 0. -1.
       -2    1    3    3    0  502  0.48762557980E+03 -0.93467943973E+03  0.38923851836E+03  0.11237931239E+04  0.25500000920E-02 0.  1.
</event>
<event>
 5   0  0.1680194E-06  0.3804113E+04  0.7818609E-02  0.8045273E-01
        2   -1    0    0  501    0  0.00000000000E+00  0.00000000000E+00  0.34936020568E+04  0.34936020568E+04  0.25500000920E-02 0. -1.
       -2   -1    0    0    0  501  0.00000000000E+00  0.00000000000E+00 -0.10355552595E+04  0.10355552595E+04  0.25500000920E-02 0.  1.
    10030    2    1    2    0    0  0.00000000000E+00  0.00000000000E+00  0.24580467973E+04  0.45291573163E+04  0.38041125034E+04 0.  0.
        2    1    3    3  502    0  0.39195178341E+03  0.21539843285E+03 -0.97206293598E+03  0.10700135686E+04  0.25500000920E-02 0.  1.
       -2    1    3    3    0  502 -0.39195178341E+03 -0.21539843285E+03  0.34301097332E+04  0.34591437477E+04  0.25500000920E-02 0. -1.
</event>
<event>
 5   0  0.6186440E-07  0.3247828E+04  0.7818609E-02  0.8176299E-01
       -1   -1    0    0    0  501  0.00000000000E+00  0.00000000000E+00  0.11162249175E+04  0.11162249175E+04  0.50400001928E-02 0. -1.
        1   -1    0    0  501    0  0.00000000000E+00  0.00000000000E+00 -0.23625140205E+04  0.23625140205E+04  0.50400001928E-02 0.  1.
    10030    2    1    2    0    0  0.00000000000E+00  0.00000000000E+00 -0.12462891030E+04  0.34787389380E+04  0.32478282083E+04 0.  0.
        3    1    3    3  502    0  0.22387147869E+03 -0.65657424846E+03 -0.21958303661E+04  0.23027981218E+04  0.10100000352E+00 0.  1.
       -3    1    3    3    0  502 -0.22387147869E+03  0.65657424846E+03  0.94954126316E+03  0.11759408163E+04  0.10100000352E+00 0. -1.
</event>
<event>
 5   0  0.5875011E-07  0.3875378E+04  0.7818609E-02  0.8030170E-01
       -1   -1    0    0    0  501  0.00000000000E+00  0.00000000000E+00  0.18404912300E+04  0.18404912300E+04  0.50400001928E-02 0.  1.
        1   -1    0    0  501    0  0.00000000000E+00  0.00000000000E+00 -0.20400194828E+04  0.20400194828E+04  0.50400001928E-02 0. -1.
    10030    2    1    2    0    0  0.00000000000E+00  0.00000000000E+00 -0.19952825279E+03  0.38805107129E+04  0.38753776421E+04 0.  0.
        2    1    3    3  502    0  0.12809114045E+04  0.81298045164E+03 -0.13067514022E+04  0.20023162758E+04  0.25500000920E-02 0. -1.
       -2    1    3    3    0  502 -0.12809114045E+04 -0.81298045164E+03  0.11072231494E+04  0.18781944371E+04  0.25500000920E-02 0.  1.
</event>
<event>
 5   0  0.1680194E-06  0.2282157E+04  0.7818609E-02  0.8484990E-01
        2   -1    0    0  501    0  0.00000000000E+00  0.00000000000E+00  0.18247518324E+04  0.18247518324E+04  0.25500000920E-02 0.  1.
       -2   -1    0    0    0  501  0.00000000000E+00  0.00000000000E+00 -0.71355460699E+03  0.71355460700E+03  0.25500000920E-02 0. -1.
    10030    2    1    2    0    0  0.00000000000E+00  0.00000000000E+00  0.11111972254E+04  0.25383064394E+04  0.22821569417E+04 0.  0.
        2    1    3    3  502    0 -0.11074561231E+03 -0.77773108292E+02 -0.70459779254E+03  0.71747564159E+03  0.25500000920E-02 0. -1.
       -2    1    3    3    0  502  0.11074561231E+03  0.77773108292E+02  0.18157950180E+04  0.18208307978E+04  0.25500000920E-02 0.  1.
</event>
<event>
 5   0  0.1680194E-06  0.3232694E+04  0.7818609E-02  0.8180236E-01
       -2   -1    0    0    0  501  0.00000000000E+00  0.00000000000E+00  0.16640975410E+04  0.16640975410E+04  0.25500000920E-02 0. -1.
        2   -1    0    0  501    0  0.00000000000E+00  0.00000000000E+00 -0.15699662098E+04  0.15699662098E+04  0.25500000920E-02 0.  1.
    10030    2    1    2    0    0  0.00000000000E+00  0.00000000000E+00  0.94131331171E+02  0.32340637508E+04  0.32326935575E+04 0.  0.
        2    1    3    3  502    0 -0.52110194816E+03 -0.11239008315E+04 -0.99158273989E+03  0.15868007592E+04  0.25500000920E-02 0.  1.
       -2    1    3    3    0  502  0.52110194816E+03  0.11239008315E+04  0.10857140711E+04  0.16472629916E+04  0.25500000920E-02 0. -1.
</event>
<event>
 5   0  0.6287345E-07  0.3623882E+04  0.7818609E-02  0.8085043E-01
        1   -1    0    0  501    0  0.00000000000E+00  0.00000000000E+00  0.25359002766E+04  0.25359002766E+04  0.50400001928E-02 0.  1.
       -1   -1    0    0    0  501  0.00000000000E+00  0.00000000000E+00 -0.12946607522E+04  0.12946607522E+04  0.50400001928E-02 0. -1.
    10030    2    1    2    0    0  0.00000000000E+00  0.00000000000E+00  0.12412395244E+04  0.38305610288E+04  0.36238822054E+04 0.  0.
        5    1    3    3  502    0 -0.11880386373E+04 -0.76209487807E+03 -0.58034961305E+03  0.15261232487E+04  0.46999998093E+01 0. -1.
       -5    1    3    3    0  502  0.11880386373E+04  0.76209487807E+03  0.18215891375E+04  0.23044377802E+04  0.46999998093E+01 0.  1.
</event>
<event>
 5   0  0.1724503E-06  0.2646155E+04  0.7818609E-02  0.8352690E-01
       -2   -1    0    0    0  501  0.00000000000E+00  0.00000000000E+00  0.10226095347E+04  0.10226095347E+04  0.25500000920E-02 0.  1.
        2   -1    0    0  501    0  0.00000000000E+00  0.00000000000E+00 -0.17118308761E+04  0.17118308761E+04  0.25500000920E-02 0. -1.
    10030    2    1    2    0    0  0.00000000000E+00  0.00000000000E+00 -0.68922134133E+03  0.27344404108E+04  0.26461553815E+04 0.  0.
        1    1    3    3  502    0 -0.12666646898E+04 -0.42869100618E+02 -0.73709483672E+03  0.14661466484E+04  0.50400001928E-02 0.  1.
       -1    1    3    3    0  502  0.12666646898E+04  0.42869100618E+02  0.47873495390E+02  0.12682937624E+04  0.50400001928E-02 0. -1.
</event>
<event>
 5   0  0.1151180E-06  0.3790390E+04  0.7818609E-02  0.8048220E-01
       -2   -1    0    0    0  501  0.00000000000E+00  0.00000000000E+00  0.17896461411E+04  0.17896461411E+04  0.25500000920E-02 0.  1.
        2   -1    0    0  501    0  0.00000000000E+00  0.00000000000E+00 -0.20069692884E+04  0.20069692884E+04  0.25500000920E-02 0. -1.
    10030    2    1    2    0    0  0.00000000000E+00  0.00000000000E+00 -0.21732314726E+03  0.37966154295E+04  0.37903903980E+04 0.  0.
        5    1    3    3  502    0  0.76907932862E+03 -0.10070628581E+04  0.13029378966E+04  0.18175059467E+04  0.46999998093E+01 0.  1.
       -5    1    3    3    0  502 -0.76907932862E+03  0.10070628581E+04 -0.15202610438E+04  0.19791094829E+04  0.46999998093E+01 0. -1.
</event>
<event>
 5   0  0.5679750E-07  0.1875954E+04  0.7818609E-02  0.8666919E-01
        1   -1    0    0  501    0  0.00000000000E+00  0.00000000000E+00  0.96911329204E+03  0.96911329205E+03  0.50400001928E-02 0. -1.
       -1   -1    0    0    0  501  0.00000000000E+00  0.00000000000E+00 -0.90784061508E+03  0.90784061509E+03  0.50400001928E-02 0.  1.
    10030    2    1    2    0    0  0.00000000000E+00  0.00000000000E+00  0.61272676961E+02  0.18769539071E+04  0.18759535252E+04 0.  0.
        4    1    3    3  502    0  0.72053280655E+03 -0.41413719792E+03  0.46574943670E+03  0.95268110861E+03  0.12699999809E+01 0.  1.
       -4    1    3    3    0  502 -0.72053280655E+03  0.41413719792E+03 -0.40447675974E+03  0.92427279852E+03  0.12699999809E+01 0. -1.
</event>
<event>
 5   0  0.1680194E-06  0.2002547E+04  0.7818609E-02  0.8605431E-01
       -2   -1    0    0    0  501  0.00000000000E+00  0.00000000000E+00  0.54001573267E+03  0.54001573268E+03  0.25500000920E-02 0.  1.
        2   -1    0    0  501    0  0.00000000000E+00  0.00000000000E+00 -0.18565168872E+04  0.18565168872E+04  0.25500000920E-02 0. -1.
    10030    2    1    2    0    0  0.00000000000E+00  0.00000000000E+00 -0.13165011545E+04  0.23965326198E+04  0.20025467056E+04 0.  0.
        2    1    3    3  502    0 -0.15268376138E+03 -0.58881658005E+03  0.29354045557E+03  0.67541342524E+03  0.25500000920E-02 0.  1.
       -2    1    3    3    0  502  0.15268376138E+03  0.58881658005E+03 -0.16100416101E+04  0.17211191946E+04  0.25500000920E-02 0. -1.
</event>
<event>
 5   0  0.1685793E-06  0.3669910E+04  0.7818609E-02  0.8074663E-01
       -2   -1    0    0    0  501  0.00000000000E+00  0.00000000000E+00  0.16501254158E+04  0.16501254158E+04  0.25500000920E-02 0. -1.
        2   -1    0    0  501    0  0.00000000000E+00  0.00000000000E+00 -0.20404871719E+04  0.20404871719E+04  0.25500000920E-02 0.  1.
    10030    2    1    2    0    0  0.00000000000E+00  0.00000000000E+00 -0.39036175608E+03  0.36906125877E+04  0.36699099405E+04 0.  0.
        3    1    3    3  502    0  0.83846527467E+03  0.14932063279E+04 -0.85796676513E+03  0.19154101741E+04  0.10100000352E+00 0.  1.
       -3    1    3    3    0  502 -0.83846527467E+03 -0.14932063279E+04  0.46760500904E+03  0.17752024136E+04  0.10100000352E+00 0. -1.
</event>
<event>
 5   0  0.1562877E-06  0.1893397E+04  0.7818609E-02  0.8658150E-01
        2   -1    0    0  501    0  0.00000000000E+00  0.00000000000E+00  0.23491114845E+04  0.23491114845E+04  0.25500000920E-02 0.  1.
       -2   -1    0    0    0  501  0.00000000000E+00  0.00000000000E+00 -0.38152213255E+03  0.38152213256E+03  0.25500000920E-02 0. -1.
    10030    2    1    2    0    0  0.00000000000E+00  0.00000000000E+00  0.19675893520E+04  0.27306336171E+04  0.18933969718E+04 0.  0.
        5    1    3    3  502    0  0.98142571559E+02  0.48324814180E+03  0.21492528739E+04  0.22051010718E+04  0.46999998093E+01 0.  1.
       -5    1    3    3    0  502 -0.98142571559E+02 -0.48324814180E+03 -0.18166352197E+03  0.52553254525E+03  0.46999998093E+01 0. -1.
</event>
<event>
 5   0  0.6186440E-07  0.3648895E+04  0.7818609E-02  0.8079383E-01
        1   -1    0    0  501    0  0.00000000000E+00  0.00000000000E+00  0.16728559025E+04  0.16728559025E+04  0.50400001928E-02 0.  1.
       -1   -1    0    0    0  501  0.00000000000E+00  0.00000000000E+00 -0.19897760128E+04  0.19897760128E+04  0.50400001928E-02 0. -1.
    10030    2    1    2    0    0  0.00000000000E+00  0.00000000000E+00 -0.31692011029E+03  0.36626319152E+04  0.36488949273E+04 0.  0.
        3    1    3    3  502    0  0.10098571620E+04  0.62724386300E+03  0.12307162668E+04  0.17111133483E+04  0.10100000352E+00 0.  1.
       -3    1    3    3    0  502 -0.10098571620E+04 -0.62724386300E+03 -0.15476363771E+04  0.19515185669E+04  0.10100000352E+00 0. -1.
</event>
<event>
 5   0  0.1184684E-06  0.3458400E+04  0.7818609E-02  0.8123720E-01
       -2   -1    0    0    0  501  0.00000000000E+00  0.00000000000E+00  0.14204602400E+04  0.14204602400E+04  0.25500000920E-02 0.  1.
        2   -1    0    0  501    0  0.00000000000E+00  0.00000000000E+00 -0.21050445255E+04  0.21050445255E+04  0.25500000920E-02 0. -1.
    10030    2    1    2    0    0  0.00000000000E+00  0.00000000000E+00 -0.68458428551E+03  0.35255047656E+04  0.34583996600E+04 0.  0.
        4    1    3    3  502    0 -0.15531384193E+04 -0.75329977542E+03 -0.44640582446E+03  0.17829692298E+04  0.12699999809E+01 0. -1.
       -4    1    3    3    0  502  0.15531384193E+04  0.75329977542E+03 -0.23817846106E+03  0.17425355358E+04  0.12699999809E+01 0.  1.
</event>
<event>
 5   0  0.6261598E-07  0.2489569E+04  0.7818609E-02  0.8406711E-01
       -1   -1    0    0    0  501  0.00000000000E+00  0.00000000000E+00  0.12064166529E+04  0.12064166529E+04  0.50400001928E-02 0.  1.
        1   -1    0    0  501    0  0.00000000000E+00  0.00000000000E+00 -0.12843727346E+04  0.12843727346E+04  0.50400001928E-02 0. -1.
    10030    2    1    2    0    0  0.00000000000E+00  0.00000000000E+00 -0.77956081656E+02  0.24907893875E+04  0.24895691640E+04 0.  0.
        1    1    3    3  502    0 -0.69262904045E+03  0.82386300844E+03 -0.66458717887E+03  0.12649748467E+04  0.50400001928E-02 0. -1.
       -1    1    3    3    0  502  0.69262904045E+03 -0.82386300844E+03  0.58663109721E+03  0.12258145409E+04  0.50400001928E-02 0.  1.
</event>
<event>
 5   0  0.1151180E-06  0.3721214E+04  0.7818609E-02  0.8063277E-01
        2   -1    0    0  501    0  0.00000000000E+00  0.00000000000E+00  0.24206597205E+04  0.24206597205E+04  0.25500000920E-02 0. -1.
       -2   -1    0    0    0  501  0.00000000000E+00  0.00000000000E+00 -0.14301304145E+04  0.14301304145E+04  0.25500000920E-02 0.  1.
    10030    2    1    2    0    0  0.00000000000E+00  0.00000000000E+00  0.99052930596E+03  0.38507901350E+04  0.37212143660E+04 0.  0.
        5    1    3    3  502    0 -0.44812106274E+03 -0.10621049314E+04  0.20065841172E+04  0.23141480682E+04  0.46999998093E+01 0. -1.
       -5    1    3    3    0  502  0.44812106274E+03  0.10621049314E+04 -0.10160548112E+04  0.15366420668E+04  0.46999998093E+01 0.  1.
</event>
<event>
 5   0  0.1680194E-06  0.3742985E+04  0.7818609E-02  0.8058502E-01
       -2   -1    0    0    0  501  0.00000000000E+00  0.00000000000E+00  0.15996032430E+04  0.15996032430E+04  0.25500000920E-02 0. -1.
        2   -1    0    0  501    0  0.00000000000E+00  0.00000000000E+00 -0.21895959568E+04  0.21895959568E+04  0.25500000920E-02 0.  1.
    10030    2    1    2    0    0  0.00000000000E+00  0.00000000000E+00 -0.58999271382E+03  0.37891991998E+04  0.37429853290E+04 0.  0.
        2    1    3    3  502    0  0.85995202181E+03  0.11727273601E+04  0.89754552549E+03  0.17089162973E+04  0.25500000920E-02 0. -1.
       -2    1    3    3    0  502 -0.85995202181E+03 -0.11727273601E+04 -0.14875382393E+04  0.20802829025E+04  0.25500000920E-02 0.  1.
</event>
<event>
 5   0  0.1685793E-06  0.3763130E+04  0.7818609E-02  0.8054114E-01
        2   -1    0    0  501    0  0.00000000000E+00  0.00000000000E+00  0.29361897311E+04  0.29361897311E+04  0.25500000920E-02 0. -1.
       -2   -1    0    0    0  501  0.00000000000E+00  0.00000000000E+00 -0.12057418922E+04  0.12057418922E+04  0.25500000920E-02 0.  1.
    10030    2    1    2    0    0  0.00000000000E+00  0.00000000000E+00  0.17304478389E+04  0.41419316233E+04  0.37631300601E+04 0.  0.
        3    1    3    3  502    0 -0.38067467592E+03 -0.96137084359E+03 -0.86500018563E+03  0.13480995657E+04  0.10100000352E+00 0.  1.
       -3    1    3    3    0  502  0.38067467592E+03  0.96137084359E+03  0.25954480245E+04  0.27938320576E+04  0.10100000352E+00 0. -1.
</event>
<event>
 5   0  0.5875011E-07  0.3705843E+04  0.7818609E-02  0.8066668E-01
        1   -1    0    0  501    0  0.00000000000E+00  0.00000000000E+00  0.26247802557E+04  0.26247802557E+04  0.50400001928E-02 0. -1.
       -1   -1    0    0    0  501  0.00000000000E+00  0.00000000000E+00 -0.13080404595E+04  0.13080404595E+04  0.50400001928E-02 0.  1.
    10030    2    1    2    0    0  0.00000000000E+00  0.00000000000E+00  0.13167397962E+04  0.39328207152E+04  0.37058433706E+04 0.  0.
        2    1    3    3  502    0 -0.96347152735E+01 -0.12562265667E+04  0.21038202577E+04  0.24503586862E+04  0.25500000920E-02 0. -1.
       -2    1    3    3    0  502  0.96347152735E+01  0.12562265667E+04 -0.78708046149E+03  0.14824620290E+04  0.25500000920E-02 0.  1.
</event>
<event>
 5   0  0.1685793E-06  0.1833549E+04  0.7818609E-02  0.8688659E-01
        2   -1    0    0  501    0  0.00000000000E+00  0.00000000000E+00  0.15675937080E+04  0.15675937080E+04  0.25500000920E-02 0.  1.
       -2   -1    0    0    0  501  0.00000000000E+00  0.00000000000E+00 -0.53615636825E+03  0.53615636826E+03  0.25500000920E-02 0. -1.
    10030    2    1    2    0    0  0.00000000000E+00  0.00000000000E+00  0.10314373398E+04  0.21037500763E+04  0.18335488533E+04 0.  0.
        3    1    3    3  502    0  0.57347617815E+03  0.70497061090E+03  0.37700203179E+03  0.98386433583E+03  0.10100000352E+00 0. -1.
       -3    1    3    3    0  502 -0.57347617815E+03 -0.70497061090E+03  0.65443530797E+03  0.11198857404E+04  0.10100000352E+00 0.  1.
</event>
<event>
 5   0  0.6287345E-07  0.3614268E+04  0.7818609E-02  0.8087231E-01
        1   -1    0    0  501    0  0.00000000000E+00  0.00000000000E+00  0.24611739541E+04  0.24611739541E+04  0.50400001928E-02 0.  1.
       -1   -1    0    0    0  501  0.00000000000E+00  0.00000000000E+00 -0.13269009254E+04  0.13269009254E+04  0.50400001928E-02 0. -1.
    10030    2    1    2    0    0  0.00000000000E+00  0.00000000000E+00  0.11342730287E+04  0.37880748795E+04  0.36142683892E+04 0.  0.
        5    1    3    3  502    0  0.13154082500E+03 -0.10370052774E+04  0.21121451609E+04  0.23566633626E+04  0.46999998093E+01 0.  1.
       -5    1    3    3    0  502 -0.13154082500E+03  0.10370052774E+04 -0.97787213213E+03  0.14314115169E+04  0.46999998093E+01 0. -1.
</event>
<event>
 5   0  0.6261598E-07  0.3356834E+04  0.7818609E-02  0.8148583E-01
       -1   -1    0    0    0  501  0.00000000000E+00  0.00000000000E+00  0.13268580954E+04  0.13268580954E+04  0.50400001928E-02 0.  1.
        1   -1    0    0  501    0  0.00000000000E+00  0.00000000000E+00 -0.21231235499E+04  0.21231235499E+04  0.50400001928E-02 0. -1.
    10030    2    1    2    0    0  0.00000000000E+00  0.00000000000E+00 -0.79626545448E+03  0.34499816452E+04  0.33568340261E+04 0.  0.
        1    1    3    3  502    0  0.16799986674E+03  0.70554817945E+03 -0.19537590659E+04  0.20840337512E+04  0.50400001928E-02 0. -1.
       -1    1    3    3    0  502 -0.16799986674E+03 -0.70554817945E+03  0.11574936114E+04  0.13659478940E+04  0.50400001928E-02 0.  1.
</event>
<event>
 5   0  0.1680194E-06  0.2303497E+04  0.7818609E-02  0.8476543E-01
       -2   -1    0    0    0  501  0.00000000000E+00  0.00000000000E+00  0.61613993985E+03  0.61613993986E+03  0.25500000920E-02 0. -1.
        2   -1    0    0  501    0  0.00000000000E+00  0.00000000000E+00 -0.21529605449E+04  0.21529605449E+04  0.25500000920E-02 0.  1.
    10030    2    1    2    0    0  0.00000000000E+00  0.00000000000E+00 -0.15368206050E+04  0.27691004847E+04  0.23034973242E+04 0.  0.
        2    1    3    3  502    0  0.57019788993E+03  0.29701882381E+03  0.38034889260E+03  0.74700140260E+03  0.25500000920E-02 0. -1.
       -2    1    3    3    0  502 -0.57019788993E+03 -0.29701882381E+03 -0.19171694976E+04  0.20220990821E+04  0.25500000920E-02 0.  1.
</event>
<event>
 5   0  0.1724503E-06  0.3636539E+04  0.7818609E-02  0.8082173E-01
       -2   -1    0    0    0  501  0.00000000000E+00  0.00000000000E+00  0.12312699094E+04  0.12312699094E+04  0.25500000920E-02 0.  1.
        2   -1    0    0  501    0  0.00000000000E+00  0.00000000000E+00 -0.26851173932E+04  0.26851173932E+04  0.25500000920E-02 0. -1.
    10030    2    1    2    0    0  0.00000000000E+00  0.00000000000E+00 -0.14538474838E+04  0.39163873026E+04  0.36365391511E+04 0.  0.
        1    1    3    3  502    0 -0.15910578031E+03  0.83434443792E+03  0.10044825433E+04  0.13154582738E+04  0.50400001928E-02 0.  1.
       -1    1    3    3    0  502  0.15910578031E+03 -0.83434443792E+03 -0.24583300271E+04  0.26009290287E+04  0.50400001928E-02 0. -1.
</event>
<event>
 5   0  0.1724503E-06  0.3664021E+04  0.7818609E-02  0.8075982E-01
        2   -1    0    0  501    0  0.00000000000E+00  0.00000000000E+00  0.27352233806E+04  0.27352233806E+04  0.25500000920E-02 0. -1.
       -2   -1    0    0    0  501  0.00000000000E+00  0.00000000000E+00 -0.12270524348E+04  0.12270524349E+04  0.25500000920E-02 0.  1.
    10030    2    1    2    0    0  0.00000000000E+00  0.00000000000E+00  0.15081709457E+04  0.39622758154E+04  0.36640210201E+04 0.  0.
        1    1    3    3  502    0 -0.17183581254E+04 -0.44124062851E+03  0.25992597641E+03  0.17930447436E+04  0.50400001928E-02 0. -1.
       -1    1    3    3    0  502  0.17183581254E+04  0.44124062851E+03  0.12482449693E+04  0.21692310718E+04  0.50400001928E-02 0.  1.
</event>
<event>
 5   0  0.5679750E-07  0.3605437E+04  0.7818609E-02  0.8089248E-01
        1   -1    0    0  501    0  0.00000000000E+00  0.00000000000E+00  0.16848147526E+04  0.16848147526E+04  0.50400001928E-02 0. -1.
       -1   -1    0    0    0  501  0.00000000000E+00  0.00000000000E+00 -0.19288726459E+04  0.19288726459E+04  0.50400001928E-02 0.  1.
    10030    2    1    2    0    0  0.00000000000E+00  0.00000000000E+00 -0.24405789335E+03  0.36136873985E+04  0.36054365004E+04 0.  0.
        4    1    3    3  502    0  0.36519204103E+03 -0.16175892318E+04  0.58657646753E+03  0.17589865590E+04  0.12699999809E+01 0. -1.
       -4    1    3    3    0  502 -0.36519204103E+03  0.16175892318E+04 -0.83063436089E+03  0.18547008395E+04  0.12699999809E+01 0.  1.
</event>
<event>
 5   0  0.1724503E-06  0.3297397E+04  0.7818609E-02  0.8163558E-01
       -2   -1    0    0    0  501  0.00000000000E+00  0.00000000000E+00  0.15055815766E+04  0.15055815766E+04  0.25500000920E-02 0. -1.
        2   -1    0    0  501    0  0.00000000000E+00  0.00000000000E+00 -0.18054200028E+04  0.18054200028E+04  0.25500000920E-02 0.  1.
    10030    2    1    2    0    0  0.00000000000E+00  0.00000000000E+00 -0.29983842615E+03  0.33110015794E+04  0.32973972125E+04 0.  0.
        1    1    3    3  502    0  0.77821564183E+03  0.94240634771E+03 -0.12610368207E+04  0.17561216280E+04  0.50400001928E-02 0.  1.
       -1    1    3    3    0  502 -0.77821564183E+03 -0.94240634771E+03  0.96119839450E+03  0.15548799513E+04  0.50400001928E-02 0. -1.
</event>
<event>
 5   0  0.5875011E-07  0.3694946E+04  0.7818609E-02  0.8069083E-01
        1   -1    0    0  501    0  0.00000000000E+00  0.00000000000E+00  0.25498968667E+04  0.25498968667E+04  0.50400001928E-02 0. -1.
       -1   -1    0    0    0  501  0.00000000000E+00  0.00000000000E+00 -0.13385470090E+04  0.13385470090E+04  0.50400001928E-02 0.  1.
    10030    2    1    2    0    0  0.00000000000E+00  0.00000000000E+00  0.12113498577E+04  0.38884438757E+04  0.36949461832E+04 0.  0.
        2    1    3    3  502    0  0.15338454719E+04 -0.10767531799E+03 -0.47210678267E+03  0.16084653307E+04  0.25500000920E-02 0.  1.
       -2    1    3    3    0  502 -0.15338454719E+04  0.10767531799E+03  0.16834566404E+04  0.22799785451E+04  0.25500000920E-02 0. -1.
</event>
<event>
 5   0  0.1685793E-06  0.3707237E+04  0.7818609E-02  0.8066360E-01
        2   -1    0    0  501    0  0.00000000000E+00  0.00000000000E+00  0.20000329685E+04  0.20000329685E+04  0.25500000920E-02 0.  1.
       -2   -1    0    0    0  501  0.00000000000E+00  0.00000000000E+00 -0.17179224735E+04  0.17179224735E+04  0.25500000920E-02 0. -1.
    10030    2    1    2    0    0  0.00000000000E+00  0.00000000000E+00  0.28211049507E+03  0.37179554420E+04  0.37072370220E+04 0.  0.
        3    1    3    3  502    0  0.79260335747E+03  0.11601032104E+04  0.13536175150E+04  0.19509843485E+04  0.10100000352E+00 0.  1.
       -3    1    3    3    0  502 -0.79260335747E+03 -0.11601032104E+04 -0.10715070199E+04  0.17669710935E+04  0.10100000352E+00 0. -1.
</event>
<event>
 5   0  0.5875011E-07  0.3660912E+04  0.7818609E-02  0.8076680E-01
       -1   -1    0    0    0  501  0.00000000000E+00  0.00000000000E+00  0.24645995161E+04  0.24645995161E+04  0.50400001928E-02 0.  1.
        1   -1    0    0  501    0  0.00000000000E+00  0.00000000000E+00 -0.13594778101E+04  0.13594778101E+04  0.50400001928E-02 0. -1.
    10030    2    1    2    0    0  0.00000000000E+00  0.00000000000E+00  0.11051217061E+04  0.38240773262E+04  0.36609115547E+04 0.  0.
        2    1    3    3  502    0 -0.31041752491E+03  0.99678421547E+03 -0.10179907994E+04  0.14581642841E+04  0.25500000920E-02 0. -1.
       -2    1    3    3    0  502  0.31041752491E+03 -0.99678421547E+03  0.21231125054E+04  0.23659130421E+04  0.25500000920E-02 0.  1.
</event>
<event>
 5   0  0.6261598E-07  0.3617706E+04  0.7818609E-02  0.8086448E-01
        1   -1    0    0  501    0  0.00000000000E+00  0.00000000000E+00  0.24037004641E+04  0.24037004641E+04  0.50400001928E-02 0.  1.
       -1   -1    0    0    0  501  0.00000000000E+00  0.00000000000E+00 -0.13612134128E+04  0.13612134128E+04  0.50400001928E-02 0. -1.
    10030    2    1    2    0    0  0.00000000000E+00  0.00000000000E+00  0.10424870513E+04  0.37649138769E+04  0.36177060755E+04 0.  0.
        1    1    3    3  502    0 -0.80403815784E+03  0.14168089199E+04  0.13394439938E+04  0.21090128229E+04  0.50400001928E-02 0.  1.
       -1    1    3    3    0  502  0.80403815784E+03 -0.14168089199E+04 -0.29695694256E+03  0.16559010540E+04  0.50400001928E-02 0. -1.
</event>
<event>
 5   0  0.1724503E-06  0.3086798E+04  0.7818609E-02  0.8219370E-01
       -2   -1    0    0    0  501  0.00000000000E+00  0.00000000000E+00  0.26175608149E+04  0.26175608149E+04  0.25500000920E-02 0. -1.
        2   -1    0    0  501    0  0.00000000000E+00  0.00000000000E+00 -0.91003853854E+03  0.91003853855E+03  0.25500000920E-02 0.  1.
    10030    2    1    2    0    0  0.00000000000E+00  0.00000000000E+00  0.17075222763E+04  0.35275993534E+04  0.30867984829E+04 0.  0.
        1    1    3    3  502    0  0.59796606430E+03  0.55859283877E+03 -0.64173478070E+03  0.10399100453E+04  0.50400001928E-02 0.  1.
       -1    1    3    3    0  502 -0.59796606430E+03 -0.55859283877E+03  0.23492570570E+04  0.24876893081E+04  0.50400001928E-02 0. -1.
</event>
<event>
 5   0  0.1184684E-06  0.2127117E+04  0.7818609E-02  0.8549391E-01
       -2   -1    0    0    0  501  0.00000000000E+00  0.00000000000E+00  0.70908599715E+03  0.70908599716E+03  0.25500000920E-02 0. -1.
        2   -1    0    0  501    0  0.00000000000E+00  0.00000000000E+00 -0.15952326684E+04  0.15952326684E+04  0.25500000920E-02 0.  1.
    10030    2    1    2    0    0  0.00000000000E+00  0.00000000000E+00 -0.88614667128E+03  0.23043186656E+04  0.21271174367E+04 0.  0.
        4    1    3    3  502    0  0.54090184663E+03 -0.12797569965E+03 -0.14253652849E+04  0.15299086233E+04  0.12699999809E+01 0.  1.
       -4    1    3    3    0  502 -0.54090184663E+03  0.12797569965E+03  0.53921861363E+03  0.77441004227E+03  0.12699999809E+01 0. -1.
</event>
<event>
 5   0  0.1724503E-06  0.3509884E+04  0.7818609E-02  0.8111451E-01
        2   -1    0    0  501    0  0.00000000000E+00  0.00000000000E+00  0.21111560494E+04  0.21111560494E+04  0.25500000920E-02 0. -1.
       -2   -1    0    0    0  501  0.00000000000E+00  0.00000000000E+00 -0.14588320049E+04  0.14588320049E+04  0.25500000920E-02 0.  1.
    10030    2    1    2    0    0  0.00000000000E+00  0.00000000000E+00  0.65232404447E+03  0.35699880543E+04  0.35098843355E+04 0.  0.
        1    1    3    3  502    0 -0.10206727287E+04  0.68339376872E+03 -0.94870566029E+03  0.15520445522E+04  0.50400001928E-02 0.  1.
       -1    1    3    3    0  502  0.10206727287E+04 -0.68339376872E+03  0.16010297048E+04  0.20179435021E+04  0.50400001928E-02 0. -1.
</event>
<event>
 5   0  0.5875011E-07  0.3736463E+04  0.7818609E-02  0.8059929E-01
        1   -1    0    0  501    0  0.00000000000E+00  0.00000000000E+00  0.12812128455E+04  0.12812128455E+04  0.50400001928E-02 0.  1.
       -1   -1    0    0    0  501  0.00000000000E+00  0.00000000000E+00 -0.27242068724E+04  0.27242068724E+04  0.50400001928E-02 0. -1.
    10030    2    1    2    0    0  0.00000000000E+00  0.00000000000E+00 -0.14429940269E+04  0.40054197180E+04  0.37364629472E+04 0.  0.
        2    1    3    3  502    0  0.34677080038E+03 -0.64093987906E+03 -0.25655656150E+04  0.26670547128E+04  0.25500000920E-02 0. -1.
       -2    1    3    3    0  502 -0.34677080038E+03  0.64093987906E+03  0.11225715881E+04  0.13383650051E+04  0.25500000920E-02 0.  1.
</event>
<event>
 5   0  0.1151180E-06  0.3575698E+04  0.7818609E-02  0.8096081E-01
        2   -1    0    0  501    0  0.00000000000E+00  0.00000000000E+00  0.24181909325E+04  0.24181909325E+04  0.25500000920E-02 0. -1.
       -2   -1    0    0    0  501  0.00000000000E+00  0.00000000000E+00 -0.13218166012E+04  0.13218166012E+04  0.25500000920E-02 0.  1.
    10030    2    1    2    0    0  0.00000000000E+00  0.00000000000E+00  0.10963743314E+04  0.37400075337E+04  0.35756984881E+04 0.  0.
        5    1    3    3  502    0 -0.63399809071E+03 -0.70760760772E+03  0.21322844718E+04  0.23343781322E+04  0.46999998093E+01 0. -1.
       -5    1    3    3    0  502  0.63399809071E+03  0.70760760772E+03 -0.10359101404E+04  0.14056294015E+04  0.46999998093E+01 0.  1.
</event>
<event>
 5   0  0.1151180E-06  0.2858832E+04  0.7818609E-02  0.8285233E-01
        2   -1    0    0  501    0  0.00000000000E+00  0.00000000000E+00  0.85479136593E+03  0.85479136593E+03  0.25500000920E-02 0.  1.
       -2   -1    0    0    0  501  0.00000000000E+00  0.00000000000E+00 -0.23903261672E+04  0.23903261672E+04  0.25500000920E-02 0. -1.
    10030    2    1    2    0    0  0.00000000000E+00  0.00000000000E+00 -0.15355348013E+04  0.32451175331E+04  0.28588320479E+04 0.  0.
        5    1    3    3  502    0  0.17311123760E+03  0.35322385150E+03  0.79213431324E+03  0.88443962488E+03  0.46999998093E+01 0.  1.
       -5    1    3    3    0  502 -0.17311123760E+03 -0.35322385150E+03 -0.23276691145E+04  0.23606779083E+04  0.46999998093E+01 0. -1.
</event>
<event>
 5   0  0.5679750E-07  0.3689433E+04  0.7818609E-02  0.8070308E-01
       -1   -1    0    0    0  501  0.00000000000E+00  0.00000000000E+00  0.19115974645E+04  0.19115974645E+04  0.50400001928E-02 0.  1.
        1   -1    0    0  501    0  0.00000000000E+00  0.00000000000E+00 -0.17801753361E+04  0.17801753361E+04  0.50400001928E-02 0. -1.
    10030    2    1    2    0    0  0.00000000000E+00  0.00000000000E+00  0.13142212842E+03  0.36917728006E+04  0.36894328338E+04 0.  0.
        4    1    3    3  502    0 -0.16419750090E+04 -0.30450088574E+03  0.84990085942E+03  0.18738024985E+04  0.12699999809E+01 0.  1.
       -4    1    3    3    0  502  0.16419750090E+04  0.30450088574E+03 -0.71847873099E+03  0.18179703021E+04  0.12699999809E+01 0. -1.
</event>
<event>
 5   0  0.1724503E-06  0.2769987E+04  0.7818609E-02  0.8312647E-01
       -2   -1    0    0    0  501  0.00000000000E+00  0.00000000000E+00  0.11061111568E+04  0.11061111568E+04  0.25500000920E-02 0.  1.
        2   -1    0    0  501    0  0.00000000000E+00  0.00000000000E+00 -0.17341900882E+04  0.17341900882E+04  0.25500000920E-02 0. -1.
    10030    2    1    2    0    0  0.00000000000E+00  0.00000000000E+00 -0.62807893134E+03  0.28403012450E+04  0.27699870069E+04 0.  0.
        1    1    3    3  502    0  0.21666715223E+03 -0.90900358195E+03 -0.13622284439E+04  0.16519378016E+04  0.50400001928E-02 0. -1.
       -1    1    3    3    0  502 -0.21666715223E+03  0.90900358195E+03  0.73414951256E+03  0.11883634434E+04  0.50400001928E-02 0.  1.
</event>
<event>
 5   0  0.1151180E-06  0.3845217E+04  0.7818609E-02  0.8036520E-01
       -2   -1    0    0    0  501  0.00000000000E+00  0.00000000000E+00  0.16141916650E+04  0.16141916650E+04  0.25500000920E-02 0.  1.
        2   -1    0    0  501    0  0.00000000000E+00  0.00000000000E+00 -0.22899533197E+04  0.22899533197E+04  0.25500000920E-02 0. -1.
    10030    2    1    2    0    0  0.00000000000E+00  0.00000000000E+00 -0.67576165472E+03  0.39041449847E+04  0.38452170612E+04 0.  0.
        5    1    3    3  502    0  0.23107408310E+03 -0.14454771840E+04  0.92765648916E+03  0.17330228427E+04  0.46999998093E+01 0.  1.
       -5    1    3    3    0  502 -0.23107408310E+03  0.14454771840E+04 -0.16034181439E+04  0.21711221420E+04  0.46999998093E+01 0. -1.
</event>
<event>
 5   0  0.5875011E-07  0.3683159E+04  0.7818609E-02  0.8071704E-01
        1   -1    0    0  501    0  0.00000000000E+00  0.00000000000E+00  0.12726108241E+04  0.12726108241E+04  0.50400001928E-02 0.  1.
       -1   -1    0    0    0  501  0.00000000000E+00  0.00000000000E+00 -0.26649268795E+04  0.26649268795E+04  0.50400001928E-02 0. -1.
    10030    2    1    2    0    0  0.00000000000E+00  0.00000000000E+00 -0.13923160554E+04  0.39375377037E+04  0.36831588575E+04 0.  0.
        2    1    3    3  502    0  0.15520238471E+04  0.30300618693E+03 -0.17051790958E+04  0.23255593994E+04  0.25500000920E-02 0. -1.
       -2    1    3    3    0  502 -0.15520238471E+04 -0.30300618693E+03  0.31286304038E+03  0.16119783043E+04  0.25500000920E-02 0.  1.
</event>
<event>
 5   0  0.6287345E-07  0.3458576E+04  0.7818609E-02  0.8123678E-01
        1   -1    0    0  501    0  0.00000000000E+00  0.00000000000E+00  0.28553553866E+04  0.28553553866E+04  0.50400001928E-02 0. -1.
       -1   -1    0    0    0  501  0.00000000000E+00  0.00000000000E+00 -0.10473084580E+04  0.10473084580E+04  0.50400001928E-02 0.  1.
    10030    2    1    2    0    0  0.00000000000E+00  0.00000000000E+00  0.18080469286E+04  0.39026638447E+04  0.34585764974E+04 0.  0.
        5    1    3    3  502    0  0.53212406445E+03  0.16144571494E+04  0.54578860084E+03  0.17853669634E+04  0.46999998093E+01 0.  1.
       -5    1    3    3    0  502 -0.53212406445E+03 -0.16144571494E+04  0.12622583278E+04  0.21172968813E+04  0.46999998093E+01 0. -1.
</event>
<event>
 5   0  0.1184684E-06  0.3759668E+04  0.7818609E-02  0.8054866E-01
       -2   -1    0    0    0  501  0.00000000000E+00  0.00000000000E+00  0.32760882041E+04  0.32760882041E+04  0.25500000920E-02 0.  1.
        2   -1    0    0  501    0  0.00000000000E+00  0.00000000000E+00 -0.10786572372E+04  0.10786572372E+04  0.25500000920E-02 0. -1.
    10030    2    1    2    0    0  0.00000000000E+00  0.00000000000E+00  0.21974309669E+04  0.43547454413E+04  0.37596682040E+04 0.  0.
        4    1    3    3  502    0 -0.82292157927E+03  0.86134225332E+03 -0.58564081071E+03  0.13274363168E+04  0.12699999809E+01 0.  1.
       -4    1    3    3    0  502  0.82292157927E+03 -0.86134225332E+03  0.27830717776E+04  0.30273091245E+04  0.12699999809E+01 0. -1.
</event>
<event>
 5   0  0.6186440E-07  0.3692836E+04  0.7818609E-02  0.8069551E-01
       -1   -1    0    0    0  501  0.00000000000E+00  0.00000000000E+00  0.22699687228E+04  0.22699687228E+04  0.50400001928E-02 0. -1.
        1   -1    0    0  501    0  0.00000000000E+00  0.00000000000E+00 -0.15018974505E+04  0.15018974505E+04  0.50400001928E-02 0.  1.
    10030    2    1    2    0    0  0.00000000000E+00  0.00000000000E+00  0.76807127226E+03  0.37718661734E+04  0.36928364370E+04 0.  0.
        3    1    3    3  502    0 -0.85905338442E+02 -0.21870214524E+02  0.22677940144E+04  0.22695258834E+04  0.10100000352E+00 0. -1.
       -3    1    3    3    0  502  0.85905338442E+02  0.21870214524E+02 -0.14997227421E+04  0.15023402900E+04  0.10100000352E+00 0.  1.
</event>
<event>
 5   0  0.1680194E-06  0.1867859E+04  0.7818609E-02  0.8671023E-01
       -2   -1    0    0    0  501  0.00000000000E+00  0.00000000000E+00  0.71618756373E+03  0.71618756374E+03  0.25500000920E-02 0.  1.
        2   -1    0    0  501    0  0.00000000000E+00  0.00000000000E+00 -0.12178711055E+04  0.12178711055E+04  0.25500000920E-02 0. -1.
    10030    2    1    2    0    0  0.00000000000E+00  0.00000000000E+00 -0.50168354177E+03  0.19340586692E+04  0.18678588169E+04 0.  0.
        2    1    3    3  502    0 -0.43890793702E+03 -0.73949691042E+02  0.59930267851E+03  0.74650682144E+03  0.25500000920E-02 0.  1.
       -2    1    3    3    0  502  0.43890793702E+03  0.73949691042E+02 -0.11009862203E+04  0.11875518478E+04  0.25500000920E-02 0. -1.
</event>
<event>
 5   0  0.5679750E-07  0.1893052E+04  0.7818609E-02  0.8658323E-01
        4   -1    0    0  501    0  0.00000000000E+00  0.00000000000E+00  0.18027883004E+04  0.18027887477E+04  0.12699999809E+01 0.  1.
       -4   -1    0    0    0  501  0.00000000000E+00  0.00000000000E+00 -0.49695733235E+03  0.49695895512E+03  0.12699999809E+01 0. -1.
    10030    2    1    2    0    0  0.00000000000E+00  0.00000000000E+00  0.13058309680E+04  0.22997477029E+04  0.18930517636E+04 0.  0.
        5    1    3    3  502    0 -0.32757475521E+03  0.88741304908E+03  0.69287629965E+03  0.11725641972E+04  0.46999998093E+01 0. -1.
       -5    1    3    3    0  502  0.32757475521E+03 -0.88741304908E+03  0.61295466839E+03  0.11271835057E+04  0.46999998093E+01 0.  1.
</event>
<event>
 5   0  0.5679750E-07  0.3910024E+04  0.7818609E-02  0.8022948E-01
       -1   -1    0    0    0  501  0.00000000000E+00  0.00000000000E+00  0.23601322797E+04  0.23601322797E+04  0.50400001928E-02 0.  1.
        1   -1    0    0  501    0  0.00000000000E+00  0.00000000000E+00 -0.16194314404E+04  0.16194314404E+04  0.50400001928E-02 0. -1.
    10030    2    1    2    0    0  0.00000000000E+00  0.00000000000E+00  0.74070083930E+03  0.39795637201E+04  0.39100242542E+04 0.  0.
        4    1    3    3  502    0 -0.15721050544E+04 -0.67680122152E+03  0.13318725821E+04  0.21687462699E+04  0.12699999809E+01 0.  1.
       -4    1    3    3    0  502  0.15721050544E+04  0.67680122152E+03 -0.59117174278E+03  0.18108174502E+04  0.12699999809E+01 0. -1.
</event>
<event>
 5   0  0.1680194E-06  0.2115474E+04  0.7818609E-02  0.8554457E-01
       -2   -1    0    0    0  501  0.00000000000E+00  0.00000000000E+00  0.10808720616E+04  0.10808720616E+04  0.25500000920E-02 0. -1.
        2   -1    0    0  501    0  0.00000000000E+00  0.00000000000E+00 -0.10350972974E+04  0.10350972974E+04  0.25500000920E-02 0.  1.
    10030    2    1    2    0    0  0.00000000000E+00  0.00000000000E+00  0.45774764211E+02  0.21159693590E+04  0.21154741783E+04 0.  0.
        2    1    3    3  502    0  0.37561328403E+03 -0.47060257875E+03  0.89272053093E+03  0.10768017796E+04  0.25500000920E-02 0. -1.
       -2    1    3    3    0  502 -0.37561328403E+03  0.47060257875E+03 -0.84694576672E+03  0.10391675794E+04  0.25500000920E-02 0.  1.
</event>
<event>
 5   0  0.1184684E-06  0.2245987E+04  0.7818609E-02  0.8499527E-01
        2   -1    0    0  501    0  0.00000000000E+00  0.00000000000E+00  0.19194534284E+04  0.19194534284E+04  0.25500000920E-02 0.  1.
       -2   -1    0    0    0  501  0.00000000000E+00  0.00000000000E+00 -0.65701756263E+03  0.65701756263E+03  0.25500000920E-02 0. -1.
    10030    2    1    2    0    0  0.00000000000E+00  0.00000000000E+00  0.12624358658E+04  0.25764709910E+04  0.22459871888E+04 0.  0.
        4    1    3    3  502    0 -0.14990205146E+03 -0.56790622136E+03  0.17292001989E+04  0.18262319245E+04  0.12699999809E+01 0.  1.
       -4    1    3    3    0  502  0.14990205146E+03  0.56790622136E+03 -0.46676433316E+03  0.75023906650E+03  0.12699999809E+01 0. -1.
</event>
<event>
 5   0  0.6287345E-07  0.3655347E+04  0.7818609E-02  0.8077930E-01
        1   -1    0    0  501    0  0.00000000000E+00  0.00000000000E+00  0.25533980199E+04  0.25533980199E+04  0.50400001928E-02 0.  1.
       -1   -1    0    0    0  501  0.00000000000E+00  0.00000000000E+00 -0.13082138878E+04  0.13082138879E+04  0.50400001928E-02 0. -1.
    10030    2    1    2    0    0  0.00000000000E+00  0.00000000000E+00  0.12451841321E+04  0.38616119078E+04  0.36553471796E+04 0.  0.
        5    1    3    3  502    0  0.16918587531E+04  0.32366814280E+03 -0.22799597636E+02  0.17226981798E+04  0.46999998093E+01 0.  1.
       -5    1    3    3    0  502 -0.16918587531E+04 -0.32366814280E+03  0.12679837297E+04  0.21389137280E+04  0.46999998093E+01 0. -1.
</event>
<event>
 5   0  0.1151180E-06  0.3786479E+04  0.7818609E-02  0.8049063E-01
        2   -1    0    0  501    0  0.00000000000E+00  0.00000000000E+00  0.20005593937E+04  0.20005593937E+04  0.25500000920E-02 0. -1.
       -2   -1    0    0    0  501  0.00000000000E+00  0.00000000000E+00 -0.17916768212E+04  0.17916768212E+04  0.25500000920E-02 0.  1.
    10030    2    1    2    0    0  0.00000000000E+00  0.00000000000E+00  0.20888257255E+03  0.37922362149E+04  0.37864790480E+04 0.  0.
        5    1    3    3  502    0  0.46247330426E+03  0.14544634527E+04 -0.10175246303E+04  0.18343183899E+04  0.46999998093E+01 0.  1.
       -5    1    3    3    0  502 -0.46247330426E+03 -0.14544634527E+04  0.12264072028E+04  0.19579178250E+04  0.46999998093E+01 0. -1.
</event>
<event>
 5   0  0.5679750E-07  0.3546424E+04  0.7818609E-02  0.8102875E-01
        1   -1    0    0  501    0  0.00000000000E+00  0.00000000000E+00  0.15695630344E+04  0.15695630344E+04  0.50400001928E-02 0.  1.
       -1   -1    0    0    0  501  0.00000000000E+00  0.00000000000E+00 -0.20032837682E+04  0.20032837682E+04  0.50400001928E-02 0. -1.
    10030    2    1    2    0    0  0.00000000000E+00  0.00000000000E+00 -0.43372073380E+03  0.35728468026E+04  0.35464236352E+04 0.  0.
        4    1    3    3  502    0  0.16475745368E+04  0.55853543346E+03  0.12893868944E+03  0.17444456092E+04  0.12699999809E+01 0. -1.
       -4    1    3    3    0  502 -0.16475745368E+04 -0.55853543346E+03 -0.56265942324E+03  0.18284011935E+04  0.12699999809E+01 0.  1.
</event>
<event>
 5   0  0.5875011E-07  0.2489173E+04  0.7818609E-02  0.8406853E-01
       -1   -1    0    0    0  501  0.00000000000E+00  0.00000000000E+00  0.12233514267E+04  0.12233514267E+04  0.50400001928E-02 0. -1.
        1   -1    0    0  501    0  0.00000000000E+00  0.00000000000E+00 -0.12661904319E+04  0.12661904319E+04  0.50400001928E-02 0.  1.
    10030    2    1    2    0    0  0.00000000000E+00  0.00000000000E+00 -0.42839005231E+02  0.24895418586E+04  0.24891732533E+04 0.  0.
        2    1    3    3  502    0 -0.11826472286E+03 -0.36639880171E+02  0.12171769210E+04  0.12234576750E+04  0.25500000920E-02 0. -1.
       -2    1    3    3    0  502  0.11826472286E+03  0.36639880171E+02 -0.12600159262E+04  0.12660841836E+04  0.25500000920E-02 0.  1.
</event>
<event>
 5   0  0.1184684E-06  0.3271473E+04  0.7818609E-02  0.8170192E-01
        2   -1    0    0  501    0  0.00000000000E+00  0.00000000000E+00  0.25665060648E+04  0.25665060648E+04  0.25500000920E-02 0.  1.
       -2   -1    0    0    0  501  0.00000000000E+00  0.00000000000E+00 -0.10425202181E+04  0.10425202181E+04  0.25500000920E-02 0. -1.
    10030    2    1    2    0    0  0.00000000000E+00  0.00000000000E+00  0.15239858467E+04  0.36090262829E+04  0.32714733454E+04 0.  0.
        4    1    3    3  502    0 -0.98826268997E+03 -0.61223802760E+03 -0.50744853252E+03  0.12684652825E+04  0.12699999809E+01 0. -1.
       -4    1    3    3    0  502  0.98826268997E+03  0.61223802760E+03  0.20314343792E+04  0.23405610004E+04  0.12699999809E+01 0.  1.
</event>
<event>
 5   0  0.6261598E-07  0.3684350E+04  0.7818609E-02  0.8071439E-01
       -1   -1    0    0    0  501  0.00000000000E+00  0.00000000000E+00  0.13935560550E+04  0.13935560550E+04  0.50400001928E-02 0. -1.
        1   -1    0    0  501    0  0.00000000000E+00  0.00000000000E+00 -0.24352153515E+04  0.24352153515E+04  0.50400001928E-02 0.  1.
    10030    2    1    2    0    0  0.00000000000E+00  0.00000000000E+00 -0.10416592965E+04  0.38287714065E+04  0.36843501996E+04 0.  0.
        1    1    3    3  502    0 -0.15237534477E+04 -0.98600289338E+03 -0.84876689932E+03  0.20036046328E+04  0.50400001928E-02 0.  1.
       -1    1    3    3    0  502  0.15237534477E+04  0.98600289338E+03 -0.19289239713E+03  0.18251667738E+04  0.50400001928E-02 0. -1.
</event>
<event>
 5   0  0.5679750E-07  0.2123146E+04  0.7818609E-02  0.8551115E-01
       -1   -1    0    0    0  501  0.00000000000E+00  0.00000000000E+00  0.42900626168E+03  0.42900626171E+03  0.50400001928E-02 0.  1.
        1   -1    0    0  501    0  0.00000000000E+00  0.00000000000E+00 -0.26268545831E+04  0.26268545831E+04  0.50400001928E-02 0. -1.
    10030    2    1    2    0    0  0.00000000000E+00  0.00000000000E+00 -0.21978483214E+04  0.30558608448E+04  0.21231458402E+04 0.  0.
        4    1    3    3  502    0  0.91345735109E+03  0.22017614399E+03 -0.38788037922E+03  0.10165307020E+04  0.12699999809E+01 0.  1.
       -4    1    3    3    0  502 -0.91345735109E+03 -0.22017614399E+03 -0.18099679422E+04  0.20393301428E+04  0.12699999809E+01 0. -1.
</event>
<event>
 5   0  0.5679750E-07  0.3796497E+04  0.7818609E-02  0.8046907E-01
        1   -1    0    0  501    0  0.00000000000E+00  0.00000000000E+00  0.20335887131E+04  0.20335887131E+04  0.50400001928E-02 0. -1.
       -1   -1    0    0    0  501  0.00000000000E+00  0.00000000000E+00 -0.17719156153E+04  0.17719156153E+04  0.50400001928E-02 0.  1.
    10030    2    1    2    0    0  0.00000000000E+00  0.00000000000E+00  0.26167309776E+03  0.38055043284E+04  0.37964971202E+04 0.  0.
        4    1    3    3  502    0 -0.14343902078E+04  0.26450919413E+03  0.13485873836E+04  0.19864868300E+04  0.12699999809E+01 0. -1.
       -4    1    3    3    0  502  0.14343902078E+04 -0.26450919413E+03 -0.10869142858E+04  0.18190174984E+04  0.12699999809E+01 0.  1.
</event>
<event>
 5   0  0.1184684E-06  0.3316621E+04  0.7818609E-02  0.8158679E-01
       -2   -1    0    0    0  501  0.00000000000E+00  0.00000000000E+00  0.11836903350E+04  0.11836903350E+04  0.25500000920E-02 0. -1.
        2   -1    0    0  501    0  0.00000000000E+00  0.00000000000E+00 -0.23232368898E+04  0.23232368898E+04  0.25500000920E-02 0.  1.
    10030    2    1    2    0    0  0.00000000000E+00  0.00000000000E+00 -0.11395465548E+04  0.35069272249E+04  0.33166206008E+04 0.  0.
        4    1    3    3  502    0  0.55035615402E+03  0.14709216305E+04 -0.67852718399E+01  0.15705253873E+04  0.12699999809E+01 0. -1.
       -4    1    3    3    0  502 -0.55035615402E+03 -0.14709216305E+04 -0.11327612830E+04  0.19364018375E+04  0.12699999809E+01 0.  1.
</event>
<event>
 5   0  0.1724503E-06  0.2619607E+04  0.7818609E-02  0.8361571E-01
       -2   -1    0    0    0  501  0.00000000000E+00  0.00000000000E+00  0.15205669424E+04  0.15205669424E+04  0.25500000920E-02 0. -1.
        2   -1    0    0  501    0  0.00000000000E+00  0.00000000000E+00 -0.11282540714E+04  0.11282540714E+04  0.25500000920E-02 0.  1.
    10030    2    1    2    0    0  0.00000000000E+00  0.00000000000E+00  0.39231287100E+03  0.26488210138E+04  0.26196074848E+04 0.  0.
        1    1    3    3  502    0 -0.92471132574E+03 -0.58130879684E+03 -0.53479859542E+03  0.12161498637E+04  0.50400001928E-02 0.  1.
       -1    1    3    3    0  502  0.92471132574E+03  0.58130879684E+03  0.92711146642E+03  0.14326711501E+04  0.50400001928E-02 0. -1.
</event>
<event>
 5   0  0.6287345E-07  0.2087149E+04  0.7818609E-02  0.8566926E-01
        1   -1    0    0  501    0  0.00000000000E+00  0.00000000000E+00  0.92235374823E+03  0.92235374824E+03  0.50400001928E-02 0. -1.
       -1   -1    0    0    0  501  0.00000000000E+00  0.00000000000E+00 -0.11807266478E+04  0.11807266478E+04  0.50400001928E-02 0.  1.
    10030    2    1    2    0    0  0.00000000000E+00  0.00000000000E+00 -0.25837289959E+03  0.21030803961E+04  0.20871489159E+04 0.  0.
        5    1    3    3  502    0 -0.27415901607E+03 -0.10553080181E+03  0.87981897044E+03  0.92757933729E+03  0.46999998093E+01 0. -1.
       -5    1    3    3    0  502  0.27415901607E+03  0.10553080181E+03 -0.11381918700E+04  0.11755010588E+04  0.46999998093E+01 0.  1.
</event>
<event>
 5   0  0.1151180E-06  0.3723718E+04  0.7818609E-02  0.8062726E-01
       -2   -1    0    0    0  501  0.00000000000E+00  0.00000000000E+00  0.18103021979E+04  0.18103021979E+04  0.25500000920E-02 0. -1.
        2   -1    0    0  501    0  0.00000000000E+00  0.00000000000E+00 -0.19148843841E+04  0.19148843841E+04  0.25500000920E-02 0.  1.
    10030    2    1    2    0    0  0.00000000000E+00  0.00000000000E+00 -0.10458218623E+03  0.37251865820E+04  0.37237182542E+04 0.  0.
        5    1    3    3  502    0 -0.91557459834E+03 -0.98809184684E+03 -0.13380585588E+04  0.18986903749E+04  0.46999998093E+01 0.  1.
       -5    1    3    3    0  502  0.91557459834E+03  0.98809184684E+03  0.12334763726E+04  0.18264962071E+04  0.46999998093E+01 0. -1.
</event>
<event>
 5   0  0.1685793E-06  0.1871148E+04  0.7818609E-02  0.8669352E-01
       -2   -1    0    0    0  501  0.00000000000E+00  0.00000000000E+00  0.89795905155E+03  0.89795905156E+03  0.25500000920E-02 0.  1.
        2   -1    0    0  501    0  0.00000000000E+00  0.00000000000E+00 -0.97476491488E+03  0.97476491488E+03  0.25500000920E-02 0. -1.
    10030    2    1    2    0    0  0.00000000000E+00  0.00000000000E+00 -0.76805863321E+02  0.18727239664E+04  0.18711482875E+04 0.  0.
        3    1    3    3  502    0 -0.15072856826E+03 -0.76332018526E+03 -0.55838076938E+03  0.95768778854E+03  0.10100000352E+00 0. -1.
       -3    1    3    3    0  502  0.15072856826E+03  0.76332018526E+03  0.48157490606E+03  0.91503617789E+03  0.10100000352E+00 0.  1.
</event>
<event>
 5   0  0.6186440E-07  0.3659789E+04  0.7818609E-02  0.8076932E-01
       -1   -1    0    0    0  501  0.00000000000E+00  0.00000000000E+00  0.12943527699E+04  0.12943527699E+04  0.50400001928E-02 0.  1.
        1   -1    0    0  501    0  0.00000000000E+00  0.00000000000E+00 -0.25870173660E+04  0.25870173660E+04  0.50400001928E-02 0. -1.
    10030    2    1    2    0    0  0.00000000000E+00  0.00000000000E+00 -0.12926645961E+04  0.38813701359E+04  0.36597885696E+04 0.  0.
        3    1    3    3  502    0  0.17765070165E+04  0.42582879025E+03 -0.53406599267E+03  0.19032955191E+04  0.10100000352E+00 0.  1.
       -3    1    3    3    0  502 -0.17765070165E+04 -0.42582879025E+03 -0.75859860346E+03  0.19780746168E+04  0.10100000352E+00 0. -1.
</event>
<event>
 5   0  0.1151180E-06  0.3963097E+04  0.7818609E-02  0.8012033E-01
        2   -1    0    0  501    0  0.00000000000E+00  0.00000000000E+00  0.34307325938E+04  0.34307325938E+04  0.25500000920E-02 0. -1.
       -2   -1    0    0    0  501  0.00000000000E+00  0.00000000000E+00 -0.11445180593E+04  0.11445180593E+04  0.25500000920E-02 0.  1.
    10030    2    1    2    0    0  0.00000000000E+00  0.00000000000E+00  0.22862145344E+04  0.45752506531E+04  0.39630974807E+04 0.  0.
        5    1    3    3  502    0  0.34430930191E+03  0.49682654824E+03 -0.10354747628E+04  0.11990060838E+04  0.46999998093E+01 0.  1.
       -5    1    3    3    0  502 -0.34430930191E+03 -0.49682654824E+03  0.33216892973E+04  0.33762445694E+04  0.46999998093E+01 0. -1.
</event>
<event>
 5   0  0.1680194E-06  0.2539478E+04  0.7818609E-02  0.8389055E-01
        2   -1    0    0  501    0  0.00000000000E+00  0.00000000000E+00  0.14579526585E+04  0.14579526585E+04  0.25500000920E-02 0.  1.
       -2   -1    0    0    0  501  0.00000000000E+00  0.00000000000E+00 -0.11058229703E+04  0.11058229703E+04  0.25500000920E-02 0. -1.
    10030    2    1    2    0    0  0.00000000000E+00  0.00000000000E+00  0.35212968812E+03  0.25637756288E+04  0.25394783239E+04 0.  0.
        2    1    3    3  502    0  0.12024291568E+04 -0.90557821678E+02 -0.22548553375E+03  0.12267356366E+04  0.25500000920E-02 0. -1.
       -2    1    3    3    0  502 -0.12024291568E+04  0.90557821678E+02  0.57761522188E+03  0.13370399922E+04  0.25500000920E-02 0.  1.
</event>
<event>
 5   0  0.1685793E-06  0.3728286E+04  0.7818609E-02  0.8061722E-01
       -2   -1    0    0    0  501  0.00000000000E+00  0.00000000000E+00  0.27366226790E+04  0.27366226790E+04  0.25500000920E-02 0.  1.
        2   -1    0    0  501    0  0.00000000000E+00  0.00000000000E+00 -0.12698237246E+04  0.12698237246E+04  0.25500000920E-02 0. -1.
    10030    2    1    2    0    0  0.00000000000E+00  0.00000000000E+00  0.14667989544E+04  0.40064464036E+04  0.37282856130E+04 0.  0.
        3    1    3    3  502    0  0.17587118218E+04 -0.61541954507E+03  0.67242169214E+03  0.19808986422E+04  0.10100000352E+00 0.  1.
       -3    1    3    3    0  502 -0.17587118218E+04  0.61541954507E+03  0.79437726225E+03  0.20255477613E+04  0.10100000352E+00 0. -1.
</event>
<event>
 5   0  0.5679750E-07  0.2162382E+04  0.7818609E-02  0.8534251E-01
        1   -1    0    0  501    0  0.00000000000E+00  0.00000000000E+00  0.98081006726E+03  0.98081006727E+03  0.50400001928E-02 0. -1.
       -1   -1    0    0    0  501  0.00000000000E+00  0.00000000000E+00 -0.11918448606E+04  0.11918448606E+04  0.50400001928E-02 0.  1.
    10030    2    1    2    0    0  0.00000000000E+00  0.00000000000E+00 -0.21103479337E+03  0.21726549279E+04  0.21623815001E+04 0.  0.
        4    1    3    3  502    0  0.31894144092E+03  0.57551557692E+03  0.75648048143E+03  0.10025996976E+04  0.12699999809E+01 0. -1.
       -4    1    3    3    0  502 -0.31894144092E+03 -0.57551557692E+03 -0.96751527480E+03  0.11700552303E+04  0.12699999809E+01 0.  1.
</event>
<event>
 5   0  0.6287345E-07  0.3704268E+04  0.7818609E-02  0.8067017E-01
       -1   -1    0    0    0  501  0.00000000000E+00  0.00000000000E+00  0.16653682510E+04  0.16653682510E+04  0.50400001928E-02 0. -1.
        1   -1    0    0  501    0  0.00000000000E+00  0.00000000000E+00 -0.20598445928E+04  0.20598445928E+04  0.50400001928E-02 0.  1.
    10030    2    1    2    0    0  0.00000000000E+00  0.00000000000E+00 -0.39447634184E+03  0.37252128438E+04  0.37042676938E+04 0.  0.
        5    1    3    3  502    0  0.24208339744E+02  0.10164922010E+04 -0.17540661894E+04  0.20274646051E+04  0.46999998093E+01 0.  1.
       -5    1    3    3    0  502 -0.24208339744E+02 -0.10164922010E+04  0.13595898475E+04  0.16977482387E+04  0.46999998093E+01 0. -1.
</event>
<event>
 5   0  0.1680194E-06  0.2195638E+04  0.7818609E-02  0.8520246E-01
       -2   -1    0    0    0  501  0.00000000000E+00  0.00000000000E+00  0.11270445724E+04  0.11270445724E+04  0.25500000920E-02 0.  1.
        2   -1    0    0  501    0  0.00000000000E+00  0.00000000000E+00 -0.10693515678E+04  0.10693515678E+04  0.25500000920E-02 0. -1.
    10030    2    1    2    0    0  0.00000000000E+00  0.00000000000E+00  0.57693004596E+02  0.21963961401E+04  0.21956382948E+04 0.  0.
        2    1    3    3  502    0  0.68225402356E+03  0.67645945331E+03  0.56019736117E+03  0.11121551277E+04  0.25500000920E-02 0. -1.
       -2    1    3    3    0  502 -0.68225402356E+03 -0.67645945331E+03 -0.50250435658E+03  0.10842410124E+04  0.25500000920E-02 0.  1.
</event>
<event>
 5   0  0.6186440E-07  0.1941105E+04  0.7818609E-02  0.8634662E-01
        1   -1    0    0  501    0  0.00000000000E+00  0.00000000000E+00  0.15579347200E+04  0.15579347200E+04  0.50400001928E-02 0.  1.
       -1   -1    0    0    0  501  0.00000000000E+00  0.00000000000E+00 -0.60462871751E+03  0.60462871753E+03  0.50400001928E-02 0. -1.
    10030    2    1    2    0    0  0.00000000000E+00  0.00000000000E+00  0.95330600250E+03  0.21625634375E+04  0.19411049140E+04 0.  0.
        3    1    3    3  502    0  0.66979516395E+03  0.12123730257E+03 -0.29412263568E+03  0.74150669599E+03  0.10100000352E+00 0. -1.
       -3    1    3    3    0  502 -0.66979516395E+03 -0.12123730257E+03  0.12474286382E+04  0.14210567416E+04  0.10100000352E+00 0.  1.
</event>
<event>
 5   0  0.6261598E-07  0.3721304E+04  0.7818609E-02  0.8063257E-01
       -1   -1    0    0    0  501  0.00000000000E+00  0.00000000000E+00  0.16890339981E+04  0.16890339982E+04  0.50400001928E-02 0. -1.
        1   -1    0    0  501    0  0.00000000000E+00  0.00000000000E+00 -0.20497073630E+04  0.20497073631E+04  0.50400001928E-02 0.  1.
    10030    2    1    2    0    0  0.00000000000E+00  0.00000000000E+00 -0.36067336490E+03  0.37387413612E+04  0.37213037621E+04 0.  0.
        1    1    3    3  502    0 -0.15646958864E+04  0.43821964725E+03  0.73039638435E+03  0.17815129959E+04  0.50400001928E-02 0. -1.
       -1    1    3    3    0  502  0.15646958864E+04 -0.43821964725E+03 -0.10910697492E+04  0.19572283653E+04  0.50400001928E-02 0.  1.
</event>
<event>
 5   0  0.1184684E-06  0.3215788E+04  0.7818609E-02  0.8184660E-01
        2   -1    0    0  501    0  0.00000000000E+00  0.00000000000E+00  0.18737535275E+04  0.18737535275E+04  0.25500000920E-02 0.  1.
       -2   -1    0    0    0  501  0.00000000000E+00  0.00000000000E+00 -0.13797561686E+04  0.13797561686E+04  0.25500000920E-02 0. -1.
    10030    2    1    2    0    0  0.00000000000E+00  0.00000000000E+00  0.49399735887E+03  0.32535096960E+04  0.32157879208E+04 0.  0.
        4    1    3    3  502    0 -0.41592826867E+03  0.14957773867E+04  0.67020561965E+03  0.16910125667E+04  0.12699999809E+01 0.  1.
       -4    1    3    3    0  502  0.41592826867E+03 -0.14957773867E+04 -0.17620826078E+03  0.15624971294E+04  0.12699999809E+01 0. -1.
</event>
<event>
 5   0  0.6261598E-07  0.3676729E+04  0.7818609E-02  0.8073139E-01
       -1   -1    0    0    0  501  0.00000000000E+00  0.00000000000E+00  0.19230565577E+04  0.19230565577E+04  0.50400001928E-02 0.  1.
        1   -1    0    0  501    0  0.00000000000E+00  0.00000000000E+00 -0.17574026494E+04  0.17574026494E+04  0.50400001928E-02 0. -1.
    10030    2    1    2    0    0  0.00000000000E+00  0.00000000000E+00  0.16565390823E+03  0.36804592071E+04  0.36767293561E+04 0.  0.
        1    1    3    3  502    0  0.10911934846E+04 -0.76731136034E+03 -0.11834126987E+04  0.17832373818E+04  0.50400001928E-02 0. -1.
       -1    1    3    3    0  502 -0.10911934846E+04  0.76731136034E+03  0.13490666069E+04  0.18972218253E+04  0.50400001928E-02 0.  1.
</event>
<event>
 5   0  0.5875011E-07  0.3527493E+04  0.7818609E-02  0.8107305E-01
        1   -1    0    0  501    0  0.00000000000E+00  0.00000000000E+00  0.24958587796E+04  0.24958587796E+04  0.50400001928E-02 0. -1.
       -1   -1    0    0    0  501  0.00000000000E+00  0.00000000000E+00 -0.12463856594E+04  0.12463856594E+04  0.50400001928E-02 0.  1.
    10030    2    1    2    0    0  0.00000000000E+00  0.00000000000E+00  0.12494731202E+04  0.37422444390E+04  0.35274934958E+04 0.  0.
        2    1    3    3  502    0 -0.25558864099E+02 -0.86561334568E+02 -0.12439341412E+04  0.12472041805E+04  0.25500000920E-02 0.  1.
       -2    1    3    3    0  502  0.25558864099E+02  0.86561334568E+02  0.24934072614E+04  0.24950402585E+04  0.25500000920E-02 0. -1.
</event>
<event>
 5   0  0.5679750E-07  0.3654424E+04  0.7818609E-02  0.8078138E-01
        3   -1    0    0  501    0  0.00000000000E+00  0.00000000000E+00  0.24638905322E+04  0.24638905343E+04  0.10100000352E+00 0.  1.
       -3   -1    0    0    0  501  0.00000000000E+00  0.00000000000E+00 -0.13550533404E+04  0.13550533442E+04  0.10100000352E+00 0. -1.
    10030    2    1    2    0    0  0.00000000000E+00  0.00000000000E+00  0.11088371918E+04  0.38189438785E+04  0.36544236795E+04 0.  0.
        3    1    3    3  502    0 -0.29350373411E+03 -0.14764655092E+04  0.16367118400E+04  0.22237177202E+04  0.10100000352E+00 0.  1.
       -3    1    3    3    0  502  0.29350373411E+03  0.14764655092E+04 -0.52787464815E+03  0.15952261583E+04  0.10100000352E+00 0. -1.
</event>
<event>
 5   0  0.6261598E-07  0.3764302E+04  0.7818609E-02  0.8053859E-01
        1   -1    0    0  501    0  0.00000000000E+00  0.00000000000E+00  0.22369586789E+04  0.22369586789E+04  0.50400001928E-02 0. -1.
       -1   -1    0    0    0  501  0.00000000000E+00  0.00000000000E+00 -0.15836198659E+04  0.15836198659E+04  0.50400001928E-02 0.  1.
    10030    2    1    2    0    0  0.00000000000E+00  0.00000000000E+00  0.65333881297E+03  0.38205785448E+04  0.37643019024E+04 0.  0.
        1    1    3    3  502    0 -0.12049040863E+04 -0.60699979864E+03 -0.10052953399E+04  0.16825163694E+04  0.50400001928E-02 0.  1.
       -1    1    3    3    0  502  0.12049040863E+04  0.60699979864E+03  0.16586341529E+04  0.21380621754E+04  0.50400001928E-02 0. -1.
</event>
<event>
 5   0  0.1685793E-06  0.2793179E+04  0.7818609E-02  0.8305389E-01
        2   -1    0    0  501    0  0.00000000000E+00  0.00000000000E+00  0.20772896033E+04  0.20772896033E+04  0.25500000920E-02 0.  1.
       -2   -1    0    0    0  501  0.00000000000E+00  0.00000000000E+00 -0.93894591729E+03  0.93894591729E+03  0.25500000920E-02 0. -1.
    10030    2    1    2    0    0  0.00000000000E+00  0.00000000000E+00  0.11383436860E+04  0.30162355206E+04  0.27931792582E+04 0.  0.
        3    1    3    3  502    0  0.91876877681E+03 -0.10410585018E+04  0.40710788991E+03  0.14469539432E+04  0.10100000352E+00 0.  1.
       -3    1    3    3    0  502 -0.91876877681E+03  0.10410585018E+04  0.73123579613E+03  0.15692815774E+04  0.10100000352E+00 0. -1.
</event>
<event>
 5   0  0.5875011E-07  0.3732717E+04  0.7818609E-02  0.8060750E-01
       -1   -1    0    0    0  501  0.00000000000E+00  0.00000000000E+00  0.20988969738E+04  0.20988969738E+04  0.50400001928E-02 0. -1.
        1   -1    0    0  501    0  0.00000000000E+00  0.00000000000E+00 -0.16595835500E+04  0.16595835500E+04  0.50400001928E-02 0.  1.
    10030    2    1    2    0    0  0.00000000000E+00  0.00000000000E+00  0.43931342381E+03  0.37584805239E+04  0.37327174503E+04 0.  0.
        2    1    3    3  502    0 -0.40562741229E+03  0.16080449149E+04  0.10816923178E+04  0.19800000799E+04  0.25500000920E-02 0. -1.
       -2    1    3    3    0  502  0.40562741229E+03 -0.16080449149E+04 -0.64237889401E+03  0.17784804440E+04  0.25500000920E-02 0.  1.
</event>
<event>
 5   0  0.6186440E-07  0.3675593E+04  0.7818609E-02  0.8073392E-01
       -1   -1    0    0    0  501  0.00000000000E+00  0.00000000000E+00  0.11798305322E+04  0.11798305322E+04  0.50400001928E-02 0.  1.
        1   -1    0    0  501    0  0.00000000000E+00  0.00000000000E+00 -0.28626963031E+04  0.28626963031E+04  0.50400001928E-02 0. -1.
    10030    2    1    2    0    0  0.00000000000E+00  0.00000000000E+00 -0.16828657708E+04  0.40425268353E+04  0.36755932870E+04 0.  0.
        3    1    3    3  502    0  0.16586724905E+04  0.52191276972E+03 -0.14957244794E+04  0.22936388335E+04  0.10100000352E+00 0. -1.
       -3    1    3    3    0  502 -0.16586724905E+04 -0.52191276972E+03 -0.18714129142E+03  0.17488880018E+04  0.10100000352E+00 0.  1.
</event>
<event>
 5   0  0.1151180E-06  0.3732463E+04  0.7818609E-02  0.8060805E-01
        2   -1    0    0  501    0  0.00000000000E+00  0.00000000000E+00  0.19859122940E+04  0.19859122940E+04  0.25500000920E-02 0.  1.
       -2   -1    0    0    0  501  0.00000000000E+00  0.00000000000E+00 -0.17537636799E+04  0.17537636799E+04  0.25500000920E-02 0. -1.
    10030    2    1    2    0    0  0.00000000000E+00  0.00000000000E+00  0.23214861411E+03  0.37396759739E+04  0.37324634507E+04 0.  0.
        5    1    3    3  502    0 -0.11453557145E+04 -0.14614811760E+04 -0.71455269925E+02  0.18581966759E+04  0.46999998093E+01 0. -1.
       -5    1    3    3    0  502  0.11453557145E+04  0.14614811760E+04  0.30360388403E+03  0.18814792981E+04  0.46999998093E+01 0.  1.
</event>
<event>
 5   0  0.6186440E-07  0.2070830E+04  0.7818609E-02  0.8574203E-01
        1   -1    0    0  501    0  0.00000000000E+00  0.00000000000E+00  0.10605047347E+04  0.10605047348E+04  0.50400001928E-02 0.  1.
       -1   -1    0    0    0  501  0.00000000000E+00  0.00000000000E+00 -0.10109191496E+04  0.10109191496E+04  0.50400001928E-02 0. -1.
    10030    2    1    2    0    0  0.00000000000E+00  0.00000000000E+00  0.49585585160E+02  0.20714238844E+04  0.20708303114E+04 0.  0.
        3    1    3    3  502    0 -0.21584725868E+03 -0.22693243730E+03  0.10119881165E+04  0.10593433477E+04  0.10100000352E+00 0.  1.
       -3    1    3    3    0  502  0.21584725868E+03  0.22693243730E+03 -0.96240253133E+03  0.10120805367E+04  0.10100000352E+00 0. -1.
</event>
<event>
 5   0  0.1184684E-06  0.3457553E+04  0.7818609E-02  0.8123924E-01
        2   -1    0    0  501    0  0.00000000000E+00  0.00000000000E+00  0.26223726461E+04  0.26223726461E+04  0.25500000920E-02 0. -1.
       -2   -1    0    0    0  501  0.00000000000E+00  0.00000000000E+00 -0.11396812159E+04  0.11396812159E+04  0.25500000920E-02 0.  1.
    10030    2    1    2    0    0  0.00000000000E+00  0.00000000000E+00  0.14826914302E+04  0.37620538620E+04  0.34575533811E+04 0.  0.
        4    1    3    3  502    0 -0.10425301289E+04 -0.55245946753E+03  0.21161863788E+04  0.24228757574E+04  0.12699999809E+01 0. -1.
       -4    1    3    3    0  502  0.10425301289E+04  0.55245946753E+03 -0.63349494862E+03  0.13391781046E+04  0.12699999809E+01 0.  1.
</event>
<event>
 5   0  0.5679750E-07  0.3665434E+04  0.7818609E-02  0.8075666E-01
        3   -1    0    0  501    0  0.00000000000E+00  0.00000000000E+00  0.16516065941E+04  0.16516065972E+04  0.10100000352E+00 0. -1.
       -3   -1    0    0    0  501  0.00000000000E+00  0.00000000000E+00 -0.20336872879E+04  0.20336872904E+04  0.10100000352E+00 0.  1.
    10030    2    1    2    0    0  0.00000000000E+00  0.00000000000E+00 -0.38208069382E+03  0.36852938876E+04  0.36654338599E+04 0.  0.
        2    1    3    3  502    0 -0.85827563260E+02 -0.18132957222E+04  0.62204515320E+02  0.18163912433E+04  0.25500000920E-02 0.  1.
       -2    1    3    3    0  502  0.85827563260E+02  0.18132957222E+04 -0.44428520914E+03  0.18689026443E+04  0.25500000920E-02 0. -1.
</event>
<event>
 5   0  0.5875011E-07  0.2278205E+04  0.7818609E-02  0.8486564E-01
       -1   -1    0    0    0  501  0.00000000000E+00  0.00000000000E+00  0.62540795512E+03  0.62540795514E+03  0.50400001928E-02 0.  1.
        1   -1    0    0  501    0  0.00000000000E+00  0.00000000000E+00 -0.20747332791E+04  0.20747332791E+04  0.50400001928E-02 0. -1.
    10030    2    1    2    0    0  0.00000000000E+00  0.00000000000E+00 -0.14493253240E+04  0.27001412343E+04  0.22782051686E+04 0.  0.
        2    1    3    3  502    0 -0.44380570878E+03 -0.10421355773E+03 -0.19619006505E+04  0.20141693412E+04  0.25500000920E-02 0. -1.
       -2    1    3    3    0  502  0.44380570878E+03  0.10421355773E+03  0.51257532647E+03  0.68597189306E+03  0.25500000920E-02 0.  1.
</event>
<event>
 5   0  0.1151180E-06  0.3671761E+04  0.7818609E-02  0.8074249E-01
       -2   -1    0    0    0  501  0.00000000000E+00  0.00000000000E+00  0.18313748906E+04  0.18313748906E+04  0.25500000920E-02 0. -1.
        2   -1    0    0  501    0  0.00000000000E+00  0.00000000000E+00 -0.18403971975E+04  0.18403971976E+04  0.25500000920E-02 0.  1.
    10030    2    1    2    0    0  0.00000000000E+00  0.00000000000E+00 -0.90223069894E+01  0.36717720881E+04  0.36717610033E+04 0.  0.
        5    1    3    3  502    0 -0.93767249130E+03  0.54188969933E+03  0.14779105975E+04  0.18322434258E+04  0.46999998093E+01 0. -1.
       -5    1    3    3    0  502  0.93767249130E+03 -0.54188969933E+03 -0.14869329045E+04  0.18395286623E+04  0.46999998093E+01 0.  1.
</event>
<event>
 5   0  0.5679750E-07  0.3752193E+04  0.7818609E-02  0.8056493E-01
       -1   -1    0    0    0  501  0.00000000000E+00  0.00000000000E+00  0.18449211833E+04  0.18449211833E+04  0.50400001928E-02 0.  1.
        1   -1    0    0  501    0  0.00000000000E+00  0.00000000000E+00 -0.19077981273E+04  0.19077981273E+04  0.50400001928E-02 0. -1.
    10030    2    1    2    0    0  0.00000000000E+00  0.00000000000E+00 -0.62876943994E+02  0.37527193106E+04  0.37521925210E+04 0.  0.
        4    1    3    3  502    0  0.17234689046E+04 -0.73546902157E+03 -0.12351560758E+03  0.18779024110E+04  0.12699999809E+01 0.  1.
       -4    1    3    3    0  502 -0.17234689046E+04  0.73546902157E+03  0.60638663587E+02  0.18748168997E+04  0.12699999809E+01 0. -1.
</event>
<event>
 5   0  0.1724503E-06  0.2898620E+04  0.7818609E-02  0.8273288E-01
       -2   -1    0    0    0  501  0.00000000000E+00  0.00000000000E+00  0.12659981767E+04  0.12659981767E+04  0.25500000920E-02 0. -1.
        2   -1    0    0  501    0  0.00000000000E+00  0.00000000000E+00 -0.16591641601E+04  0.16591641601E+04  0.25500000920E-02 0.  1.
    10030    2    1    2    0    0  0.00000000000E+00  0.00000000000E+00 -0.39316598339E+03  0.29251623368E+04  0.28986195345E+04 0.  0.
        1    1    3    3  502    0  0.38081036993E+03  0.13701507580E+04 -0.47873067708E+03  0.15005041482E+04  0.50400001928E-02 0.  1.
       -1    1    3    3    0  502 -0.38081036993E+03 -0.13701507580E+04  0.85564693697E+02  0.14246581886E+04  0.50400001928E-02 0. -1.
</event>
<event>
 5   0  0.1151180E-06  0.3708452E+04  0.7818609E-02  0.8066091E-01
        2   -1    0    0  501    0  0.00000000000E+00  0.00000000000E+00  0.19713818618E+04  0.19713818618E+04  0.25500000920E-02 0. -1.
       -2   -1    0    0    0  501  0.00000000000E+00  0.00000000000E+00 -0.17440323199E+04  0.17440323199E+04  0.25500000920E-02 0.  1.
    10030    2    1    2    0    0  0.00000000000E+00  0.00000000000E+00  0.22734954188E+03  0.37154141817E+04  0.37084517966E+04 0.  0.
        5    1    3    3  502    0 -0.15664862721E+04  0.52086000132E+02 -0.87891195910E+03  0.17969698144E+04  0.46999998093E+01 0.  1.
       -5    1    3    3    0  502  0.15664862721E+04 -0.52086000132E+02  0.11062615010E+04  0.19184443673E+04  0.46999998093E+01 0. -1.
</event>
<event>
 5   0  0.6287345E-07  0.3064398E+04  0.7818609E-02  0.8225577E-01
        1   -1    0    0  501    0  0.00000000000E+00  0.00000000000E+00  0.19699448756E+04  0.19699448756E+04  0.50400001928E-02 0.  1.
       -1   -1    0    0    0  501  0.00000000000E+00  0.00000000000E+00 -0.11917259683E+04  0.11917259683E+04  0.50400001928E-02 0. -1.
    10030    2    1    2    0    0  0.00000000000E+00  0.00000000000E+00  0.77821890738E+03  0.31616708439E+04  0.30643984495E+04 0.  0.
        5    1    3    3  502    0  0.56736531820E+02 -0.10555326974E+04  0.15334810230E+04  0.18625129388E+04  0.46999998093E+01 0.  1.
       -5    1    3    3    0  502 -0.56736531820E+02  0.10555326974E+04 -0.75526211560E+03  0.12991579051E+04  0.46999998093E+01 0. -1.
</event>
<event>
 5   0  0.1423921E-06  0.1823461E+04  0.7818609E-02  0.8693922E-01
        2   -1    0    0  501    0  0.00000000000E+00  0.00000000000E+00  0.23767058193E+04  0.23767058193E+04  0.25500000920E-02 0.  1.
       -2   -1    0    0    0  501  0.00000000000E+00  0.00000000000E+00 -0.34974981813E+03  0.34974981814E+03  0.25500000920E-02 0. -1.
    10030    2    1    2    0    0  0.00000000000E+00  0.00000000000E+00  0.20269560012E+04  0.27264556375E+04  0.18234609160E+04 0.  0.
        5    1    3    3  502    0 -0.14684798164E+03 -0.40804039670E+03 -0.18564723530E+03  0.47175023161E+03  0.46999998093E+01 0. -1.
       -5    1    3    3    0  502  0.14684798164E+03  0.40804039670E+03  0.22126032365E+04  0.22547054059E+04  0.46999998093E+01 0.  1.
</event>
<event>
 5   0  0.1151180E-06  0.3531186E+04  0.7818609E-02  0.8106439E-01
        2   -1    0    0  501    0  0.00000000000E+00  0.00000000000E+00  0.11893293485E+04  0.11893293485E+04  0.25500000920E-02 0. -1.
       -2   -1    0    0    0  501  0.00000000000E+00  0.00000000000E+00 -0.26210723304E+04  0.26210723304E+04  0.25500000920E-02 0.  1.
    10030    2    1    2    0    0  0.00000000000E+00  0.00000000000E+00 -0.14317429819E+04  0.38104016789E+04  0.35311857765E+04 0.  0.
        5    1    3    3  502    0  0.11663870019E+04 -0.95230404764E+03 -0.17106995755E+04  0.22790034588E+04  0.46999998093E+01 0.  1.
       -5    1    3    3    0  502 -0.11663870019E+04  0.95230404764E+03  0.27895659362E+03  0.15313982201E+04  0.46999998093E+01 0. -1.
</event>
<event>
 5   0  0.1184684E-06  0.3747999E+04  0.7818609E-02  0.8057407E-01
       -2   -1    0    0    0  501  0.00000000000E+00  0.00000000000E+00  0.21909498839E+04  0.21909498839E+04  0.25500000920E-02 0. -1.
        2   -1    0    0  501    0  0.00000000000E+00  0.00000000000E+00 -0.16029000402E+04  0.16029000402E+04  0.25500000920E-02 0.  1.
    10030    2    1    2    0    0  0.00000000000E+00  0.00000000000E+00  0.58804984366E+03  0.37938499241E+04  0.37479987497E+04 0.  0.
        4    1    3    3  502    0  0.69228985835E+03  0.33898373890E+03  0.20230480035E+04  0.21649249550E+04  0.12699999809E+01 0. -1.
       -4    1    3    3    0  502 -0.69228985835E+03 -0.33898373890E+03 -0.14349981599E+04  0.16289249691E+04  0.12699999809E+01 0.  1.
</event>
<event>
 5   0  0.1661399E-06  0.1940417E+04  0.7818609E-02  0.8634996E-01
       -2   -1    0    0    0  501  0.00000000000E+00  0.00000000000E+00  0.52736322981E+03  0.52736322982E+03  0.25500000920E-02 0.  1.
        2   -1    0    0  501    0  0.00000000000E+00  0.00000000000E+00 -0.17849254884E+04  0.17849254884E+04  0.25500000920E-02 0. -1.
    10030    2    1    2    0    0  0.00000000000E+00  0.00000000000E+00 -0.12575622586E+04  0.23122887182E+04  0.19404165229E+04 0.  0.
        5    1    3    3  502    0  0.31978576160E+03  0.28109198248E+02  0.46222807996E+03  0.56278765823E+03  0.46999998093E+01 0.  1.
       -5    1    3    3    0  502 -0.31978576160E+03 -0.28109198248E+02 -0.17197903386E+04  0.17495010600E+04  0.46999998093E+01 0. -1.
</event>
<event>
 5   0  0.5679750E-07  0.3703653E+04  0.7818609E-02  0.8067153E-01
        1   -1    0    0  501    0  0.00000000000E+00  0.00000000000E+00  0.20216983069E+04  0.20216983069E+04  0.50400001928E-02 0.  1.
       -1   -1    0    0    0  501  0.00000000000E+00  0.00000000000E+00 -0.16962284945E+04  0.16962284945E+04  0.50400001928E-02 0. -1.
    10030    2    1    2    0    0  0.00000000000E+00  0.00000000000E+00  0.32546981242E+03  0.37179268014E+04  0.37036534803E+04 0.  0.
        4    1    3    3  502    0  0.16345725967E+04 -0.29779723622E+02  0.10358836468E+04  0.19353994287E+04  0.12699999809E+01 0.  1.
       -4    1    3    3    0  502 -0.16345725967E+04  0.29779723622E+02 -0.71041383442E+03  0.17825273728E+04  0.12699999809E+01 0. -1.
</event>
<event>
 5   0  0.6261598E-07  0.2187327E+04  0.7818609E-02  0.8523722E-01
        1   -1    0    0  501    0  0.00000000000E+00  0.00000000000E+00  0.17597959963E+04  0.17597959963E+04  0.50400001928E-02 0.  1.
       -1   -1    0    0    0  501  0.00000000000E+00  0.00000000000E+00 -0.67968073441E+03  0.67968073443E+03  0.50400001928E-02 0. -1.
    10030    2    1    2    0    0  0.00000000000E+00  0.00000000000E+00  0.10801152619E+04  0.24394767307E+04  0.21873266196E+04 0.  0.
        1    1    3    3  502    0 -0.18931758047E+03  0.97366462984E+03  0.10538551855E+04  0.14472300128E+04  0.50400001928E-02 0. -1.
       -1    1    3    3    0  502  0.18931758047E+03 -0.97366462984E+03  0.26260076322E+02  0.99224671797E+03  0.50400001928E-02 0.  1.
</event>
<event>
 5   0  0.1680194E-06  0.2705820E+04  0.7818609E-02  0.8333119E-01
        2   -1    0    0  501    0  0.00000000000E+00  0.00000000000E+00  0.11706336399E+04  0.11706336399E+04  0.25500000920E-02 0.  1.
       -2   -1    0    0    0  501  0.00000000000E+00  0.00000000000E+00 -0.15635680078E+04  0.15635680078E+04  0.25500000920E-02 0. -1.
    10030    2    1    2    0    0  0.00000000000E+00  0.00000000000E+00 -0.39293436798E+03  0.27342016477E+04  0.27058198818E+04 0.  0.
        2    1    3    3  502    0 -0.55856611989E+02 -0.11576229717E+04  0.50881834471E+03  0.12657436603E+04  0.25500000920E-02 0. -1.
       -2    1    3    3    0  502  0.55856611989E+02  0.11576229717E+04 -0.90175271269E+03  0.14684579873E+04  0.25500000920E-02 0.  1.
</event>
<event>
 5   0  0.5679750E-07  0.1895682E+04  0.7818609E-02  0.8657009E-01
        1   -1    0    0  501    0  0.00000000000E+00  0.00000000000E+00  0.19622788971E+04  0.19622788971E+04  0.50400001928E-02 0. -1.
       -1   -1    0    0    0  501  0.00000000000E+00  0.00000000000E+00 -0.45783611317E+03  0.45783611320E+03  0.50400001928E-02 0.  1.
    10030    2    1    2    0    0  0.00000000000E+00  0.00000000000E+00  0.15044427840E+04  0.24201150103E+04  0.18956815590E+04 0.  0.
        4    1    3    3  502    0 -0.12237808100E+03  0.88978547009E+03  0.11388280988E+04  0.14503880960E+04  0.12699999809E+01 0. -1.
       -4    1    3    3    0  502  0.12237808100E+03 -0.88978547009E+03  0.36561468517E+03  0.96972691435E+03  0.12699999809E+01 0.  1.
</event>
<event>
 5   0  0.1151180E-06  0.3720095E+04  0.7818609E-02  0.8063523E-01
        2   -1    0    0  501    0  0.00000000000E+00  0.00000000000E+00  0.27549985067E+04  0.27549985067E+04  0.25500000920E-02 0.  1.
       -2   -1    0    0    0  501  0.00000000000E+00  0.00000000000E+00 -0.12558181252E+04  0.12558181252E+04  0.25500000920E-02 0. -1.
    10030    2    1    2    0    0  0.00000000000E+00  0.00000000000E+00  0.14991803815E+04  0.40108166319E+04  0.37200951921E+04 0.  0.
        5    1    3    3  502    0 -0.36821881345E+03  0.17627170624E+04  0.12518252809E+04  0.21931359194E+04  0.46999998093E+01 0. -1.
       -5    1    3    3    0  502  0.36821881345E+03 -0.17627170624E+04  0.24735510060E+03  0.18176807125E+04  0.46999998093E+01 0.  1.
</event>
<event>
 5   0  0.6261598E-07  0.3738724E+04  0.7818609E-02  0.8059434E-01
        1   -1    0    0  501    0  0.00000000000E+00  0.00000000000E+00  0.19285388696E+04  0.19285388696E+04  0.50400001928E-02 0.  1.
       -1   -1    0    0    0  501  0.00000000000E+00  0.00000000000E+00 -0.18120007748E+04  0.18120007748E+04  0.50400001928E-02 0. -1.
    10030    2    1    2    0    0  0.00000000000E+00  0.00000000000E+00  0.11653809487E+03  0.37405396444E+04  0.37387238069E+04 0.  0.
        1    1    3    3  502    0 -0.15882483308E+04 -0.18281504912E+03  0.10275325470E+04  0.19004676365E+04  0.50400001928E-02 0.  1.
       -1    1    3    3    0  502  0.15882483308E+04  0.18281504912E+03 -0.91099445211E+03  0.18400720079E+04  0.50400001928E-02 0. -1.
</event>
<event>
 5   0  0.1680194E-06  0.3462915E+04  0.7818609E-02  0.8122635E-01
        2   -1    0    0  501    0  0.00000000000E+00  0.00000000000E+00  0.23508481650E+04  0.23508481650E+04  0.25500000920E-02 0.  1.
       -2   -1    0    0    0  501  0.00000000000E+00  0.00000000000E+00 -0.12752613822E+04  0.12752613822E+04  0.25500000920E-02 0. -1.
    10030    2    1    2    0    0  0.00000000000E+00  0.00000000000E+00  0.10755867828E+04  0.36261095471E+04  0.34629154654E+04 0.  0.
        2    1    3    3  502    0  0.15681665406E+04  0.31206673801E+03  0.12334934638E+04  0.20194152800E+04  0.25500000920E-02 0.  1.
       -2    1    3    3    0  502 -0.15681665406E+04 -0.31206673801E+03 -0.15790668099E+03  0.16066942671E+04  0.25500000920E-02 0. -1.
</event>
<event>
 5   0  0.6287345E-07  0.3757194E+04  0.7818609E-02  0.8055404E-01
       -1   -1    0    0    0  501  0.00000000000E+00  0.00000000000E+00  0.23646076439E+04  0.23646076440E+04  0.50400001928E-02 0. -1.
        1   -1    0    0  501    0  0.00000000000E+00  0.00000000000E+00 -0.14924790154E+04  0.14924790154E+04  0.50400001928E-02 0.  1.
    10030    2    1    2    0    0  0.00000000000E+00  0.00000000000E+00  0.87212862855E+03  0.38570866594E+04  0.37571943193E+04 0.  0.
        5    1    3    3  502    0 -0.72635464186E+03  0.34006294994E+02 -0.13421424453E+04  0.15264717250E+04  0.46999998093E+01 0.  1.
       -5    1    3    3    0  502  0.72635464186E+03 -0.34006294994E+02  0.22142710738E+04  0.23306149344E+04  0.46999998093E+01 0. -1.
</event>
<event>
 5   0  0.1685793E-06  0.3683736E+04  0.7818609E-02  0.8071576E-01
        2   -1    0    0  501    0  0.00000000000E+00  0.00000000000E+00  0.25744829376E+04  0.25744829376E+04  0.25500000920E-02 0.  1.
       -2   -1    0    0    0  501  0.00000000000E+00  0.00000000000E+00 -0.13177318952E+04  0.13177318952E+04  0.25500000920E-02 0. -1.
    10030    2    1    2    0    0  0.00000000000E+00  0.00000000000E+00  0.12567510424E+04  0.38922148328E+04  0.36837362992E+04 0.  0.
        3    1    3    3  502    0 -0.48463355545E+03  0.85897583447E+03 -0.10152210755E+04  0.14154091315E+04  0.10100000352E+00 0. -1.
       -3    1    3    3    0  502  0.48463355545E+03 -0.85897583447E+03  0.22719721178E+04  0.24768057012E+04  0.10100000352E+00 0.  1.
</event>
<event>
 5   0  0.5679750E-07  0.3699914E+04  0.7818609E-02  0.8067981E-01
        1   -1    0    0  501    0  0.00000000000E+00  0.00000000000E+00  0.19758366842E+04  0.19758366842E+04  0.50400001928E-02 0.  1.
       -1   -1    0    0    0  501  0.00000000000E+00  0.00000000000E+00 -0.17320973137E+04  0.17320973137E+04  0.50400001928E-02 0. -1.
    10030    2    1    2    0    0  0.00000000000E+00  0.00000000000E+00  0.24373937052E+03  0.37079339979E+04  0.36999142763E+04 0.  0.
        4    1    3    3  502    0  0.15989263583E+04  0.33634245460E+03 -0.74756368404E+03  0.17968151882E+04  0.12699999809E+01 0. -1.
       -4    1    3    3    0  502 -0.15989263583E+04 -0.33634245460E+03  0.99130305455E+03  0.19111188097E+04  0.12699999809E+01 0.  1.
</event>
<event>
 5   0  0.5875011E-07  0.2239987E+04  0.7818609E-02  0.8501967E-01
        1   -1    0    0  501    0  0.00000000000E+00  0.00000000000E+00  0.14436592354E+04  0.14436592355E+04  0.50400001928E-02 0.  1.
       -1   -1    0    0    0  501  0.00000000000E+00  0.00000000000E+00 -0.86889295449E+03  0.86889295451E+03  0.50400001928E-02 0. -1.
    10030    2    1    2    0    0  0.00000000000E+00  0.00000000000E+00  0.57476628095E+03  0.23125521900E+04  0.22399869092E+04 0.  0.
        2    1    3    3  502    0  0.32278700236E+03  0.28718508380E+03 -0.77939588970E+03  0.89113673145E+03  0.25500000920E-02 0. -1.
       -2    1    3    3    0  502 -0.32278700236E+03 -0.28718508380E+03  0.13541621707E+04  0.14214154585E+04  0.25500000920E-02 0.  1.
</event>
<event>
 5   0  0.1685793E-06  0.3761296E+04  0.7818609E-02  0.8054512E-01
       -2   -1    0    0    0  501  0.00000000000E+00  0.00000000000E+00  0.14997934163E+04  0.14997934163E+04  0.25500000920E-02 0.  1.
        2   -1    0    0  501    0  0.00000000000E+00  0.00000000000E+00 -0.23582166729E+04  0.23582166729E+04  0.25500000920E-02 0. -1.
    10030    2    1    2    0    0  0.00000000000E+00  0.00000000000E+00 -0.85842325661E+03  0.38580100892E+04  0.37612965000E+04 0.  0.
        3    1    3    3  502    0 -0.31012055569E+03 -0.12239105055E+04 -0.18588603694E+04  0.22471078229E+04  0.10100000352E+00 0. -1.
       -3    1    3    3    0  502  0.31012055569E+03  0.12239105055E+04  0.10004371128E+04  0.16109022663E+04  0.10100000352E+00 0.  1.
</event>
<event>
 5   0  0.6186440E-07  0.3616190E+04  0.7818609E-02  0.8086793E-01
        1   -1    0    0  501    0  0.00000000000E+00  0.00000000000E+00  0.18138161026E+04  0.18138161026E+04  0.50400001928E-02 0.  1.
       -1   -1    0    0    0  501  0.00000000000E+00  0.00000000000E+00 -0.18023915196E+04  0.18023915196E+04  0.50400001928E-02 0. -1.
    10030    2    1    2    0    0  0.00000000000E+00  0.00000000000E+00  0.11424582956E+02  0.36162076222E+04  0.36161895755E+04 0.  0.
        3    1    3    3  502    0  0.24369190951E+03  0.12032450586E+04  0.13331308089E+04  0.18122974871E+04  0.10100000352E+00 0.  1.
       -3    1    3    3    0  502 -0.24369190951E+03 -0.12032450586E+04 -0.13217062260E+04  0.18039101352E+04  0.10100000352E+00 0. -1.
</event>
<event>
 5   0  0.6287345E-07  0.3715535E+04  0.7818609E-02  0.8064528E-01
        1   -1    0    0  501    0  0.00000000000E+00  0.00000000000E+00  0.20376538994E+04  0.20376538994E+04  0.50400001928E-02 0. -1.
       -1   -1    0    0    0  501  0.00000000000E+00  0.00000000000E+00 -0.16937613483E+04  0.16937613483E+04  0.50400001928E-02 0.  1.
    10030    2    1    2    0    0  0.00000000000E+00  0.00000000000E+00  0.34389255117E+03  0.37314152477E+04  0.37155346404E+04 0.  0.
        5    1    3    3  502    0 -0.57339293030E+03 -0.15914900698E+04 -0.59922719636E+03  0.17946351768E+04  0.46999998093E+01 0.  1.
       -5    1    3    3    0  502  0.57339293030E+03  0.15914900698E+04  0.94311974753E+03  0.19367800709E+04  0.46999998093E+01 0. -1.
</event>
<event>
 5   0  0.1184684E-06  0.3783139E+04  0.7818609E-02  0.8049783E-01
       -2   -1    0    0    0  501  0.00000000000E+00  0.00000000000E+00  0.15085361896E+04  0.15085361896E+04  0.25500000920E-02 0.  1.
        2   -1    0    0  501    0  0.00000000000E+00  0.00000000000E+00 -0.23718585837E+04  0.23718585837E+04  0.25500000920E-02 0. -1.
    10030    2    1    2    0    0  0.00000000000E+00  0.00000000000E+00 -0.86332239416E+03  0.38803947733E+04  0.37831386494E+04 0.  0.
        4    1    3    3  502    0 -0.25098514043E+03 -0.13141912798E+04 -0.18031750558E+04  0.22453360896E+04  0.12699999809E+01 0. -1.
       -4    1    3    3    0  502  0.25098514043E+03  0.13141912798E+04  0.93985266161E+03  0.16350586837E+04  0.12699999809E+01 0.  1.
</event>
<event>
 5   0  0.5679750E-07  0.3621630E+04  0.7818609E-02  0.8085555E-01
       -1   -1    0    0    0  501  0.00000000000E+00  0.00000000000E+00  0.19654519197E+04  0.19654519197E+04  0.50400001928E-02 0. -1.
        1   -1    0    0  501    0  0.00000000000E+00  0.00000000000E+00 -0.16683441546E+04  0.16683441546E+04  0.50400001928E-02 0.  1.
    10030    2    1    2    0    0  0.00000000000E+00  0.00000000000E+00  0.29710776514E+03  0.36337960743E+04  0.36216295898E+04 0.  0.
        4    1    3    3  502    0  0.35857074044E+03  0.51928468672E+03  0.18515533473E+04  0.19561393029E+04  0.12699999809E+01 0. -1.
       -4    1    3    3    0  502 -0.35857074044E+03 -0.51928468672E+03 -0.15544455821E+04  0.16776567714E+04  0.12699999809E+01 0.  1.
</event>
<event>
 5   0  0.1680194E-06  0.3239010E+04  0.7818609E-02  0.8178590E-01
        2   -1    0    0  501    0  0.00000000000E+00  0.00000000000E+00  0.18375942795E+04  0.18375942795E+04  0.25500000920E-02 0.  1.
       -2   -1    0    0    0  501  0.00000000000E+00  0.00000000000E+00 -0.14272987909E+04  0.14272987909E+04  0.25500000920E-02 0. -1.
    10030    2    1    2    0    0  0.00000000000E+00  0.00000000000E+00  0.41029548860E+03  0.32648930705E+04  0.32390097829E+04 0.  0.
        2    1    3    3  502    0  0.90218957620E+03  0.10744719288E+04  0.10205372533E+04  0.17349156299E+04  0.25500000920E-02 0.  1.
       -2    1    3    3    0  502 -0.90218957620E+03 -0.10744719288E+04 -0.61024176475E+03  0.15299774406E+04  0.25500000920E-02 0. -1.
</event>
<event>
 5   0  0.6261598E-07  0.2107723E+04  0.7818609E-02  0.8557849E-01
        1   -1    0    0  501    0  0.00000000000E+00  0.00000000000E+00  0.12037279508E+04  0.12037279508E+04  0.50400001928E-02 0. -1.
       -1   -1    0    0    0  501  0.00000000000E+00  0.00000000000E+00 -0.92265348945E+03  0.92265348947E+03  0.50400001928E-02 0.  1.
    10030    2    1    2    0    0  0.00000000000E+00  0.00000000000E+00  0.28107446137E+03  0.21263814403E+04  0.21077227467E+04 0.  0.
        1    1    3    3  502    0 -0.91174653821E+03  0.51221996751E+03  0.27197003866E+03  0.10805640874E+04  0.50400001928E-02 0. -1.
       -1    1    3    3    0  502  0.91174653821E+03 -0.51221996751E+03  0.91044227049E+01  0.10458173529E+04  0.50400001928E-02 0.  1.
</event>
<event>
 5   0  0.1184684E-06  0.3694652E+04  0.7818609E-02  0.8069148E-01
       -2   -1    0    0    0  501  0.00000000000E+00  0.00000000000E+00  0.18685625208E+04  0.18685625208E+04  0.25500000920E-02 0. -1.
        2   -1    0    0  501    0  0.00000000000E+00  0.00000000000E+00 -0.18263304026E+04  0.18263304026E+04  0.25500000920E-02 0.  1.
    10030    2    1    2    0    0  0.00000000000E+00  0.00000000000E+00  0.42232118154E+02  0.36948929235E+04  0.36946515619E+04 0.  0.
        4    1    3    3  502    0 -0.13358752099E+04  0.12910229620E+03 -0.12483686749E+04  0.18329364257E+04  0.12699999809E+01 0.  1.
       -4    1    3    3    0  502  0.13358752099E+04 -0.12910229620E+03  0.12906007931E+04  0.18619564977E+04  0.12699999809E+01 0. -1.
</event>
<event>
 5   0  0.1724503E-06  0.3820290E+04  0.7818609E-02  0.8041815E-01
       -2   -1    0    0    0  501  0.00000000000E+00  0.00000000000E+00  0.29309556670E+04  0.29309556670E+04  0.25500000920E-02 0.  1.
        2   -1    0    0  501    0  0.00000000000E+00  0.00000000000E+00 -0.12448680633E+04  0.12448680633E+04  0.25500000920E-02 0. -1.
    10030    2    1    2    0    0  0.00000000000E+00  0.00000000000E+00  0.16860876036E+04  0.41758237303E+04  0.38202895727E+04 0.  0.
        1    1    3    3  502    0 -0.13955874512E+04  0.13039693644E+04  0.87096871815E+03  0.20991872107E+04  0.50400001928E-02 0.  1.
       -1    1    3    3    0  502  0.13955874512E+04 -0.13039693644E+04  0.81511888548E+03  0.20766365197E+04  0.50400001928E-02 0. -1.
</event>
<event>
 5   0  0.6261598E-07  0.3378728E+04  0.7818609E-02  0.8143147E-01
        1   -1    0    0  501    0  0.00000000000E+00  0.00000000000E+00  0.20112446463E+04  0.20112446463E+04  0.50400001928E-02 0. -1.
       -1   -1    0    0    0  501  0.00000000000E+00  0.00000000000E+00 -0.14189974128E+04  0.14189974128E+04  0.50400001928E-02 0.  1.
    10030    2    1    2    0    0  0.00000000000E+00  0.00000000000E+00  0.59224723342E+03  0.34302420591E+04  0.33787281333E+04 0.  0.
        1    1    3    3  502    0 -0.15282474659E+04 -0.70719316267E+03  0.15882690790E+03  0.16914161147E+04  0.50400001928E-02 0. -1.
       -1    1    3    3    0  502  0.15282474659E+04  0.70719316267E+03  0.43342032552E+03  0.17388259444E+04  0.50400001928E-02 0.  1.
</event>
<event>
 5   0  0.6186440E-07  0.2370372E+04  0.7818609E-02  0.8450680E-01
        1   -1    0    0  501    0  0.00000000000E+00  0.00000000000E+00  0.11747062875E+04  0.11747062875E+04  0.50400001928E-02 0. -1.
       -1   -1    0    0    0  501  0.00000000000E+00  0.00000000000E+00 -0.11957587104E+04  0.11957587104E+04  0.50400001928E-02 0.  1.
    10030    2    1    2    0    0  0.00000000000E+00  0.00000000000E+00 -0.21052422864E+02  0.23704649979E+04  0.23703715113E+04 0.  0.
        3    1    3    3  502    0 -0.59999878418E+03 -0.61823120103E+03  0.80342044618E+03  0.11780037277E+04  0.10100000352E+00 0. -1.
       -3    1    3    3    0  502  0.59999878418E+03  0.61823120103E+03 -0.82447286904E+03  0.11924612702E+04  0.10100000352E+00 0.  1.
</event>
<event>
 5   0  0.6261598E-07  0.3578499E+04  0.7818609E-02  0.8095435E-01
       -1   -1    0    0    0  501  0.00000000000E+00  0.00000000000E+00  0.13714073418E+04  0.13714073418E+04  0.50400001928E-02 0.  1.
        1   -1    0    0  501    0  0.00000000000E+00  0.00000000000E+00 -0.23344001564E+04  0.23344001564E+04  0.50400001928E-02 0. -1.
    10030    2    1    2    0    0  0.00000000000E+00  0.00000000000E+00 -0.96299281458E+03  0.37058074982E+04  0.35784988547E+04 0.  0.
        1    1    3    3  502    0 -0.12345891425E+04 -0.45747525013E+03 -0.17361767723E+04  0.21789455569E+04  0.50400001928E-02 0. -1.
       -1    1    3    3    0  502  0.12345891425E+04  0.45747525013E+03  0.77318395770E+03  0.15268619413E+04  0.50400001928E-02 0.  1.
</event>
<event>
 5   0  0.6186440E-07  0.1915848E+04  0.7818609E-02  0.8647008E-01
        1   -1    0    0  501    0  0.00000000000E+00  0.00000000000E+00  0.11994970869E+04  0.11994970869E+04  0.50400001928E-02 0.  1.
       -1   -1    0    0    0  501  0.00000000000E+00  0.00000000000E+00 -0.76500277204E+03  0.76500277206E+03  0.50400001928E-02 0. -1.
    10030    2    1    2    0    0  0.00000000000E+00  0.00000000000E+00  0.43449431486E+03  0.19644998590E+04  0.19158482159E+04 0.  0.
        3    1    3    3  502    0  0.91907396417E+03  0.26748042303E+03  0.25528165787E+03  0.99066213381E+03  0.10100000352E+00 0.  1.
       -3    1    3    3    0  502 -0.91907396417E+03 -0.26748042303E+03  0.17921265699E+03  0.97383772516E+03  0.10100000352E+00 0. -1.
</event>
<event>
 5   0  0.1680194E-06  0.1897299E+04  0.7818609E-02  0.8656202E-01
        2   -1    0    0  501    0  0.00000000000E+00  0.00000000000E+00  0.14157759970E+04  0.14157759970E+04  0.25500000920E-02 0.  1.
       -2   -1    0    0    0  501  0.00000000000E+00  0.00000000000E+00 -0.63564845566E+03  0.63564845567E+03  0.25500000920E-02 0. -1.
    10030    2    1    2    0    0  0.00000000000E+00  0.00000000000E+00  0.78012754137E+03  0.20514244527E+04  0.18972989497E+04 0.  0.
        2    1    3    3  502    0 -0.88805806014E+03  0.12358467292E+03  0.72509903256E+03  0.11531213711E+04  0.25500000920E-02 0.  1.
       -2    1    3    3    0  502  0.88805806014E+03 -0.12358467292E+03  0.55028508817E+02  0.89830308157E+03  0.25500000920E-02 0. -1.
</event>
<event>
 5   0  0.6261598E-07  0.3697635E+04  0.7818609E-02  0.8068486E-01
       -1   -1    0    0    0  501  0.00000000000E+00  0.00000000000E+00  0.21902965940E+04  0.21902965940E+04  0.50400001928E-02 0. -1.
        1   -1    0    0  501    0  0.00000000000E+00  0.00000000000E+00 -0.15605765156E+04  0.15605765156E+04  0.50400001928E-02 0.  1.
    10030    2    1    2    0    0  0.00000000000E+00  0.00000000000E+00  0.62972007835E+03  0.37508731096E+04  0.36976346098E+04 0.  0.
        1    1    3    3  502    0  0.60816349952E+03  0.11151790128E+03 -0.14525887606E+04  0.15787061765E+04  0.50400001928E-02 0.  1.
       -1    1    3    3    0  502 -0.60816349952E+03 -0.11151790128E+03  0.20823088389E+04  0.21721669331E+04  0.50400001928E-02 0. -1.
</event>
<event>
 5   0  0.5679750E-07  0.3709686E+04  0.7818609E-02  0.8065819E-01
       -3   -1    0    0    0  501  0.00000000000E+00  0.00000000000E+00  0.12025173510E+04  0.12025173552E+04  0.10100000352E+00 0. -1.
        3   -1    0    0  501    0  0.00000000000E+00  0.00000000000E+00 -0.28610341264E+04  0.28610341281E+04  0.10100000352E+00 0.  1.
    10030    2    1    2    0    0  0.00000000000E+00  0.00000000000E+00 -0.16585167754E+04  0.40635514833E+04  0.37096863430E+04 0.  0.
        3    1    3    3  502    0 -0.38754479580E+03 -0.59593538872E+03  0.10473817673E+04  0.12658351128E+04  0.10100000352E+00 0. -1.
       -3    1    3    3    0  502  0.38754479580E+03  0.59593538872E+03 -0.27058985427E+04  0.27977163705E+04  0.10100000352E+00 0.  1.
</event>
<event>
 5   0  0.1724503E-06  0.3713973E+04  0.7818609E-02  0.8064872E-01
        2   -1    0    0  501    0  0.00000000000E+00  0.00000000000E+00  0.19664575268E+04  0.19664575268E+04  0.25500000920E-02 0.  1.
       -2   -1    0    0    0  501  0.00000000000E+00  0.00000000000E+00 -0.17536094789E+04  0.17536094789E+04  0.25500000920E-02 0. -1.
    10030    2    1    2    0    0  0.00000000000E+00  0.00000000000E+00  0.21284804797E+03  0.37200670057E+04  0.37139728372E+04 0.  0.
        1    1    3    3  502    0 -0.74472677545E+03  0.50973876126E+03 -0.15191829507E+04  0.17670224708E+04  0.50400001928E-02 0. -1.
       -1    1    3    3    0  502  0.74472677545E+03 -0.50973876126E+03  0.17320309986E+04  0.19530445348E+04  0.50400001928E-02 0.  1.
</event>
<event>
 5   0  0.1184684E-06  0.3581999E+04  0.7818609E-02  0.8094628E-01
        2   -1    0    0  501    0  0.00000000000E+00  0.00000000000E+00  0.11772062411E+04  0.11772062411E+04  0.25500000920E-02 0.  1.
       -2   -1    0    0    0  501  0.00000000000E+00  0.00000000000E+00 -0.27248227618E+04  0.27248227618E+04  0.25500000920E-02 0. -1.
    10030    2    1    2    0    0  0.00000000000E+00  0.00000000000E+00 -0.15476165207E+04  0.39020290029E+04  0.35819985266E+04 0.  0.
        4    1    3    3  502    0  0.15266850305E+04  0.50922779152E+03 -0.16298945586E+04  0.22905540839E+04  0.12699999809E+01 0.  1.
       -4    1    3    3    0  502 -0.15266850305E+04 -0.50922779152E+03  0.82278037928E+02  0.16114749190E+04  0.12699999809E+01 0. -1.
</event>
<event>
 5   0  0.6261598E-07  0.2381804E+04  0.7818609E-02  0.8446347E-01
       -1   -1    0    0    0  501  0.00000000000E+00  0.00000000000E+00  0.15547911181E+04  0.15547911181E+04  0.50400001928E-02 0. -1.
        1   -1    0    0  501    0  0.00000000000E+00  0.00000000000E+00 -0.91217895801E+03  0.91217895802E+03  0.50400001928E-02 0.  1.
    10030    2    1    2    0    0  0.00000000000E+00  0.00000000000E+00  0.64261216009E+03  0.24669700761E+04  0.23818041414E+04 0.  0.
        1    1    3    3  502    0  0.32933729787E+03  0.94729245180E+03  0.98646985292E+03  0.14067511563E+04  0.50400001928E-02 0. -1.
       -1    1    3    3    0  502 -0.32933729787E+03 -0.94729245180E+03 -0.34385769284E+03  0.10602189198E+04  0.50400001928E-02 0.  1.
</event>
<event>
 5   0  0.1724503E-06  0.4251507E+04  0.7818609E-02  0.7955646E-01
       -2   -1    0    0    0  501  0.00000000000E+00  0.00000000000E+00  0.18097691842E+04  0.18097691842E+04  0.25500000920E-02 0.  1.
        2   -1    0    0  501    0  0.00000000000E+00  0.00000000000E+00 -0.24969087031E+04  0.24969087031E+04  0.25500000920E-02 0. -1.
    10030    2    1    2    0    0  0.00000000000E+00  0.00000000000E+00 -0.68713951891E+03  0.43066778872E+04  0.42515072276E+04 0.  0.
        1    1    3    3  502    0 -0.21085270841E+04  0.23497860316E+02 -0.61611474446E+03  0.21968240695E+04  0.50400001928E-02 0. -1.
       -1    1    3    3    0  502  0.21085270841E+04 -0.23497860316E+02 -0.71024774451E+02  0.21098538178E+04  0.50400001928E-02 0.  1.
</event>
<event>
 5   0  0.1724503E-06  0.1829709E+04  0.7818609E-02  0.8690658E-01
       -2   -1    0    0    0  501  0.00000000000E+00  0.00000000000E+00  0.94022118936E+03  0.94022118936E+03  0.25500000920E-02 0.  1.
        2   -1    0    0  501    0  0.00000000000E+00  0.00000000000E+00 -0.89017202017E+03  0.89017202018E+03  0.25500000920E-02 0. -1.
    10030    2    1    2    0    0  0.00000000000E+00  0.00000000000E+00  0.50049169184E+02  0.18303932095E+04  0.18297088244E+04 0.  0.
        1    1    3    3  502    0  0.35861609194E+03  0.43996648248E+03 -0.69272729417E+03  0.89557082981E+03  0.50400001928E-02 0. -1.
       -1    1    3    3    0  502 -0.35861609194E+03 -0.43996648248E+03  0.74277646335E+03  0.93482237973E+03  0.50400001928E-02 0.  1.
</event>
<event>
 5   0  0.1151180E-06  0.3607082E+04  0.7818609E-02  0.8088871E-01
       -2   -1    0    0    0  501  0.00000000000E+00  0.00000000000E+00  0.21744478223E+04  0.21744478223E+04  0.25500000920E-02 0.  1.
        2   -1    0    0  501    0  0.00000000000E+00  0.00000000000E+00 -0.14959013336E+04  0.14959013336E+04  0.25500000920E-02 0. -1.
    10030    2    1    2    0    0  0.00000000000E+00  0.00000000000E+00  0.67854648870E+03  0.36703491559E+04  0.36070815889E+04 0.  0.
        5    1    3    3  502    0 -0.17947486507E+04  0.44825706318E+02  0.51435292155E+03  0.18675419891E+04  0.46999998093E+01 0. -1.
       -5    1    3    3    0  502  0.17947486507E+04 -0.44825706318E+02  0.16419356714E+03  0.18028071668E+04  0.46999998093E+01 0.  1.
</event>
<event>
 5   0  0.6186440E-07  0.2810589E+04  0.7818609E-02  0.8299989E-01
       -1   -1    0    0    0  501  0.00000000000E+00  0.00000000000E+00  0.13927870939E+04  0.13927870939E+04  0.50400001928E-02 0.  1.
        1   -1    0    0  501    0  0.00000000000E+00  0.00000000000E+00 -0.14179137821E+04  0.14179137821E+04  0.50400001928E-02 0. -1.
    10030    2    1    2    0    0  0.00000000000E+00  0.00000000000E+00 -0.25126688196E+02  0.28107008760E+04  0.28105885619E+04 0.  0.
        3    1    3    3  502    0  0.76261370903E+02  0.99851883489E+03 -0.99850149181E+03  0.14141643821E+04  0.10100000352E+00 0. -1.
       -3    1    3    3    0  502 -0.76261370903E+02 -0.99851883489E+03  0.97337480361E+03  0.13965364939E+04  0.10100000352E+00 0.  1.
</event>
<event>
 5   0  0.5679750E-07  0.2641602E+04  0.7818609E-02  0.8354206E-01
       -1   -1    0    0    0  501  0.00000000000E+00  0.00000000000E+00  0.11538472124E+04  0.11538472124E+04  0.50400001928E-02 0.  1.
        1   -1    0    0  501    0  0.00000000000E+00  0.00000000000E+00 -0.15119119916E+04  0.15119119916E+04  0.50400001928E-02 0. -1.
    10030    2    1    2    0    0  0.00000000000E+00  0.00000000000E+00 -0.35806477921E+03  0.26657592041E+04  0.26416021176E+04 0.  0.
        4    1    3    3  502    0 -0.12136075972E+04 -0.25836816991E+03  0.27778410807E+03  0.12715200096E+04  0.12699999809E+01 0.  1.
       -4    1    3    3    0  502  0.12136075972E+04  0.25836816991E+03 -0.63584888728E+03  0.13942391945E+04  0.12699999809E+01 0. -1.
</event>
<event>
 5   0  0.1685793E-06  0.3328951E+04  0.7818609E-02  0.8155568E-01
       -2   -1    0    0    0  501  0.00000000000E+00  0.00000000000E+00  0.14106609517E+04  0.14106609517E+04  0.25500000920E-02 0. -1.
        2   -1    0    0  501    0  0.00000000000E+00  0.00000000000E+00 -0.19639584304E+04  0.19639584304E+04  0.25500000920E-02 0.  1.
    10030    2    1    2    0    0  0.00000000000E+00  0.00000000000E+00 -0.55329747868E+03  0.33746193821E+04  0.33289514677E+04 0.  0.
        3    1    3    3  502    0  0.12230251279E+04 -0.65516923184E+03 -0.12087418808E+04  0.18401342697E+04  0.10100000352E+00 0. -1.
       -3    1    3    3    0  502 -0.12230251279E+04  0.65516923184E+03  0.65544440211E+03  0.15344851124E+04  0.10100000352E+00 0.  1.
</event>
<event>
 5   0  0.1724503E-06  0.3562616E+04  0.7818609E-02  0.8099109E-01
       -2   -1    0    0    0  501  0.00000000000E+00  0.00000000000E+00  0.20756080548E+04  0.20756080548E+04  0.25500000920E-02 0. -1.
        2   -1    0    0  501    0  0.00000000000E+00  0.00000000000E+00 -0.15287363913E+04  0.15287363913E+04  0.25500000920E-02 0.  1.
    10030    2    1    2    0    0  0.00000000000E+00  0.00000000000E+00  0.54687166344E+03  0.36043444461E+04  0.35626156500E+04 0.  0.
        1    1    3    3  502    0  0.15945721515E+04 -0.78140538480E+03  0.13106496903E+03  0.17805709051E+04  0.50400001928E-02 0.  1.
       -1    1    3    3    0  502 -0.15945721515E+04  0.78140538480E+03  0.41580669441E+03  0.18237735410E+04  0.50400001928E-02 0. -1.
</event>
<event>
 5   0  0.1184684E-06  0.3737637E+04  0.7818609E-02  0.8059672E-01
        2   -1    0    0  501    0  0.00000000000E+00  0.00000000000E+00  0.25823049962E+04  0.25823049962E+04  0.25500000920E-02 0. -1.
       -2   -1    0    0    0  501  0.00000000000E+00  0.00000000000E+00 -0.13524670977E+04  0.13524670977E+04  0.25500000920E-02 0.  1.
    10030    2    1    2    0    0  0.00000000000E+00  0.00000000000E+00  0.12298378985E+04  0.39347720940E+04  0.37376369774E+04 0.  0.
        4    1    3    3  502    0  0.14652855607E+04  0.81880536561E+03  0.14798210052E+04  0.22377166536E+04  0.12699999809E+01 0. -1.
       -4    1    3    3    0  502 -0.14652855607E+04 -0.81880536561E+03 -0.24998310672E+03  0.16970554404E+04  0.12699999809E+01 0.  1.
</event>
<event>
 5   0  0.1724503E-06  0.3698018E+04  0.7818609E-02  0.8068401E-01
        2   -1    0    0  501    0  0.00000000000E+00  0.00000000000E+00  0.15795120735E+04  0.15795120735E+04  0.25500000920E-02 0. -1.
       -2   -1    0    0    0  501  0.00000000000E+00  0.00000000000E+00 -0.21644877463E+04  0.21644877463E+04  0.25500000920E-02 0.  1.
    10030    2    1    2    0    0  0.00000000000E+00  0.00000000000E+00 -0.58497567280E+03  0.37439998198E+04  0.36980181332E+04 0.  0.
        1    1    3    3  502    0  0.16299793053E+04  0.86624375575E+03 -0.40164189318E+03  0.18890545229E+04  0.50400001928E-02 0.  1.
       -1    1    3    3    0  502 -0.16299793053E+04 -0.86624375575E+03 -0.18333377962E+03  0.18549452970E+04  0.50400001928E-02 0. -1.
</event>
<event>
 5   0  0.6186440E-07  0.3507279E+04  0.7818609E-02  0.8112067E-01
       -1   -1    0    0    0  501  0.00000000000E+00  0.00000000000E+00  0.14980726435E+04  0.14980726435E+04  0.50400001928E-02 0. -1.
        1   -1    0    0  501    0  0.00000000000E+00  0.00000000000E+00 -0.20528055815E+04  0.20528055815E+04  0.50400001928E-02 0.  1.
    10030    2    1    2    0    0  0.00000000000E+00  0.00000000000E+00 -0.55473293799E+03  0.35508782251E+04  0.35072792214E+04 0.  0.
        3    1    3    3  502    0  0.11684387655E+04  0.23513489383E+03  0.10249812310E+04  0.15719809481E+04  0.10100000352E+00 0. -1.
       -3    1    3    3    0  502 -0.11684387655E+04 -0.23513489383E+03 -0.15797141689E+04  0.19788972770E+04  0.10100000352E+00 0.  1.
</event>
<event>
 5   0  0.5875011E-07  0.3690769E+04  0.7818609E-02  0.8070011E-01
       -1   -1    0    0    0  501  0.00000000000E+00  0.00000000000E+00  0.20227479896E+04  0.20227479896E+04  0.50400001928E-02 0.  1.
        1   -1    0    0  501    0  0.00000000000E+00  0.00000000000E+00 -0.16835733835E+04  0.16835733835E+04  0.50400001928E-02 0. -1.
    10030    2    1    2    0    0  0.00000000000E+00  0.00000000000E+00  0.33917460608E+03  0.37063213731E+04  0.36907693923E+04 0.  0.
        2    1    3    3  502    0  0.16916496714E+04 -0.21022525803E+03  0.87936925238E+03  0.19181145825E+04  0.25500000920E-02 0.  1.
       -2    1    3    3    0  502 -0.16916496714E+04  0.21022525803E+03 -0.54019464630E+03  0.17882067905E+04  0.25500000920E-02 0. -1.
</event>
<event>
 5   0  0.6186440E-07  0.2063216E+04  0.7818609E-02  0.8577622E-01
       -1   -1    0    0    0  501  0.00000000000E+00  0.00000000000E+00  0.56724789959E+03  0.56724789961E+03  0.50400001928E-02 0. -1.
        1   -1    0    0  501    0  0.00000000000E+00  0.00000000000E+00 -0.18761023491E+04  0.18761023491E+04  0.50400001928E-02 0.  1.
    10030    2    1    2    0    0  0.00000000000E+00  0.00000000000E+00 -0.13088544495E+04  0.24433502487E+04  0.20632160498E+04 0.  0.
        3    1    3    3  502    0 -0.89122745904E+03 -0.38980570460E+03 -0.10611941651E+04  0.14395721369E+04  0.10100000352E+00 0.  1.
       -3    1    3    3    0  502  0.89122745904E+03  0.38980570460E+03 -0.24766028438E+03  0.10037781118E+04  0.10100000352E+00 0. -1.
</event>
<event>
 5   0  0.5875011E-07  0.2624564E+04  0.7818609E-02  0.8359905E-01
        1   -1    0    0  501    0  0.00000000000E+00  0.00000000000E+00  0.12668047093E+04  0.12668047093E+04  0.50400001928E-02 0. -1.
       -1   -1    0    0    0  501  0.00000000000E+00  0.00000000000E+00 -0.13593921763E+04  0.13593921763E+04  0.50400001928E-02 0.  1.
    10030    2    1    2    0    0  0.00000000000E+00  0.00000000000E+00 -0.92587466995E+02  0.26261968856E+04  0.26245642768E+04 0.  0.
        2    1    3    3  502    0  0.68610252914E+03 -0.16135385506E+03  0.10613332561E+04  0.12740486755E+04  0.25500000920E-02 0. -1.
       -2    1    3    3    0  502 -0.68610252914E+03  0.16135385506E+03 -0.11539207231E+04  0.13521482101E+04  0.25500000920E-02 0.  1.
</event>
<event>
 5   0  0.1685793E-06  0.3127489E+04  0.7818609E-02  0.8208234E-01
       -2   -1    0    0    0  501  0.00000000000E+00  0.00000000000E+00  0.87579678695E+03  0.87579678696E+03  0.25500000920E-02 0.  1.
        2   -1    0    0  501    0  0.00000000000E+00  0.00000000000E+00 -0.27920821879E+04  0.27920821879E+04  0.25500000920E-02 0. -1.
    10030    2    1    2    0    0  0.00000000000E+00  0.00000000000E+00 -0.19162854009E+04  0.36678789748E+04  0.31274888387E+04 0.  0.
        3    1    3    3  502    0  0.14217354223E+04 -0.38943931218E+02 -0.17204078107E+04  0.22321853163E+04  0.10100000352E+00 0. -1.
       -3    1    3    3    0  502 -0.14217354223E+04  0.38943931218E+02 -0.19587759018E+03  0.14356936586E+04  0.10100000352E+00 0.  1.
</event>
<event>
 5   0  0.6261598E-07  0.3674402E+04  0.7818609E-02  0.8073658E-01
       -1   -1    0    0    0  501  0.00000000000E+00  0.00000000000E+00  0.12829241455E+04  0.12829241455E+04  0.50400001928E-02 0.  1.
        1   -1    0    0  501    0  0.00000000000E+00  0.00000000000E+00 -0.26309487022E+04  0.26309487022E+04  0.50400001928E-02 0. -1.
    10030    2    1    2    0    0  0.00000000000E+00  0.00000000000E+00 -0.13480245567E+04  0.39138728477E+04  0.36744020550E+04 0.  0.
        1    1    3    3  502    0  0.17461826382E+04 -0.29136469206E+03 -0.11972066724E+04  0.21371361694E+04  0.50400001928E-02 0. -1.
       -1    1    3    3    0  502 -0.17461826382E+04  0.29136469206E+03 -0.15081788427E+03  0.17767366783E+04  0.50400001928E-02 0.  1.
</event>
<event>
 5   0  0.1151180E-06  0.3289374E+04  0.7818609E-02  0.8165605E-01
       -2   -1    0    0    0  501  0.00000000000E+00  0.00000000000E+00  0.15874922941E+04  0.15874922941E+04  0.25500000920E-02 0. -1.
        2   -1    0    0  501    0  0.00000000000E+00  0.00000000000E+00 -0.17039420273E+04  0.17039420273E+04  0.25500000920E-02 0.  1.
    10030    2    1    2    0    0  0.00000000000E+00  0.00000000000E+00 -0.11644973313E+03  0.32914343214E+04  0.32893737020E+04 0.  0.
        5    1    3    3  502    0 -0.13803299091E+04 -0.31192225366E+03  0.78037328791E+03  0.16160478671E+04  0.46999998093E+01 0. -1.
       -5    1    3    3    0  502  0.13803299091E+04  0.31192225366E+03 -0.89682302104E+03  0.16753864543E+04  0.46999998093E+01 0.  1.
</event>
<event>
 5   0  0.1685793E-06  0.3567821E+04  0.7818609E-02  0.8097903E-01
        2   -1    0    0  501    0  0.00000000000E+00  0.00000000000E+00  0.19820010917E+04  0.19820010917E+04  0.25500000920E-02 0. -1.
       -2   -1    0    0    0  501  0.00000000000E+00  0.00000000000E+00 -0.16056176097E+04  0.16056176097E+04  0.25500000920E-02 0.  1.
    10030    2    1    2    0    0  0.00000000000E+00  0.00000000000E+00  0.37638348204E+03  0.35876187014E+04  0.35678205422E+04 0.  0.
        3    1    3    3  502    0 -0.48071084786E+03 -0.44333509217E+02  0.19150704304E+04  0.19749792766E+04  0.10100000352E+00 0. -1.
       -3    1    3    3    0  502  0.48071084786E+03  0.44333509217E+02 -0.15386869484E+04  0.16126394249E+04  0.10100000352E+00 0.  1.
</event>
<event>
 5   0  0.6261598E-07  0.3525199E+04  0.7818609E-02  0.8107844E-01
        1   -1    0    0  501    0  0.00000000000E+00  0.00000000000E+00  0.14992736531E+04  0.14992736531E+04  0.50400001928E-02 0.  1.
       -1   -1    0    0    0  501  0.00000000000E+00  0.00000000000E+00 -0.20721750496E+04  0.20721750496E+04  0.50400001928E-02 0. -1.
    10030    2    1    2    0    0  0.00000000000E+00  0.00000000000E+00 -0.57290139656E+03  0.35714487027E+04  0.35251992604E+04 0.  0.
        1    1    3    3  502    0 -0.16285816771E+04  0.66991504207E+03 -0.21000872836E+03  0.17734621813E+04  0.50400001928E-02 0.  1.
       -1    1    3    3    0  502  0.16285816771E+04 -0.66991504207E+03 -0.36289266820E+03  0.17979865214E+04  0.50400001928E-02 0. -1.
</event>
<event>
 5   0  0.1184684E-06  0.2483814E+04  0.7818609E-02  0.8408775E-01
       -2   -1    0    0    0  501  0.00000000000E+00  0.00000000000E+00  0.69652600132E+03  0.69652600132E+03  0.25500000920E-02 0.  1.
        2   -1    0    0  501    0  0.00000000000E+00  0.00000000000E+00 -0.22143213923E+04  0.22143213923E+04  0.25500000920E-02 0. -1.
    10030    2    1    2    0    0  0.00000000000E+00  0.00000000000E+00 -0.15177953910E+04  0.29108473936E+04  0.24838135397E+04 0.  0.
        4    1    3    3  502    0 -0.26321354833E+03  0.94328463439E+03  0.13612255443E+03  0.98873567561E+03  0.12699999809E+01 0.  1.
       -4    1    3    3    0  502  0.26321354833E+03 -0.94328463439E+03 -0.16539179454E+04  0.19221117180E+04  0.12699999809E+01 0. -1.
</event>
<event>
 5   0  0.1151180E-06  0.3725316E+04  0.7818609E-02  0.8062375E-01
        2   -1    0    0  501    0  0.00000000000E+00  0.00000000000E+00  0.31352506033E+04  0.31352506033E+04  0.25500000920E-02 0. -1.
       -2   -1    0    0    0  501  0.00000000000E+00  0.00000000000E+00 -0.11066083923E+04  0.11066083924E+04  0.25500000920E-02 0.  1.
    10030    2    1    2    0    0  0.00000000000E+00  0.00000000000E+00  0.20286422109E+04  0.42418589956E+04  0.37253158952E+04 0.  0.
        5    1    3    3  502    0 -0.16021806751E+04  0.63101274503E+03  0.20570384758E+03  0.17342134133E+04  0.46999998093E+01 0.  1.
       -5    1    3    3    0  502  0.16021806751E+04 -0.63101274503E+03  0.18229383633E+04  0.25076455823E+04  0.46999998093E+01 0. -1.
</event>
<event>
 5   0  0.1151180E-06  0.3748449E+04  0.7818609E-02  0.8057309E-01
       -2   -1    0    0    0  501  0.00000000000E+00  0.00000000000E+00  0.14205176761E+04  0.14205176761E+04  0.25500000920E-02 0.  1.
        2   -1    0    0  501    0  0.00000000000E+00  0.00000000000E+00 -0.24728434372E+04  0.24728434372E+04  0.25500000920E-02 0. -1.
    10030    2    1    2    0    0  0.00000000000E+00  0.00000000000E+00 -0.10523257611E+04  0.38933611133E+04  0.37484491794E+04 0.  0.
        5    1    3    3  502    0 -0.44683946917E+02  0.85568917134E+03 -0.22574850017E+04  0.24146348038E+04  0.46999998093E+01 0. -1.
       -5    1    3    3    0  502  0.44683946917E+02 -0.85568917134E+03  0.12051592406E+04  0.14787263094E+04  0.46999998093E+01 0.  1.
</event>
<event>
 5   0  0.5875011E-07  0.2092481E+04  0.7818609E-02  0.8564563E-01
       -1   -1    0    0    0  501  0.00000000000E+00  0.00000000000E+00  0.74126118105E+03  0.74126118107E+03  0.50400001928E-02 0.  1.
        1   -1    0    0  501    0  0.00000000000E+00  0.00000000000E+00 -0.14766976788E+04  0.14766976788E+04  0.50400001928E-02 0. -1.
    10030    2    1    2    0    0  0.00000000000E+00  0.00000000000E+00 -0.73543649774E+03  0.22179588599E+04  0.20924805045E+04 0.  0.
        2    1    3    3  502    0  0.13981072326E+03  0.76846723044E+03  0.37010491649E+03  0.86433012895E+03  0.25500000920E-02 0.  1.
       -2    1    3    3    0  502 -0.13981072326E+03 -0.76846723044E+03 -0.11055414142E+04  0.13536287309E+04  0.25500000920E-02 0. -1.
</event>
<event>
 5   0  0.6261598E-07  0.1928003E+04  0.7818609E-02  0.8641042E-01
       -1   -1    0    0    0  501  0.00000000000E+00  0.00000000000E+00  0.66129852191E+03  0.66129852193E+03  0.50400001928E-02 0.  1.
        1   -1    0    0  501    0  0.00000000000E+00  0.00000000000E+00 -0.14052632763E+04  0.14052632763E+04  0.50400001928E-02 0. -1.
    10030    2    1    2    0    0  0.00000000000E+00  0.00000000000E+00 -0.74396475442E+03  0.20665617983E+04  0.19280026220E+04 0.  0.
        1    1    3    3  502    0  0.38109368511E+03 -0.88016014256E+03 -0.26814812072E+03  0.99590044084E+03  0.50400001928E-02 0.  1.
       -1    1    3    3    0  502 -0.38109368511E+03  0.88016014256E+03 -0.47581663370E+03  0.10706613574E+04  0.50400001928E-02 0. -1.
</event>
<event>
 5   0  0.6186440E-07  0.3242808E+04  0.7818609E-02  0.8177602E-01
        1   -1    0    0  501    0  0.00000000000E+00  0.00000000000E+00  0.17576055782E+04  0.17576055782E+04  0.50400001928E-02 0.  1.
       -1   -1    0    0    0  501  0.00000000000E+00  0.00000000000E+00 -0.14957573031E+04  0.14957573031E+04  0.50400001928E-02 0. -1.
    10030    2    1    2    0    0  0.00000000000E+00  0.00000000000E+00  0.26184827508E+03  0.32533628812E+04  0.32428082765E+04 0.  0.
        3    1    3    3  502    0 -0.81276353890E+03 -0.11330345114E+04  0.96102249314E+03  0.16934922547E+04  0.10100000352E+00 0.  1.
       -3    1    3    3    0  502  0.81276353890E+03  0.11330345114E+04 -0.69917421806E+03  0.15598706266E+04  0.10100000352E+00 0. -1.
</event>
<event>
 5   0  0.1724503E-06  0.3647707E+04  0.7818609E-02  0.8079650E-01
        2   -1    0    0  501    0  0.00000000000E+00  0.00000000000E+00  0.31859995121E+04  0.31859995121E+04  0.25500000920E-02 0. -1.
       -2   -1    0    0    0  501  0.00000000000E+00  0.00000000000E+00 -0.10440812128E+04  0.10440812128E+04  0.25500000920E-02 0.  1.
    10030    2    1    2    0    0  0.00000000000E+00  0.00000000000E+00  0.21419182993E+04  0.42300807250E+04  0.36477073538E+04 0.  0.
        1    1    3    3  502    0  0.47948395739E+03 -0.65743599159E+03 -0.82191384333E+03  0.11565765493E+04  0.50400001928E-02 0.  1.
       -1    1    3    3    0  502 -0.47948395739E+03  0.65743599159E+03  0.29638321426E+04  0.30735041757E+04  0.50400001928E-02 0. -1.
</event>
<event>
 5   0  0.5679750E-07  0.3655771E+04  0.7818609E-02  0.8077835E-01
        1   -1    0    0  501    0  0.00000000000E+00  0.00000000000E+00  0.20642778714E+04  0.20642778714E+04  0.50400001928E-02 0. -1.
       -1   -1    0    0    0  501  0.00000000000E+00  0.00000000000E+00 -0.16185637519E+04  0.16185637520E+04  0.50400001928E-02 0.  1.
    10030    2    1    2    0    0  0.00000000000E+00  0.00000000000E+00  0.44571411945E+03  0.36828416233E+04  0.36557709647E+04 0.  0.
        4    1    3    3  502    0 -0.12506424703E+04 -0.12265377741E+04 -0.30318025235E+03  0.17777574014E+04  0.12699999809E+01 0.  1.
       -4    1    3    3    0  502  0.12506424703E+04  0.12265377741E+04  0.74889437180E+03  0.19050842220E+04  0.12699999809E+01 0. -1.
</event>
<event>
 5   0  0.1184684E-06  0.2187781E+04  0.7818609E-02  0.8523531E-01
       -2   -1    0    0    0  501  0.00000000000E+00  0.00000000000E+00  0.12391635676E+04  0.12391635676E+04  0.25500000920E-02 0. -1.
        2   -1    0    0  501    0  0.00000000000E+00  0.00000000000E+00 -0.96564863827E+03  0.96564863828E+03  0.25500000920E-02 0.  1.
    10030    2    1    2    0    0  0.00000000000E+00  0.00000000000E+00  0.27351492932E+03  0.22048122059E+04  0.21877811697E+04 0.  0.
        4    1    3    3  502    0 -0.77755151391E+03  0.76221673369E+03  0.24261943615E+03  0.11155386634E+04  0.12699999809E+01 0. -1.
       -4    1    3    3    0  502  0.77755151391E+03 -0.76221673369E+03  0.30895493170E+02  0.10892735425E+04  0.12699999809E+01 0.  1.
</event>
<event>
 5   0  0.6261598E-07  0.3787794E+04  0.7818609E-02  0.8048779E-01
       -1   -1    0    0    0  501  0.00000000000E+00  0.00000000000E+00  0.19610603807E+04  0.19610603807E+04  0.50400001928E-02 0. -1.
        1   -1    0    0  501    0  0.00000000000E+00  0.00000000000E+00 -0.18290342779E+04  0.18290342779E+04  0.50400001928E-02 0.  1.
    10030    2    1    2    0    0  0.00000000000E+00  0.00000000000E+00  0.13202610281E+03  0.37900946586E+04  0.37877944281E+04 0.  0.
        1    1    3    3  502    0 -0.59403589322E+03 -0.77920916564E+03  0.16877381939E+04  0.19515393354E+04  0.50400001928E-02 0. -1.
       -1    1    3    3    0  502  0.59403589322E+03  0.77920916564E+03 -0.15557120911E+04  0.18385553233E+04  0.50400001928E-02 0.  1.
</event>
<event>
 5   0  0.1151180E-06  0.3520152E+04  0.7818609E-02  0.8109031E-01
       -2   -1    0    0    0  501  0.00000000000E+00  0.00000000000E+00  0.17869059066E+04  0.17869059066E+04  0.25500000920E-02 0.  1.
        2   -1    0    0  501    0  0.00000000000E+00  0.00000000000E+00 -0.17336486570E+04  0.17336486570E+04  0.25500000920E-02 0. -1.
    10030    2    1    2    0    0  0.00000000000E+00  0.00000000000E+00  0.53257249655E+02  0.35205545636E+04  0.35201517156E+04 0.  0.
        5    1    3    3  502    0  0.13844407162E+03 -0.15766920694E+04 -0.74334277909E+03  0.17486295262E+04  0.46999998093E+01 0. -1.
       -5    1    3    3    0  502 -0.13844407162E+03  0.15766920694E+04  0.79660002874E+03  0.17719250374E+04  0.46999998093E+01 0.  1.
</event>
<event>
 5   0  0.6186440E-07  0.3598483E+04  0.7818609E-02  0.8090839E-01
       -1   -1    0    0    0  501  0.00000000000E+00  0.00000000000E+00  0.14924108769E+04  0.14924108769E+04  0.50400001928E-02 0.  1.
        1   -1    0    0  501    0  0.00000000000E+00  0.00000000000E+00 -0.21691551214E+04  0.21691551214E+04  0.50400001928E-02 0. -1.
    10030    2    1    2    0    0  0.00000000000E+00  0.00000000000E+00 -0.67674424449E+03  0.36615659984E+04  0.35984834011E+04 0.  0.
        3    1    3    3  502    0 -0.11784735461E+04 -0.13750266854E+03 -0.17146975786E+04  0.20851605883E+04  0.10100000352E+00 0. -1.
       -3    1    3    3    0  502  0.11784735461E+04  0.13750266854E+03  0.10379533341E+04  0.15764054100E+04  0.10100000352E+00 0.  1.
</event>
<event>
 5   0  0.1685793E-06  0.3422745E+04  0.7818609E-02  0.8132346E-01
       -2   -1    0    0    0  501  0.00000000000E+00  0.00000000000E+00  0.19622290042E+04  0.19622290042E+04  0.25500000920E-02 0.  1.
        2   -1    0    0  501    0  0.00000000000E+00  0.00000000000E+00 -0.14925864874E+04  0.14925864874E+04  0.25500000920E-02 0. -1.
    10030    2    1    2    0    0  0.00000000000E+00  0.00000000000E+00  0.46964251676E+03  0.34548154916E+04  0.34227453875E+04 0.  0.
        3    1    3    3  502    0 -0.10031879564E+04  0.13855304688E+04  0.18222030258E+03  0.17202572496E+04  0.10100000352E+00 0. -1.
       -3    1    3    3    0  502  0.10031879564E+04 -0.13855304688E+04  0.28742221418E+03  0.17345582421E+04  0.10100000352E+00 0.  1.
</event>
<event>
 5   0  0.1685793E-06  0.3454917E+04  0.7818609E-02  0.8124558E-01
       -2   -1    0    0    0  501  0.00000000000E+00  0.00000000000E+00  0.29671662353E+04  0.29671662353E+04  0.25500000920E-02 0.  1.
        2   -1    0    0  501    0  0.00000000000E+00  0.00000000000E+00 -0.10057111775E+04  0.10057111776E+04  0.25500000920E-02 0. -1.
    10030    2    1    2    0    0  0.00000000000E+00  0.00000000000E+00  0.19614550577E+04  0.39728774128E+04  0.34549166407E+04 0.  0.
        3    1    3    3  502    0 -0.67133535805E+03  0.69906708174E+03  0.26250431472E+04  0.27982561503E+04  0.10100000352E+00 0. -1.
       -3    1    3    3    0  502  0.67133535805E+03 -0.69906708174E+03 -0.66358808947E+03  0.11746212625E+04  0.10100000352E+00 0.  1.
</event>
<event>
 5   0  0.1151180E-06  0.3686960E+04  0.7818609E-02  0.8070858E-01
        2   -1    0    0  501    0  0.00000000000E+00  0.00000000000E+00  0.20514857344E+04  0.20514857344E+04  0.25500000920E-02 0.  1.
       -2   -1    0    0    0  501  0.00000000000E+00  0.00000000000E+00 -0.16565649184E+04  0.16565649184E+04  0.25500000920E-02 0. -1.
    10030    2    1    2    0    0  0.00000000000E+00  0.00000000000E+00  0.39492081602E+03  0.37080506529E+04  0.36869604274E+04 0.  0.
        5    1    3    3  502    0 -0.10298511247E+04 -0.94992335477E+01  0.17351647357E+04  0.20177964031E+04  0.46999998093E+01 0.  1.
       -5    1    3    3    0  502  0.10298511247E+04  0.94992335477E+01 -0.13402439197E+04  0.16902542497E+04  0.46999998093E+01 0. -1.
</event>
<event>
 5   0  0.5875011E-07  0.3590398E+04  0.7818609E-02  0.8092695E-01
       -1   -1    0    0    0  501  0.00000000000E+00  0.00000000000E+00  0.12002042430E+04  0.12002042430E+04  0.50400001928E-02 0. -1.
        1   -1    0    0  501    0  0.00000000000E+00  0.00000000000E+00 -0.26851589184E+04  0.26851589184E+04  0.50400001928E-02 0.  1.
    10030    2    1    2    0    0  0.00000000000E+00  0.00000000000E+00 -0.14849546754E+04  0.38853631614E+04  0.35903978203E+04 0.  0.
        2    1    3    3  502    0 -0.13438571884E+04  0.27067516957E+03  0.51185155911E+03  0.14632871245E+04  0.25500000920E-02 0. -1.
       -2    1    3    3    0  502  0.13438571884E+04 -0.27067516957E+03 -0.19968062345E+04  0.24220760369E+04  0.25500000920E-02 0.  1.
</event>
<event>
 5   0  0.6287345E-07  0.3624489E+04  0.7818609E-02  0.8084905E-01
       -1   -1    0    0    0  501  0.00000000000E+00  0.00000000000E+00  0.12957166010E+04  0.12957166010E+04  0.50400001928E-02 0.  1.
        1   -1    0    0  501    0  0.00000000000E+00  0.00000000000E+00 -0.25346826644E+04  0.25346826644E+04  0.50400001928E-02 0. -1.
    10030    2    1    2    0    0  0.00000000000E+00  0.00000000000E+00 -0.12389660634E+04  0.38303992654E+04  0.36244891538E+04 0.  0.
        5    1    3    3  502    0  0.41229838510E+02  0.55860402206E+03 -0.24409018683E+04  0.25043486925E+04  0.46999998093E+01 0. -1.
       -5    1    3    3    0  502 -0.41229838510E+02 -0.55860402206E+03  0.12019358048E+04  0.13260505729E+04  0.46999998093E+01 0.  1.
</event>
<event>
 5   0  0.1680194E-06  0.3808379E+04  0.7818609E-02  0.8044359E-01
       -2   -1    0    0    0  501  0.00000000000E+00  0.00000000000E+00  0.20214203291E+04  0.20214203291E+04  0.25500000920E-02 0.  1.
        2   -1    0    0  501    0  0.00000000000E+00  0.00000000000E+00 -0.17937571660E+04  0.17937571660E+04  0.25500000920E-02 0. -1.
    10030    2    1    2    0    0  0.00000000000E+00  0.00000000000E+00  0.22766316313E+03  0.38151774951E+04  0.38083787631E+04 0.  0.
        2    1    3    3  502    0  0.19000897738E+03 -0.94389189454E+03 -0.15319347024E+04  0.18093809031E+04  0.25500000920E-02 0. -1.
       -2    1    3    3    0  502 -0.19000897738E+03  0.94389189454E+03  0.17595978655E+04  0.20057965920E+04  0.25500000920E-02 0.  1.
</event>
<event>
 5   0  0.1724503E-06  0.3745985E+04  0.7818609E-02  0.8057847E-01
       -2   -1    0    0    0  501  0.00000000000E+00  0.00000000000E+00  0.20254229508E+04  0.20254229508E+04  0.25500000920E-02 0. -1.
        2   -1    0    0  501    0  0.00000000000E+00  0.00000000000E+00 -0.17320336941E+04  0.17320336941E+04  0.25500000920E-02 0.  1.
    10030    2    1    2    0    0  0.00000000000E+00  0.00000000000E+00  0.29338925673E+03  0.37574566449E+04  0.37459849416E+04 0.  0.
        1    1    3    3  502    0 -0.15990128964E+04  0.73076927262E+03 -0.50122065592E+03  0.18281378828E+04  0.50400001928E-02 0.  1.
       -1    1    3    3    0  502  0.15990128964E+04 -0.73076927262E+03  0.79460991265E+03  0.19293187621E+04  0.50400001928E-02 0. -1.
</event>
<event>
 5   0  0.5679750E-07  0.3421853E+04  0.7818609E-02  0.8132564E-01
       -1   -1    0    0    0  501  0.00000000000E+00  0.00000000000E+00  0.18754390360E+04  0.18754390360E+04  0.50400001928E-02 0.  1.
        1   -1    0    0  501    0  0.00000000000E+00  0.00000000000E+00 -0.15608445404E+04  0.15608445404E+04  0.50400001928E-02 0. -1.
    10030    2    1    2    0    0  0.00000000000E+00  0.00000000000E+00  0.31459449565E+03  0.34362835764E+04  0.34218525860E+04 0.  0.
        4    1    3    3  502    0  0.68654376277E+03 -0.14949752332E+04  0.62935830224E+03  0.17613593533E+04  0.12699999809E+01 0.  1.
       -4    1    3    3    0  502 -0.68654376277E+03  0.14949752332E+04 -0.31476380659E+03  0.16749242230E+04  0.12699999809E+01 0. -1.
</event>
<event>
 5   0  0.1724503E-06  0.3462941E+04  0.7818609E-02  0.8122629E-01
       -2   -1    0    0    0  501  0.00000000000E+00  0.00000000000E+00  0.14777119817E+04  0.14777119817E+04  0.25500000920E-02 0.  1.
        2   -1    0    0  501    0  0.00000000000E+00  0.00000000000E+00 -0.20288056550E+04  0.20288056550E+04  0.25500000920E-02 0. -1.
    10030    2    1    2    0    0  0.00000000000E+00  0.00000000000E+00 -0.55109367331E+03  0.35065176367E+04  0.34629411920E+04 0.  0.
        1    1    3    3  502    0  0.10558842755E+04  0.22625425053E+03 -0.16460584543E+04  0.19686520831E+04  0.50400001928E-02 0. -1.
       -1    1    3    3    0  502 -0.10558842755E+04 -0.22625425053E+03  0.10949647810E+04  0.15378655536E+04  0.50400001928E-02 0.  1.
</event>
<event>
 5   0  0.5875011E-07  0.3731186E+04  0.7818609E-02  0.8061085E-01
       -1   -1    0    0    0  501  0.00000000000E+00  0.00000000000E+00  0.15965265152E+04  0.15965265152E+04  0.50400001928E-02 0. -1.
        1   -1    0    0  501    0  0.00000000000E+00  0.00000000000E+00 -0.21800064025E+04  0.21800064026E+04  0.50400001928E-02 0.  1.
    10030    2    1    2    0    0  0.00000000000E+00  0.00000000000E+00 -0.58347988735E+03  0.37765329178E+04  0.37311864199E+04 0.  0.
        2    1    3    3  502    0 -0.74242384066E+02 -0.90468891315E+03  0.13579346998E+04  0.16333893014E+04  0.25500000920E-02 0. -1.
       -2    1    3    3    0  502  0.74242384066E+02  0.90468891315E+03 -0.19414145871E+04  0.21431436163E+04  0.25500000920E-02 0.  1.
</event>
<event>
 5   0  0.1685793E-06  0.3484116E+04  0.7818609E-02  0.8117565E-01
        2   -1    0    0  501    0  0.00000000000E+00  0.00000000000E+00  0.20933340091E+04  0.20933340091E+04  0.25500000920E-02 0.  1.
       -2   -1    0    0    0  501  0.00000000000E+00  0.00000000000E+00 -0.14497284503E+04  0.14497284503E+04  0.25500000920E-02 0. -1.
    10030    2    1    2    0    0  0.00000000000E+00  0.00000000000E+00  0.64360555877E+03  0.35430624595E+04  0.34841158816E+04 0.  0.
        3    1    3    3  502    0 -0.14412255928E+04  0.71599274482E+03  0.10001637828E+04  0.18947570881E+04  0.10100000352E+00 0.  1.
       -3    1    3    3    0  502  0.14412255928E+04 -0.71599274482E+03 -0.35655822405E+03  0.16483053714E+04  0.10100000352E+00 0. -1.
</event>
<event>
 5   0  0.6261598E-07  0.3607104E+04  0.7818609E-02  0.8088866E-01
        1   -1    0    0  501    0  0.00000000000E+00  0.00000000000E+00  0.12954995185E+04  0.12954995186E+04  0.50400001928E-02 0. -1.
       -1   -1    0    0    0  501  0.00000000000E+00  0.00000000000E+00 -0.25108454236E+04  0.25108454236E+04  0.50400001928E-02 0.  1.
    10030    2    1    2    0    0  0.00000000000E+00  0.00000000000E+00 -0.12153459051E+04  0.38063449422E+04  0.36071035679E+04 0.  0.
        1    1    3    3  502    0  0.14778151146E+04 -0.79363108906E+03 -0.13068502854E+04  0.21264161133E+04  0.50400001928E-02 0.  1.
       -1    1    3    3    0  502 -0.14778151146E+04  0.79363108906E+03  0.91504380305E+02  0.16799288289E+04  0.50400001928E-02 0. -1.
</event>
<event>
 5   0  0.1680194E-06  0.3743897E+04  0.7818609E-02  0.8058303E-01
       -2   -1    0    0    0  501  0.00000000000E+00  0.00000000000E+00  0.20679047093E+04  0.20679047093E+04  0.25500000920E-02 0. -1.
        2   -1    0    0  501    0  0.00000000000E+00  0.00000000000E+00 -0.16945616811E+04  0.16945616811E+04  0.25500000920E-02 0.  1.
    10030    2    1    2    0    0  0.00000000000E+00  0.00000000000E+00  0.37334302824E+03  0.37624663904E+04  0.37438974775E+04 0.  0.
        2    1    3    3  502    0  0.11088106504E+04  0.81639240512E+03  0.14611231638E+04  0.20076948267E+04  0.25500000920E-02 0. -1.
       -2    1    3    3    0  502 -0.11088106504E+04 -0.81639240512E+03 -0.10877801355E+04  0.17547715637E+04  0.25500000920E-02 0.  1.
</event>
<event>
 5   0  0.6186440E-07  0.1846929E+04  0.7818609E-02  0.8681734E-01
        1   -1    0    0  501    0  0.00000000000E+00  0.00000000000E+00  0.23951125665E+04  0.23951125665E+04  0.50400001928E-02 0.  1.
       -1   -1    0    0    0  501  0.00000000000E+00  0.00000000000E+00 -0.35605296807E+03  0.35605296811E+03  0.50400001928E-02 0. -1.
    10030    2    1    2    0    0  0.00000000000E+00  0.00000000000E+00  0.20390595985E+04  0.27511655346E+04  0.18469292766E+04 0.  0.
        3    1    3    3  502    0  0.91790651039E+03  0.88710833965E+02  0.10919696953E+04  0.14292724721E+04  0.10100000352E+00 0. -1.
       -3    1    3    3    0  502 -0.91790651039E+03 -0.88710833965E+02  0.94708990312E+03  0.13218930625E+04  0.10100000352E+00 0.  1.
</event>
<event>
 5   0  0.1151180E-06  0.3880288E+04  0.7818609E-02  0.8029142E-01
       -2   -1    0    0    0  501  0.00000000000E+00  0.00000000000E+00  0.21574381168E+04  0.21574381168E+04  0.25500000920E-02 0.  1.
        2   -1    0    0  501    0  0.00000000000E+00  0.00000000000E+00 -0.17447352218E+04  0.17447352218E+04  0.25500000920E-02 0. -1.
    10030    2    1    2    0    0  0.00000000000E+00  0.00000000000E+00  0.41270289492E+03  0.39021733386E+04  0.38802877580E+04 0.  0.
        5    1    3    3  502    0 -0.54421217570E+03  0.16959163656E+04  0.97999991389E+03  0.20329095239E+04  0.46999998093E+01 0.  1.
       -5    1    3    3    0  502  0.54421217570E+03 -0.16959163656E+04 -0.56729701896E+03  0.18692638147E+04  0.46999998093E+01 0. -1.
</event>
<event>
 5   0  0.6186440E-07  0.3489448E+04  0.7818609E-02  0.8116295E-01
        1   -1    0    0  501    0  0.00000000000E+00  0.00000000000E+00  0.18676274901E+04  0.18676274901E+04  0.50400001928E-02 0. -1.
       -1   -1    0    0    0  501  0.00000000000E+00  0.00000000000E+00 -0.16299082370E+04  0.16299082370E+04  0.50400001928E-02 0.  1.
    10030    2    1    2    0    0  0.00000000000E+00  0.00000000000E+00  0.23771925304E+03  0.34975357271E+04  0.34894477670E+04 0.  0.
        3    1    3    3  502    0 -0.65450250940E+03  0.67506229177E+03  0.15919527447E+04  0.18488905279E+04  0.10100000352E+00 0. -1.
       -3    1    3    3    0  502  0.65450250940E+03 -0.67506229177E+03 -0.13542334917E+04  0.16486451992E+04  0.10100000352E+00 0.  1.
</event>
<event>
 5   0  0.1685793E-06  0.4036129E+04  0.7818609E-02  0.7997298E-01
        2   -1    0    0  501    0  0.00000000000E+00  0.00000000000E+00  0.13862852864E+04  0.13862852864E+04  0.25500000920E-02 0. -1.
       -2   -1    0    0    0  501  0.00000000000E+00  0.00000000000E+00 -0.29377671151E+04  0.29377671151E+04  0.25500000920E-02 0.  1.
    10030    2    1    2    0    0  0.00000000000E+00  0.00000000000E+00 -0.15514818287E+04  0.43240524014E+04  0.40361285046E+04 0.  0.
        3    1    3    3  502    0  0.12133099646E+04  0.84340893687E+03  0.69676196029E+03  0.16336881417E+04  0.10100000352E+00 0. -1.
       -3    1    3    3    0  502 -0.12133099646E+04 -0.84340893687E+03 -0.22482437890E+04  0.26903642597E+04  0.10100000352E+00 0.  1.
</event>
<event>
 5   0  0.6186440E-07  0.3192561E+04  0.7818609E-02  0.8190785E-01
        1   -1    0    0  501    0  0.00000000000E+00  0.00000000000E+00  0.24100729340E+04  0.24100729340E+04  0.50400001928E-02 0. -1.
       -1   -1    0    0    0  501  0.00000000000E+00  0.00000000000E+00 -0.10572756166E+04  0.10572756166E+04  0.50400001928E-02 0.  1.
    10030    2    1    2    0    0  0.00000000000E+00  0.00000000000E+00  0.13527973174E+04  0.34673485506E+04  0.31925609453E+04 0.  0.
        3    1    3    3  502    0  0.25027299818E+03  0.14004376831E+04 -0.10997169848E+03  0.14268693222E+04  0.10100000352E+00 0.  1.
       -3    1    3    3    0  502 -0.25027299818E+03 -0.14004376831E+04  0.14627690159E+04  0.20404792285E+04  0.10100000352E+00 0. -1.
</event>
<event>
 5   0  0.1724503E-06  0.3627240E+04  0.7818609E-02  0.8084280E-01
       -2   -1    0    0    0  501  0.00000000000E+00  0.00000000000E+00  0.15981910781E+04  0.15981910781E+04  0.25500000920E-02 0. -1.
        2   -1    0    0  501    0  0.00000000000E+00  0.00000000000E+00 -0.20580874036E+04  0.20580874036E+04  0.25500000920E-02 0.  1.
    10030    2    1    2    0    0  0.00000000000E+00  0.00000000000E+00 -0.45989632551E+03  0.36562784818E+04  0.36272396814E+04 0.  0.
        1    1    3    3  502    0 -0.18849297644E+03 -0.99035992945E+03 -0.17496232502E+04  0.20192879710E+04  0.50400001928E-02 0.  1.
       -1    1    3    3    0  502  0.18849297644E+03  0.99035992945E+03  0.12897269247E+04  0.16369905108E+04  0.50400001928E-02 0. -1.
</event>
<event>
 5   0  0.1685793E-06  0.3428427E+04  0.7818609E-02  0.8130964E-01
        2   -1    0    0  501    0  0.00000000000E+00  0.00000000000E+00  0.93312451021E+03  0.93312451021E+03  0.25500000920E-02 0.  1.
       -2   -1    0    0    0  501  0.00000000000E+00  0.00000000000E+00 -0.31491274481E+04  0.31491274481E+04  0.25500000920E-02 0. -1.
    10030    2    1    2    0    0  0.00000000000E+00  0.00000000000E+00 -0.22160029379E+04  0.40822519584E+04  0.34284270490E+04 0.  0.
        3    1    3    3  502    0 -0.84775186883E+03 -0.27403938960E+03  0.63578356433E+03  0.10945325802E+04  0.10100000352E+00 0.  1.
       -3    1    3    3    0  502  0.84775186883E+03  0.27403938960E+03 -0.28517865023E+04  0.29877193782E+04  0.10100000352E+00 0. -1.
</event>
<event>
 5   0  0.1685793E-06  0.3353155E+04  0.7818609E-02  0.8149500E-01
       -2   -1    0    0    0  501  0.00000000000E+00  0.00000000000E+00  0.15481775741E+04  0.15481775741E+04  0.25500000920E-02 0.  1.
        2   -1    0    0  501    0  0.00000000000E+00  0.00000000000E+00 -0.18156266412E+04  0.18156266412E+04  0.25500000920E-02 0. -1.
    10030    2    1    2    0    0  0.00000000000E+00  0.00000000000E+00 -0.26744906710E+03  0.33638042153E+04  0.33531552000E+04 0.  0.
        3    1    3    3  502    0 -0.84325301210E+03 -0.13833774588E+04  0.29904277409E+03  0.16474936804E+04  0.10100000352E+00 0.  1.
       -3    1    3    3    0  502  0.84325301210E+03  0.13833774588E+04 -0.56649184119E+03  0.17163105349E+04  0.10100000352E+00 0. -1.
</event>
<event>
 5   0  0.6186440E-07  0.3674285E+04  0.7818609E-02  0.8073685E-01
        1   -1    0    0  501    0  0.00000000000E+00  0.00000000000E+00  0.25198839450E+04  0.25198839450E+04  0.50400001928E-02 0.  1.
       -1   -1    0    0    0  501  0.00000000000E+00  0.00000000000E+00 -0.13393839104E+04  0.13393839104E+04  0.50400001928E-02 0. -1.
    10030    2    1    2    0    0  0.00000000000E+00  0.00000000000E+00  0.11805000347E+04  0.38592678554E+04  0.36742846988E+04 0.  0.
        3    1    3    3  502    0  0.17498765677E+04 -0.35442206472E+03  0.13554752015E+03  0.17905463251E+04  0.10100000352E+00 0. -1.
       -3    1    3    3    0  502 -0.17498765677E+04  0.35442206472E+03  0.10449525145E+04  0.20687215303E+04  0.10100000352E+00 0.  1.
</event>
<event>
 5   0  0.6186440E-07  0.2087113E+04  0.7818609E-02  0.8566941E-01
       -1   -1    0    0    0  501  0.00000000000E+00  0.00000000000E+00  0.83627505935E+03  0.83627505936E+03  0.50400001928E-02 0.  1.
        1   -1    0    0  501    0  0.00000000000E+00  0.00000000000E+00 -0.13022154491E+04  0.13022154491E+04  0.50400001928E-02 0. -1.
    10030    2    1    2    0    0  0.00000000000E+00  0.00000000000E+00 -0.46594038976E+03  0.21384905085E+04  0.20871131278E+04 0.  0.
        3    1    3    3  502    0  0.93107415404E+02 -0.27483067106E+03 -0.12600476175E+04  0.12930278021E+04  0.10100000352E+00 0. -1.
       -3    1    3    3    0  502 -0.93107415404E+02  0.27483067106E+03  0.79410722771E+03  0.84546270637E+03  0.10100000352E+00 0.  1.
</event>
<event>
 5   0  0.1685793E-06  0.3656794E+04  0.7818609E-02  0.8077605E-01
       -2   -1    0    0    0  501  0.00000000000E+00  0.00000000000E+00  0.20382876769E+04  0.20382876769E+04  0.25500000920E-02 0.  1.
        2   -1    0    0  501    0  0.00000000000E+00  0.00000000000E+00 -0.16401200336E+04  0.16401200336E+04  0.25500000920E-02 0. -1.
    10030    2    1    2    0    0  0.00000000000E+00  0.00000000000E+00  0.39816764327E+03  0.36784077105E+04  0.36567944723E+04 0.  0.
        3    1    3    3  502    0  0.65937478925E+03  0.94133023213E+03  0.16295148866E+04  0.19940402439E+04  0.10100000352E+00 0.  1.
       -3    1    3    3    0  502 -0.65937478925E+03 -0.94133023213E+03 -0.12313472433E+04  0.16843674666E+04  0.10100000352E+00 0. -1.
</event>
<event>
 5   0  0.5875011E-07  0.3629685E+04  0.7818609E-02  0.8083726E-01
        1   -1    0    0  501    0  0.00000000000E+00  0.00000000000E+00  0.18671740749E+04  0.18671740749E+04  0.50400001928E-02 0.  1.
       -1   -1    0    0    0  501  0.00000000000E+00  0.00000000000E+00 -0.17639773326E+04  0.17639773326E+04  0.50400001928E-02 0. -1.
    10030    2    1    2    0    0  0.00000000000E+00  0.00000000000E+00  0.10319674231E+03  0.36311514075E+04  0.36296846938E+04 0.  0.
        2    1    3    3  502    0  0.12646139194E+04  0.12844683765E+04  0.26274139566E+03  0.18215763547E+04  0.25500000920E-02 0.  1.
       -2    1    3    3    0  502 -0.12646139194E+04 -0.12844683765E+04 -0.15954465335E+03  0.18095750528E+04  0.25500000920E-02 0. -1.
</event>
<event>
 5   0  0.1184684E-06  0.3666690E+04  0.7818609E-02  0.8075384E-01
       -2   -1    0    0    0  501  0.00000000000E+00  0.00000000000E+00  0.23191988646E+04  0.23191988646E+04  0.25500000920E-02 0. -1.
        2   -1    0    0  501    0  0.00000000000E+00  0.00000000000E+00 -0.14492734850E+04  0.14492734850E+04  0.25500000920E-02 0.  1.
    10030    2    1    2    0    0  0.00000000000E+00  0.00000000000E+00  0.86992537956E+03  0.37684723496E+04  0.36666897447E+04 0.  0.
        4    1    3    3  502    0  0.65399943695E+03  0.89727899038E+02 -0.13228909704E+04  0.14784480011E+04  0.12699999809E+01 0.  1.
       -4    1    3    3    0  502 -0.65399943695E+03 -0.89727899038E+02  0.21928163500E+04  0.22900243486E+04  0.12699999809E+01 0. -1.
</event>
<event>
 5   0  0.6186440E-07  0.2707203E+04  0.7818609E-02  0.8332672E-01
        1   -1    0    0  501    0  0.00000000000E+00  0.00000000000E+00  0.14093658124E+04  0.14093658124E+04  0.50400001928E-02 0.  1.
       -1   -1    0    0    0  501  0.00000000000E+00  0.00000000000E+00 -0.13000439056E+04  0.13000439057E+04  0.50400001928E-02 0. -1.
    10030    2    1    2    0    0  0.00000000000E+00  0.00000000000E+00  0.10932190678E+03  0.27094097181E+04  0.27072033062E+04 0.  0.
        3    1    3    3  502    0 -0.25564356158E+03  0.75441408794E+03 -0.10406455479E+04  0.13105103637E+04  0.10100000352E+00 0. -1.
       -3    1    3    3    0  502  0.25564356158E+03 -0.75441408794E+03  0.11499674547E+04  0.13988993544E+04  0.10100000352E+00 0.  1.
</event>
<event>
 5   0  0.5679750E-07  0.3711345E+04  0.7818609E-02  0.8065452E-01
       -1   -1    0    0    0  501  0.00000000000E+00  0.00000000000E+00  0.18120963713E+04  0.18120963713E+04  0.50400001928E-02 0.  1.
        1   -1    0    0  501    0  0.00000000000E+00  0.00000000000E+00 -0.19002966942E+04  0.19002966942E+04  0.50400001928E-02 0. -1.
    10030    2    1    2    0    0  0.00000000000E+00  0.00000000000E+00 -0.88200322950E+02  0.37123930655E+04  0.37113451707E+04 0.  0.
        4    1    3    3  502    0 -0.70481137692E+03  0.32936238869E+03  0.16410952186E+04  0.18161590760E+04  0.12699999809E+01 0.  1.
       -4    1    3    3    0  502  0.70481137692E+03 -0.32936238869E+03 -0.17292955415E+04  0.18962339895E+04  0.12699999809E+01 0. -1.
</event>
<event>
 5   0  0.5679750E-07  0.3570549E+04  0.7818609E-02  0.8097271E-01
        1   -1    0    0  501    0  0.00000000000E+00  0.00000000000E+00  0.15647271722E+04  0.15647271723E+04  0.50400001928E-02 0. -1.
       -1   -1    0    0    0  501  0.00000000000E+00  0.00000000000E+00 -0.20369079757E+04  0.20369079757E+04  0.50400001928E-02 0.  1.
    10030    2    1    2    0    0  0.00000000000E+00  0.00000000000E+00 -0.47218080349E+03  0.36016351480E+04  0.35705491214E+04 0.  0.
        4    1    3    3  502    0 -0.93265531873E+03  0.14626607967E+04 -0.66164142603E+03  0.18566080737E+04  0.12699999809E+01 0.  1.
       -4    1    3    3    0  502  0.93265531873E+03 -0.14626607967E+04  0.18946062253E+03  0.17450270743E+04  0.12699999809E+01 0. -1.
</event>
<event>
 5   0  0.5875011E-07  0.3751360E+04  0.7818609E-02  0.8056674E-01
       -1   -1    0    0    0  501  0.00000000000E+00  0.00000000000E+00  0.11714585271E+04  0.11714585271E+04  0.50400001928E-02 0. -1.
        1   -1    0    0  501    0  0.00000000000E+00  0.00000000000E+00 -0.30032442385E+04  0.30032442385E+04  0.50400001928E-02 0.  1.
    10030    2    1    2    0    0  0.00000000000E+00  0.00000000000E+00 -0.18317857114E+04  0.41747027656E+04  0.37513603251E+04 0.  0.
        2    1    3    3  502    0  0.37325784303E+03 -0.85262179348E+03 -0.27281281799E+04  0.28825281795E+04  0.25500000920E-02 0.  1.
       -2    1    3    3    0  502 -0.37325784303E+03  0.85262179348E+03  0.89634246847E+03  0.12921745861E+04  0.25500000920E-02 0. -1.
</event>
<event>
 5   0  0.1184684E-06  0.3780925E+04  0.7818609E-02  0.8050261E-01
        2   -1    0    0  501    0  0.00000000000E+00  0.00000000000E+00  0.18748094474E+04  0.18748094474E+04  0.25500000920E-02 0. -1.
       -2   -1    0    0    0  501  0.00000000000E+00  0.00000000000E+00 -0.19062465420E+04  0.19062465420E+04  0.25500000920E-02 0.  1.
    10030    2    1    2    0    0  0.00000000000E+00  0.00000000000E+00 -0.31437094587E+02  0.37810559894E+04  0.37809252973E+04 0.  0.
        4    1    3    3  502    0 -0.48591008341E+03  0.13518389436E+04 -0.12446915676E+04  0.19007461298E+04  0.12699999809E+01 0.  1.
       -4    1    3    3    0  502  0.48591008341E+03 -0.13518389436E+04  0.12132544730E+04  0.18803098596E+04  0.12699999809E+01 0. -1.
</event>
<event>
 5   0  0.1724503E-06  0.2165388E+04  0.7818609E-02  0.8532974E-01
       -2   -1    0    0    0  501  0.00000000000E+00  0.00000000000E+00  0.59367741512E+03  0.59367741513E+03  0.25500000920E-02 0.  1.
        2   -1    0    0  501    0  0.00000000000E+00  0.00000000000E+00 -0.19745173873E+04  0.19745173873E+04  0.25500000920E-02 0. -1.
    10030    2    1    2    0    0  0.00000000000E+00  0.00000000000E+00 -0.13808399721E+04  0.25681948024E+04  0.21653880748E+04 0.  0.
        1    1    3    3  502    0  0.33395572780E+03  0.92139711531E+03 -0.12361535417E+04  0.15775216800E+04  0.50400001928E-02 0. -1.
       -1    1    3    3    0  502 -0.33395572780E+03 -0.92139711531E+03 -0.14468643044E+03  0.99067312238E+03  0.50400001928E-02 0.  1.
</event>
<event>
 5   0  0.6424230E-07  0.2025586E+04  0.7818609E-02  0.8594751E-01
       -1   -1    0    0    0  501  0.00000000000E+00  0.00000000000E+00  0.51344082745E+03  0.51344082748E+03  0.50400001928E-02 0. -1.
        1   -1    0    0  501    0  0.00000000000E+00  0.00000000000E+00 -0.19977949967E+04  0.19977949967E+04  0.50400001928E-02 0.  1.
    10030    2    1    2    0    0  0.00000000000E+00  0.00000000000E+00 -0.14843541693E+04  0.25112358242E+04  0.20255858572E+04 0.  0.
        2    1    3    3  502    0 -0.97480102315E+03 -0.24103297182E+03 -0.90578560353E+03  0.13523244758E+04  0.25500000920E-02 0.  1.
       -2    1    3    3    0  502  0.97480102315E+03  0.24103297182E+03 -0.57856856575E+03  0.11589113484E+04  0.25500000920E-02 0. -1.
</event>
<event>
 5   0  0.1685793E-06  0.1882506E+04  0.7818609E-02  0.8663613E-01
       -2   -1    0    0    0  501  0.00000000000E+00  0.00000000000E+00  0.72978708822E+03  0.72978708822E+03  0.25500000920E-02 0. -1.
        2   -1    0    0  501    0  0.00000000000E+00  0.00000000000E+00 -0.12139944266E+04  0.12139944266E+04  0.25500000920E-02 0.  1.
    10030    2    1    2    0    0  0.00000000000E+00  0.00000000000E+00 -0.48420733839E+03  0.19437815148E+04  0.18825062632E+04 0.  0.
        3    1    3    3  502    0  0.63738580670E+03  0.56216951381E+03  0.17561629789E+03  0.86783427169E+03  0.10100000352E+00 0. -1.
       -3    1    3    3    0  502 -0.63738580670E+03 -0.56216951381E+03 -0.65982363628E+03  0.10759472431E+04  0.10100000352E+00 0.  1.
</event>
<event>
 5   0  0.1685793E-06  0.4024450E+04  0.7818609E-02  0.7999632E-01
        2   -1    0    0  501    0  0.00000000000E+00  0.00000000000E+00  0.24767087887E+04  0.24767087887E+04  0.25500000920E-02 0.  1.
       -2   -1    0    0    0  501  0.00000000000E+00  0.00000000000E+00 -0.16348510869E+04  0.16348510869E+04  0.25500000920E-02 0. -1.
    10030    2    1    2    0    0  0.00000000000E+00  0.00000000000E+00  0.84185770182E+03  0.41115598757E+04  0.40244503005E+04 0.  0.
        3    1    3    3  502    0 -0.44914230939E+03  0.20246965136E+03 -0.15722814088E+04  0.16476624692E+04  0.10100000352E+00 0. -1.
       -3    1    3    3    0  502  0.44914230939E+03 -0.20246965136E+03  0.24141391106E+04  0.24638974064E+04  0.10100000352E+00 0.  1.
</event>
<event>
 5   0  0.1184684E-06  0.2491466E+04  0.7818609E-02  0.8406032E-01
        2   -1    0    0  501    0  0.00000000000E+00  0.00000000000E+00  0.23556629256E+04  0.23556629256E+04  0.25500000920E-02 0.  1.
       -2   -1    0    0    0  501  0.00000000000E+00  0.00000000000E+00 -0.65877439648E+03  0.65877439648E+03  0.25500000920E-02 0. -1.
    10030    2    1    2    0    0  0.00000000000E+00  0.00000000000E+00  0.16968885291E+04  0.30144373221E+04  0.24914657711E+04 0.  0.
        4    1    3    3  502    0 -0.37241318665E+03  0.16456697645E+03 -0.57599746716E+03  0.70537122595E+03  0.12699999809E+01 0. -1.
       -4    1    3    3    0  502  0.37241318665E+03 -0.16456697645E+03  0.22728859962E+04  0.23090660961E+04  0.12699999809E+01 0.  1.
</event>
<event>
 5   0  0.1680194E-06  0.3695683E+04  0.7818609E-02  0.8068919E-01
       -2   -1    0    0    0  501  0.00000000000E+00  0.00000000000E+00  0.18418167401E+04  0.18418167401E+04  0.25500000920E-02 0. -1.
        2   -1    0    0  501    0  0.00000000000E+00  0.00000000000E+00 -0.18538858329E+04  0.18538858329E+04  0.25500000920E-02 0.  1.
    10030    2    1    2    0    0  0.00000000000E+00  0.00000000000E+00 -0.12069092849E+02  0.36957025730E+04  0.36956828658E+04 0.  0.
        2    1    3    3  502    0 -0.14084991336E+04  0.11381735656E+04  0.36167529640E+03  0.18466504528E+04  0.25500000920E-02 0.  1.
       -2    1    3    3    0  502  0.14084991336E+04 -0.11381735656E+04 -0.37374438924E+03  0.18490521202E+04  0.25500000920E-02 0. -1.
</event>
<event>
 5   0  0.1680194E-06  0.2628510E+04  0.7818609E-02  0.8358581E-01
        2   -1    0    0  501    0  0.00000000000E+00  0.00000000000E+00  0.91684431797E+03  0.91684431798E+03  0.25500000920E-02 0. -1.
       -2   -1    0    0    0  501  0.00000000000E+00  0.00000000000E+00 -0.18839247253E+04  0.18839247253E+04  0.25500000920E-02 0.  1.
    10030    2    1    2    0    0  0.00000000000E+00  0.00000000000E+00 -0.96708040731E+03  0.28007690433E+04  0.26285096004E+04 0.  0.
        2    1    3    3  502    0 -0.11921199312E+04  0.69946886722E+02  0.10126593979E+03  0.11984562103E+04  0.25500000920E-02 0. -1.
       -2    1    3    3    0  502  0.11921199312E+04 -0.69946886722E+02 -0.10683463471E+04  0.16023128330E+04  0.25500000920E-02 0.  1.
</event>
<event>
 5   0  0.1680194E-06  0.3572182E+04  0.7818609E-02  0.8096894E-01
        2   -1    0    0  501    0  0.00000000000E+00  0.00000000000E+00  0.22333207521E+04  0.22333207521E+04  0.25500000920E-02 0.  1.
       -2   -1    0    0    0  501  0.00000000000E+00  0.00000000000E+00 -0.14284202652E+04  0.14284202652E+04  0.25500000920E-02 0. -1.
    10030    2    1    2    0    0  0.00000000000E+00  0.00000000000E+00  0.80490048695E+03  0.36617410173E+04  0.35721817541E+04 0.  0.
        2    1    3    3  502    0  0.64791074088E+03 -0.25729041309E+03  0.20881032373E+04  0.22013999670E+04  0.25500000920E-02 0.  1.
       -2    1    3    3    0  502 -0.64791074088E+03  0.25729041309E+03 -0.12832027504E+04  0.14603410504E+04  0.25500000920E-02 0. -1.
</event>
<event>
 5   0  0.1724503E-06  0.2396578E+04  0.7818609E-02  0.8440786E-01
        2   -1    0    0  501    0  0.00000000000E+00  0.00000000000E+00  0.23812132788E+04  0.23812132788E+04  0.25500000920E-02 0.  1.
       -2   -1    0    0    0  501  0.00000000000E+00  0.00000000000E+00 -0.60301024285E+03  0.60301024285E+03  0.25500000920E-02 0. -1.
    10030    2    1    2    0    0  0.00000000000E+00  0.00000000000E+00  0.17782030359E+04  0.29842235216E+04  0.23965775577E+04 0.  0.
        1    1    3    3  502    0 -0.28913285359E+03  0.10258373451E+04  0.20712630748E+03  0.10857446168E+04  0.50400001928E-02 0. -1.
       -1    1    3    3    0  502  0.28913285359E+03 -0.10258373451E+04  0.15710767285E+04  0.18984789049E+04  0.50400001928E-02 0.  1.
</event>
<event>
 5   0  0.1184684E-06  0.2528479E+04  0.7818609E-02  0.8392909E-01
        2   -1    0    0  501    0  0.00000000000E+00  0.00000000000E+00  0.25981024497E+04  0.25981024497E+04  0.25500000920E-02 0.  1.
       -2   -1    0    0    0  501  0.00000000000E+00  0.00000000000E+00 -0.61518054712E+03  0.61518054713E+03  0.25500000920E-02 0. -1.
    10030    2    1    2    0    0  0.00000000000E+00  0.00000000000E+00  0.19829219026E+04  0.32132829968E+04  0.25284794533E+04 0.  0.
        4    1    3    3  502    0 -0.38944469767E+03  0.12610815756E+03 -0.52862587075E+03  0.66859357166E+03  0.12699999809E+01 0. -1.
       -4    1    3    3    0  502  0.38944469767E+03 -0.12610815756E+03  0.25115477733E+04  0.25446894251E+04  0.12699999809E+01 0.  1.
</event>
<event>
 5   0  0.1184684E-06  0.3307950E+04  0.7818609E-02  0.8160875E-01
       -2   -1    0    0    0  501  0.00000000000E+00  0.00000000000E+00  0.95001214453E+03  0.95001214454E+03  0.25500000920E-02 0. -1.
        2   -1    0    0  501    0  0.00000000000E+00  0.00000000000E+00 -0.28795773851E+04  0.28795773851E+04  0.25500000920E-02 0.  1.
    10030    2    1    2    0    0  0.00000000000E+00  0.00000000000E+00 -0.19295652405E+04  0.38295895296E+04  0.33079501126E+04 0.  0.
        4    1    3    3  502    0  0.51741924332E+03 -0.11804370459E+03 -0.27783276045E+04  0.28285619810E+04  0.12699999809E+01 0.  1.
       -4    1    3    3    0  502 -0.51741924332E+03  0.11804370459E+03  0.84876236400E+03  0.10010275486E+04  0.12699999809E+01 0. -1.
</event>
<event>
 5   0  0.5679750E-07  0.3471355E+04  0.7818609E-02  0.8120612E-01
        1   -1    0    0  501    0  0.00000000000E+00  0.00000000000E+00  0.25967464979E+04  0.25967464979E+04  0.50400001928E-02 0. -1.
       -1   -1    0    0    0  501  0.00000000000E+00  0.00000000000E+00 -0.11601349283E+04  0.11601349283E+04  0.50400001928E-02 0.  1.
    10030    2    1    2    0    0  0.00000000000E+00  0.00000000000E+00  0.14366115696E+04  0.37568814262E+04  0.34713549586E+04 0.  0.
        4    1    3    3  502    0  0.70235952746E+02  0.16624735949E+04  0.12527051563E+04  0.20827922038E+04  0.12699999809E+01 0.  1.
       -4    1    3    3    0  502 -0.70235952746E+02 -0.16624735949E+04  0.18390641327E+03  0.16740892224E+04  0.12699999809E+01 0. -1.
</event>
<event>
 5   0  0.6261598E-07  0.3659613E+04  0.7818609E-02  0.8076971E-01
       -1   -1    0    0    0  501  0.00000000000E+00  0.00000000000E+00  0.12074930322E+04  0.12074930322E+04  0.50400001928E-02 0. -1.
        1   -1    0    0  501    0  0.00000000000E+00  0.00000000000E+00 -0.27728462570E+04  0.27728462570E+04  0.50400001928E-02 0.  1.
    10030    2    1    2    0    0  0.00000000000E+00  0.00000000000E+00 -0.15653532248E+04  0.39803392892E+04  0.36596133865E+04 0.  0.
        1    1    3    3  502    0  0.17546298230E+03  0.69096228639E+03 -0.26155912991E+04  0.27110023946E+04  0.50400001928E-02 0.  1.
       -1    1    3    3    0  502 -0.17546298230E+03 -0.69096228639E+03  0.10502380743E+04  0.12693368946E+04  0.50400001928E-02 0. -1.
</event>
<event>
 5   0  0.5679750E-07  0.3024140E+04  0.7818609E-02  0.8236871E-01
       -1   -1    0    0    0  501  0.00000000000E+00  0.00000000000E+00  0.12319219035E+04  0.12319219035E+04  0.50400001928E-02 0.  1.
        1   -1    0    0  501    0  0.00000000000E+00  0.00000000000E+00 -0.18559263986E+04  0.18559263986E+04  0.50400001928E-02 0. -1.
    10030    2    1    2    0    0  0.00000000000E+00  0.00000000000E+00 -0.62400449508E+03  0.30878483021E+04  0.30241404609E+04 0.  0.
        4    1    3    3  502    0 -0.61708658390E+03 -0.47114536111E+03 -0.16368653379E+04  0.18116576803E+04  0.12699999809E+01 0. -1.
       -4    1    3    3    0  502  0.61708658390E+03  0.47114536111E+03  0.10128608428E+04  0.12761906218E+04  0.12699999809E+01 0.  1.
</event>
<event>
 5   0  0.1184684E-06  0.3699393E+04  0.7818609E-02  0.8068096E-01
       -2   -1    0    0    0  501  0.00000000000E+00  0.00000000000E+00  0.20654096239E+04  0.20654096239E+04  0.25500000920E-02 0.  1.
        2   -1    0    0  501    0  0.00000000000E+00  0.00000000000E+00 -0.16565122241E+04  0.16565122241E+04  0.25500000920E-02 0. -1.
    10030    2    1    2    0    0  0.00000000000E+00  0.00000000000E+00  0.40889739980E+03  0.37219218481E+04  0.36993925393E+04 0.  0.
        4    1    3    3  502    0 -0.11862325560E+04 -0.45145168024E+03  0.15581607924E+04  0.20096823044E+04  0.12699999809E+01 0.  1.
       -4    1    3    3    0  502  0.11862325560E+04  0.45145168024E+03 -0.11492633926E+04  0.17122395437E+04  0.12699999809E+01 0. -1.
</event>
<event>
 5   0  0.1680194E-06  0.2224432E+04  0.7818609E-02  0.8508327E-01
       -2   -1    0    0    0  501  0.00000000000E+00  0.00000000000E+00  0.87369377416E+03  0.87369377417E+03  0.25500000920E-02 0.  1.
        2   -1    0    0  501    0  0.00000000000E+00  0.00000000000E+00 -0.14158560902E+04  0.14158560902E+04  0.25500000920E-02 0. -1.
    10030    2    1    2    0    0  0.00000000000E+00  0.00000000000E+00 -0.54216231602E+03  0.22895498644E+04  0.22244321982E+04 0.  0.
        2    1    3    3  502    0 -0.43253079816E+03  0.75773170526E+03 -0.98104469310E+03  0.13128933385E+04  0.25500000920E-02 0. -1.
       -2    1    3    3    0  502  0.43253079816E+03 -0.75773170526E+03  0.43888237707E+03  0.97665652582E+03  0.25500000920E-02 0.  1.
</event>
<event>
 5   0  0.1680194E-06  0.3490360E+04  0.7818609E-02  0.8116078E-01
        2   -1    0    0  501    0  0.00000000000E+00  0.00000000000E+00  0.23619078863E+04  0.23619078863E+04  0.25500000920E-02 0. -1.
       -2   -1    0    0    0  501  0.00000000000E+00  0.00000000000E+00 -0.12894888020E+04  0.12894888020E+04  0.25500000920E-02 0.  1.
    10030    2    1    2    0    0  0.00000000000E+00  0.00000000000E+00  0.10724190843E+04  0.36513966883E+04  0.34903603085E+04 0.  0.
        2    1    3    3  502    0 -0.22270942965E+02 -0.14979956572E+04 -0.40016635139E+03  0.15506837500E+04  0.25500000920E-02 0.  1.
       -2    1    3    3    0  502  0.22270942965E+02  0.14979956572E+04  0.14725854357E+04  0.21007129383E+04  0.25500000920E-02 0. -1.
</event>
<event>
 5   0  0.1724503E-06  0.3642012E+04  0.7818609E-02  0.8080935E-01
        2   -1    0    0  501    0  0.00000000000E+00  0.00000000000E+00  0.25084256203E+04  0.25084256203E+04  0.25500000920E-02 0. -1.
       -2   -1    0    0    0  501  0.00000000000E+00  0.00000000000E+00 -0.13219700370E+04  0.13219700370E+04  0.25500000920E-02 0.  1.
    10030    2    1    2    0    0  0.00000000000E+00  0.00000000000E+00  0.11864555833E+04  0.38303956573E+04  0.36420123614E+04 0.  0.
        1    1    3    3  502    0  0.10589375418E+04  0.48374358829E+03 -0.87945279940E+03  0.14590386571E+04  0.50400001928E-02 0.  1.
       -1    1    3    3    0  502 -0.10589375418E+04 -0.48374358829E+03  0.20659083827E+04  0.23713570002E+04  0.50400001928E-02 0. -1.
</event>
<event>
 5   0  0.1685793E-06  0.3669574E+04  0.7818609E-02  0.8074738E-01
       -2   -1    0    0    0  501  0.00000000000E+00  0.00000000000E+00  0.16541036055E+04  0.16541036055E+04  0.25500000920E-02 0.  1.
        2   -1    0    0  501    0  0.00000000000E+00  0.00000000000E+00 -0.20352068776E+04  0.20352068776E+04  0.25500000920E-02 0. -1.
    10030    2    1    2    0    0  0.00000000000E+00  0.00000000000E+00 -0.38110327205E+03  0.36893104831E+04  0.36695738359E+04 0.  0.
        3    1    3    3  502    0 -0.11925349220E+04 -0.40919359617E+03  0.11496084521E+04  0.17062176129E+04  0.10100000352E+00 0.  1.
       -3    1    3    3    0  502  0.11925349220E+04  0.40919359617E+03 -0.15307117242E+04  0.19830928702E+04  0.10100000352E+00 0. -1.
</event>
<event>
 5   0  0.1151180E-06  0.2909955E+04  0.7818609E-02  0.8269922E-01
        2   -1    0    0  501    0  0.00000000000E+00  0.00000000000E+00  0.15552446719E+04  0.15552446719E+04  0.25500000920E-02 0. -1.
       -2   -1    0    0    0  501  0.00000000000E+00  0.00000000000E+00 -0.13611743400E+04  0.13611743400E+04  0.25500000920E-02 0.  1.
    10030    2    1    2    0    0  0.00000000000E+00  0.00000000000E+00  0.19407033193E+03  0.29164190120E+04  0.29099547350E+04 0.  0.
        5    1    3    3  502    0  0.36933685298E+03 -0.13509625592E+04  0.49215389990E+03  0.14845023067E+04  0.46999998093E+01 0. -1.
       -5    1    3    3    0  502 -0.36933685298E+03  0.13509625592E+04 -0.29808356796E+03  0.14319167053E+04  0.46999998093E+01 0.  1.
</event>
<event>
 5   0  0.6261598E-07  0.3481798E+04  0.7818609E-02  0.8118117E-01
        1   -1    0    0  501    0  0.00000000000E+00  0.00000000000E+00  0.18045318890E+04  0.18045318891E+04  0.50400001928E-02 0.  1.
       -1   -1    0    0    0  501  0.00000000000E+00  0.00000000000E+00 -0.16795099262E+04  0.16795099262E+04  0.50400001928E-02 0. -1.
    10030    2    1    2    0    0  0.00000000000E+00  0.00000000000E+00  0.12502196285E+03  0.34840418153E+04  0.34817979377E+04 0.  0.
        1    1    3    3  502    0  0.22963013937E+03 -0.14947144705E+04  0.92552135993E+03  0.17729893222E+04  0.50400001928E-02 0.  1.
       -1    1    3    3    0  502 -0.22963013937E+03  0.14947144705E+04 -0.80049939708E+03  0.17110524930E+04  0.50400001928E-02 0. -1.
</event>
<event>
 5   0  0.5679750E-07  0.3657566E+04  0.7818609E-02  0.8077431E-01
        1   -1    0    0  501    0  0.00000000000E+00  0.00000000000E+00  0.23231132184E+04  0.23231132184E+04  0.50400001928E-02 0.  1.
       -1   -1    0    0    0  501  0.00000000000E+00  0.00000000000E+00 -0.14396400007E+04  0.14396400007E+04  0.50400001928E-02 0. -1.
    10030    2    1    2    0    0  0.00000000000E+00  0.00000000000E+00  0.88347321771E+03  0.37627532191E+04  0.36575657016E+04 0.  0.
        4    1    3    3  502    0 -0.13948026926E+04 -0.11495396584E+04  0.15528844606E+03  0.18141201977E+04  0.12699999809E+01 0. -1.
       -4    1    3    3    0  502  0.13948026926E+04  0.11495396584E+04  0.72818477166E+03  0.19486330214E+04  0.12699999809E+01 0.  1.
</event>
<event>
 5   0  0.1151180E-06  0.3673139E+04  0.7818609E-02  0.8073941E-01
       -2   -1    0    0    0  501  0.00000000000E+00  0.00000000000E+00  0.23487578167E+04  0.23487578167E+04  0.25500000920E-02 0.  1.
        2   -1    0    0  501    0  0.00000000000E+00  0.00000000000E+00 -0.14360727707E+04  0.14360727707E+04  0.25500000920E-02 0. -1.
    10030    2    1    2    0    0  0.00000000000E+00  0.00000000000E+00  0.91268504600E+03  0.37848305875E+04  0.36731387916E+04 0.  0.
        5    1    3    3  502    0 -0.96391103110E+03 -0.12774581195E+04 -0.47213507829E+03  0.16685195069E+04  0.46999998093E+01 0. -1.
       -5    1    3    3    0  502  0.96391103110E+03  0.12774581195E+04  0.13848201243E+04  0.21163110805E+04  0.46999998093E+01 0.  1.
</event>
<event>
 5   0  0.1685793E-06  0.3635902E+04  0.7818609E-02  0.8082317E-01
       -2   -1    0    0    0  501  0.00000000000E+00  0.00000000000E+00  0.12815537804E+04  0.12815537804E+04  0.25500000920E-02 0. -1.
        2   -1    0    0  501    0  0.00000000000E+00  0.00000000000E+00 -0.25788578903E+04  0.25788578903E+04  0.25500000920E-02 0.  1.
    10030    2    1    2    0    0  0.00000000000E+00  0.00000000000E+00 -0.12973041099E+04  0.38604116707E+04  0.36359015819E+04 0.  0.
        3    1    3    3  502    0 -0.66331774864E+03 -0.15506127537E+04 -0.13691987324E+04  0.21723479294E+04  0.10100000352E+00 0.  1.
       -3    1    3    3    0  502  0.66331774864E+03  0.15506127537E+04  0.71894622479E+02  0.16880637412E+04  0.10100000352E+00 0. -1.
</event>
<event>
 5   0  0.1151180E-06  0.3689765E+04  0.7818609E-02  0.8070234E-01
       -2   -1    0    0    0  501  0.00000000000E+00  0.00000000000E+00  0.29518153357E+04  0.29518153358E+04  0.25500000920E-02 0. -1.
        2   -1    0    0  501    0  0.00000000000E+00  0.00000000000E+00 -0.11530504104E+04  0.11530504104E+04  0.25500000920E-02 0.  1.
    10030    2    1    2    0    0  0.00000000000E+00  0.00000000000E+00  0.17987649254E+04  0.41048657461E+04  0.36897652415E+04 0.  0.
        5    1    3    3  502    0 -0.15256164459E+04  0.10131200508E+04  0.11472779781E+04  0.21610614582E+04  0.46999998093E+01 0.  1.
       -5    1    3    3    0  502  0.15256164459E+04 -0.10131200508E+04  0.65148694728E+03  0.19438042879E+04  0.46999998093E+01 0. -1.
</event>
<event>
 5   0  0.1685793E-06  0.3651740E+04  0.7818609E-02  0.8078742E-01
        2   -1    0    0  501    0  0.00000000000E+00  0.00000000000E+00  0.18213475312E+04  0.18213475312E+04  0.25500000920E-02 0. -1.
       -2   -1    0    0    0  501  0.00000000000E+00  0.00000000000E+00 -0.18304040408E+04  0.18304040408E+04  0.25500000920E-02 0.  1.
    10030    2    1    2    0    0  0.00000000000E+00  0.00000000000E+00 -0.90565096241E+01  0.36517515720E+04  0.36517403417E+04 0.  0.
        3    1    3    3  502    0 -0.11537089883E+03 -0.11713738256E+04  0.13913180013E+04  0.18224140239E+04  0.10100000352E+00 0. -1.
       -3    1    3    3    0  502  0.11537089883E+03  0.11713738256E+04 -0.14003745109E+04  0.18293375480E+04  0.10100000352E+00 0.  1.
</event>
<event>
 5   0  0.1184684E-06  0.3678403E+04  0.7818609E-02  0.8072765E-01
       -2   -1    0    0    0  501  0.00000000000E+00  0.00000000000E+00  0.16922734439E+04  0.16922734439E+04  0.25500000920E-02 0.  1.
        2   -1    0    0  501    0  0.00000000000E+00  0.00000000000E+00 -0.19988859731E+04  0.19988859731E+04  0.25500000920E-02 0. -1.
    10030    2    1    2    0    0  0.00000000000E+00  0.00000000000E+00 -0.30661252916E+03  0.36911594170E+04  0.36784027238E+04 0.  0.
        4    1    3    3  502    0  0.18133380725E+04  0.12652828531E+03 -0.43437703211E+03  0.18689273370E+04  0.12699999809E+01 0. -1.
       -4    1    3    3    0  502 -0.18133380725E+04 -0.12652828531E+03  0.12776450295E+03  0.18222320800E+04  0.12699999809E+01 0.  1.
</event>
<event>
 5   0  0.6186440E-07  0.3396434E+04  0.7818609E-02  0.8138782E-01
       -1   -1    0    0    0  501  0.00000000000E+00  0.00000000000E+00  0.26693615556E+04  0.26693615556E+04  0.50400001928E-02 0. -1.
        1   -1    0    0  501    0  0.00000000000E+00  0.00000000000E+00 -0.10803858091E+04  0.10803858092E+04  0.50400001928E-02 0.  1.
    10030    2    1    2    0    0  0.00000000000E+00  0.00000000000E+00  0.15889757464E+04  0.37497473647E+04  0.33964336261E+04 0.  0.
        3    1    3    3  502    0  0.15798423538E+04 -0.30050690731E+03  0.19207652621E+03  0.16195986127E+04  0.10100000352E+00 0.  1.
       -3    1    3    3    0  502 -0.15798423538E+04  0.30050690731E+03  0.13968992202E+04  0.21301487520E+04  0.10100000352E+00 0. -1.
</event>
<event>
 5   0  0.6261598E-07  0.3802847E+04  0.7818609E-02  0.8045544E-01
        1   -1    0    0  501    0  0.00000000000E+00  0.00000000000E+00  0.23957785573E+04  0.23957785573E+04  0.50400001928E-02 0. -1.
       -1   -1    0    0    0  501  0.00000000000E+00  0.00000000000E+00 -0.15090754228E+04  0.15090754228E+04  0.50400001928E-02 0.  1.
    10030    2    1    2    0    0  0.00000000000E+00  0.00000000000E+00  0.88670313446E+03  0.39048539801E+04  0.38028465861E+04 0.  0.
        1    1    3    3  502    0  0.16640910898E+04  0.64641245306E+03 -0.22869849578E+03  0.17998197734E+04  0.50400001928E-02 0.  1.
       -1    1    3    3    0  502 -0.16640910898E+04 -0.64641245306E+03  0.11154016302E+04  0.21050342067E+04  0.50400001928E-02 0. -1.
</event>
<event>
 5   0  0.5875011E-07  0.2309487E+04  0.7818609E-02  0.8474190E-01
       -1   -1    0    0    0  501  0.00000000000E+00  0.00000000000E+00  0.96199805080E+03  0.96199805082E+03  0.50400001928E-02 0. -1.
        1   -1    0    0  501    0  0.00000000000E+00  0.00000000000E+00 -0.13861075771E+04  0.13861075771E+04  0.50400001928E-02 0.  1.
    10030    2    1    2    0    0  0.00000000000E+00  0.00000000000E+00 -0.42410952631E+03  0.23481056279E+04  0.23094872049E+04 0.  0.
        2    1    3    3  502    0 -0.91655530598E+03 -0.67814403056E+03 -0.39808935508E+03  0.12076539611E+04  0.25500000920E-02 0.  1.
       -2    1    3    3    0  502  0.91655530598E+03  0.67814403056E+03 -0.26020171227E+02  0.11404516668E+04  0.25500000920E-02 0. -1.
</event>
<event>
 5   0  0.6186440E-07  0.3660962E+04  0.7818609E-02  0.8076669E-01
        1   -1    0    0  501    0  0.00000000000E+00  0.00000000000E+00  0.10178320026E+04  0.10178320026E+04  0.50400001928E-02 0. -1.
       -1   -1    0    0    0  501  0.00000000000E+00  0.00000000000E+00 -0.32919581648E+04  0.32919581648E+04  0.50400001928E-02 0.  1.
    10030    2    1    2    0    0  0.00000000000E+00  0.00000000000E+00 -0.22741261622E+04  0.43097901674E+04  0.36609618252E+04 0.  0.
        3    1    3    3  502    0  0.18116474989E+04 -0.20321270556E+03 -0.13315671554E+04  0.22575281092E+04  0.10100000352E+00 0.  1.
       -3    1    3    3    0  502 -0.18116474989E+04  0.20321270556E+03 -0.94255900673E+03  0.20522620582E+04  0.10100000352E+00 0. -1.
</event>
<event>
 5   0  0.1680194E-06  0.3682872E+04  0.7818609E-02  0.8071768E-01
        2   -1    0    0  501    0  0.00000000000E+00  0.00000000000E+00  0.15060528385E+04  0.15060528385E+04  0.25500000920E-02 0.  1.
       -2   -1    0    0    0  501  0.00000000000E+00  0.00000000000E+00 -0.22515062214E+04  0.22515062214E+04  0.25500000920E-02 0. -1.
    10030    2    1    2    0    0  0.00000000000E+00  0.00000000000E+00 -0.74545338288E+03  0.37575590599E+04  0.36828724310E+04 0.  0.
        2    1    3    3  502    0  0.45730694366E+03 -0.93330812329E+03 -0.19236500046E+04  0.21864635908E+04  0.25500000920E-02 0. -1.
       -2    1    3    3    0  502 -0.45730694366E+03  0.93330812329E+03  0.11781966217E+04  0.15710954691E+04  0.25500000920E-02 0.  1.
</event>
<event>
 5   0  0.1151180E-06  0.3531564E+04  0.7818609E-02  0.8106350E-01
       -2   -1    0    0    0  501  0.00000000000E+00  0.00000000000E+00  0.16867041727E+04  0.16867041727E+04  0.25500000920E-02 0. -1.
        2   -1    0    0  501    0  0.00000000000E+00  0.00000000000E+00 -0.18485677339E+04  0.18485677339E+04  0.25500000920E-02 0.  1.
    10030    2    1    2    0    0  0.00000000000E+00  0.00000000000E+00 -0.16186356123E+03  0.35352719066E+04  0.35315644750E+04 0.  0.
        5    1    3    3  502    0  0.65373898949E+03  0.86824298578E+03 -0.14740623520E+04  0.18314208845E+04  0.46999998093E+01 0.  1.
       -5    1    3    3    0  502 -0.65373898949E+03 -0.86824298578E+03  0.13121987908E+04  0.17038510220E+04  0.46999998093E+01 0. -1.
</event>
<event>
 5   0  0.1685793E-06  0.3521954E+04  0.7818609E-02  0.8108607E-01
        2   -1    0    0  501    0  0.00000000000E+00  0.00000000000E+00  0.17113792880E+04  0.17113792880E+04  0.25500000920E-02 0. -1.
       -2   -1    0    0    0  501  0.00000000000E+00  0.00000000000E+00 -0.18120116759E+04  0.18120116759E+04  0.25500000920E-02 0.  1.
    10030    2    1    2    0    0  0.00000000000E+00  0.00000000000E+00 -0.10063238790E+03  0.35233909638E+04  0.35219535781E+04 0.  0.
        3    1    3    3  502    0  0.89071323822E+03 -0.14840343338E+04  0.27433321993E+03  0.17524230946E+04  0.10100000352E+00 0. -1.
       -3    1    3    3    0  502 -0.89071323822E+03  0.14840343338E+04 -0.37496560783E+03  0.17709678693E+04  0.10100000352E+00 0.  1.
</event>
<event>
 5   0  0.5679750E-07  0.2203704E+04  0.7818609E-02  0.8516888E-01
        1   -1    0    0  501    0  0.00000000000E+00  0.00000000000E+00  0.11385375676E+04  0.11385375676E+04  0.50400001928E-02 0.  1.
       -1   -1    0    0    0  501  0.00000000000E+00  0.00000000000E+00 -0.10663487514E+04  0.10663487514E+04  0.50400001928E-02 0. -1.
    10030    2    1    2    0    0  0.00000000000E+00  0.00000000000E+00  0.72188816189E+02  0.22048863190E+04  0.22037042575E+04 0.  0.
        4    1    3    3  502    0  0.35170308551E+03 -0.25410521434E+03  0.10494614500E+04  0.11356211816E+04  0.12699999809E+01 0.  1.
       -4    1    3    3    0  502 -0.35170308551E+03  0.25410521434E+03 -0.97727263376E+03  0.10692651373E+04  0.12699999809E+01 0. -1.
</event>
<event>
 5   0  0.1685793E-06  0.2290519E+04  0.7818609E-02  0.8481669E-01
       -2   -1    0    0    0  501  0.00000000000E+00  0.00000000000E+00  0.59271713313E+03  0.59271713313E+03  0.25500000920E-02 0.  1.
        2   -1    0    0  501    0  0.00000000000E+00  0.00000000000E+00 -0.22128916693E+04  0.22128916693E+04  0.25500000920E-02 0. -1.
    10030    2    1    2    0    0  0.00000000000E+00  0.00000000000E+00 -0.16201745362E+04  0.28056088025E+04  0.22905185493E+04 0.  0.
        3    1    3    3  502    0  0.11132882722E+04 -0.19767333312E+03 -0.58712803250E+03  0.12740505722E+04  0.10100000352E+00 0.  1.
       -3    1    3    3    0  502 -0.11132882722E+04  0.19767333312E+03 -0.10330465037E+04  0.15315582303E+04  0.10100000352E+00 0. -1.
</event>
<event>
 5   0  0.1685793E-06  0.3615638E+04  0.7818609E-02  0.8086919E-01
        2   -1    0    0  501    0  0.00000000000E+00  0.00000000000E+00  0.26890688351E+04  0.26890688351E+04  0.25500000920E-02 0.  1.
       -2   -1    0    0    0  501  0.00000000000E+00  0.00000000000E+00 -0.12153686160E+04  0.12153686160E+04  0.25500000920E-02 0. -1.
    10030    2    1    2    0    0  0.00000000000E+00  0.00000000000E+00  0.14737002191E+04  0.39044374512E+04  0.36156381835E+04 0.  0.
        3    1    3    3  502    0 -0.45917981661E+03  0.13298016763E+04  0.19628727532E+04  0.24149716474E+04  0.10100000352E+00 0.  1.
       -3    1    3    3    0  502  0.45917981661E+03 -0.13298016763E+04 -0.48917253407E+03  0.14894658038E+04  0.10100000352E+00 0. -1.
</event>
<event>
 5   0  0.1151180E-06  0.3205352E+04  0.7818609E-02  0.8187405E-01
       -2   -1    0    0    0  501  0.00000000000E+00  0.00000000000E+00  0.15419854132E+04  0.15419854132E+04  0.25500000920E-02 0.  1.
        2   -1    0    0  501    0  0.00000000000E+00  0.00000000000E+00 -0.16657550943E+04  0.16657550943E+04  0.25500000920E-02 0. -1.
    10030    2    1    2    0    0  0.00000000000E+00  0.00000000000E+00 -0.12376968112E+03  0.32077405075E+04  0.32053518106E+04 0.  0.
        5    1    3    3  502    0  0.70078888413E+03 -0.11785961384E+04 -0.89217417836E+03  0.16359067126E+04  0.46999998093E+01 0. -1.
       -5    1    3    3    0  502 -0.70078888413E+03  0.11785961384E+04  0.76840449724E+03  0.15718337950E+04  0.46999998093E+01 0.  1.
</event>
<event>
 5   0  0.2425918E-06  0.2033896E+04  0.7818609E-02  0.8590935E-01
       -2   -1    0    0    0  501  0.00000000000E+00  0.00000000000E+00  0.78477660318E+03  0.78477660319E+03  0.25500000920E-02 0.  1.
        2   -1    0    0  501    0  0.00000000000E+00  0.00000000000E+00 -0.13178055668E+04  0.13178055668E+04  0.25500000920E-02 0. -1.
    10030    2    1    2    0    0  0.00000000000E+00  0.00000000000E+00 -0.53302896357E+03  0.21025821699E+04  0.20338957459E+04 0.  0.
        1    1    3    3  502    0 -0.77059217806E+03  0.63817665875E+02 -0.94934966308E+03  0.12243977222E+04  0.50400001928E-02 0. -1.
       -1    1    3    3    0  502  0.77059217806E+03 -0.63817665875E+02  0.41632069951E+03  0.87818444773E+03  0.50400001928E-02 0.  1.
</event>
<event>
 5   0  0.5679750E-07  0.2165829E+04  0.7818609E-02  0.8532787E-01
        1   -1    0    0  501    0  0.00000000000E+00  0.00000000000E+00  0.23054539996E+04  0.23054539996E+04  0.50400001928E-02 0. -1.
       -1   -1    0    0    0  501  0.00000000000E+00  0.00000000000E+00 -0.50866482159E+03  0.50866482162E+03  0.50400001928E-02 0.  1.
    10030    2    1    2    0    0  0.00000000000E+00  0.00000000000E+00  0.17967891780E+04  0.28141188212E+04  0.21658285689E+04 0.  0.
        4    1    3    3  502    0 -0.98650995050E+03  0.22140487019E+03  0.39436345646E+03  0.10852401336E+04  0.12699999809E+01 0. -1.
       -4    1    3    3    0  502  0.98650995050E+03 -0.22140487019E+03  0.14024257215E+04  0.17288786875E+04  0.12699999809E+01 0.  1.
</event>
<event>
 5   0  0.5875011E-07  0.3564943E+04  0.7818609E-02  0.8098569E-01
        1   -1    0    0  501    0  0.00000000000E+00  0.00000000000E+00  0.16394095437E+04  0.16394095437E+04  0.50400001928E-02 0. -1.
       -1   -1    0    0    0  501  0.00000000000E+00  0.00000000000E+00 -0.19380176557E+04  0.19380176557E+04  0.50400001928E-02 0.  1.
    10030    2    1    2    0    0  0.00000000000E+00  0.00000000000E+00 -0.29860811205E+03  0.35774271994E+04  0.35649429957E+04 0.  0.
        2    1    3    3  502    0 -0.14316987325E+04  0.79324167241E+03 -0.85761651932E+03  0.18478364932E+04  0.25500000920E-02 0. -1.
       -2    1    3    3    0  502  0.14316987325E+04 -0.79324167241E+03  0.55900840727E+03  0.17295907062E+04  0.25500000920E-02 0.  1.
</event>
<event>
 5   0  0.6186440E-07  0.3356041E+04  0.7818609E-02  0.8148780E-01
       -1   -1    0    0    0  501  0.00000000000E+00  0.00000000000E+00  0.14474884333E+04  0.14474884333E+04  0.50400001928E-02 0. -1.
        1   -1    0    0  501    0  0.00000000000E+00  0.00000000000E+00 -0.19452680728E+04  0.19452680728E+04  0.50400001928E-02 0.  1.
    10030    2    1    2    0    0  0.00000000000E+00  0.00000000000E+00 -0.49777963952E+03  0.33927565061E+04  0.33560411410E+04 0.  0.
        3    1    3    3  502    0  0.73001597876E+03 -0.14243583707E+04  0.26064095824E+03  0.16216207376E+04  0.10100000352E+00 0. -1.
       -3    1    3    3    0  502 -0.73001597876E+03  0.14243583707E+04 -0.75842059776E+03  0.17711357685E+04  0.10100000352E+00 0.  1.
</event>
<event>
 5   0  0.1680194E-06  0.3637592E+04  0.7818609E-02  0.8081935E-01
        2   -1    0    0  501    0  0.00000000000E+00  0.00000000000E+00  0.20140266863E+04  0.20140266863E+04  0.25500000920E-02 0.  1.
       -2   -1    0    0    0  501  0.00000000000E+00  0.00000000000E+00 -0.16424896540E+04  0.16424896540E+04  0.25500000920E-02 0. -1.
    10030    2    1    2    0    0  0.00000000000E+00  0.00000000000E+00  0.37153703229E+03  0.36565163402E+04  0.36375915081E+04 0.  0.
        2    1    3    3  502    0  0.10176236614E+04 -0.11882193228E+04  0.11182774048E+04  0.19230099920E+04  0.25500000920E-02 0.  1.
       -2    1    3    3    0  502 -0.10176236614E+04  0.11882193228E+04 -0.74674037248E+03  0.17335063482E+04  0.25500000920E-02 0. -1.
</event>
<event>
 5   0  0.6261598E-07  0.3701409E+04  0.7818609E-02  0.8067650E-01
       -1   -1    0    0    0  501  0.00000000000E+00  0.00000000000E+00  0.32839741531E+04  0.32839741531E+04  0.50400001928E-02 0.  1.
        1   -1    0    0  501    0  0.00000000000E+00  0.00000000000E+00 -0.10429760501E+04  0.10429760501E+04  0.50400001928E-02 0. -1.
    10030    2    1    2    0    0  0.00000000000E+00  0.00000000000E+00  0.22409981030E+04  0.43269502032E+04  0.37014085917E+04 0.  0.
        1    1    3    3  502    0  0.53975827604E+03 -0.13242851276E+04 -0.25278419749E+03  0.14522293023E+04  0.50400001928E-02 0. -1.
       -1    1    3    3    0  502 -0.53975827604E+03  0.13242851276E+04  0.24937823005E+04  0.28747209009E+04  0.50400001928E-02 0.  1.
</event>
<event>
 5   0  0.5679750E-07  0.2176651E+04  0.7818609E-02  0.8528210E-01
       -3   -1    0    0    0  501  0.00000000000E+00  0.00000000000E+00  0.13590454751E+04  0.13590454788E+04  0.10100000352E+00 0. -1.
        3   -1    0    0  501    0  0.00000000000E+00  0.00000000000E+00 -0.87153245560E+03  0.87153246145E+03  0.10100000352E+00 0.  1.
    10030    2    1    2    0    0  0.00000000000E+00  0.00000000000E+00  0.48751301948E+03  0.22305779403E+04  0.21766508685E+04 0.  0.
        4    1    3    3  502    0 -0.60826672416E+03 -0.69619350858E+03  0.83224598090E+03  0.12439086762E+04  0.12699999809E+01 0. -1.
       -4    1    3    3    0  502  0.60826672416E+03  0.69619350858E+03 -0.34473296142E+03  0.98666926409E+03  0.12699999809E+01 0.  1.
</event>
<event>
 5   0  0.5875011E-07  0.3710480E+04  0.7818609E-02  0.8065643E-01
        1   -1    0    0  501    0  0.00000000000E+00  0.00000000000E+00  0.20116443736E+04  0.20116443736E+04  0.50400001928E-02 0.  1.
       -1   -1    0    0    0  501  0.00000000000E+00  0.00000000000E+00 -0.17109963615E+04  0.17109963615E+04  0.50400001928E-02 0. -1.
    10030    2    1    2    0    0  0.00000000000E+00  0.00000000000E+00  0.30064801205E+03  0.37226407351E+04  0.37104804023E+04 0.  0.
        2    1    3    3  502    0 -0.26330342650E+03  0.18298065351E+04 -0.63786375358E+01  0.18486647444E+04  0.25500000920E-02 0. -1.
       -2    1    3    3    0  502  0.26330342650E+03 -0.18298065351E+04  0.30702664959E+03  0.18739759907E+04  0.25500000920E-02 0.  1.
</event>
<event>
 5   0  0.1184684E-06  0.3641434E+04  0.7818609E-02  0.8081066E-01
       -2   -1    0    0    0  501  0.00000000000E+00  0.00000000000E+00  0.17257303908E+04  0.17257303908E+04  0.25500000920E-02 0.  1.
        2   -1    0    0  501    0  0.00000000000E+00  0.00000000000E+00 -0.19209321463E+04  0.19209321463E+04  0.25500000920E-02 0. -1.
    10030    2    1    2    0    0  0.00000000000E+00  0.00000000000E+00 -0.19520175550E+03  0.36466625371E+04  0.36414343238E+04 0.  0.
        4    1    3    3  502    0 -0.61764775339E+03  0.14796220301E+04  0.76633077382E+03  0.17770859763E+04  0.12699999809E+01 0.  1.
       -4    1    3    3    0  502  0.61764775339E+03 -0.14796220301E+04 -0.96153252932E+03  0.18695765609E+04  0.12699999809E+01 0. -1.
</event>
<event>
 5   0  0.6287345E-07  0.1863919E+04  0.7818609E-02  0.8673027E-01
        1   -1    0    0  501    0  0.00000000000E+00  0.00000000000E+00  0.15313642284E+04  0.15313642284E+04  0.50400001928E-02 0. -1.
       -1   -1    0    0    0  501  0.00000000000E+00  0.00000000000E+00 -0.56717325143E+03  0.56717325145E+03  0.50400001928E-02 0.  1.
    10030    2    1    2    0    0  0.00000000000E+00  0.00000000000E+00  0.96419097695E+03  0.20985374798E+04  0.18639193422E+04 0.  0.
        5    1    3    3  502    0  0.59508010626E+03 -0.54441127909E+03 -0.43607609667E+02  0.80772995938E+03  0.46999998093E+01 0.  1.
       -5    1    3    3    0  502 -0.59508010626E+03  0.54441127909E+03  0.10077985866E+04  0.12908075204E+04  0.46999998093E+01 0. -1.
</event>
<event>
 5   0  0.5875011E-07  0.3914829E+04  0.7818609E-02  0.8021952E-01
       -1   -1    0    0    0  501  0.00000000000E+00  0.00000000000E+00  0.24150049283E+04  0.24150049283E+04  0.50400001928E-02 0.  1.
        1   -1    0    0  501    0  0.00000000000E+00  0.00000000000E+00 -0.15865270573E+04  0.15865270573E+04  0.50400001928E-02 0. -1.
    10030    2    1    2    0    0  0.00000000000E+00  0.00000000000E+00  0.82847787098E+03  0.40015319856E+04  0.39148285593E+04 0.  0.
        2    1    3    3  502    0 -0.58446580906E+03 -0.32511960305E+03 -0.14661144569E+04  0.16114573028E+04  0.25500000920E-02 0. -1.
       -2    1    3    3    0  502  0.58446580906E+03  0.32511960305E+03  0.22945923278E+04  0.23900746828E+04  0.25500000920E-02 0.  1.
</event>
<event>
 5   0  0.6287345E-07  0.3656192E+04  0.7818609E-02  0.8077740E-01
        1   -1    0    0  501    0  0.00000000000E+00  0.00000000000E+00  0.17160308093E+04  0.17160308093E+04  0.50400001928E-02 0. -1.
       -1   -1    0    0    0  501  0.00000000000E+00  0.00000000000E+00 -0.19474793061E+04  0.19474793061E+04  0.50400001928E-02 0.  1.
    10030    2    1    2    0    0  0.00000000000E+00  0.00000000000E+00 -0.23144849679E+03  0.36635101154E+04  0.36561917289E+04 0.  0.
        5    1    3    3  502    0  0.78279847709E+03 -0.19610420009E+03 -0.17593374726E+04  0.19355931250E+04  0.46999998093E+01 0.  1.
       -5    1    3    3    0  502 -0.78279847709E+03  0.19610420009E+03  0.15278889758E+04  0.17279169903E+04  0.46999998093E+01 0. -1.
</event>
<event>
 5   0  0.5875011E-07  0.2355657E+04  0.7818609E-02  0.8456294E-01
        1   -1    0    0  501    0  0.00000000000E+00  0.00000000000E+00  0.13872195473E+04  0.13872195474E+04  0.50400001928E-02 0. -1.
       -1   -1    0    0    0  501  0.00000000000E+00  0.00000000000E+00 -0.10000431628E+04  0.10000431629E+04  0.50400001928E-02 0.  1.
    10030    2    1    2    0    0  0.00000000000E+00  0.00000000000E+00  0.38717638451E+03  0.23872627102E+04  0.23556565316E+04 0.  0.
        2    1    3    3  502    0  0.73417138203E+03  0.87235237380E+03 -0.10579578296E+03  0.11450759931E+04  0.25500000920E-02 0.  1.
       -2    1    3    3    0  502 -0.73417138203E+03 -0.87235237380E+03  0.49297216747E+03  0.12421867171E+04  0.25500000920E-02 0. -1.
</event>
<event>
 5   0  0.5679750E-07  0.3593116E+04  0.7818609E-02  0.8092070E-01
        1   -1    0    0  501    0  0.00000000000E+00  0.00000000000E+00  0.29984681796E+04  0.29984681796E+04  0.50400001928E-02 0. -1.
       -1   -1    0    0    0  501  0.00000000000E+00  0.00000000000E+00 -0.10764233888E+04  0.10764233888E+04  0.50400001928E-02 0.  1.
    10030    2    1    2    0    0  0.00000000000E+00  0.00000000000E+00  0.19220447908E+04  0.40748915685E+04  0.35931163517E+04 0.  0.
        4    1    3    3  502    0  0.87565744070E+03  0.23770313291E+03 -0.79747934005E+03  0.12079957134E+04  0.12699999809E+01 0.  1.
       -4    1    3    3    0  502 -0.87565744070E+03 -0.23770313291E+03  0.27195241308E+04  0.28668958551E+04  0.12699999809E+01 0. -1.
</event>
<event>
 5   0  0.1724503E-06  0.3675348E+04  0.7818609E-02  0.8073447E-01
        2   -1    0    0  501    0  0.00000000000E+00  0.00000000000E+00  0.12437503604E+04  0.12437503604E+04  0.25500000920E-02 0.  1.
       -2   -1    0    0    0  501  0.00000000000E+00  0.00000000000E+00 -0.27152113659E+04  0.27152113659E+04  0.25500000920E-02 0. -1.
    10030    2    1    2    0    0  0.00000000000E+00  0.00000000000E+00 -0.14714610055E+04  0.39589617263E+04  0.36753476651E+04 0.  0.
        1    1    3    3  502    0 -0.29099226230E+03 -0.18116118460E+04 -0.62571631079E+03  0.19385909519E+04  0.50400001928E-02 0. -1.
       -1    1    3    3    0  502  0.29099226230E+03  0.18116118460E+04 -0.84574469470E+03  0.20203707744E+04  0.50400001928E-02 0.  1.
</event>
<event>
 5   0  0.6261598E-07  0.1954229E+04  0.7818609E-02  0.8628324E-01
        1   -1    0    0  501    0  0.00000000000E+00  0.00000000000E+00  0.17826196192E+04  0.17826196192E+04  0.50400001928E-02 0. -1.
       -1   -1    0    0    0  501  0.00000000000E+00  0.00000000000E+00 -0.53558997427E+03  0.53558997430E+03  0.50400001928E-02 0.  1.
    10030    2    1    2    0    0  0.00000000000E+00  0.00000000000E+00  0.12470296449E+04  0.23182095935E+04  0.19542294605E+04 0.  0.
        1    1    3    3  502    0 -0.42352051456E+03  0.13945812633E+03  0.16548963999E+04  0.17139137346E+04  0.50400001928E-02 0. -1.
       -1    1    3    3    0  502  0.42352051456E+03 -0.13945812633E+03 -0.40786675497E+03  0.60429585890E+03  0.50400001928E-02 0.  1.
</event>
<event>
 5   0  0.1680194E-06  0.1847650E+04  0.7818609E-02  0.8681362E-01
        2   -1    0    0  501    0  0.00000000000E+00  0.00000000000E+00  0.93528714265E+03  0.93528714265E+03  0.25500000920E-02 0.  1.
       -2   -1    0    0    0  501  0.00000000000E+00  0.00000000000E+00 -0.91250373489E+03  0.91250373490E+03  0.25500000920E-02 0. -1.
    10030    2    1    2    0    0  0.00000000000E+00  0.00000000000E+00  0.22783407757E+02  0.18477908776E+04  0.18476504116E+04 0.  0.
        2    1    3    3  502    0  0.14879627698E+03 -0.82709025780E+03 -0.37234879679E+03  0.91916388803E+03  0.25500000920E-02 0. -1.
       -2    1    3    3    0  502 -0.14879627698E+03  0.82709025780E+03  0.39513220455E+03  0.92862698952E+03  0.25500000920E-02 0.  1.
</event>
<event>
 5   0  0.1685793E-06  0.3707647E+04  0.7818609E-02  0.8066269E-01
        2   -1    0    0  501    0  0.00000000000E+00  0.00000000000E+00  0.18354882694E+04  0.18354882694E+04  0.25500000920E-02 0. -1.
       -2   -1    0    0    0  501  0.00000000000E+00  0.00000000000E+00 -0.18723414964E+04  0.18723414964E+04  0.25500000920E-02 0.  1.
    10030    2    1    2    0    0  0.00000000000E+00  0.00000000000E+00 -0.36853226965E+02  0.37078297658E+04  0.37076466137E+04 0.  0.
        3    1    3    3  502    0  0.16690694611E+04 -0.80654642604E+03 -0.37158248444E+02  0.18541010622E+04  0.10100000352E+00 0. -1.
       -3    1    3    3    0  502 -0.16690694611E+04  0.80654642604E+03  0.30502147940E+00  0.18537287036E+04  0.10100000352E+00 0.  1.
</event>
<event>
 5   0  0.6287345E-07  0.2976689E+04  0.7818609E-02  0.8250419E-01
       -1   -1    0    0    0  501  0.00000000000E+00  0.00000000000E+00  0.17025637621E+04  0.17025637621E+04  0.50400001928E-02 0.  1.
        1   -1    0    0  501    0  0.00000000000E+00  0.00000000000E+00 -0.13010790660E+04  0.13010790660E+04  0.50400001928E-02 0. -1.
    10030    2    1    2    0    0  0.00000000000E+00  0.00000000000E+00  0.40148469609E+03  0.30036428282E+04  0.29766894830E+04 0.  0.
        5    1    3    3  502    0 -0.11806989130E+04 -0.43273298097E+03  0.10040920801E+04  0.16092018989E+04  0.46999998093E+01 0.  1.
       -5    1    3    3    0  502  0.11806989130E+04  0.43273298097E+03 -0.60260738404E+03  0.13944409293E+04  0.46999998093E+01 0. -1.
</event>
<event>
 5   0  0.6186440E-07  0.2091860E+04  0.7818609E-02  0.8564838E-01
       -1   -1    0    0    0  501  0.00000000000E+00  0.00000000000E+00  0.93427448634E+03  0.93427448636E+03  0.50400001928E-02 0. -1.
        1   -1    0    0  501    0  0.00000000000E+00  0.00000000000E+00 -0.11709296642E+04  0.11709296642E+04  0.50400001928E-02 0.  1.
    10030    2    1    2    0    0  0.00000000000E+00  0.00000000000E+00 -0.23665517787E+03  0.21052041506E+04  0.20918601393E+04 0.  0.
        3    1    3    3  502    0 -0.90182514850E+03  0.50421471389E+03  0.45340162666E+02  0.10342034697E+04  0.10100000352E+00 0. -1.
       -3    1    3    3    0  502  0.90182514850E+03 -0.50421471389E+03 -0.28199534054E+03  0.10710006809E+04  0.10100000352E+00 0.  1.
</event>
<event>
 5   0  0.1184684E-06  0.3678184E+04  0.7818609E-02  0.8072814E-01
       -2   -1    0    0    0  501  0.00000000000E+00  0.00000000000E+00  0.24490293702E+04  0.24490293702E+04  0.25500000920E-02 0. -1.
        2   -1    0    0  501    0  0.00000000000E+00  0.00000000000E+00 -0.13810610625E+04  0.13810610625E+04  0.25500000920E-02 0.  1.
    10030    2    1    2    0    0  0.00000000000E+00  0.00000000000E+00  0.10679683076E+04  0.38300904327E+04  0.36781838476E+04 0.  0.
        4    1    3    3  502    0 -0.48268060512E+03 -0.20868774906E+03  0.23690733933E+04  0.24267347401E+04  0.12699999809E+01 0. -1.
       -4    1    3    3    0  502  0.48268060512E+03  0.20868774906E+03 -0.13011050857E+04  0.14033556926E+04  0.12699999809E+01 0.  1.
</event>
<event>
 5   0  0.1184684E-06  0.3850672E+04  0.7818609E-02  0.8035367E-01
        2   -1    0    0  501    0  0.00000000000E+00  0.00000000000E+00  0.14522832754E+04  0.14522832754E+04  0.25500000920E-02 0.  1.
       -2   -1    0    0    0  501  0.00000000000E+00  0.00000000000E+00 -0.25524767791E+04  0.25524767791E+04  0.25500000920E-02 0. -1.
    10030    2    1    2    0    0  0.00000000000E+00  0.00000000000E+00 -0.11001935038E+04  0.40047600545E+04  0.38506723242E+04 0.  0.
        4    1    3    3  502    0  0.52292374002E+03 -0.40527238906E+03 -0.24305485036E+04  0.25189804660E+04  0.12699999809E+01 0. -1.
       -4    1    3    3    0  502 -0.52292374002E+03  0.40527238906E+03  0.13303549998E+04  0.14857795885E+04  0.12699999809E+01 0.  1.
</event>
<event>
 5   0  0.1680194E-06  0.2693228E+04  0.7818609E-02  0.8337206E-01
        2   -1    0    0  501    0  0.00000000000E+00  0.00000000000E+00  0.15788810039E+04  0.15788810039E+04  0.25500000920E-02 0. -1.
       -2   -1    0    0    0  501  0.00000000000E+00  0.00000000000E+00 -0.11485156300E+04  0.11485156300E+04  0.25500000920E-02 0.  1.
    10030    2    1    2    0    0  0.00000000000E+00  0.00000000000E+00  0.43036537389E+03  0.27273966339E+04  0.26932281826E+04 0.  0.
        2    1    3    3  502    0  0.93632359118E+03  0.98226302363E+02 -0.75985078087E+03  0.12098444045E+04  0.25500000920E-02 0.  1.
       -2    1    3    3    0  502 -0.93632359118E+03 -0.98226302363E+02  0.11902161548E+04  0.15175522294E+04  0.25500000920E-02 0. -1.
</event>
<event>
 5   0  0.6186440E-07  0.3726828E+04  0.7818609E-02  0.8062042E-01
       -1   -1    0    0    0  501  0.00000000000E+00  0.00000000000E+00  0.13830116256E+04  0.13830116256E+04  0.50400001928E-02 0.  1.
        1   -1    0    0  501    0  0.00000000000E+00  0.00000000000E+00 -0.25106883225E+04  0.25106883225E+04  0.50400001928E-02 0. -1.
    10030    2    1    2    0    0  0.00000000000E+00  0.00000000000E+00 -0.11276766969E+04  0.38936999481E+04  0.37268276795E+04 0.  0.
        3    1    3    3  502    0 -0.17007320278E+03  0.17707074261E+04  0.15971309391E+02  0.17789279851E+04  0.10100000352E+00 0.  1.
       -3    1    3    3    0  502  0.17007320278E+03 -0.17707074261E+04 -0.11436480063E+04  0.21147719630E+04  0.10100000352E+00 0. -1.
</event>
<event>
 5   0  0.1724503E-06  0.3623987E+04  0.7818609E-02  0.8085019E-01
        2   -1    0    0  501    0  0.00000000000E+00  0.00000000000E+00  0.19073382429E+04  0.19073382429E+04  0.25500000920E-02 0. -1.
       -2   -1    0    0    0  501  0.00000000000E+00  0.00000000000E+00 -0.17214146835E+04  0.17214146835E+04  0.25500000920E-02 0.  1.
    10030    2    1    2    0    0  0.00000000000E+00  0.00000000000E+00  0.18592355942E+03  0.36287529264E+04  0.36239867868E+04 0.  0.
        1    1    3    3  502    0 -0.12586449304E+03  0.10794878607E+03  0.18997253977E+04  0.19069481895E+04  0.50400001928E-02 0. -1.
       -1    1    3    3    0  502  0.12586449304E+03 -0.10794878607E+03 -0.17138018383E+04  0.17218047369E+04  0.50400001928E-02 0.  1.
</event>
<event>
 5   0  0.6287345E-07  0.3801333E+04  0.7818609E-02  0.8045869E-01
        1   -1    0    0  501    0  0.00000000000E+00  0.00000000000E+00  0.27662669086E+04  0.27662669086E+04  0.50400001928E-02 0.  1.
       -1   -1    0    0    0  501  0.00000000000E+00  0.00000000000E+00 -0.13059236265E+04  0.13059236265E+04  0.50400001928E-02 0. -1.
    10030    2    1    2    0    0  0.00000000000E+00  0.00000000000E+00  0.14603432821E+04  0.40721905351E+04  0.38013330889E+04 0.  0.
        5    1    3    3  502    0 -0.70372632249E+03  0.83729728355E+03 -0.93500319581E+03  0.14389407716E+04  0.46999998093E+01 0. -1.
       -5    1    3    3    0  502  0.70372632249E+03 -0.83729728355E+03  0.23953464779E+04  0.26332497635E+04  0.46999998093E+01 0.  1.
</event>
<event>
 5   0  0.6261598E-07  0.1976378E+04  0.7818609E-02  0.8617745E-01
       -1   -1    0    0    0  501  0.00000000000E+00  0.00000000000E+00  0.11184848668E+04  0.11184848668E+04  0.50400001928E-02 0.  1.
        1   -1    0    0  501    0  0.00000000000E+00  0.00000000000E+00 -0.87307186436E+03  0.87307186438E+03  0.50400001928E-02 0. -1.
    10030    2    1    2    0    0  0.00000000000E+00  0.00000000000E+00  0.24541300241E+03  0.19915567312E+04  0.19763781702E+04 0.  0.
        1    1    3    3  502    0 -0.75987915536E+02 -0.97269873567E+03  0.28075709751E+03  0.10152544221E+04  0.50400001928E-02 0.  1.
       -1    1    3    3    0  502  0.75987915536E+02  0.97269873567E+03 -0.35344095104E+02  0.97630230910E+03  0.50400001928E-02 0. -1.
</event>
<event>
 5   0  0.6287345E-07  0.1988683E+04  0.7818609E-02  0.8611930E-01
        1   -1    0    0  501    0  0.00000000000E+00  0.00000000000E+00  0.76654233604E+03  0.76654233605E+03  0.50400001928E-02 0. -1.
       -1   -1    0    0    0  501  0.00000000000E+00  0.00000000000E+00 -0.12898377816E+04  0.12898377816E+04  0.50400001928E-02 0.  1.
    10030    2    1    2    0    0  0.00000000000E+00  0.00000000000E+00 -0.52329544552E+03  0.20563801176E+04  0.19886832490E+04 0.  0.
        5    1    3    3  502    0  0.78335633625E+03  0.44776364809E+03 -0.69366624041E+03  0.11381275751E+04  0.46999998093E+01 0.  1.
       -5    1    3    3    0  502 -0.78335633625E+03 -0.44776364809E+03  0.17037079490E+03  0.91825254252E+03  0.46999998093E+01 0. -1.
</event>
<event>
 5   0  0.1184684E-06  0.2478456E+04  0.7818609E-02  0.8410701E-01
       -2   -1    0    0    0  501  0.00000000000E+00  0.00000000000E+00  0.10799075413E+04  0.10799075413E+04  0.25500000920E-02 0.  1.
        2   -1    0    0  501    0  0.00000000000E+00  0.00000000000E+00 -0.14220533071E+04  0.14220533071E+04  0.25500000920E-02 0. -1.
    10030    2    1    2    0    0  0.00000000000E+00  0.00000000000E+00 -0.34214576577E+03  0.25019608484E+04  0.24784560440E+04 0.  0.
        4    1    3    3  502    0  0.80642181238E+03 -0.37226045850E+03 -0.10434387759E+04  0.13702773735E+04  0.12699999809E+01 0. -1.
       -4    1    3    3    0  502 -0.80642181238E+03  0.37226045850E+03  0.70129301010E+03  0.11316834749E+04  0.12699999809E+01 0.  1.
</event>
<event>
 5   0  0.5875011E-07  0.2306451E+04  0.7818609E-02  0.8475382E-01
       -1   -1    0    0    0  501  0.00000000000E+00  0.00000000000E+00  0.13245716623E+04  0.13245716623E+04  0.50400001928E-02 0. -1.
        1   -1    0    0  501    0  0.00000000000E+00  0.00000000000E+00 -0.10040447838E+04  0.10040447838E+04  0.50400001928E-02 0.  1.
    10030    2    1    2    0    0  0.00000000000E+00  0.00000000000E+00  0.32052687852E+03  0.23286164461E+04  0.23064511860E+04 0.  0.
        2    1    3    3  502    0  0.44091441578E+03 -0.60735350514E+03 -0.72373394229E+03  0.10426287074E+04  0.25500000920E-02 0.  1.
       -2    1    3    3    0  502 -0.44091441578E+03  0.60735350514E+03  0.10442608208E+04  0.12859877387E+04  0.25500000920E-02 0. -1.
</event>
<event>
 5   0  0.6261598E-07  0.2760434E+04  0.7818609E-02  0.8315658E-01
        1   -1    0    0  501    0  0.00000000000E+00  0.00000000000E+00  0.13206435991E+04  0.13206435991E+04  0.50400001928E-02 0.  1.
       -1   -1    0    0    0  501  0.00000000000E+00  0.00000000000E+00 -0.14424779991E+04  0.14424779991E+04  0.50400001928E-02 0. -1.
    10030    2    1    2    0    0  0.00000000000E+00  0.00000000000E+00 -0.12183440005E+03  0.27631215982E+04  0.27604342675E+04 0.  0.
        1    1    3    3  502    0  0.81445877115E+03 -0.22498884070E+02 -0.11760709047E+04  0.14307313034E+04  0.50400001928E-02 0. -1.
       -1    1    3    3    0  502 -0.81445877115E+03  0.22498884070E+02  0.10542365047E+04  0.13323902947E+04  0.50400001928E-02 0.  1.
</event>
<event>
 5   0  0.1680194E-06  0.3683207E+04  0.7818609E-02  0.8071694E-01
       -2   -1    0    0    0  501  0.00000000000E+00  0.00000000000E+00  0.15941577688E+04  0.15941577688E+04  0.25500000920E-02 0. -1.
        2   -1    0    0  501    0  0.00000000000E+00  0.00000000000E+00 -0.21274578688E+04  0.21274578688E+04  0.25500000920E-02 0.  1.
    10030    2    1    2    0    0  0.00000000000E+00  0.00000000000E+00 -0.53330010004E+03  0.37216156377E+04  0.36832070208E+04 0.  0.
        2    1    3    3  502    0  0.69783254957E+03  0.85771101911E+03 -0.17547141910E+04  0.20740444431E+04  0.25500000920E-02 0.  1.
       -2    1    3    3    0  502 -0.69783254957E+03 -0.85771101911E+03  0.12214140910E+04  0.16475711946E+04  0.25500000920E-02 0. -1.
</event>
<event>
 5   0  0.6261598E-07  0.3617203E+04  0.7818609E-02  0.8086563E-01
        1   -1    0    0  501    0  0.00000000000E+00  0.00000000000E+00  0.13954416845E+04  0.13954416845E+04  0.50400001928E-02 0. -1.
       -1   -1    0    0    0  501  0.00000000000E+00  0.00000000000E+00 -0.23440885055E+04  0.23440885055E+04  0.50400001928E-02 0.  1.
    10030    2    1    2    0    0  0.00000000000E+00  0.00000000000E+00 -0.94864682097E+03  0.37395301900E+04  0.36172026831E+04 0.  0.
        1    1    3    3  502    0 -0.75977713971E+03  0.15207537212E+04 -0.11125214795E+04  0.20316636594E+04  0.50400001928E-02 0. -1.
       -1    1    3    3    0  502  0.75977713971E+03 -0.15207537212E+04  0.16387465851E+03  0.17078665306E+04  0.50400001928E-02 0.  1.
</event>
<event>
 5   0  0.1184684E-06  0.3716515E+04  0.7818609E-02  0.8064312E-01
       -2   -1    0    0    0  501  0.00000000000E+00  0.00000000000E+00  0.14821994526E+04  0.14821994526E+04  0.25500000920E-02 0. -1.
        2   -1    0    0  501    0  0.00000000000E+00  0.00000000000E+00 -0.23297270524E+04  0.23297270524E+04  0.25500000920E-02 0.  1.
    10030    2    1    2    0    0  0.00000000000E+00  0.00000000000E+00 -0.84752759985E+03  0.38119265050E+04  0.37165145832E+04 0.  0.
        4    1    3    3  502    0  0.55279315199E+01  0.16860387147E+04  0.37754926382E+03  0.17278026986E+04  0.12699999809E+01 0.  1.
       -4    1    3    3    0  502 -0.55279315199E+01 -0.16860387147E+04 -0.12250768637E+04  0.20841238064E+04  0.12699999809E+01 0. -1.
</event>
<event>
 5   0  0.1724503E-06  0.3586916E+04  0.7818609E-02  0.8093495E-01
       -2   -1    0    0    0  501  0.00000000000E+00  0.00000000000E+00  0.12979519351E+04  0.12979519351E+04  0.25500000920E-02 0.  1.
        2   -1    0    0  501    0  0.00000000000E+00  0.00000000000E+00 -0.24781290057E+04  0.24781290057E+04  0.25500000920E-02 0. -1.
    10030    2    1    2    0    0  0.00000000000E+00  0.00000000000E+00 -0.11801770706E+04  0.37760809409E+04  0.35869164130E+04 0.  0.
        1    1    3    3  502    0  0.23381811550E+02 -0.10367130355E+04 -0.21305320817E+04  0.23694909956E+04  0.50400001928E-02 0. -1.
       -1    1    3    3    0  502 -0.23381811550E+02  0.10367130355E+04  0.95035501106E+03  0.14065899453E+04  0.50400001928E-02 0.  1.
</event>
<event>
 5   0  0.1724503E-06  0.3668523E+04  0.7818609E-02  0.8074974E-01
       -2   -1    0    0    0  501  0.00000000000E+00  0.00000000000E+00  0.12664192591E+04  0.12664192591E+04  0.25500000920E-02 0.  1.
        2   -1    0    0  501    0  0.00000000000E+00  0.00000000000E+00 -0.26567151349E+04  0.26567151349E+04  0.25500000920E-02 0. -1.
    10030    2    1    2    0    0  0.00000000000E+00  0.00000000000E+00 -0.13902958758E+04  0.39231343940E+04  0.36685229795E+04 0.  0.
        1    1    3    3  502    0  0.17135416819E+03 -0.18251431152E+04 -0.76283008997E+03  0.19855526656E+04  0.50400001928E-02 0. -1.
       -1    1    3    3    0  502 -0.17135416819E+03  0.18251431152E+04 -0.62746578581E+03  0.19375817284E+04  0.50400001928E-02 0.  1.
</event>
<event>
 5   0  0.1724503E-06  0.3604884E+04  0.7818609E-02  0.8089374E-01
       -2   -1    0    0    0  501  0.00000000000E+00  0.00000000000E+00  0.17236477759E+04  0.17236477759E+04  0.25500000920E-02 0.  1.
        2   -1    0    0  501    0  0.00000000000E+00  0.00000000000E+00 -0.18848377325E+04  0.18848377325E+04  0.25500000920E-02 0. -1.
    10030    2    1    2    0    0  0.00000000000E+00  0.00000000000E+00 -0.16118995662E+03  0.36084855085E+04  0.36048835574E+04 0.  0.
        1    1    3    3  502    0 -0.55902881571E+03 -0.33666129975E+03 -0.17624351694E+04  0.18793700471E+04  0.50400001928E-02 0. -1.
       -1    1    3    3    0  502  0.55902881571E+03  0.33666129975E+03  0.16012452127E+04  0.17291154614E+04  0.50400001928E-02 0.  1.
</event>
<event>
 5   0  0.1685793E-06  0.3638652E+04  0.7818609E-02  0.8081695E-01
       -2   -1    0    0    0  501  0.00000000000E+00  0.00000000000E+00  0.17620596591E+04  0.17620596591E+04  0.25500000920E-02 0. -1.
        2   -1    0    0  501    0  0.00000000000E+00  0.00000000000E+00 -0.18784531227E+04  0.18784531227E+04  0.25500000920E-02 0.  1.
    10030    2    1    2    0    0  0.00000000000E+00  0.00000000000E+00 -0.11639346360E+03  0.36405127818E+04  0.36386516564E+04 0.  0.
        3    1    3    3  502    0 -0.13773731591E+04  0.67403827278E+03 -0.10377082326E+04  0.18515730606E+04  0.10100000352E+00 0.  1.
       -3    1    3    3    0  502  0.13773731591E+04 -0.67403827278E+03  0.92131476900E+03  0.17889397212E+04  0.10100000352E+00 0. -1.
</event>
<event>
 5   0  0.6287345E-07  0.3263617E+04  0.7818609E-02  0.8172215E-01
       -1   -1    0    0    0  501  0.00000000000E+00  0.00000000000E+00  0.15615855725E+04  0.15615855725E+04  0.50400001928E-02 0.  1.
        1   -1    0    0  501    0  0.00000000000E+00  0.00000000000E+00 -0.17051891567E+04  0.17051891567E+04  0.50400001928E-02 0. -1.
    10030    2    1    2    0    0  0.00000000000E+00  0.00000000000E+00 -0.14360358423E+03  0.32667747292E+04  0.32636168804E+04 0.  0.
        5    1    3    3  502    0  0.13006756793E+04  0.79686925316E+03  0.50843043619E+03  0.16078810366E+04  0.46999998093E+01 0. -1.
       -5    1    3    3    0  502 -0.13006756793E+04 -0.79686925316E+03 -0.65203402042E+03  0.16588936926E+04  0.46999998093E+01 0.  1.
</event>
<event>
 5   0  0.6261598E-07  0.3682707E+04  0.7818609E-02  0.8071805E-01
        1   -1    0    0  501    0  0.00000000000E+00  0.00000000000E+00  0.25252855194E+04  0.25252855194E+04  0.50400001928E-02 0.  1.
       -1   -1    0    0    0  501  0.00000000000E+00  0.00000000000E+00 -0.13426531704E+04  0.13426531704E+04  0.50400001928E-02 0. -1.
    10030    2    1    2    0    0  0.00000000000E+00  0.00000000000E+00  0.11826323490E+04  0.38679386898E+04  0.36827069440E+04 0.  0.
        1    1    3    3  502    0  0.13780090434E+04 -0.11953947478E+04  0.85432104497E+03  0.20143837704E+04  0.50400001928E-02 0. -1.
       -1    1    3    3    0  502 -0.13780090434E+04  0.11953947478E+04  0.32831130406E+03  0.18535549194E+04  0.50400001928E-02 0.  1.
</event>
<event>
 5   0  0.5875011E-07  0.3150300E+04  0.7818609E-02  0.8202068E-01
        1   -1    0    0  501    0  0.00000000000E+00  0.00000000000E+00  0.23014698240E+04  0.23014698240E+04  0.50400001928E-02 0. -1.
       -1   -1    0    0    0  501  0.00000000000E+00  0.00000000000E+00 -0.10780490122E+04  0.10780490123E+04  0.50400001928E-02 0.  1.
    10030    2    1    2    0    0  0.00000000000E+00  0.00000000000E+00  0.12234208117E+04  0.33795188362E+04  0.31502998400E+04 0.  0.
        2    1    3    3  502    0 -0.29481259555E+03  0.15467260761E+04  0.65749166261E+03  0.17063327071E+04  0.25500000920E-02 0. -1.
       -2    1    3    3    0  502  0.29481259555E+03 -0.15467260761E+04  0.56592914914E+03  0.16731861291E+04  0.25500000920E-02 0.  1.
</event>
<event>
 5   0  0.1184684E-06  0.3630465E+04  0.7818609E-02  0.8083549E-01
       -2   -1    0    0    0  501  0.00000000000E+00  0.00000000000E+00  0.15400146808E+04  0.15400146808E+04  0.25500000920E-02 0.  1.
        2   -1    0    0  501    0  0.00000000000E+00  0.00000000000E+00 -0.21396350588E+04  0.21396350588E+04  0.25500000920E-02 0. -1.
    10030    2    1    2    0    0  0.00000000000E+00  0.00000000000E+00 -0.59962037809E+03  0.36796497396E+04  0.36304652055E+04 0.  0.
        4    1    3    3  502    0  0.17406671903E+04 -0.45720402110E+03 -0.53989481759E+03  0.18789480598E+04  0.12699999809E+01 0.  1.
       -4    1    3    3    0  502 -0.17406671903E+04  0.45720402110E+03 -0.59725560500E+02  0.18007016798E+04  0.12699999809E+01 0. -1.
</event>
<event>
 5   0  0.6261598E-07  0.3121807E+04  0.7818609E-02  0.8209779E-01
       -1   -1    0    0    0  501  0.00000000000E+00  0.00000000000E+00  0.13556652748E+04  0.13556652748E+04  0.50400001928E-02 0. -1.
        1   -1    0    0  501    0  0.00000000000E+00  0.00000000000E+00 -0.17972130664E+04  0.17972130665E+04  0.50400001928E-02 0.  1.
    10030    2    1    2    0    0  0.00000000000E+00  0.00000000000E+00 -0.44154779163E+03  0.31528783413E+04  0.31218067497E+04 0.  0.
        1    1    3    3  502    0  0.13634789766E+04 -0.72937480162E+03 -0.56827564529E+01  0.15463165312E+04  0.50400001928E-02 0. -1.
       -1    1    3    3    0  502 -0.13634789766E+04  0.72937480162E+03 -0.43586503517E+03  0.16065618101E+04  0.50400001928E-02 0.  1.
</event>
<event>
 5   0  0.1151180E-06  0.2533941E+04  0.7818609E-02  0.8390993E-01
        2   -1    0    0  501    0  0.00000000000E+00  0.00000000000E+00  0.11540400828E+04  0.11540400828E+04  0.25500000920E-02 0. -1.
       -2   -1    0    0    0  501  0.00000000000E+00  0.00000000000E+00 -0.13909523786E+04  0.13909523786E+04  0.25500000920E-02 0.  1.
    10030    2    1    2    0    0  0.00000000000E+00  0.00000000000E+00 -0.23691229580E+03  0.25449924615E+04  0.25339414344E+04 0.  0.
        5    1    3    3  502    0 -0.11542993349E+03  0.22253563178E+03 -0.13657848264E+04  0.13886095416E+04  0.46999998093E+01 0.  1.
       -5    1    3    3    0  502  0.11542993349E+03 -0.22253563178E+03  0.11288725306E+04  0.11563829199E+04  0.46999998093E+01 0. -1.
</event>
<event>
 5   0  0.6261598E-07  0.3764970E+04  0.7818609E-02  0.8053714E-01
       -1   -1    0    0    0  501  0.00000000000E+00  0.00000000000E+00  0.15924343468E+04  0.15924343468E+04  0.50400001928E-02 0. -1.
        1   -1    0    0  501    0  0.00000000000E+00  0.00000000000E+00 -0.22253664941E+04  0.22253664941E+04  0.50400001928E-02 0.  1.
    10030    2    1    2    0    0  0.00000000000E+00  0.00000000000E+00 -0.63293214727E+03  0.38178008409E+04  0.37649701403E+04 0.  0.
        1    1    3    3  502    0  0.92584555041E+03 -0.12054653829E+04 -0.14426414849E+04  0.20956028313E+04  0.50400001928E-02 0.  1.
       -1    1    3    3    0  502 -0.92584555041E+03  0.12054653829E+04  0.80970933764E+03  0.17221980096E+04  0.50400001928E-02 0. -1.
</event>
<event>
 5   0  0.6261598E-07  0.2598273E+04  0.7818609E-02  0.8368788E-01
       -1   -1    0    0    0  501  0.00000000000E+00  0.00000000000E+00  0.91077669880E+03  0.91077669882E+03  0.50400001928E-02 0.  1.
        1   -1    0    0  501    0  0.00000000000E+00  0.00000000000E+00 -0.18530952253E+04  0.18530952254E+04  0.50400001928E-02 0. -1.
    10030    2    1    2    0    0  0.00000000000E+00  0.00000000000E+00 -0.94231852654E+03  0.27638719242E+04  0.25982732358E+04 0.  0.
        1    1    3    3  502    0  0.74996153928E+03  0.64954611356E+03  0.42098554650E+03  0.10777668089E+04  0.50400001928E-02 0.  1.
       -1    1    3    3    0  502 -0.74996153928E+03 -0.64954611356E+03 -0.13633040730E+04  0.16861051152E+04  0.50400001928E-02 0. -1.
</event>
<event>
 5   0  0.6186440E-07  0.3388234E+04  0.7818609E-02  0.8140800E-01
        1   -1    0    0  501    0  0.00000000000E+00  0.00000000000E+00  0.22147100175E+04  0.22147100175E+04  0.50400001928E-02 0. -1.
       -1   -1    0    0    0  501  0.00000000000E+00  0.00000000000E+00 -0.12958950849E+04  0.12958950849E+04  0.50400001928E-02 0.  1.
    10030    2    1    2    0    0  0.00000000000E+00  0.00000000000E+00  0.91881493260E+03  0.35106051024E+04  0.33882336555E+04 0.  0.
        3    1    3    3  502    0 -0.15739204108E+04  0.20264706537E+03  0.10739045559E+04  0.19161321192E+04  0.10100000352E+00 0. -1.
       -3    1    3    3    0  502  0.15739204108E+04 -0.20264706537E+03 -0.15508962331E+03  0.15944729832E+04  0.10100000352E+00 0.  1.
</event>
<event>
 5   0  0.1151180E-06  0.2120188E+04  0.7818609E-02  0.8552402E-01
       -2   -1    0    0    0  501  0.00000000000E+00  0.00000000000E+00  0.14281088208E+04  0.14281088208E+04  0.25500000920E-02 0. -1.
        2   -1    0    0  501    0  0.00000000000E+00  0.00000000000E+00 -0.78691457095E+03  0.78691457095E+03  0.25500000920E-02 0.  1.
    10030    2    1    2    0    0  0.00000000000E+00  0.00000000000E+00  0.64119424989E+03  0.22150233918E+04  0.21201883313E+04 0.  0.
        5    1    3    3  502    0  0.10291912864E+04 -0.94178326377E+02  0.56710302340E+03  0.11788690302E+04  0.46999998093E+01 0.  1.
       -5    1    3    3    0  502 -0.10291912864E+04  0.94178326377E+02  0.74091226489E+02  0.10361543616E+04  0.46999998093E+01 0. -1.
</event>
<event>
 5   0  0.6287345E-07  0.3223310E+04  0.7818609E-02  0.8182688E-01
       -1   -1    0    0    0  501  0.00000000000E+00  0.00000000000E+00  0.14273842224E+04  0.14273842224E+04  0.50400001928E-02 0.  1.
        1   -1    0    0  501    0  0.00000000000E+00  0.00000000000E+00 -0.18197146014E+04  0.18197146014E+04  0.50400001928E-02 0. -1.
    10030    2    1    2    0    0  0.00000000000E+00  0.00000000000E+00 -0.39233037895E+03  0.32470988238E+04  0.32233100449E+04 0.  0.
        5    1    3    3  502    0  0.66631972571E+03 -0.19620139483E+03  0.12688486150E+04  0.14465392708E+04  0.46999998093E+01 0.  1.
       -5    1    3    3    0  502 -0.66631972571E+03  0.19620139483E+03 -0.16611789939E+04  0.18005595530E+04  0.46999998093E+01 0. -1.
</event>
<event>
 5   0  0.1151180E-06  0.3638231E+04  0.7818609E-02  0.8081790E-01
        2   -1    0    0  501    0  0.00000000000E+00  0.00000000000E+00  0.27375090618E+04  0.27375090618E+04  0.25500000920E-02 0.  1.
       -2   -1    0    0    0  501  0.00000000000E+00  0.00000000000E+00 -0.12088296110E+04  0.12088296110E+04  0.25500000920E-02 0. -1.
    10030    2    1    2    0    0  0.00000000000E+00  0.00000000000E+00  0.15286794508E+04  0.39463386727E+04  0.36382314463E+04 0.  0.
        5    1    3    3  502    0  0.96206963326E+03  0.10680320768E+03  0.24349586406E+04  0.26203111601E+04  0.46999998093E+01 0.  1.
       -5    1    3    3    0  502 -0.96206963326E+03 -0.10680320768E+03 -0.90627918979E+03  0.13260275126E+04  0.46999998093E+01 0. -1.
</event>
<event>
 5   0  0.1685793E-06  0.3449732E+04  0.7818609E-02  0.8125807E-01
        2   -1    0    0  501    0  0.00000000000E+00  0.00000000000E+00  0.24749639922E+04  0.24749639922E+04  0.25500000920E-02 0. -1.
       -2   -1    0    0    0  501  0.00000000000E+00  0.00000000000E+00 -0.12021034278E+04  0.12021034278E+04  0.25500000920E-02 0.  1.
    10030    2    1    2    0    0  0.00000000000E+00  0.00000000000E+00  0.12728605644E+04  0.36770674200E+04  0.34497319888E+04 0.  0.
        3    1    3    3  502    0  0.80318185792E+03 -0.81663336763E+02  0.22611466152E+04  0.24009485674E+04  0.10100000352E+00 0. -1.
       -3    1    3    3    0  502 -0.80318185792E+03  0.81663336763E+02 -0.98828605085E+03  0.12761188526E+04  0.10100000352E+00 0.  1.
</event>
<event>
 5   0  0.5679750E-07  0.2750504E+04  0.7818609E-02  0.8318802E-01
       -1   -1    0    0    0  501  0.00000000000E+00  0.00000000000E+00  0.15159931353E+04  0.15159931353E+04  0.50400001928E-02 0. -1.
        1   -1    0    0  501    0  0.00000000000E+00  0.00000000000E+00 -0.12475768974E+04  0.12475768974E+04  0.50400001928E-02 0.  1.
    10030    2    1    2    0    0  0.00000000000E+00  0.00000000000E+00  0.26841623790E+03  0.27635700327E+04  0.27505039627E+04 0.  0.
        4    1    3    3  502    0 -0.10808125769E+04  0.33227099855E+03 -0.65229814016E+03  0.13053943157E+04  0.12699999809E+01 0.  1.
       -4    1    3    3    0  502  0.10808125769E+04 -0.33227099855E+03  0.92071437805E+03  0.14581757170E+04  0.12699999809E+01 0. -1.
</event>
<event>
 5   0  0.1151180E-06  0.3728369E+04  0.7818609E-02  0.8061704E-01
        2   -1    0    0  501    0  0.00000000000E+00  0.00000000000E+00  0.22954182985E+04  0.22954182985E+04  0.25500000920E-02 0.  1.
       -2   -1    0    0    0  501  0.00000000000E+00  0.00000000000E+00 -0.15139654836E+04  0.15139654836E+04  0.25500000920E-02 0. -1.
    10030    2    1    2    0    0  0.00000000000E+00  0.00000000000E+00  0.78145281491E+03  0.38093837821E+04  0.37283691203E+04 0.  0.
        5    1    3    3  502    0 -0.15958824630E+04  0.91113257439E+03  0.70615877241E+02  0.18390247676E+04  0.46999998093E+01 0. -1.
       -5    1    3    3    0  502  0.15958824630E+04 -0.91113257439E+03  0.71083693767E+03  0.19703590145E+04  0.46999998093E+01 0.  1.
</event>
<event>
 5   0  0.6261598E-07  0.3013412E+04  0.7818609E-02  0.8239911E-01
       -1   -1    0    0    0  501  0.00000000000E+00  0.00000000000E+00  0.13662063446E+04  0.13662063446E+04  0.50400001928E-02 0.  1.
        1   -1    0    0  501    0  0.00000000000E+00  0.00000000000E+00 -0.16616541482E+04  0.16616541482E+04  0.50400001928E-02 0. -1.
    10030    2    1    2    0    0  0.00000000000E+00  0.00000000000E+00 -0.29544780363E+03  0.30278604928E+04  0.30134116478E+04 0.  0.
        1    1    3    3  502    0  0.90802931763E+03  0.24112674585E+03  0.10358472695E+04  0.13984416023E+04  0.50400001928E-02 0.  1.
       -1    1    3    3    0  502 -0.90802931763E+03 -0.24112674585E+03 -0.13312950731E+04  0.16294188906E+04  0.50400001928E-02 0. -1.
</event>
<event>
 5   0  0.1184684E-06  0.3761211E+04  0.7818609E-02  0.8054530E-01
       -2   -1    0    0    0  501  0.00000000000E+00  0.00000000000E+00  0.21383013615E+04  0.21383013615E+04  0.25500000920E-02 0.  1.
        2   -1    0    0  501    0  0.00000000000E+00  0.00000000000E+00 -0.16539657208E+04  0.16539657208E+04  0.25500000920E-02 0. -1.
    10030    2    1    2    0    0  0.00000000000E+00  0.00000000000E+00  0.48433564069E+03  0.37922670823E+04  0.37612110564E+04 0.  0.
        4    1    3    3  502    0  0.18620056660E+04 -0.17779750080E+03  0.45626272969E+02  0.18710319135E+04  0.12699999809E+01 0.  1.
       -4    1    3    3    0  502 -0.18620056660E+04  0.17779750080E+03  0.43870936772E+03  0.19212351688E+04  0.12699999809E+01 0. -1.
</event>
<event>
 5   0  0.5875011E-07  0.3250918E+04  0.7818609E-02  0.8175498E-01
        1   -1    0    0  501    0  0.00000000000E+00  0.00000000000E+00  0.13850056844E+04  0.13850056844E+04  0.50400001928E-02 0. -1.
       -1   -1    0    0    0  501  0.00000000000E+00  0.00000000000E+00 -0.19076576559E+04  0.19076576559E+04  0.50400001928E-02 0.  1.
    10030    2    1    2    0    0  0.00000000000E+00  0.00000000000E+00 -0.52265197155E+03  0.32926633403E+04  0.32509178380E+04 0.  0.
        2    1    3    3  502    0  0.80129271180E+03 -0.30645560705E+03  0.11370301132E+04  0.14243674131E+04  0.25500000920E-02 0. -1.
       -2    1    3    3    0  502 -0.80129271180E+03  0.30645560705E+03 -0.16596820848E+04  0.18682959272E+04  0.25500000920E-02 0.  1.
</event>
<event>
 5   0  0.1184684E-06  0.3681666E+04  0.7818609E-02  0.8072037E-01
       -2   -1    0    0    0  501  0.00000000000E+00  0.00000000000E+00  0.14880059840E+04  0.14880059840E+04  0.25500000920E-02 0. -1.
        2   -1    0    0  501    0  0.00000000000E+00  0.00000000000E+00 -0.22773203514E+04  0.22773203514E+04  0.25500000920E-02 0.  1.
    10030    2    1    2    0    0  0.00000000000E+00  0.00000000000E+00 -0.78931436743E+03  0.37653263354E+04  0.36816660959E+04 0.  0.
        4    1    3    3  502    0  0.47658052334E+03 -0.16562238284E+03  0.14159114396E+04  0.15031189529E+04  0.12699999809E+01 0. -1.
       -4    1    3    3    0  502 -0.47658052334E+03  0.16562238284E+03 -0.22052258070E+04  0.22622073826E+04  0.12699999809E+01 0.  1.
</event>
<event>
 5   0  0.1680194E-06  0.2770066E+04  0.7818609E-02  0.8312622E-01
       -2   -1    0    0    0  501  0.00000000000E+00  0.00000000000E+00  0.82135764962E+03  0.82135764962E+03  0.25500000920E-02 0. -1.
        2   -1    0    0  501    0  0.00000000000E+00  0.00000000000E+00 -0.23355440448E+04  0.23355440448E+04  0.25500000920E-02 0.  1.
    10030    2    1    2    0    0  0.00000000000E+00  0.00000000000E+00 -0.15141863952E+04  0.31569016944E+04  0.27700664015E+04 0.  0.
        2    1    3    3  502    0  0.11338379446E+04 -0.73524466933E+03 -0.41115076048E+03  0.14125219136E+04  0.25500000920E-02 0. -1.
       -2    1    3    3    0  502 -0.11338379446E+04  0.73524466933E+03 -0.11030356347E+04  0.17443797808E+04  0.25500000920E-02 0.  1.
</event>
<event>
 5   0  0.5679750E-07  0.2226686E+04  0.7818609E-02  0.8507402E-01
       -1   -1    0    0    0  501  0.00000000000E+00  0.00000000000E+00  0.93208157264E+03  0.93208157265E+03  0.50400001928E-02 0. -1.
        1   -1    0    0  501    0  0.00000000000E+00  0.00000000000E+00 -0.13298545855E+04  0.13298545855E+04  0.50400001928E-02 0.  1.
    10030    2    1    2    0    0  0.00000000000E+00  0.00000000000E+00 -0.39777301283E+03  0.22619361581E+04  0.22266862854E+04 0.  0.
        4    1    3    3  502    0  0.85971956216E+03  0.34048459222E+03 -0.82877019803E+03  0.12417363396E+04  0.12699999809E+01 0. -1.
       -4    1    3    3    0  502 -0.85971956216E+03 -0.34048459222E+03  0.43099718520E+03  0.10201998185E+04  0.12699999809E+01 0.  1.
</event>
<event>
 5   0  0.6287345E-07  0.2305303E+04  0.7818609E-02  0.8475833E-01
       -1   -1    0    0    0  501  0.00000000000E+00  0.00000000000E+00  0.55807290214E+03  0.55807290217E+03  0.50400001928E-02 0.  1.
        1   -1    0    0  501    0  0.00000000000E+00  0.00000000000E+00 -0.23807030191E+04  0.23807030191E+04  0.50400001928E-02 0. -1.
    10030    2    1    2    0    0  0.00000000000E+00  0.00000000000E+00 -0.18226301170E+04  0.29387759213E+04  0.23053033146E+04 0.  0.
        5    1    3    3  502    0 -0.44418781617E+03 -0.10483471626E+03 -0.22606002309E+04  0.23062152171E+04  0.46999998093E+01 0. -1.
       -5    1    3    3    0  502  0.44418781617E+03  0.10483471626E+03  0.43797011392E+03  0.63256070416E+03  0.46999998093E+01 0.  1.
</event>
<event>
 5   0  0.5679750E-07  0.2120253E+04  0.7818609E-02  0.8552374E-01
       -1   -1    0    0    0  501  0.00000000000E+00  0.00000000000E+00  0.59906146348E+03  0.59906146351E+03  0.50400001928E-02 0.  1.
        1   -1    0    0  501    0  0.00000000000E+00  0.00000000000E+00 -0.18760489811E+04  0.18760489811E+04  0.50400001928E-02 0. -1.
    10030    2    1    2    0    0  0.00000000000E+00  0.00000000000E+00 -0.12769875176E+04  0.24751104446E+04  0.21202534266E+04 0.  0.
        4    1    3    3  502    0  0.40020243198E+03  0.19233127149E+02  0.50727112971E+03  0.64641899081E+03  0.12699999809E+01 0.  1.
       -4    1    3    3    0  502 -0.40020243198E+03 -0.19233127149E+02 -0.17842586473E+04  0.18286914538E+04  0.12699999809E+01 0. -1.
</event>
<event>
 5   0  0.1685793E-06  0.2676021E+04  0.7818609E-02  0.8342828E-01
       -2   -1    0    0    0  501  0.00000000000E+00  0.00000000000E+00  0.87382788168E+03  0.87382788169E+03  0.25500000920E-02 0.  1.
        2   -1    0    0  501    0  0.00000000000E+00  0.00000000000E+00 -0.20487693989E+04  0.20487693989E+04  0.25500000920E-02 0. -1.
    10030    2    1    2    0    0  0.00000000000E+00  0.00000000000E+00 -0.11749415172E+04  0.29225972806E+04  0.26760207951E+04 0.  0.
        3    1    3    3  502    0 -0.19115013611E+03 -0.49788985814E+02 -0.20327578492E+04  0.20423324414E+04  0.10100000352E+00 0. -1.
       -3    1    3    3    0  502  0.19115013611E+03  0.49788985814E+02  0.85781633192E+03  0.88026483922E+03  0.10100000352E+00 0.  1.
</event>
<event>
 5   0  0.1685793E-06  0.3575734E+04  0.7818609E-02  0.8096073E-01
        2   -1    0    0  501    0  0.00000000000E+00  0.00000000000E+00  0.22944818625E+04  0.22944818625E+04  0.25500000920E-02 0. -1.
       -2   -1    0    0    0  501  0.00000000000E+00  0.00000000000E+00 -0.13931110877E+04  0.13931110877E+04  0.25500000920E-02 0.  1.
    10030    2    1    2    0    0  0.00000000000E+00  0.00000000000E+00  0.90137077481E+03  0.36875929503E+04  0.35757338398E+04 0.  0.
        3    1    3    3  502    0  0.36464188003E+03 -0.30542262010E+03 -0.13266615307E+04  0.14093535769E+04  0.10100000352E+00 0.  1.
       -3    1    3    3    0  502 -0.36464188003E+03  0.30542262010E+03  0.22280323055E+04  0.22782393733E+04  0.10100000352E+00 0. -1.
</event>
<event>
 5   0  0.1685793E-06  0.3516169E+04  0.7818609E-02  0.8109969E-01
        2   -1    0    0  501    0  0.00000000000E+00  0.00000000000E+00  0.18228841849E+04  0.18228841849E+04  0.25500000920E-02 0. -1.
       -2   -1    0    0    0  501  0.00000000000E+00  0.00000000000E+00 -0.16955886089E+04  0.16955886089E+04  0.25500000920E-02 0.  1.
    10030    2    1    2    0    0  0.00000000000E+00  0.00000000000E+00  0.12729557602E+03  0.35184727938E+04  0.35161693129E+04 0.  0.
        3    1    3    3  502    0 -0.16906809133E+04  0.13559381687E+03 -0.39933665192E+03  0.17424859843E+04  0.10100000352E+00 0.  1.
       -3    1    3    3    0  502  0.16906809133E+04 -0.13559381687E+03  0.52663222794E+03  0.17759868095E+04  0.10100000352E+00 0. -1.
</event>
<event>
 5   0  0.1151180E-06  0.3796190E+04  0.7818609E-02  0.8046973E-01
        2   -1    0    0  501    0  0.00000000000E+00  0.00000000000E+00  0.20040128481E+04  0.20040128481E+04  0.25500000920E-02 0. -1.
       -2   -1    0    0    0  501  0.00000000000E+00  0.00000000000E+00 -0.17977756659E+04  0.17977756659E+04  0.25500000920E-02 0.  1.
    10030    2    1    2    0    0  0.00000000000E+00  0.00000000000E+00  0.20623718220E+03  0.38017885140E+04  0.37961904760E+04 0.  0.
        5    1    3    3  502    0 -0.12455144195E+04 -0.55153596990E+02 -0.13302135845E+04  0.18231396981E+04  0.46999998093E+01 0.  1.
       -5    1    3    3    0  502  0.12455144195E+04  0.55153596990E+02  0.15364507666E+04  0.19786488159E+04  0.46999998093E+01 0. -1.
</event>
<event>
 5   0  0.1184684E-06  0.2757551E+04  0.7818609E-02  0.8316569E-01
        2   -1    0    0  501    0  0.00000000000E+00  0.00000000000E+00  0.15624478721E+04  0.15624478721E+04  0.25500000920E-02 0.  1.
       -2   -1    0    0    0  501  0.00000000000E+00  0.00000000000E+00 -0.12166948637E+04  0.12166948637E+04  0.25500000920E-02 0. -1.
    10030    2    1    2    0    0  0.00000000000E+00  0.00000000000E+00  0.34575300837E+03  0.27791427357E+04  0.27575513056E+04 0.  0.
        4    1    3    3  502    0  0.13640214872E+04  0.19796959151E+03  0.13690232534E+03  0.13850958221E+04  0.12699999809E+01 0. -1.
       -4    1    3    3    0  502 -0.13640214872E+04 -0.19796959151E+03  0.20885068304E+03  0.13940469137E+04  0.12699999809E+01 0.  1.
</event>
<event>
 5   0  0.5679750E-07  0.3632385E+04  0.7818609E-02  0.8083114E-01
        1   -1    0    0  501    0  0.00000000000E+00  0.00000000000E+00  0.15836464900E+04  0.15836464900E+04  0.50400001928E-02 0. -1.
       -1   -1    0    0    0  501  0.00000000000E+00  0.00000000000E+00 -0.20828861817E+04  0.20828861817E+04  0.50400001928E-02 0.  1.
    10030    2    1    2    0    0  0.00000000000E+00  0.00000000000E+00 -0.49923969171E+03  0.36665326717E+04  0.36323851066E+04 0.  0.
        4    1    3    3  502    0  0.96689373843E+03  0.49021696534E+03  0.12212533837E+04  0.16329903903E+04  0.12699999809E+01 0. -1.
       -4    1    3    3    0  502 -0.96689373843E+03 -0.49021696534E+03 -0.17204930755E+04  0.20335422814E+04  0.12699999809E+01 0.  1.
</event>
<event>
 5   0  0.1724503E-06  0.3612522E+04  0.7818609E-02  0.8087630E-01
       -2   -1    0    0    0  501  0.00000000000E+00  0.00000000000E+00  0.11225836212E+04  0.11225836212E+04  0.25500000920E-02 0. -1.
        2   -1    0    0  501    0  0.00000000000E+00  0.00000000000E+00 -0.29063116927E+04  0.29063116927E+04  0.25500000920E-02 0.  1.
    10030    2    1    2    0    0  0.00000000000E+00  0.00000000000E+00 -0.17837280715E+04  0.40288953139E+04  0.36125215040E+04 0.  0.
        1    1    3    3  502    0  0.15384428165E+03  0.82506999318E+03 -0.26756395059E+04  0.28041853223E+04  0.50400001928E-02 0.  1.
       -1    1    3    3    0  502 -0.15384428165E+03 -0.82506999318E+03  0.89191143432E+03  0.12247099915E+04  0.50400001928E-02 0. -1.
</event>
<event>
 5   0  0.5679750E-07  0.2085857E+04  0.7818609E-02  0.8567499E-01
       -1   -1    0    0    0  501  0.00000000000E+00  0.00000000000E+00  0.96046264061E+03  0.96046264062E+03  0.50400001928E-02 0.  1.
        1   -1    0    0  501    0  0.00000000000E+00  0.00000000000E+00 -0.11324752428E+04  0.11324752428E+04  0.50400001928E-02 0. -1.
    10030    2    1    2    0    0  0.00000000000E+00  0.00000000000E+00 -0.17201260217E+03  0.20929378834E+04  0.20858572934E+04 0.  0.
        4    1    3    3  502    0  0.74435657186E+03 -0.18841378636E+03 -0.79418686947E+03  0.11046722851E+04  0.12699999809E+01 0. -1.
       -4    1    3    3    0  502 -0.74435657186E+03  0.18841378636E+03  0.62217426730E+03  0.98826559829E+03  0.12699999809E+01 0.  1.
</event>
<event>
 5   0  0.6287345E-07  0.1922049E+04  0.7818609E-02  0.8643958E-01
        1   -1    0    0  501    0  0.00000000000E+00  0.00000000000E+00  0.46514691168E+03  0.46514691171E+03  0.50400001928E-02 0.  1.
       -1   -1    0    0    0  501  0.00000000000E+00  0.00000000000E+00 -0.19855406268E+04  0.19855406269E+04  0.50400001928E-02 0. -1.
    10030    2    1    2    0    0  0.00000000000E+00  0.00000000000E+00 -0.15203937152E+04  0.24506875386E+04  0.19220490011E+04 0.  0.
        5    1    3    3  502    0 -0.39306091212E+02 -0.88264439216E+03 -0.27813781115E+03  0.92627686131E+03  0.46999998093E+01 0.  1.
       -5    1    3    3    0  502  0.39306091212E+02  0.88264439216E+03 -0.12422559040E+04  0.15244106772E+04  0.46999998093E+01 0. -1.
</event>
<event>
 5   0  0.1685793E-06  0.3634909E+04  0.7818609E-02  0.8082542E-01
        2   -1    0    0  501    0  0.00000000000E+00  0.00000000000E+00  0.20226418609E+04  0.20226418609E+04  0.25500000920E-02 0. -1.
       -2   -1    0    0    0  501  0.00000000000E+00  0.00000000000E+00 -0.16330822470E+04  0.16330822470E+04  0.25500000920E-02 0.  1.
    10030    2    1    2    0    0  0.00000000000E+00  0.00000000000E+00  0.38955961393E+03  0.36557241079E+04  0.36349088104E+04 0.  0.
        3    1    3    3  502    0  0.66137609055E+03 -0.16928260193E+04  0.20271422451E+03  0.18287075577E+04  0.10100000352E+00 0. -1.
       -3    1    3    3    0  502 -0.66137609055E+03  0.16928260193E+04  0.18684538943E+03  0.18270165501E+04  0.10100000352E+00 0.  1.
</event>
<event>
 5   0  0.6287345E-07  0.2422168E+04  0.7818609E-02  0.8431250E-01
        1   -1    0    0  501    0  0.00000000000E+00  0.00000000000E+00  0.28915793027E+04  0.28915793027E+04  0.50400001928E-02 0.  1.
       -1   -1    0    0    0  501  0.00000000000E+00  0.00000000000E+00 -0.50724006827E+03  0.50724006830E+03  0.50400001928E-02 0. -1.
    10030    2    1    2    0    0  0.00000000000E+00  0.00000000000E+00  0.23843392345E+04  0.33988193710E+04  0.24221683533E+04 0.  0.
        5    1    3    3  502    0 -0.26957799920E+03  0.70114950556E+02 -0.46166761252E+03  0.53921005034E+03  0.46999998093E+01 0. -1.
       -5    1    3    3    0  502  0.26957799920E+03 -0.70114950556E+02  0.28460068470E+04  0.28596093207E+04  0.46999998093E+01 0.  1.
</event>
<event>
 5   0  0.5875011E-07  0.3249935E+04  0.7818609E-02  0.8175753E-01
       -1   -1    0    0    0  501  0.00000000000E+00  0.00000000000E+00  0.10831499313E+04  0.10831499313E+04  0.50400001928E-02 0. -1.
        1   -1    0    0  501    0  0.00000000000E+00  0.00000000000E+00 -0.24378148039E+04  0.24378148039E+04  0.50400001928E-02 0.  1.
    10030    2    1    2    0    0  0.00000000000E+00  0.00000000000E+00 -0.13546648726E+04  0.35209647352E+04  0.32499347300E+04 0.  0.
        2    1    3    3  502    0 -0.18556562829E+03 -0.11142051542E+03  0.10674624485E+04  0.10891855731E+04  0.25500000920E-02 0. -1.
       -2    1    3    3    0  502  0.18556562829E+03  0.11142051542E+03 -0.24221273211E+04  0.24317791621E+04  0.25500000920E-02 0.  1.
</event>
<event>
 5   0  0.1680194E-06  0.3859106E+04  0.7818609E-02  0.8033588E-01
        2   -1    0    0  501    0  0.00000000000E+00  0.00000000000E+00  0.23013109574E+04  0.23013109574E+04  0.25500000920E-02 0.  1.
       -2   -1    0    0    0  501  0.00000000000E+00  0.00000000000E+00 -0.16178496337E+04  0.16178496337E+04  0.25500000920E-02 0. -1.
    10030    2    1    2    0    0  0.00000000000E+00  0.00000000000E+00  0.68346132371E+03  0.39191605911E+04  0.38591061605E+04 0.  0.
        2    1    3    3  502    0  0.15472129683E+04  0.87243449635E+03  0.11072279156E+04  0.20930751484E+04  0.25500000920E-02 0.  1.
       -2    1    3    3    0  502 -0.15472129683E+04 -0.87243449635E+03 -0.42376659186E+03  0.18260854427E+04  0.25500000920E-02 0. -1.
</event>
<event>
 5   0  0.1724503E-06  0.3868697E+04  0.7818609E-02  0.8031571E-01
        2   -1    0    0  501    0  0.00000000000E+00  0.00000000000E+00  0.18028536255E+04  0.18028536255E+04  0.25500000920E-02 0. -1.
       -2   -1    0    0    0  501  0.00000000000E+00  0.00000000000E+00 -0.20754341227E+04  0.20754341227E+04  0.25500000920E-02 0.  1.
    10030    2    1    2    0    0  0.00000000000E+00  0.00000000000E+00 -0.27258049722E+03  0.38782877481E+04  0.38686969033E+04 0.  0.
        1    1    3    3  502    0  0.15228851400E+04 -0.67340561360E+03  0.85055337588E+03  0.18697848313E+04  0.50400001928E-02 0. -1.
       -1    1    3    3    0  502 -0.15228851400E+04  0.67340561360E+03 -0.11231338731E+04  0.20085029168E+04  0.50400001928E-02 0.  1.
</event>
<event>
 5   0  0.6186440E-07  0.3600915E+04  0.7818609E-02  0.8090282E-01
       -1   -1    0    0    0  501  0.00000000000E+00  0.00000000000E+00  0.21550740594E+04  0.21550740594E+04  0.50400001928E-02 0.  1.
        1   -1    0    0  501    0  0.00000000000E+00  0.00000000000E+00 -0.15041926899E+04  0.15041926899E+04  0.50400001928E-02 0. -1.
    10030    2    1    2    0    0  0.00000000000E+00  0.00000000000E+00  0.65088136952E+03  0.36592667493E+04  0.36009146873E+04 0.  0.
        3    1    3    3  502    0  0.68760021514E+03  0.14990383469E+04  0.10594589978E+04  0.19601947351E+04  0.10100000352E+00 0.  1.
       -3    1    3    3    0  502 -0.68760021514E+03 -0.14990383469E+04 -0.40857762824E+03  0.16990720143E+04  0.10100000352E+00 0. -1.
</event>
<event>
 5   0  0.1151180E-06  0.3385438E+04  0.7818609E-02  0.8141490E-01
       -2   -1    0    0    0  501  0.00000000000E+00  0.00000000000E+00  0.93459246839E+03  0.93459246839E+03  0.25500000920E-02 0. -1.
        2   -1    0    0  501    0  0.00000000000E+00  0.00000000000E+00 -0.30658259925E+04  0.30658259925E+04  0.25500000920E-02 0.  1.
    10030    2    1    2    0    0  0.00000000000E+00  0.00000000000E+00 -0.21312335241E+04  0.40004184609E+04  0.33854381589E+04 0.  0.
        5    1    3    3  502    0 -0.15287661269E+04  0.46355876292E+03 -0.17269878776E+04  0.23525564429E+04  0.46999998093E+01 0. -1.
       -5    1    3    3    0  502  0.15287661269E+04 -0.46355876292E+03 -0.40424564646E+03  0.16478620180E+04  0.46999998093E+01 0.  1.
</event>
<event>
 5   0  0.1184684E-06  0.3713411E+04  0.7818609E-02  0.8064996E-01
       -2   -1    0    0    0  501  0.00000000000E+00  0.00000000000E+00  0.14652440794E+04  0.14652440794E+04  0.25500000920E-02 0.  1.
        2   -1    0    0  501    0  0.00000000000E+00  0.00000000000E+00 -0.23527509426E+04  0.23527509426E+04  0.25500000920E-02 0. -1.
    10030    2    1    2    0    0  0.00000000000E+00  0.00000000000E+00 -0.88750686320E+03  0.38179950220E+04  0.37134105019E+04 0.  0.
        4    1    3    3  502    0 -0.12246817187E+04  0.13904096755E+04 -0.32093882887E+03  0.18804488088E+04  0.12699999809E+01 0. -1.
       -4    1    3    3    0  502  0.12246817187E+04 -0.13904096755E+04 -0.56656803433E+03  0.19375462132E+04  0.12699999809E+01 0.  1.
</event>
<event>
 5   0  0.1680194E-06  0.2628038E+04  0.7818609E-02  0.8358739E-01
       -2   -1    0    0    0  501  0.00000000000E+00  0.00000000000E+00  0.30809115635E+04  0.30809115635E+04  0.25500000920E-02 0.  1.
        2   -1    0    0  501    0  0.00000000000E+00  0.00000000000E+00 -0.56043358797E+03  0.56043358797E+03  0.25500000920E-02 0. -1.
    10030    2    1    2    0    0  0.00000000000E+00  0.00000000000E+00  0.25204779755E+04  0.36413451515E+04  0.26280382963E+04 0.  0.
        2    1    3    3  502    0 -0.51973614447E+03  0.80695079998E+03  0.16804879323E+02  0.95998836318E+03  0.25500000920E-02 0. -1.
       -2    1    3    3    0  502  0.51973614447E+03 -0.80695079998E+03  0.25036730962E+04  0.26813567883E+04  0.25500000920E-02 0.  1.
</event>
<event>
 5   0  0.1151180E-06  0.3568859E+04  0.7818609E-02  0.8097662E-01
       -2   -1    0    0    0  501  0.00000000000E+00  0.00000000000E+00  0.15335403409E+04  0.15335403409E+04  0.25500000920E-02 0.  1.
        2   -1    0    0  501    0  0.00000000000E+00  0.00000000000E+00 -0.20763639893E+04  0.20763639893E+04  0.25500000920E-02 0. -1.
    10030    2    1    2    0    0  0.00000000000E+00  0.00000000000E+00 -0.54282364847E+03  0.36099043302E+04  0.35688586074E+04 0.  0.
        5    1    3    3  502    0 -0.14778172138E+04  0.62250089076E+03  0.52035176524E+03  0.16858941622E+04  0.46999998093E+01 0.  1.
       -5    1    3    3    0  502  0.14778172138E+04 -0.62250089076E+03 -0.10631754137E+04  0.19240101680E+04  0.46999998093E+01 0. -1.
</event>
<event>
 5   0  0.1680194E-06  0.3618619E+04  0.7818609E-02  0.8086240E-01
        2   -1    0    0  501    0  0.00000000000E+00  0.00000000000E+00  0.15968570221E+04  0.15968570221E+04  0.25500000920E-02 0.  1.
       -2   -1    0    0    0  501  0.00000000000E+00  0.00000000000E+00 -0.20500275619E+04  0.20500275619E+04  0.25500000920E-02 0. -1.
    10030    2    1    2    0    0  0.00000000000E+00  0.00000000000E+00 -0.45317053975E+03  0.36468845840E+04  0.36186190226E+04 0.  0.
        2    1    3    3  502    0 -0.27787489255E+02  0.18014012709E+04 -0.58603302730E+02  0.18025684538E+04  0.25500000920E-02 0. -1.
       -2    1    3    3    0  502  0.27787489255E+02 -0.18014012709E+04 -0.39456723702E+03  0.18443161302E+04  0.25500000920E-02 0.  1.
</event>
<event>
 5   0  0.1151180E-06  0.3343865E+04  0.7818609E-02  0.8151823E-01
       -2   -1    0    0    0  501  0.00000000000E+00  0.00000000000E+00  0.19467403015E+04  0.19467403015E+04  0.25500000920E-02 0. -1.
        2   -1    0    0  501    0  0.00000000000E+00  0.00000000000E+00 -0.14359173495E+04  0.14359173495E+04  0.25500000920E-02 0.  1.
    10030    2    1    2    0    0  0.00000000000E+00  0.00000000000E+00  0.51082295197E+03  0.33826576510E+04  0.33438649338E+04 0.  0.
        5    1    3    3  502    0  0.63818998139E+03 -0.32756401756E+03  0.17831474274E+04  0.19220357634E+04  0.46999998093E+01 0. -1.
       -5    1    3    3    0  502 -0.63818998139E+03  0.32756401756E+03 -0.12723244754E+04  0.14606218876E+04  0.46999998093E+01 0.  1.
</event>
<event>
 5   0  0.6287345E-07  0.3726759E+04  0.7818609E-02  0.8062057E-01
        1   -1    0    0  501    0  0.00000000000E+00  0.00000000000E+00  0.15903050129E+04  0.15903050129E+04  0.50400001928E-02 0. -1.
       -1   -1    0    0    0  501  0.00000000000E+00  0.00000000000E+00 -0.21833445333E+04  0.21833445333E+04  0.50400001928E-02 0.  1.
    10030    2    1    2    0    0  0.00000000000E+00  0.00000000000E+00 -0.59303952045E+03  0.37736495462E+04  0.37267593194E+04 0.  0.
        5    1    3    3  502    0  0.81762469467E+03  0.10288255000E+04  0.10411504045E+04  0.16766061868E+04  0.46999998093E+01 0. -1.
       -5    1    3    3    0  502 -0.81762469467E+03 -0.10288255000E+04 -0.16341899249E+04  0.20970433595E+04  0.46999998093E+01 0.  1.
</event>
<event>
 5   0  0.1184684E-06  0.3685574E+04  0.7818609E-02  0.8071166E-01
        2   -1    0    0  501    0  0.00000000000E+00  0.00000000000E+00  0.25819337696E+04  0.25819337696E+04  0.25500000920E-02 0. -1.
       -2   -1    0    0    0  501  0.00000000000E+00  0.00000000000E+00 -0.13152404107E+04  0.13152404107E+04  0.25500000920E-02 0.  1.
    10030    2    1    2    0    0  0.00000000000E+00  0.00000000000E+00  0.12666933589E+04  0.38971741803E+04  0.36855738394E+04 0.  0.
        4    1    3    3  502    0  0.15523831169E+04  0.97231224934E+03  0.84635065023E+03  0.20178194885E+04  0.12699999809E+01 0. -1.
       -4    1    3    3    0  502 -0.15523831169E+04 -0.97231224934E+03  0.42034270872E+03  0.18793546918E+04  0.12699999809E+01 0.  1.
</event>
<event>
 5   0  0.1680194E-06  0.3658840E+04  0.7818609E-02  0.8077145E-01
       -2   -1    0    0    0  501  0.00000000000E+00  0.00000000000E+00  0.13146637376E+04  0.13146637376E+04  0.25500000920E-02 0. -1.
        2   -1    0    0  501    0  0.00000000000E+00  0.00000000000E+00 -0.25457286498E+04  0.25457286498E+04  0.25500000920E-02 0.  1.
    10030    2    1    2    0    0  0.00000000000E+00  0.00000000000E+00 -0.12310649122E+04  0.38603923873E+04  0.36588397842E+04 0.  0.
        2    1    3    3  502    0  0.48364965763E+03 -0.14355274660E+04  0.46670089039E+03  0.15850759660E+04  0.25500000920E-02 0. -1.
       -2    1    3    3    0  502 -0.48364965763E+03  0.14355274660E+04 -0.16977658026E+04  0.22753164214E+04  0.25500000920E-02 0.  1.
</event>
<event>
 5   0  0.1151180E-06  0.2470740E+04  0.7818609E-02  0.8413484E-01
        2   -1    0    0  501    0  0.00000000000E+00  0.00000000000E+00  0.10406239340E+04  0.10406239340E+04  0.25500000920E-02 0. -1.
       -2   -1    0    0    0  501  0.00000000000E+00  0.00000000000E+00 -0.14665610923E+04  0.14665610923E+04  0.25500000920E-02 0.  1.
    10030    2    1    2    0    0  0.00000000000E+00  0.00000000000E+00 -0.42593715829E+03  0.25071850263E+04  0.24707396248E+04 0.  0.
        5    1    3    3  502    0  0.42498071015E+03 -0.39763373781E+03  0.89278172115E+03  0.10657403460E+04  0.46999998093E+01 0. -1.
       -5    1    3    3    0  502 -0.42498071015E+03  0.39763373781E+03 -0.13187188794E+04  0.14414446803E+04  0.46999998093E+01 0.  1.
</event>
<event>
 5   0  0.5679750E-07  0.3703254E+04  0.7818609E-02  0.8067241E-01
        1   -1    0    0  501    0  0.00000000000E+00  0.00000000000E+00  0.15642568285E+04  0.15642568286E+04  0.50400001928E-02 0. -1.
       -1   -1    0    0    0  501  0.00000000000E+00  0.00000000000E+00 -0.21917905121E+04  0.21917905121E+04  0.50400001928E-02 0.  1.
    10030    2    1    2    0    0  0.00000000000E+00  0.00000000000E+00 -0.62753368352E+03  0.37560473406E+04  0.37032543932E+04 0.  0.
        4    1    3    3  502    0 -0.54659074566E+03  0.66138311281E+03  0.13504574827E+04  0.15999769031E+04  0.12699999809E+01 0. -1.
       -4    1    3    3    0  502  0.54659074566E+03 -0.66138311281E+03 -0.19779911662E+04  0.21560704375E+04  0.12699999809E+01 0.  1.
</event>
<event>
 5   0  0.1685793E-06  0.3561220E+04  0.7818609E-02  0.8099433E-01
        2   -1    0    0  501    0  0.00000000000E+00  0.00000000000E+00  0.30017814340E+04  0.30017814340E+04  0.25500000920E-02 0. -1.
       -2   -1    0    0    0  501  0.00000000000E+00  0.00000000000E+00 -0.10562299332E+04  0.10562299332E+04  0.25500000920E-02 0.  1.
    10030    2    1    2    0    0  0.00000000000E+00  0.00000000000E+00  0.19455515008E+04  0.40580113672E+04  0.35612196807E+04 0.  0.
        3    1    3    3  502    0  0.47625841051E+03 -0.39174863092E+01 -0.98230083472E+03  0.10916741090E+04  0.10100000352E+00 0.  1.
       -3    1    3    3    0  502 -0.47625841051E+03  0.39174863092E+01  0.29278523355E+04  0.29663372582E+04  0.10100000352E+00 0. -1.
</event>
<event>
 5   0  0.5679750E-07  0.3697878E+04  0.7818609E-02  0.8068432E-01
       -1   -1    0    0    0  501  0.00000000000E+00  0.00000000000E+00  0.14604801112E+04  0.14604801112E+04  0.50400001928E-02 0.  1.
        1   -1    0    0  501    0  0.00000000000E+00  0.00000000000E+00 -0.23407205883E+04  0.23407205883E+04  0.50400001928E-02 0. -1.
    10030    2    1    2    0    0  0.00000000000E+00  0.00000000000E+00 -0.88024047708E+03  0.38012006995E+04  0.36978782376E+04 0.  0.
        4    1    3    3  502    0  0.23821994553E+03 -0.60476718296E+03  0.13391628598E+04  0.14885734332E+04  0.12699999809E+01 0.  1.
       -4    1    3    3    0  502 -0.23821994553E+03  0.60476718296E+03 -0.22194033369E+04  0.23126272663E+04  0.12699999809E+01 0. -1.
</event>
<event>
 5   0  0.1680194E-06  0.2646717E+04  0.7818609E-02  0.8352503E-01
        2   -1    0    0  501    0  0.00000000000E+00  0.00000000000E+00  0.14342661871E+04  0.14342661871E+04  0.25500000920E-02 0.  1.
       -2   -1    0    0    0  501  0.00000000000E+00  0.00000000000E+00 -0.12210274333E+04  0.12210274333E+04  0.25500000920E-02 0. -1.
    10030    2    1    2    0    0  0.00000000000E+00  0.00000000000E+00  0.21323875380E+03  0.26552936205E+04  0.26467174849E+04 0.  0.
        2    1    3    3  502    0  0.23713378636E+03 -0.10315302831E+04 -0.69030409444E+03  0.12636482503E+04  0.25500000920E-02 0. -1.
       -2    1    3    3    0  502 -0.23713378636E+03  0.10315302831E+04  0.90354284824E+03  0.13916453702E+04  0.25500000920E-02 0.  1.
</event>
<event>
 5   0  0.1151180E-06  0.3422649E+04  0.7818609E-02  0.8132370E-01
       -2   -1    0    0    0  501  0.00000000000E+00  0.00000000000E+00  0.16620534772E+04  0.16620534772E+04  0.25500000920E-02 0.  1.
        2   -1    0    0  501    0  0.00000000000E+00  0.00000000000E+00 -0.17620559868E+04  0.17620559868E+04  0.25500000920E-02 0. -1.
    10030    2    1    2    0    0  0.00000000000E+00  0.00000000000E+00 -0.10000250957E+03  0.34241094640E+04  0.34226488455E+04 0.  0.
        5    1    3    3  502    0 -0.72516524834E+03 -0.15363796846E+04 -0.25571492133E+03  0.17180626833E+04  0.46999998093E+01 0.  1.
       -5    1    3    3    0  502  0.72516524834E+03  0.15363796846E+04  0.15571241175E+03  0.17060467807E+04  0.46999998093E+01 0. -1.
</event>
<event>
 5   0  0.5679750E-07  0.3584316E+04  0.7818609E-02  0.8094094E-01
        1   -1    0    0  501    0  0.00000000000E+00  0.00000000000E+00  0.29402628308E+04  0.29402628308E+04  0.50400001928E-02 0.  1.
       -1   -1    0    0    0  501  0.00000000000E+00  0.00000000000E+00 -0.10923613620E+04  0.10923613620E+04  0.50400001928E-02 0. -1.
    10030    2    1    2    0    0  0.00000000000E+00  0.00000000000E+00  0.18479014688E+04  0.40326241928E+04  0.35843155611E+04 0.  0.
        4    1    3    3  502    0 -0.86493417445E+02 -0.14677114003E+04 -0.22900152288E+03  0.14879856103E+04  0.12699999809E+01 0. -1.
       -4    1    3    3    0  502  0.86493417445E+02  0.14677114003E+04  0.20769029917E+04  0.25446385825E+04  0.12699999809E+01 0.  1.
</event>
<event>
 5   0  0.5875011E-07  0.3551749E+04  0.7818609E-02  0.8101634E-01
       -1   -1    0    0    0  501  0.00000000000E+00  0.00000000000E+00  0.15988439557E+04  0.15988439558E+04  0.50400001928E-02 0. -1.
        1   -1    0    0  501    0  0.00000000000E+00  0.00000000000E+00 -0.19725067519E+04  0.19725067519E+04  0.50400001928E-02 0.  1.
    10030    2    1    2    0    0  0.00000000000E+00  0.00000000000E+00 -0.37366279619E+03  0.35713507077E+04  0.35517491454E+04 0.  0.
        2    1    3    3  502    0  0.23296942510E+03  0.14324455203E+04  0.84231877639E+03  0.16779975693E+04  0.25500000920E-02 0. -1.
       -2    1    3    3    0  502 -0.23296942510E+03 -0.14324455203E+04 -0.12159815726E+04  0.18933531384E+04  0.25500000920E-02 0.  1.
</event>
<event>
 5   0  0.6261598E-07  0.3709083E+04  0.7818609E-02  0.8065952E-01
        1   -1    0    0  501    0  0.00000000000E+00  0.00000000000E+00  0.11904419643E+04  0.11904419644E+04  0.50400001928E-02 0. -1.
       -1   -1    0    0    0  501  0.00000000000E+00  0.00000000000E+00 -0.28891153236E+04  0.28891153236E+04  0.50400001928E-02 0.  1.
    10030    2    1    2    0    0  0.00000000000E+00  0.00000000000E+00 -0.16986733592E+04  0.40795572880E+04  0.37090829708E+04 0.  0.
        1    1    3    3  502    0  0.17668072414E+04 -0.41321669412E+03 -0.42768070452E+03  0.18642067078E+04  0.50400001928E-02 0. -1.
       -1    1    3    3    0  502 -0.17668072414E+04  0.41321669412E+03 -0.12709926547E+04  0.22153505801E+04  0.50400001928E-02 0.  1.
</event>
<event>
 5   0  0.6287345E-07  0.1821856E+04  0.7818609E-02  0.8694762E-01
       -1   -1    0    0    0  501  0.00000000000E+00  0.00000000000E+00  0.60423406078E+03  0.60423406080E+03  0.50400001928E-02 0. -1.
        1   -1    0    0  501    0  0.00000000000E+00  0.00000000000E+00 -0.13732920190E+04  0.13732920190E+04  0.50400001928E-02 0.  1.
    10030    2    1    2    0    0  0.00000000000E+00  0.00000000000E+00 -0.76905795821E+03  0.19775260798E+04  0.18218559914E+04 0.  0.
        5    1    3    3  502    0  0.26042294947E+03  0.38238765031E+03 -0.12362598291E+04  0.13200003344E+04  0.46999998093E+01 0.  1.
       -5    1    3    3    0  502 -0.26042294947E+03 -0.38238765031E+03  0.46720187090E+03  0.65752574542E+03  0.46999998093E+01 0. -1.
</event>
<event>
 5   0  0.6287345E-07  0.2124173E+04  0.7818609E-02  0.8550669E-01
        1   -1    0    0  501    0  0.00000000000E+00  0.00000000000E+00  0.20434046081E+04  0.20434046081E+04  0.50400001928E-02 0.  1.
       -1   -1    0    0    0  501  0.00000000000E+00  0.00000000000E+00 -0.55203367247E+03  0.55203367249E+03  0.50400001928E-02 0. -1.
    10030    2    1    2    0    0  0.00000000000E+00  0.00000000000E+00  0.14913709356E+04  0.25954382806E+04  0.21241733923E+04 0.  0.
        5    1    3    3  502    0 -0.39714701558E+03 -0.72019290294E+03  0.15667908627E+04  0.17695364554E+04  0.46999998093E+01 0.  1.
       -5    1    3    3    0  502  0.39714701558E+03  0.72019290294E+03 -0.75419927133E+02  0.82590182518E+03  0.46999998093E+01 0. -1.
</event>
<event>
 5   0  0.6261598E-07  0.3595621E+04  0.7818609E-02  0.8091496E-01
        1   -1    0    0  501    0  0.00000000000E+00  0.00000000000E+00  0.19249245228E+04  0.19249245228E+04  0.50400001928E-02 0. -1.
       -1   -1    0    0    0  501  0.00000000000E+00  0.00000000000E+00 -0.16790901204E+04  0.16790901204E+04  0.50400001928E-02 0.  1.
    10030    2    1    2    0    0  0.00000000000E+00  0.00000000000E+00  0.24583440243E+03  0.36040146432E+04  0.35956205299E+04 0.  0.
        1    1    3    3  502    0  0.15409325262E+04 -0.85183978615E+03 -0.24127340452E+03  0.17771654192E+04  0.50400001928E-02 0.  1.
       -1    1    3    3    0  502 -0.15409325262E+04  0.85183978615E+03  0.48710780696E+03  0.18268492240E+04  0.50400001928E-02 0. -1.
</event>
<event>
 5   0  0.1685793E-06  0.3558152E+04  0.7818609E-02  0.8100145E-01
        2   -1    0    0  501    0  0.00000000000E+00  0.00000000000E+00  0.30752988094E+04  0.30752988094E+04  0.25500000920E-02 0. -1.
       -2   -1    0    0    0  501  0.00000000000E+00  0.00000000000E+00 -0.10292043523E+04  0.10292043523E+04  0.25500000920E-02 0.  1.
    10030    2    1    2    0    0  0.00000000000E+00  0.00000000000E+00  0.20460944571E+04  0.41045031617E+04  0.35581517221E+04 0.  0.
        3    1    3    3  502    0 -0.10271702114E+03  0.10568960229E+04 -0.62355324397E+03  0.12314213934E+04  0.10100000352E+00 0.  1.
       -3    1    3    3    0  502  0.10271702114E+03 -0.10568960229E+04  0.26696477011E+04  0.28730817684E+04  0.10100000352E+00 0. -1.
</event>
<event>
 5   0  0.6287345E-07  0.2419181E+04  0.7818609E-02  0.8432357E-01
       -1   -1    0    0    0  501  0.00000000000E+00  0.00000000000E+00  0.10638273412E+04  0.10638273412E+04  0.50400001928E-02 0.  1.
        1   -1    0    0  501    0  0.00000000000E+00  0.00000000000E+00 -0.13753254531E+04  0.13753254531E+04  0.50400001928E-02 0. -1.
    10030    2    1    2    0    0  0.00000000000E+00  0.00000000000E+00 -0.31149811186E+03  0.24391527943E+04  0.24191807043E+04 0.  0.
        5    1    3    3  502    0 -0.42541372939E+03  0.11299666564E+04 -0.82449180954E+02  0.12102154532E+04  0.46999998093E+01 0. -1.
       -5    1    3    3    0  502  0.42541372939E+03 -0.11299666564E+04 -0.22904893090E+03  0.12289373411E+04  0.46999998093E+01 0.  1.
</event>
<event>
 5   0  0.6287345E-07  0.2067034E+04  0.7818609E-02  0.8575906E-01
        1   -1    0    0  501    0  0.00000000000E+00  0.00000000000E+00  0.77566953604E+03  0.77566953606E+03  0.50400001928E-02 0.  1.
       -1   -1    0    0    0  501  0.00000000000E+00  0.00000000000E+00 -0.13770774747E+04  0.13770774747E+04  0.50400001928E-02 0. -1.
    10030    2    1    2    0    0  0.00000000000E+00  0.00000000000E+00 -0.60140793863E+03  0.21527470107E+04  0.20670336678E+04 0.  0.
        5    1    3    3  502    0  0.87078709648E+03  0.49069911254E+03 -0.57443182678E+03  0.11528442219E+04  0.46999998093E+01 0.  1.
       -5    1    3    3    0  502 -0.87078709648E+03 -0.49069911254E+03 -0.26976111854E+02  0.99990278880E+03  0.46999998093E+01 0. -1.
</event>
<event>
 5   0  0.1151180E-06  0.3742752E+04  0.7818609E-02  0.8058553E-01
       -2   -1    0    0    0  501  0.00000000000E+00  0.00000000000E+00  0.15368423519E+04  0.15368423519E+04  0.25500000920E-02 0. -1.
        2   -1    0    0  501    0  0.00000000000E+00  0.00000000000E+00 -0.22787298701E+04  0.22787298701E+04  0.25500000920E-02 0.  1.
    10030    2    1    2    0    0  0.00000000000E+00  0.00000000000E+00 -0.74188751824E+03  0.38155722220E+04  0.37427522348E+04 0.  0.
        5    1    3    3  502    0 -0.12534268600E+04 -0.66745457128E+02 -0.17859301939E+04  0.21829114954E+04  0.46999998093E+01 0.  1.
       -5    1    3    3    0  502  0.12534268600E+04  0.66745457128E+02  0.10440426757E+04  0.16326607265E+04  0.46999998093E+01 0. -1.
</event>
<event>
 5   0  0.5875011E-07  0.2123558E+04  0.7818609E-02  0.8550936E-01
       -1   -1    0    0    0  501  0.00000000000E+00  0.00000000000E+00  0.98186973005E+03  0.98186973006E+03  0.50400001928E-02 0.  1.
        1   -1    0    0  501    0  0.00000000000E+00  0.00000000000E+00 -0.11481919159E+04  0.11481919159E+04  0.50400001928E-02 0. -1.
    10030    2    1    2    0    0  0.00000000000E+00  0.00000000000E+00 -0.16632218589E+03  0.21300616460E+04  0.21235582277E+04 0.  0.
        2    1    3    3  502    0 -0.53573961331E+03 -0.67155579676E+03 -0.70906789173E+03  0.11139036747E+04  0.25500000920E-02 0. -1.
       -2    1    3    3    0  502  0.53573961331E+03  0.67155579676E+03  0.54274570584E+03  0.10161579713E+04  0.25500000920E-02 0.  1.
</event>
<event>
 5   0  0.6186440E-07  0.3544706E+04  0.7818609E-02  0.8103276E-01
       -1   -1    0    0    0  501  0.00000000000E+00  0.00000000000E+00  0.23406990913E+04  0.23406990913E+04  0.50400001928E-02 0. -1.
        1   -1    0    0  501    0  0.00000000000E+00  0.00000000000E+00 -0.13420073794E+04  0.13420073794E+04  0.50400001928E-02 0.  1.
    10030    2    1    2    0    0  0.00000000000E+00  0.00000000000E+00  0.99869171189E+03  0.36827064708E+04  0.35447061676E+04 0.  0.
        3    1    3    3  502    0  0.90027327670E+02  0.16030475051E+04 -0.28045448676E+03  0.16298837237E+04  0.10100000352E+00 0.  1.
       -3    1    3    3    0  502 -0.90027327670E+02 -0.16030475051E+04  0.12791461986E+04  0.20528227471E+04  0.10100000352E+00 0. -1.
</event>
<event>
 5   0  0.1724503E-06  0.2973993E+04  0.7818609E-02  0.8251197E-01
        2   -1    0    0  501    0  0.00000000000E+00  0.00000000000E+00  0.15825519267E+04  0.15825519267E+04  0.25500000920E-02 0. -1.
       -2   -1    0    0    0  501  0.00000000000E+00  0.00000000000E+00 -0.13972106784E+04  0.13972106784E+04  0.25500000920E-02 0.  1.
    10030    2    1    2    0    0  0.00000000000E+00  0.00000000000E+00  0.18534124822E+03  0.29797626051E+04  0.29739929059E+04 0.  0.
        1    1    3    3  502    0  0.13111262583E+04 -0.55546223929E+03  0.52195030046E+03  0.15165825005E+04  0.50400001928E-02 0. -1.
       -1    1    3    3    0  502 -0.13111262583E+04  0.55546223929E+03 -0.33660905224E+03  0.14631801046E+04  0.50400001928E-02 0.  1.
</event>
<event>
 5   0  0.1151180E-06  0.2808873E+04  0.7818609E-02  0.8300519E-01
        2   -1    0    0  501    0  0.00000000000E+00  0.00000000000E+00  0.20746579313E+04  0.20746579313E+04  0.25500000920E-02 0. -1.
       -2   -1    0    0    0  501  0.00000000000E+00  0.00000000000E+00 -0.95073086254E+03  0.95073086254E+03  0.25500000920E-02 0.  1.
    10030    2    1    2    0    0  0.00000000000E+00  0.00000000000E+00  0.11239270688E+04  0.30253887939E+04  0.28088726027E+04 0.  0.
        5    1    3    3  502    0 -0.19770345950E+03 -0.60990671980E+03 -0.78389304129E+03  0.10127108447E+04  0.46999998093E+01 0.  1.
       -5    1    3    3    0  502  0.19770345950E+03  0.60990671980E+03  0.19078201101E+04  0.20126779492E+04  0.46999998093E+01 0. -1.
</event>
<event>
 5   0  0.6287345E-07  0.3735734E+04  0.7818609E-02  0.8060089E-01
        1   -1    0    0  501    0  0.00000000000E+00  0.00000000000E+00  0.16513244956E+04  0.16513244956E+04  0.50400001928E-02 0. -1.
       -1   -1    0    0    0  501  0.00000000000E+00  0.00000000000E+00 -0.21128050031E+04  0.21128050031E+04  0.50400001928E-02 0.  1.
    10030    2    1    2    0    0  0.00000000000E+00  0.00000000000E+00 -0.46148050755E+03  0.37641294987E+04  0.37357337464E+04 0.  0.
        5    1    3    3  502    0  0.72443916335E+03 -0.25922977478E+03  0.14842230120E+04  0.16718110589E+04  0.46999998093E+01 0. -1.
       -5    1    3    3    0  502 -0.72443916335E+03  0.25922977478E+03 -0.19457035195E+04  0.20923184398E+04  0.46999998093E+01 0.  1.
</event>
<event>
 5   0  0.1184684E-06  0.3692214E+04  0.7818609E-02  0.8069689E-01
       -2   -1    0    0    0  501  0.00000000000E+00  0.00000000000E+00  0.12325362171E+04  0.12325362171E+04  0.25500000920E-02 0.  1.
        2   -1    0    0  501    0  0.00000000000E+00  0.00000000000E+00 -0.27651205860E+04  0.27651205860E+04  0.25500000920E-02 0. -1.
    10030    2    1    2    0    0  0.00000000000E+00  0.00000000000E+00 -0.15325843689E+04  0.39976568032E+04  0.36922141146E+04 0.  0.
        4    1    3    3  502    0  0.17455487433E+04 -0.50685044224E+03 -0.41666740440E+03  0.18647925152E+04  0.12699999809E+01 0.  1.
       -4    1    3    3    0  502 -0.17455487433E+04  0.50685044224E+03 -0.11159169645E+04  0.21328642879E+04  0.12699999809E+01 0. -1.
</event>
<event>
 5   0  0.5679750E-07  0.3745089E+04  0.7818609E-02  0.8058042E-01
       -3   -1    0    0    0  501  0.00000000000E+00  0.00000000000E+00  0.21340344658E+04  0.21340344682E+04  0.10100000352E+00 0. -1.
        3   -1    0    0  501    0  0.00000000000E+00  0.00000000000E+00 -0.16430958472E+04  0.16430958503E+04  0.10100000352E+00 0.  1.
    10030    2    1    2    0    0  0.00000000000E+00  0.00000000000E+00  0.49093861859E+03  0.37771303186E+04  0.37450891466E+04 0.  0.
        4    1    3    3  502    0 -0.16003758002E+04  0.93548841236E+03 -0.21522395428E+02  0.18538624809E+04  0.12699999809E+01 0. -1.
       -4    1    3    3    0  502  0.16003758002E+04 -0.93548841236E+03  0.51246101402E+03  0.19232678377E+04  0.12699999809E+01 0.  1.
</event>
<event>
 5   0  0.5679750E-07  0.3251470E+04  0.7818609E-02  0.8175355E-01
       -1   -1    0    0    0  501  0.00000000000E+00  0.00000000000E+00  0.12618424005E+04  0.12618424005E+04  0.50400001928E-02 0.  1.
        1   -1    0    0  501    0  0.00000000000E+00  0.00000000000E+00 -0.20945680198E+04  0.20945680198E+04  0.50400001928E-02 0. -1.
    10030    2    1    2    0    0  0.00000000000E+00  0.00000000000E+00 -0.83272561936E+03  0.33564104203E+04  0.32514702755E+04 0.  0.
        4    1    3    3  502    0  0.27794584803E+03  0.49604578696E+03  0.11558487268E+04  0.12881394371E+04  0.12699999809E+01 0.  1.
       -4    1    3    3    0  502 -0.27794584803E+03 -0.49604578696E+03 -0.19885743461E+04  0.20682709833E+04  0.12699999809E+01 0. -1.
</event>
<event>
 5   0  0.5875011E-07  0.2627534E+04  0.7818609E-02  0.8358908E-01
        1   -1    0    0  501    0  0.00000000000E+00  0.00000000000E+00  0.15109101551E+04  0.15109101551E+04  0.50400001928E-02 0.  1.
       -1   -1    0    0    0  501  0.00000000000E+00  0.00000000000E+00 -0.11423466301E+04  0.11423466301E+04  0.50400001928E-02 0. -1.
    10030    2    1    2    0    0  0.00000000000E+00  0.00000000000E+00  0.36856352504E+03  0.26532567852E+04  0.26275335385E+04 0.  0.
        2    1    3    3  502    0 -0.44838888494E+03 -0.96203514174E+03  0.96608279207E+03  0.14352282631E+04  0.25500000920E-02 0.  1.
       -2    1    3    3    0  502  0.44838888494E+03  0.96203514174E+03 -0.59751926703E+03  0.12180285221E+04  0.25500000920E-02 0. -1.
</event>
<event>
 5   0  0.5875011E-07  0.3784227E+04  0.7818609E-02  0.8049548E-01
       -1   -1    0    0    0  501  0.00000000000E+00  0.00000000000E+00  0.14398266516E+04  0.14398266516E+04  0.50400001928E-02 0. -1.
        1   -1    0    0  501    0  0.00000000000E+00  0.00000000000E+00 -0.24864749217E+04  0.24864749217E+04  0.50400001928E-02 0.  1.
    10030    2    1    2    0    0  0.00000000000E+00  0.00000000000E+00 -0.10466482701E+04  0.39263015734E+04  0.37842266639E+04 0.  0.
        2    1    3    3  502    0 -0.14974250628E+04 -0.11480818399E+04 -0.37762720559E+03  0.19243118345E+04  0.25500000920E-02 0.  1.
       -2    1    3    3    0  502  0.14974250628E+04  0.11480818399E+04 -0.66902106449E+03  0.20019897389E+04  0.25500000920E-02 0. -1.
</event>
<event>
 5   0  0.5875011E-07  0.3684380E+04  0.7818609E-02  0.8071432E-01
        1   -1    0    0  501    0  0.00000000000E+00  0.00000000000E+00  0.17698038696E+04  0.17698038696E+04  0.50400001928E-02 0.  1.
       -1   -1    0    0    0  501  0.00000000000E+00  0.00000000000E+00 -0.19175369836E+04  0.19175369836E+04  0.50400001928E-02 0. -1.
    10030    2    1    2    0    0  0.00000000000E+00  0.00000000000E+00 -0.14773311397E+03  0.36873408532E+04  0.36843802050E+04 0.  0.
        2    1    3    3  502    0 -0.24685166689E+03  0.24424840435E+03  0.17367503893E+04  0.17711281555E+04  0.25500000920E-02 0.  1.
       -2    1    3    3    0  502  0.24685166689E+03 -0.24424840435E+03 -0.18844835033E+04  0.19162126977E+04  0.25500000920E-02 0. -1.
</event>
<event>
 5   0  0.5679750E-07  0.3712901E+04  0.7818609E-02  0.8065109E-01
       -1   -1    0    0    0  501  0.00000000000E+00  0.00000000000E+00  0.27574255013E+04  0.27574255013E+04  0.50400001928E-02 0.  1.
        1   -1    0    0  501    0  0.00000000000E+00  0.00000000000E+00 -0.12498644997E+04  0.12498644998E+04  0.50400001928E-02 0. -1.
    10030    2    1    2    0    0  0.00000000000E+00  0.00000000000E+00  0.15075610015E+04  0.40072900010E+04  0.37129008846E+04 0.  0.
        4    1    3    3  502    0 -0.46758694175E+03 -0.12316980264E+04 -0.65785624653E+03  0.14725807381E+04  0.12699999809E+01 0. -1.
       -4    1    3    3    0  502  0.46758694175E+03  0.12316980264E+04  0.21654172481E+04  0.25347092629E+04  0.12699999809E+01 0.  1.
</event>
<event>
 5   0  0.6186440E-07  0.2083649E+04  0.7818609E-02  0.8568481E-01
        1   -1    0    0  501    0  0.00000000000E+00  0.00000000000E+00  0.89060576540E+03  0.89060576541E+03  0.50400001928E-02 0. -1.
       -1   -1    0    0    0  501  0.00000000000E+00  0.00000000000E+00 -0.12187186422E+04  0.12187186422E+04  0.50400001928E-02 0.  1.
    10030    2    1    2    0    0  0.00000000000E+00  0.00000000000E+00 -0.32811287675E+03  0.21093244076E+04  0.20836485780E+04 0.  0.
        3    1    3    3  502    0  0.44221297272E+03  0.19452496937E+03  0.77035924478E+03  0.90931053726E+03  0.10100000352E+00 0. -1.
       -3    1    3    3    0  502 -0.44221297272E+03 -0.19452496937E+03 -0.10984721215E+04  0.12000138703E+04  0.10100000352E+00 0.  1.
</event>
<event>
 5   0  0.1184684E-06  0.3709675E+04  0.7818609E-02  0.8065821E-01
       -2   -1    0    0    0  501  0.00000000000E+00  0.00000000000E+00  0.14109014067E+04  0.14109014067E+04  0.25500000920E-02 0.  1.
        2   -1    0    0  501    0  0.00000000000E+00  0.00000000000E+00 -0.24384568160E+04  0.24384568160E+04  0.25500000920E-02 0. -1.
    10030    2    1    2    0    0  0.00000000000E+00  0.00000000000E+00 -0.10275554093E+04  0.38493582227E+04  0.37096750003E+04 0.  0.
        4    1    3    3  502    0  0.71821994275E+02  0.66612107654E+03 -0.23085122593E+04  0.24037691553E+04  0.12699999809E+01 0. -1.
       -4    1    3    3    0  502 -0.71821994275E+02 -0.66612107654E+03  0.12809568500E+04  0.14455890675E+04  0.12699999809E+01 0.  1.
</event>
<event>
 5   0  0.6186440E-07  0.3689191E+04  0.7818609E-02  0.8070362E-01
       -1   -1    0    0    0  501  0.00000000000E+00  0.00000000000E+00  0.13779692887E+04  0.13779692887E+04  0.50400001928E-02 0.  1.
        1   -1    0    0  501    0  0.00000000000E+00  0.00000000000E+00 -0.24692364125E+04  0.24692364125E+04  0.50400001928E-02 0. -1.
    10030    2    1    2    0    0  0.00000000000E+00  0.00000000000E+00 -0.10912671238E+04  0.38472057012E+04  0.36891906663E+04 0.  0.
        3    1    3    3  502    0  0.54381280403E+03  0.16774731656E+04  0.18733481545E+02  0.17635190786E+04  0.10100000352E+00 0. -1.
       -3    1    3    3    0  502 -0.54381280403E+03 -0.16774731656E+04 -0.11100006054E+04  0.20836866226E+04  0.10100000352E+00 0.  1.
</event>
<event>
 5   0  0.1184684E-06  0.3725692E+04  0.7818609E-02  0.8062292E-01
        2   -1    0    0  501    0  0.00000000000E+00  0.00000000000E+00  0.12193964762E+04  0.12193964762E+04  0.25500000920E-02 0. -1.
       -2   -1    0    0    0  501  0.00000000000E+00  0.00000000000E+00 -0.28458293996E+04  0.28458293996E+04  0.25500000920E-02 0.  1.
    10030    2    1    2    0    0  0.00000000000E+00  0.00000000000E+00 -0.16264329234E+04  0.40652258758E+04  0.37256915287E+04 0.  0.
        4    1    3    3  502    0 -0.61524723957E+03 -0.30877939730E+03 -0.27019548176E+04  0.27882674426E+04  0.12699999809E+01 0.  1.
       -4    1    3    3    0  502  0.61524723957E+03  0.30877939730E+03  0.10755218943E+04  0.12769584332E+04  0.12699999809E+01 0. -1.
</event>
<event>
 5   0  0.5679750E-07  0.3698733E+04  0.7818609E-02  0.8068243E-01
        1   -1    0    0  501    0  0.00000000000E+00  0.00000000000E+00  0.21774699442E+04  0.21774699442E+04  0.50400001928E-02 0.  1.
       -1   -1    0    0    0  501  0.00000000000E+00  0.00000000000E+00 -0.15707019166E+04  0.15707019166E+04  0.50400001928E-02 0. -1.
    10030    2    1    2    0    0  0.00000000000E+00  0.00000000000E+00  0.60676802759E+03  0.37481718608E+04  0.36987328721E+04 0.  0.
        4    1    3    3  502    0 -0.86016596505E+02  0.10716406826E+04  0.18282705832E+04  0.21209402504E+04  0.12699999809E+01 0.  1.
       -4    1    3    3    0  502  0.86016596505E+02 -0.10716406826E+04 -0.12215025556E+04  0.16272316104E+04  0.12699999809E+01 0. -1.
</event>
<event>
 5   0  0.6287345E-07  0.2183640E+04  0.7818609E-02  0.8525268E-01
        1   -1    0    0  501    0  0.00000000000E+00  0.00000000000E+00  0.10702953636E+04  0.10702953636E+04  0.50400001928E-02 0.  1.
       -1   -1    0    0    0  501  0.00000000000E+00  0.00000000000E+00 -0.11137777134E+04  0.11137777134E+04  0.50400001928E-02 0. -1.
    10030    2    1    2    0    0  0.00000000000E+00  0.00000000000E+00 -0.43482349795E+02  0.21840730770E+04  0.21836401926E+04 0.  0.
        5    1    3    3  502    0  0.33116384251E+02 -0.70967687268E+02 -0.11109547275E+04  0.11137215110E+04  0.46999998093E+01 0. -1.
       -5    1    3    3    0  502 -0.33116384251E+02  0.70967687268E+02  0.10674723777E+04  0.10703515659E+04  0.46999998093E+01 0.  1.
</event>
<event>
 5   0  0.1724503E-06  0.2464497E+04  0.7818609E-02  0.8415744E-01
        2   -1    0    0  501    0  0.00000000000E+00  0.00000000000E+00  0.10704447096E+04  0.10704447096E+04  0.25500000920E-02 0. -1.
       -2   -1    0    0    0  501  0.00000000000E+00  0.00000000000E+00 -0.14185096355E+04  0.14185096355E+04  0.25500000920E-02 0.  1.
    10030    2    1    2    0    0  0.00000000000E+00  0.00000000000E+00 -0.34806492592E+03  0.24889543451E+04  0.24644968126E+04 0.  0.
        1    1    3    3  502    0 -0.60744419919E+03 -0.22071078255E+03 -0.12336031746E+04  0.13926516065E+04  0.50400001928E-02 0.  1.
       -1    1    3    3    0  502  0.60744419919E+03  0.22071078255E+03  0.88553824869E+03  0.10963027386E+04  0.50400001928E-02 0. -1.
</event>
<event>
 5   0  0.6261598E-07  0.3561055E+04  0.7818609E-02  0.8099471E-01
        1   -1    0    0  501    0  0.00000000000E+00  0.00000000000E+00  0.19533668677E+04  0.19533668677E+04  0.50400001928E-02 0.  1.
       -1   -1    0    0    0  501  0.00000000000E+00  0.00000000000E+00 -0.16229813519E+04  0.16229813519E+04  0.50400001928E-02 0. -1.
    10030    2    1    2    0    0  0.00000000000E+00  0.00000000000E+00  0.33038551586E+03  0.35763482196E+04  0.35610548997E+04 0.  0.
        1    1    3    3  502    0 -0.69170608162E+03  0.16051433548E+04  0.50626206874E+03  0.18196823280E+04  0.50400001928E-02 0.  1.
       -1    1    3    3    0  502  0.69170608162E+03 -0.16051433548E+04 -0.17587655288E+03  0.17566658916E+04  0.50400001928E-02 0. -1.
</event>
<event>
 5   0  0.5679750E-07  0.2711507E+04  0.7818609E-02  0.8331281E-01
       -3   -1    0    0    0  501  0.00000000000E+00  0.00000000000E+00  0.16052435527E+04  0.16052435559E+04  0.10100000352E+00 0.  1.
        3   -1    0    0  501    0  0.00000000000E+00  0.00000000000E+00 -0.11450393437E+04  0.11450393481E+04  0.10100000352E+00 0. -1.
    10030    2    1    2    0    0  0.00000000000E+00  0.00000000000E+00  0.46020420901E+03  0.27502829040E+04  0.27115066177E+04 0.  0.
        1    1    3    3  502    0 -0.92861513624E+03 -0.55690891625E+03 -0.59740400940E+03  0.12366750433E+04  0.50400001928E-02 0. -1.
       -1    1    3    3    0  502  0.92861513624E+03  0.55690891625E+03  0.10576082184E+04  0.15136078607E+04  0.50400001928E-02 0.  1.
</event>
<event>
 5   0  0.1680194E-06  0.3560766E+04  0.7818609E-02  0.8099538E-01
       -2   -1    0    0    0  501  0.00000000000E+00  0.00000000000E+00  0.20045359621E+04  0.20045359621E+04  0.25500000920E-02 0.  1.
        2   -1    0    0  501    0  0.00000000000E+00  0.00000000000E+00 -0.15812958172E+04  0.15812958172E+04  0.25500000920E-02 0. -1.
    10030    2    1    2    0    0  0.00000000000E+00  0.00000000000E+00  0.42324014494E+03  0.35858317794E+04  0.35607663964E+04 0.  0.
        2    1    3    3  502    0 -0.45720999801E+03  0.17149494512E+04  0.35286332319E+03  0.18095870047E+04  0.25500000920E-02 0. -1.
       -2    1    3    3    0  502  0.45720999801E+03 -0.17149494512E+04  0.70376821748E+02  0.17762447747E+04  0.25500000920E-02 0.  1.
</event>
<event>
 5   0  0.5679750E-07  0.2395421E+04  0.7818609E-02  0.8441220E-01
       -1   -1    0    0    0  501  0.00000000000E+00  0.00000000000E+00  0.83483672304E+03  0.83483672305E+03  0.50400001928E-02 0. -1.
        1   -1    0    0  501    0  0.00000000000E+00  0.00000000000E+00 -0.17183132133E+04  0.17183132133E+04  0.50400001928E-02 0.  1.
    10030    2    1    2    0    0  0.00000000000E+00  0.00000000000E+00 -0.88347649028E+03  0.25531499364E+04  0.23954214428E+04 0.  0.
        4    1    3    3  502    0 -0.83845012460E+03 -0.42162744975E+03 -0.12348743930E+04  0.15510269815E+04  0.12699999809E+01 0.  1.
       -4    1    3    3    0  502  0.83845012460E+03  0.42162744975E+03  0.35139790273E+03  0.10021229549E+04  0.12699999809E+01 0. -1.
</event>
<event>
 5   0  0.5679750E-07  0.2000092E+04  0.7818609E-02  0.8606578E-01
        3   -1    0    0  501    0  0.00000000000E+00  0.00000000000E+00  0.81107472827E+03  0.81107473456E+03  0.10100000352E+00 0. -1.
       -3   -1    0    0    0  501  0.00000000000E+00  0.00000000000E+00 -0.12330453050E+04  0.12330453091E+04  0.10100000352E+00 0.  1.
    10030    2    1    2    0    0  0.00000000000E+00  0.00000000000E+00 -0.42197057672E+03  0.20441200437E+04  0.20000918942E+04 0.  0.
        2    1    3    3  502    0 -0.93922076983E+03  0.34176204623E+03 -0.17625269498E+03  0.10148901237E+04  0.25500000920E-02 0. -1.
       -2    1    3    3    0  502  0.93922076983E+03 -0.34176204623E+03 -0.24571788174E+03  0.10292299200E+04  0.25500000920E-02 0.  1.
</event>
<event>
 5   0  0.6261598E-07  0.2967345E+04  0.7818609E-02  0.8253118E-01
        1   -1    0    0  501    0  0.00000000000E+00  0.00000000000E+00  0.23004040664E+04  0.23004040665E+04  0.50400001928E-02 0.  1.
       -1   -1    0    0    0  501  0.00000000000E+00  0.00000000000E+00 -0.95691175206E+03  0.95691175207E+03  0.50400001928E-02 0. -1.
    10030    2    1    2    0    0  0.00000000000E+00  0.00000000000E+00  0.13434923144E+04  0.32573158185E+04  0.29673447294E+04 0.  0.
        1    1    3    3  502    0  0.86424269411E+03 -0.10967285813E+04  0.12118184389E+03  0.14015755615E+04  0.50400001928E-02 0. -1.
       -1    1    3    3    0  502 -0.86424269411E+03  0.10967285813E+04  0.12223104705E+04  0.18557402570E+04  0.50400001928E-02 0.  1.
</event>
<event>
 5   0  0.5679750E-07  0.3700610E+04  0.7818609E-02  0.8067827E-01
       -1   -1    0    0    0  501  0.00000000000E+00  0.00000000000E+00  0.18567851864E+04  0.18567851864E+04  0.50400001928E-02 0. -1.
        1   -1    0    0  501    0  0.00000000000E+00  0.00000000000E+00 -0.18438475771E+04  0.18438475771E+04  0.50400001928E-02 0.  1.
    10030    2    1    2    0    0  0.00000000000E+00  0.00000000000E+00  0.12937609325E+02  0.37006327635E+04  0.37006101482E+04 0.  0.
        4    1    3    3  502    0  0.75145166856E+03 -0.11932489834E+04  0.12044346007E+04  0.18545045340E+04  0.12699999809E+01 0. -1.
       -4    1    3    3    0  502 -0.75145166856E+03  0.11932489834E+04 -0.11914969914E+04  0.18461282295E+04  0.12699999809E+01 0.  1.
</event>
<event>
 5   0  0.1685793E-06  0.3649126E+04  0.7818609E-02  0.8079331E-01
        2   -1    0    0  501    0  0.00000000000E+00  0.00000000000E+00  0.20803081308E+04  0.20803081308E+04  0.25500000920E-02 0. -1.
       -2   -1    0    0    0  501  0.00000000000E+00  0.00000000000E+00 -0.16002584253E+04  0.16002584253E+04  0.25500000920E-02 0.  1.
    10030    2    1    2    0    0  0.00000000000E+00  0.00000000000E+00  0.48004970551E+03  0.36805665561E+04  0.36491262590E+04 0.  0.
        3    1    3    3  502    0  0.13131628110E+04 -0.52212593118E+03  0.14040997432E+04  0.19921114816E+04  0.10100000352E+00 0. -1.
       -3    1    3    3    0  502 -0.13131628110E+04  0.52212593118E+03 -0.92405003768E+03  0.16884550745E+04  0.10100000352E+00 0.  1.
</event>
<event>
 5   0  0.1724503E-06  0.2253972E+04  0.7818609E-02  0.8496294E-01
       -2   -1    0    0    0  501  0.00000000000E+00  0.00000000000E+00  0.66548981543E+03  0.66548981544E+03  0.25500000920E-02 0.  1.
        2   -1    0    0  501    0  0.00000000000E+00  0.00000000000E+00 -0.19085143835E+04  0.19085143835E+04  0.25500000920E-02 0. -1.
    10030    2    1    2    0    0  0.00000000000E+00  0.00000000000E+00 -0.12430245680E+04  0.25740041989E+04  0.22539715036E+04 0.  0.
        1    1    3    3  502    0  0.20246847381E+03 -0.76465994994E+03 -0.15382352500E+04  0.17297011320E+04  0.50400001928E-02 0. -1.
       -1    1    3    3    0  502 -0.20246847381E+03  0.76465994994E+03  0.29521068194E+03  0.84430306685E+03  0.50400001928E-02 0.  1.
</event>
<event>
 5   0  0.5679750E-07  0.4319902E+04  0.7818609E-02  0.7942948E-01
       -3   -1    0    0    0  501  0.00000000000E+00  0.00000000000E+00  0.33007115217E+04  0.33007115232E+04  0.10100000352E+00 0. -1.
        3   -1    0    0  501    0  0.00000000000E+00  0.00000000000E+00 -0.14134495919E+04  0.14134495955E+04  0.10100000352E+00 0.  1.
    10030    2    1    2    0    0  0.00000000000E+00  0.00000000000E+00  0.18872619298E+04  0.47141611187E+04  0.43199024828E+04 0.  0.
        4    1    3    3  502    0 -0.26496214838E+03  0.95854930809E+03 -0.11487456185E+04  0.15194208847E+04  0.12699999809E+01 0.  1.
       -4    1    3    3    0  502  0.26496214838E+03 -0.95854930809E+03  0.30360075483E+04  0.31947402339E+04  0.12699999809E+01 0. -1.
</event>
<event>
 5   0  0.1184684E-06  0.3536305E+04  0.7818609E-02  0.8105240E-01
       -2   -1    0    0    0  501  0.00000000000E+00  0.00000000000E+00  0.14593273234E+04  0.14593273234E+04  0.25500000920E-02 0. -1.
        2   -1    0    0  501    0  0.00000000000E+00  0.00000000000E+00 -0.21423316055E+04  0.21423316055E+04  0.25500000920E-02 0.  1.
    10030    2    1    2    0    0  0.00000000000E+00  0.00000000000E+00 -0.68300428206E+03  0.36016589290E+04  0.35363048782E+04 0.  0.
        4    1    3    3  502    0  0.12526605030E+04  0.12477043857E+04 -0.36278973508E+03  0.18048663592E+04  0.12699999809E+01 0. -1.
       -4    1    3    3    0  502 -0.12526605030E+04 -0.12477043857E+04 -0.32021454699E+03  0.17967925698E+04  0.12699999809E+01 0.  1.
</event>
<event>
 5   0  0.1151180E-06  0.2724797E+04  0.7818609E-02  0.8327004E-01
        2   -1    0    0  501    0  0.00000000000E+00  0.00000000000E+00  0.61958723555E+03  0.61958723556E+03  0.25500000920E-02 0. -1.
       -2   -1    0    0    0  501  0.00000000000E+00  0.00000000000E+00 -0.29957509413E+04  0.29957509413E+04  0.25500000920E-02 0.  1.
    10030    2    1    2    0    0  0.00000000000E+00  0.00000000000E+00 -0.23761637058E+04  0.36153381769E+04  0.27247965386E+04 0.  0.
        5    1    3    3  502    0 -0.96214388852E+03 -0.43116080804E+03 -0.43245933370E+02  0.10552311621E+04  0.46999998093E+01 0. -1.
       -5    1    3    3    0  502  0.96214388852E+03  0.43116080804E+03 -0.23329177724E+04  0.25601070148E+04  0.46999998093E+01 0.  1.
</event>
<event>
 5   0  0.5679750E-07  0.1895761E+04  0.7818609E-02  0.8656970E-01
       -1   -1    0    0    0  501  0.00000000000E+00  0.00000000000E+00  0.94185839366E+03  0.94185839368E+03  0.50400001928E-02 0. -1.
        1   -1    0    0  501    0  0.00000000000E+00  0.00000000000E+00 -0.95394065056E+03  0.95394065057E+03  0.50400001928E-02 0.  1.
    10030    2    1    2    0    0  0.00000000000E+00  0.00000000000E+00 -0.12082256890E+02  0.18957990442E+04  0.18957605427E+04 0.  0.
        4    1    3    3  502    0  0.50593000416E+03  0.80122725738E+03  0.17306911517E+02  0.94775072101E+03  0.12699999809E+01 0.  1.
       -4    1    3    3    0  502 -0.50593000416E+03 -0.80122725738E+03 -0.29389168407E+02  0.94804832324E+03  0.12699999809E+01 0. -1.
</event>
<event>
 5   0  0.1151180E-06  0.3254798E+04  0.7818609E-02  0.8174493E-01
        2   -1    0    0  501    0  0.00000000000E+00  0.00000000000E+00  0.21898938105E+04  0.21898938105E+04  0.25500000920E-02 0. -1.
       -2   -1    0    0    0  501  0.00000000000E+00  0.00000000000E+00 -0.12093861141E+04  0.12093861141E+04  0.25500000920E-02 0.  1.
    10030    2    1    2    0    0  0.00000000000E+00  0.00000000000E+00  0.98050769642E+03  0.33992799246E+04  0.32547977915E+04 0.  0.
        5    1    3    3  502    0 -0.14163706910E+04 -0.98814851008E+02  0.13208790760E+04  0.19392302422E+04  0.46999998093E+01 0. -1.
       -5    1    3    3    0  502  0.14163706910E+04  0.98814851008E+02 -0.34037137960E+03  0.14600496824E+04  0.46999998093E+01 0.  1.
</event>
<event>
 5   0  0.6261598E-07  0.2094353E+04  0.7818609E-02  0.8563735E-01
        1   -1    0    0  501    0  0.00000000000E+00  0.00000000000E+00  0.19276672067E+04  0.19276672067E+04  0.50400001928E-02 0. -1.
       -1   -1    0    0    0  501  0.00000000000E+00  0.00000000000E+00 -0.56886296468E+03  0.56886296471E+03  0.50400001928E-02 0.  1.
    10030    2    1    2    0    0  0.00000000000E+00  0.00000000000E+00  0.13588042420E+04  0.24965301714E+04  0.20943528663E+04 0.  0.
        1    1    3    3  502    0  0.35773459499E+03  0.92751117765E+03  0.28706785762E+03  0.10347265243E+04  0.50400001928E-02 0.  1.
       -1    1    3    3    0  502 -0.35773459499E+03 -0.92751117765E+03  0.10717363844E+04  0.14618036471E+04  0.50400001928E-02 0. -1.
</event>
<event>
 5   0  0.5875011E-07  0.3623174E+04  0.7818609E-02  0.8085204E-01
        1   -1    0    0  501    0  0.00000000000E+00  0.00000000000E+00  0.11937998042E+04  0.11937998042E+04  0.50400001928E-02 0.  1.
       -1   -1    0    0    0  501  0.00000000000E+00  0.00000000000E+00 -0.27490773662E+04  0.27490773662E+04  0.50400001928E-02 0. -1.
    10030    2    1    2    0    0  0.00000000000E+00  0.00000000000E+00 -0.15552775620E+04  0.39428771705E+04  0.36231743108E+04 0.  0.
        2    1    3    3  502    0 -0.82863327686E+03 -0.97423781479E+03  0.61856531431E+03  0.14207024584E+04  0.25500000920E-02 0.  1.
       -2    1    3    3    0  502  0.82863327686E+03  0.97423781479E+03 -0.21738428763E+04  0.25221747120E+04  0.25500000920E-02 0. -1.
</event>
<event>
 5   0  0.1685793E-06  0.4003171E+04  0.7818609E-02  0.8003907E-01
       -2   -1    0    0    0  501  0.00000000000E+00  0.00000000000E+00  0.26410907722E+04  0.26410907722E+04  0.25500000920E-02 0.  1.
        2   -1    0    0  501    0  0.00000000000E+00  0.00000000000E+00 -0.15169280025E+04  0.15169280025E+04  0.25500000920E-02 0. -1.
    10030    2    1    2    0    0  0.00000000000E+00  0.00000000000E+00  0.11241627697E+04  0.41580187748E+04  0.40031710179E+04 0.  0.
        3    1    3    3  502    0  0.79214441496E+03 -0.14673932426E+04 -0.58781376976E+03  0.17681235083E+04  0.10100000352E+00 0. -1.
       -3    1    3    3    0  502 -0.79214441496E+03  0.14673932426E+04  0.17119765395E+04  0.23898952664E+04  0.10100000352E+00 0.  1.
</event>
<event>
 5   0  0.6186440E-07  0.3710822E+04  0.7818609E-02  0.8065568E-01
        1   -1    0    0  501    0  0.00000000000E+00  0.00000000000E+00  0.17896119713E+04  0.17896119713E+04  0.50400001928E-02 0.  1.
       -1   -1    0    0    0  501  0.00000000000E+00  0.00000000000E+00 -0.19236297028E+04  0.19236297028E+04  0.50400001928E-02 0. -1.
    10030    2    1    2    0    0  0.00000000000E+00  0.00000000000E+00 -0.13401773151E+03  0.37132416741E+04  0.37108224126E+04 0.  0.
        3    1    3    3  502    0  0.12918726803E+04 -0.99033850183E+03  0.82399028577E+03  0.18244630365E+04  0.10100000352E+00 0.  1.
       -3    1    3    3    0  502 -0.12918726803E+04  0.99033850183E+03 -0.95800801728E+03  0.18887786376E+04  0.10100000352E+00 0. -1.
</event>
<event>
 5   0  0.1151180E-06  0.3657506E+04  0.7818609E-02  0.8077445E-01
        2   -1    0    0  501    0  0.00000000000E+00  0.00000000000E+00  0.27877959974E+04  0.27877959974E+04  0.25500000920E-02 0. -1.
       -2   -1    0    0    0  501  0.00000000000E+00  0.00000000000E+00 -0.11996348821E+04  0.11996348821E+04  0.25500000920E-02 0.  1.
    10030    2    1    2    0    0  0.00000000000E+00  0.00000000000E+00  0.15881611153E+04  0.39874308796E+04  0.36575058840E+04 0.  0.
        5    1    3    3  502    0 -0.86381104363E+03  0.18382392936E+03 -0.95173019335E+03  0.12983732926E+04  0.46999998093E+01 0.  1.
       -5    1    3    3    0  502  0.86381104363E+03 -0.18382392936E+03  0.25398913087E+04  0.26890575869E+04  0.46999998093E+01 0. -1.
</event>
<event>
 5   0  0.1184684E-06  0.2274917E+04  0.7818609E-02  0.8487877E-01
       -2   -1    0    0    0  501  0.00000000000E+00  0.00000000000E+00  0.76722895474E+03  0.76722895474E+03  0.25500000920E-02 0.  1.
        2   -1    0    0  501    0  0.00000000000E+00  0.00000000000E+00 -0.16863444151E+04  0.16863444151E+04  0.25500000920E-02 0. -1.
    10030    2    1    2    0    0  0.00000000000E+00  0.00000000000E+00 -0.91911546034E+03  0.24535733698E+04  0.22749173725E+04 0.  0.
        4    1    3    3  502    0 -0.17009688274E+03 -0.88711694718E+03 -0.12051518819E+04  0.15060883436E+04  0.12699999809E+01 0.  1.
       -4    1    3    3    0  502  0.17009688274E+03  0.88711694718E+03  0.28603642156E+03  0.94748502619E+03  0.12699999809E+01 0. -1.
</event>
<event>
 5   0  0.5679750E-07  0.3705497E+04  0.7818609E-02  0.8066745E-01
        3   -1    0    0  501    0  0.00000000000E+00  0.00000000000E+00  0.16099992559E+04  0.16099992591E+04  0.10100000352E+00 0.  1.
       -3   -1    0    0    0  501  0.00000000000E+00  0.00000000000E+00 -0.21320980312E+04  0.21320980336E+04  0.10100000352E+00 0. -1.
    10030    2    1    2    0    0  0.00000000000E+00  0.00000000000E+00 -0.52209877532E+03  0.37420972927E+04  0.37054965951E+04 0.  0.
        5    1    3    3  502    0 -0.64497078785E+03 -0.59543787863E+03  0.13866672144E+04  0.16411586267E+04  0.46999998093E+01 0.  1.
       -5    1    3    3    0  502  0.64497078785E+03  0.59543787863E+03 -0.19087659897E+04  0.21009386659E+04  0.46999998093E+01 0. -1.
</event>
<event>
 5   0  0.1184684E-06  0.3181755E+04  0.7818609E-02  0.8193652E-01
       -2   -1    0    0    0  501  0.00000000000E+00  0.00000000000E+00  0.13132171959E+04  0.13132171959E+04  0.25500000920E-02 0. -1.
        2   -1    0    0  501    0  0.00000000000E+00  0.00000000000E+00 -0.19272445388E+04  0.19272445388E+04  0.25500000920E-02 0.  1.
    10030    2    1    2    0    0  0.00000000000E+00  0.00000000000E+00 -0.61402734289E+03  0.32404617346E+04  0.31817546536E+04 0.  0.
        4    1    3    3  502    0  0.15517741455E+04  0.31346926173E+02  0.48575205976E+02  0.15528511815E+04  0.12699999809E+01 0. -1.
       -4    1    3    3    0  502 -0.15517741455E+04 -0.31346926173E+02 -0.66260254887E+03  0.16876105531E+04  0.12699999809E+01 0.  1.
</event>
<event>
 5   0  0.1724503E-06  0.3779410E+04  0.7818609E-02  0.8050588E-01
       -2   -1    0    0    0  501  0.00000000000E+00  0.00000000000E+00  0.29216477090E+04  0.29216477090E+04  0.25500000920E-02 0. -1.
        2   -1    0    0  501    0  0.00000000000E+00  0.00000000000E+00 -0.12222501059E+04  0.12222501059E+04  0.25500000920E-02 0.  1.
    10030    2    1    2    0    0  0.00000000000E+00  0.00000000000E+00  0.16993976031E+04  0.41438978149E+04  0.37794095950E+04 0.  0.
        1    1    3    3  502    0  0.14953400493E+04 -0.10223944985E+04  0.14397955589E+04  0.23139454672E+04  0.50400001928E-02 0. -1.
       -1    1    3    3    0  502 -0.14953400493E+04  0.10223944985E+04  0.25960204417E+03  0.18299523477E+04  0.50400001928E-02 0.  1.
</event>
<event>
 5   0  0.6287345E-07  0.2270971E+04  0.7818609E-02  0.8489455E-01
       -1   -1    0    0    0  501  0.00000000000E+00  0.00000000000E+00  0.54077454117E+03  0.54077454119E+03  0.50400001928E-02 0.  1.
        1   -1    0    0  501    0  0.00000000000E+00  0.00000000000E+00 -0.23842241436E+04  0.23842241436E+04  0.50400001928E-02 0. -1.
    10030    2    1    2    0    0  0.00000000000E+00  0.00000000000E+00 -0.18434496025E+04  0.29249986848E+04  0.22709713493E+04 0.  0.
        5    1    3    3  502    0  0.55806304109E+03  0.80282785688E+03 -0.17809482221E+03  0.99383438324E+03  0.46999998093E+01 0.  1.
       -5    1    3    3    0  502 -0.55806304109E+03 -0.80282785688E+03 -0.16653547803E+04  0.19311643016E+04  0.46999998093E+01 0. -1.
</event>
<event>
 5   0  0.1151180E-06  0.2523262E+04  0.7818609E-02  0.8394745E-01
       -2   -1    0    0    0  501  0.00000000000E+00  0.00000000000E+00  0.92206479266E+03  0.92206479266E+03  0.25500000920E-02 0.  1.
        2   -1    0    0  501    0  0.00000000000E+00  0.00000000000E+00 -0.17262484988E+04  0.17262484988E+04  0.25500000920E-02 0. -1.
    10030    2    1    2    0    0  0.00000000000E+00  0.00000000000E+00 -0.80418370614E+03  0.26483132915E+04  0.25232621458E+04 0.  0.
        5    1    3    3  502    0  0.90396266327E+03  0.41805493610E+03  0.41073911883E+03  0.10773333467E+04  0.46999998093E+01 0.  1.
       -5    1    3    3    0  502 -0.90396266327E+03 -0.41805493610E+03 -0.12149228250E+04  0.15709799448E+04  0.46999998093E+01 0. -1.
</event>
<event>
 5   0  0.1184684E-06  0.2066835E+04  0.7818609E-02  0.8575995E-01
        2   -1    0    0  501    0  0.00000000000E+00  0.00000000000E+00  0.48801162950E+03  0.48801162951E+03  0.25500000920E-02 0. -1.
       -2   -1    0    0    0  501  0.00000000000E+00  0.00000000000E+00 -0.21883729898E+04  0.21883729898E+04  0.25500000920E-02 0.  1.
    10030    2    1    2    0    0  0.00000000000E+00  0.00000000000E+00 -0.17003613603E+04  0.26763846193E+04  0.20668347479E+04 0.  0.
        4    1    3    3  502    0  0.40349122890E+02 -0.55783524628E+03 -0.19754513032E+04  0.20530995294E+04  0.12699999809E+01 0.  1.
       -4    1    3    3    0  502 -0.40349122890E+02  0.55783524628E+03  0.27508994285E+03  0.62328508988E+03  0.12699999809E+01 0. -1.
</event>
<event>
 5   0  0.6186440E-07  0.2969548E+04  0.7818609E-02  0.8252480E-01
       -1   -1    0    0    0  501  0.00000000000E+00  0.00000000000E+00  0.11839534312E+04  0.11839534312E+04  0.50400001928E-02 0.  1.
        1   -1    0    0  501    0  0.00000000000E+00  0.00000000000E+00 -0.18620278743E+04  0.18620278743E+04  0.50400001928E-02 0. -1.
    10030    2    1    2    0    0  0.00000000000E+00  0.00000000000E+00 -0.67807444305E+03  0.30459813055E+04  0.29695483096E+04 0.  0.
        3    1    3    3  502    0  0.72824097885E+03  0.59758460610E+03 -0.15162316318E+04  0.17850492027E+04  0.10100000352E+00 0. -1.
       -3    1    3    3    0  502 -0.72824097885E+03 -0.59758460610E+03  0.83815718871E+03  0.12609321028E+04  0.10100000352E+00 0.  1.
</event>
<event>
 5   0  0.6261598E-07  0.2015769E+04  0.7818609E-02  0.8599283E-01
       -1   -1    0    0    0  501  0.00000000000E+00  0.00000000000E+00  0.87492535330E+03  0.87492535332E+03  0.50400001928E-02 0.  1.
        1   -1    0    0  501    0  0.00000000000E+00  0.00000000000E+00 -0.11610495280E+04  0.11610495280E+04  0.50400001928E-02 0. -1.
    10030    2    1    2    0    0  0.00000000000E+00  0.00000000000E+00 -0.28612417466E+03  0.20359748813E+04  0.20157694992E+04 0.  0.
        1    1    3    3  502    0 -0.68053692287E+03  0.47148679915E+02  0.60631704523E+03  0.91267401670E+03  0.50400001928E-02 0.  1.
       -1    1    3    3    0  502  0.68053692287E+03 -0.47148679915E+02 -0.89244121989E+03  0.11233008646E+04  0.50400001928E-02 0. -1.
</event>
<event>
 5   0  0.1184684E-06  0.2456966E+04  0.7818609E-02  0.8418479E-01
        2   -1    0    0  501    0  0.00000000000E+00  0.00000000000E+00  0.12005709111E+04  0.12005709111E+04  0.25500000920E-02 0. -1.
       -2   -1    0    0    0  501  0.00000000000E+00  0.00000000000E+00 -0.12570438429E+04  0.12570438429E+04  0.25500000920E-02 0.  1.
    10030    2    1    2    0    0  0.00000000000E+00  0.00000000000E+00 -0.56472931796E+02  0.24576147539E+04  0.24569658294E+04 0.  0.
        4    1    3    3  502    0  0.11967586211E+04 -0.13019266384E+03 -0.27322426847E+03  0.12344368921E+04  0.12699999809E+01 0.  1.
       -4    1    3    3    0  502 -0.11967586211E+04  0.13019266384E+03  0.21675133667E+03  0.12231778618E+04  0.12699999809E+01 0. -1.
</event>
<event>
 5   0  0.5875011E-07  0.2294787E+04  0.7818609E-02  0.8479979E-01
       -1   -1    0    0    0  501  0.00000000000E+00  0.00000000000E+00  0.10353733645E+04  0.10353733645E+04  0.50400001928E-02 0.  1.
        1   -1    0    0  501    0  0.00000000000E+00  0.00000000000E+00 -0.12715338239E+04  0.12715338239E+04  0.50400001928E-02 0. -1.
    10030    2    1    2    0    0  0.00000000000E+00  0.00000000000E+00 -0.23616045936E+03  0.23069071884E+04  0.22947873569E+04 0.  0.
        2    1    3    3  502    0 -0.22695755721E+03  0.27894318970E+03 -0.12134187910E+04  0.12655845282E+04  0.25500000920E-02 0. -1.
       -2    1    3    3    0  502  0.22695755721E+03 -0.27894318970E+03  0.97725833160E+03  0.10413226602E+04  0.25500000920E-02 0.  1.
</event>
<event>
 5   0  0.1724503E-06  0.3594841E+04  0.7818609E-02  0.8091674E-01
       -2   -1    0    0    0  501  0.00000000000E+00  0.00000000000E+00  0.13153063217E+04  0.13153063217E+04  0.25500000920E-02 0.  1.
        2   -1    0    0  501    0  0.00000000000E+00  0.00000000000E+00 -0.24562492753E+04  0.24562492753E+04  0.25500000920E-02 0. -1.
    10030    2    1    2    0    0  0.00000000000E+00  0.00000000000E+00 -0.11409429536E+04  0.37715555969E+04  0.35948408584E+04 0.  0.
        1    1    3    3  502    0  0.30335152681E+03  0.12725666158E+04 -0.18636504929E+04  0.22769806982E+04  0.50400001928E-02 0. -1.
       -1    1    3    3    0  502 -0.30335152681E+03 -0.12725666158E+04  0.72270753929E+03  0.14945748987E+04  0.50400001928E-02 0.  1.
</event>
<event>
 5   0  0.1724503E-06  0.2509693E+04  0.7818609E-02  0.8399541E-01
        2   -1    0    0  501    0  0.00000000000E+00  0.00000000000E+00  0.13535471613E+04  0.13535471613E+04  0.25500000920E-02 0.  1.
       -2   -1    0    0    0  501  0.00000000000E+00  0.00000000000E+00 -0.11633429163E+04  0.11633429163E+04  0.25500000920E-02 0. -1.
    10030    2    1    2    0    0  0.00000000000E+00  0.00000000000E+00  0.19020424494E+03  0.25168900776E+04  0.25096928115E+04 0.  0.
        1    1    3    3  502    0  0.58086947673E+02 -0.95870563583E+03  0.90497539955E+03  0.13196480832E+04  0.50400001928E-02 0.  1.
       -1    1    3    3    0  502 -0.58086947673E+02  0.95870563583E+03 -0.71477115461E+03  0.11972419944E+04  0.50400001928E-02 0. -1.
</event>
<event>
 5   0  0.1724503E-06  0.3669379E+04  0.7818609E-02  0.8074782E-01
       -2   -1    0    0    0  501  0.00000000000E+00  0.00000000000E+00  0.32012491626E+04  0.32012491626E+04  0.25500000920E-02 0.  1.
        2   -1    0    0  501    0  0.00000000000E+00  0.00000000000E+00 -0.10514911859E+04  0.10514911859E+04  0.25500000920E-02 0. -1.
    10030    2    1    2    0    0  0.00000000000E+00  0.00000000000E+00  0.21497579768E+04  0.42527403485E+04  0.36693788457E+04 0.  0.
        1    1    3    3  502    0  0.66766567716E+03  0.12700461443E+04 -0.25026291121E+03  0.14565116511E+04  0.50400001928E-02 0. -1.
       -1    1    3    3    0  502 -0.66766567716E+03 -0.12700461443E+04  0.24000208880E+04  0.27962286974E+04  0.50400001928E-02 0.  1.
</event>
<event>
 5   0  0.1151180E-06  0.2226677E+04  0.7818609E-02  0.8507406E-01
        2   -1    0    0  501    0  0.00000000000E+00  0.00000000000E+00  0.61893040017E+03  0.61893040018E+03  0.25500000920E-02 0. -1.
       -2   -1    0    0    0  501  0.00000000000E+00  0.00000000000E+00 -0.20026857989E+04  0.20026857989E+04  0.25500000920E-02 0.  1.
    10030    2    1    2    0    0  0.00000000000E+00  0.00000000000E+00 -0.13837553987E+04  0.26216161991E+04  0.22266774557E+04 0.  0.
        5    1    3    3  502    0 -0.56238705073E+03 -0.50142957199E+03  0.27312524656E+03  0.80145511466E+03  0.46999998093E+01 0. -1.
       -5    1    3    3    0  502  0.56238705073E+03  0.50142957199E+03 -0.16568806453E+04  0.18201610844E+04  0.46999998093E+01 0.  1.
</event>
<event>
 5   0  0.1685793E-06  0.3261694E+04  0.7818609E-02  0.8172711E-01
        2   -1    0    0  501    0  0.00000000000E+00  0.00000000000E+00  0.12748676918E+04  0.12748676918E+04  0.25500000920E-02 0. -1.
       -2   -1    0    0    0  501  0.00000000000E+00  0.00000000000E+00 -0.20862260820E+04  0.20862260820E+04  0.25500000920E-02 0.  1.
    10030    2    1    2    0    0  0.00000000000E+00  0.00000000000E+00 -0.81135839021E+03  0.33610937737E+04  0.32616941792E+04 0.  0.
        3    1    3    3  502    0  0.12691375644E+04  0.81197667107E+03 -0.10489183501E+04  0.18358229727E+04  0.10100000352E+00 0.  1.
       -3    1    3    3    0  502 -0.12691375644E+04 -0.81197667107E+03  0.23755995993E+03  0.15252708010E+04  0.10100000352E+00 0. -1.
</event>
<event>
 5   0  0.1685793E-06  0.3300849E+04  0.7818609E-02  0.8162679E-01
        2   -1    0    0  501    0  0.00000000000E+00  0.00000000000E+00  0.14708592174E+04  0.14708592174E+04  0.25500000920E-02 0.  1.
       -2   -1    0    0    0  501  0.00000000000E+00  0.00000000000E+00 -0.18519110059E+04  0.18519110059E+04  0.25500000920E-02 0. -1.
    10030    2    1    2    0    0  0.00000000000E+00  0.00000000000E+00 -0.38105178853E+03  0.33227702234E+04  0.33008486018E+04 0.  0.
        3    1    3    3  502    0 -0.12384515503E+04  0.69125906132E+03 -0.10401090266E+04  0.17588144102E+04  0.10100000352E+00 0. -1.
       -3    1    3    3    0  502  0.12384515503E+04 -0.69125906132E+03  0.65905723807E+03  0.15639558131E+04  0.10100000352E+00 0.  1.
</event>
<event>
 5   0  0.1184684E-06  0.3629004E+04  0.7818609E-02  0.8083880E-01
       -2   -1    0    0    0  501  0.00000000000E+00  0.00000000000E+00  0.16376810762E+04  0.16376810762E+04  0.25500000920E-02 0.  1.
        2   -1    0    0  501    0  0.00000000000E+00  0.00000000000E+00 -0.20104141017E+04  0.20104141017E+04  0.25500000920E-02 0. -1.
    10030    2    1    2    0    0  0.00000000000E+00  0.00000000000E+00 -0.37273302550E+03  0.36480951779E+04  0.36290037915E+04 0.  0.
        4    1    3    3  502    0  0.11797054274E+04  0.13333698442E+04  0.16595620888E+03  0.17880500868E+04  0.12699999809E+01 0.  1.
       -4    1    3    3    0  502 -0.11797054274E+04 -0.13333698442E+04 -0.53868923438E+03  0.18600450911E+04  0.12699999809E+01 0. -1.
</event>
<event>
 5   0  0.1184684E-06  0.3444972E+04  0.7818609E-02  0.8126956E-01
        2   -1    0    0  501    0  0.00000000000E+00  0.00000000000E+00  0.23242345552E+04  0.23242345552E+04  0.25500000920E-02 0.  1.
       -2   -1    0    0    0  501  0.00000000000E+00  0.00000000000E+00 -0.12765309566E+04  0.12765309566E+04  0.25500000920E-02 0. -1.
    10030    2    1    2    0    0  0.00000000000E+00  0.00000000000E+00  0.10477035986E+04  0.36007655118E+04  0.34449716168E+04 0.  0.
        4    1    3    3  502    0 -0.77643065543E+03  0.29100828725E+03  0.21019058711E+04  0.22595442660E+04  0.12699999809E+01 0.  1.
       -4    1    3    3    0  502  0.77643065543E+03 -0.29100828725E+03 -0.10542022726E+04  0.13412212459E+04  0.12699999809E+01 0. -1.
</event>
<event>
 5   0  0.1151180E-06  0.3672896E+04  0.7818609E-02  0.8073995E-01
        2   -1    0    0  501    0  0.00000000000E+00  0.00000000000E+00  0.10851964470E+04  0.10851964470E+04  0.25500000920E-02 0. -1.
       -2   -1    0    0    0  501  0.00000000000E+00  0.00000000000E+00 -0.31077696583E+04  0.31077696583E+04  0.25500000920E-02 0.  1.
    10030    2    1    2    0    0  0.00000000000E+00  0.00000000000E+00 -0.20225732113E+04  0.41929661053E+04  0.36728956376E+04 0.  0.
        5    1    3    3  502    0 -0.91641587483E+03 -0.18396924144E+03 -0.28158965981E+04  0.29669780044E+04  0.46999998093E+01 0.  1.
       -5    1    3    3    0  502  0.91641587483E+03  0.18396924144E+03  0.79332338682E+03  0.12259881009E+04  0.46999998093E+01 0. -1.
</event>
<event>
 5   0  0.1724503E-06  0.1866015E+04  0.7818609E-02  0.8671960E-01
       -2   -1    0    0    0  501  0.00000000000E+00  0.00000000000E+00  0.42482798767E+03  0.42482798768E+03  0.25500000920E-02 0.  1.
        2   -1    0    0  501    0  0.00000000000E+00  0.00000000000E+00 -0.20490727068E+04  0.20490727068E+04  0.25500000920E-02 0. -1.
    10030    2    1    2    0    0  0.00000000000E+00  0.00000000000E+00 -0.16242447192E+04  0.24739006945E+04  0.18660154712E+04 0.  0.
        1    1    3    3  502    0  0.11360873198E+03  0.37968965187E+03  0.30768519668E+03  0.50173833420E+03  0.50400001928E-02 0.  1.
       -1    1    3    3    0  502 -0.11360873198E+03 -0.37968965187E+03 -0.19319299159E+04  0.19721623603E+04  0.50400001928E-02 0. -1.
</event>
<event>
 5   0  0.5875011E-07  0.2344165E+04  0.7818609E-02  0.8460708E-01
        1   -1    0    0  501    0  0.00000000000E+00  0.00000000000E+00  0.12025094806E+04  0.12025094806E+04  0.50400001928E-02 0. -1.
       -1   -1    0    0    0  501  0.00000000000E+00  0.00000000000E+00 -0.11424258628E+04  0.11424258628E+04  0.50400001928E-02 0.  1.
    10030    2    1    2    0    0  0.00000000000E+00  0.00000000000E+00  0.60083617795E+02  0.23449353433E+04  0.23441654642E+04 0.  0.
        2    1    3    3  502    0 -0.78351578666E+03 -0.49197972446E+03 -0.68980337525E+03  0.11540232813E+04  0.25500000920E-02 0.  1.
       -2    1    3    3    0  502  0.78351578666E+03  0.49197972446E+03  0.74988699305E+03  0.11909120621E+04  0.25500000920E-02 0. -1.
</event>
<event>
 5   0  0.1184684E-06  0.3689366E+04  0.7818609E-02  0.8070323E-01
       -2   -1    0    0    0  501  0.00000000000E+00  0.00000000000E+00  0.15253189801E+04  0.15253189801E+04  0.25500000920E-02 0.  1.
        2   -1    0    0  501    0  0.00000000000E+00  0.00000000000E+00 -0.22309134744E+04  0.22309134744E+04  0.25500000920E-02 0. -1.
    10030    2    1    2    0    0  0.00000000000E+00  0.00000000000E+00 -0.70559449431E+03  0.37562324545E+04  0.36893656178E+04 0.  0.
        4    1    3    3  502    0 -0.28921303119E+03  0.18531862571E+03  0.14924713282E+04  0.15314892911E+04  0.12699999809E+01 0.  1.
       -4    1    3    3    0  502  0.28921303119E+03 -0.18531862571E+03 -0.21980658225E+04  0.22247431634E+04  0.12699999809E+01 0. -1.
</event>
<event>
 5   0  0.1680194E-06  0.2762144E+04  0.7818609E-02  0.8315119E-01
        2   -1    0    0  501    0  0.00000000000E+00  0.00000000000E+00  0.19981520950E+04  0.19981520950E+04  0.25500000920E-02 0. -1.
       -2   -1    0    0    0  501  0.00000000000E+00  0.00000000000E+00 -0.95456157603E+03  0.95456157604E+03  0.25500000920E-02 0.  1.
    10030    2    1    2    0    0  0.00000000000E+00  0.00000000000E+00  0.10435905189E+04  0.29527136710E+04  0.27621435248E+04 0.  0.
        2    1    3    3  502    0  0.98425790875E+03 -0.92670104276E+03  0.21977712481E+03  0.13696132440E+04  0.25500000920E-02 0. -1.
       -2    1    3    3    0  502 -0.98425790875E+03  0.92670104276E+03  0.82381339412E+03  0.15831004270E+04  0.25500000920E-02 0.  1.
</event>
<event>
 5   0  0.5875011E-07  0.2003955E+04  0.7818609E-02  0.8604774E-01
       -1   -1    0    0    0  501  0.00000000000E+00  0.00000000000E+00  0.74129857841E+03  0.74129857843E+03  0.50400001928E-02 0.  1.
        1   -1    0    0  501    0  0.00000000000E+00  0.00000000000E+00 -0.13543243601E+04  0.13543243601E+04  0.50400001928E-02 0. -1.
    10030    2    1    2    0    0  0.00000000000E+00  0.00000000000E+00 -0.61302578170E+03  0.20956229386E+04  0.20039548128E+04 0.  0.
        2    1    3    3  502    0  0.94933320878E+03  0.16753222104E+03 -0.20777659842E+02  0.96422626885E+03  0.25500000920E-02 0.  1.
       -2    1    3    3    0  502 -0.94933320878E+03 -0.16753222104E+03 -0.59224812186E+03  0.11313966697E+04  0.25500000920E-02 0. -1.
</event>
<event>
 5   0  0.1151180E-06  0.3674659E+04  0.7818609E-02  0.8073601E-01
       -2   -1    0    0    0  501  0.00000000000E+00  0.00000000000E+00  0.12022511544E+04  0.12022511544E+04  0.25500000920E-02 0. -1.
        2   -1    0    0  501    0  0.00000000000E+00  0.00000000000E+00 -0.28078817036E+04  0.28078817036E+04  0.25500000920E-02 0.  1.
    10030    2    1    2    0    0  0.00000000000E+00  0.00000000000E+00 -0.16056305492E+04  0.40101328581E+04  0.36746586343E+04 0.  0.
        5    1    3    3  502    0  0.86933266991E+03 -0.36188004133E+03  0.91889267589E+03  0.13157060063E+04  0.46999998093E+01 0. -1.
       -5    1    3    3    0  502 -0.86933266991E+03  0.36188004133E+03 -0.25245232251E+04  0.26944268517E+04  0.46999998093E+01 0.  1.
</event>
<event>
 5   0  0.1184684E-06  0.3663458E+04  0.7818609E-02  0.8076109E-01
        2   -1    0    0  501    0  0.00000000000E+00  0.00000000000E+00  0.93140862655E+03  0.93140862655E+03  0.25500000920E-02 0.  1.
       -2   -1    0    0    0  501  0.00000000000E+00  0.00000000000E+00 -0.36023190985E+04  0.36023190985E+04  0.25500000920E-02 0. -1.
    10030    2    1    2    0    0  0.00000000000E+00  0.00000000000E+00 -0.26709104719E+04  0.45337277250E+04  0.36634579751E+04 0.  0.
        4    1    3    3  502    0 -0.43535734145E+03 -0.17531334012E+04 -0.95964458114E+03  0.20454662237E+04  0.12699999809E+01 0. -1.
       -4    1    3    3    0  502  0.43535734145E+03  0.17531334012E+04 -0.17112658908E+04  0.24882615014E+04  0.12699999809E+01 0.  1.
</event>
<event>
 5   0  0.1184684E-06  0.3674867E+04  0.7818609E-02  0.8073554E-01
        2   -1    0    0  501    0  0.00000000000E+00  0.00000000000E+00  0.19207734877E+04  0.19207734877E+04  0.25500000920E-02 0.  1.
       -2   -1    0    0    0  501  0.00000000000E+00  0.00000000000E+00 -0.17577098018E+04  0.17577098018E+04  0.25500000920E-02 0. -1.
    10030    2    1    2    0    0  0.00000000000E+00  0.00000000000E+00  0.16306368585E+03  0.36784832895E+04  0.36748672827E+04 0.  0.
        4    1    3    3  502    0 -0.99015689050E+03 -0.14912521386E+04 -0.33350509329E+03  0.18208434498E+04  0.12699999809E+01 0. -1.
       -4    1    3    3    0  502  0.99015689050E+03  0.14912521386E+04  0.49656877914E+03  0.18576398397E+04  0.12699999809E+01 0.  1.
</event>
<event>
 5   0  0.6337797E-07  0.2130787E+04  0.7818609E-02  0.8547802E-01
        1   -1    0    0  501    0  0.00000000000E+00  0.00000000000E+00  0.11442550558E+04  0.11442550558E+04  0.50400001928E-02 0.  1.
       -1   -1    0    0    0  501  0.00000000000E+00  0.00000000000E+00 -0.99196679514E+03  0.99196679516E+03  0.50400001928E-02 0. -1.
    10030    2    1    2    0    0  0.00000000000E+00  0.00000000000E+00  0.15228826066E+03  0.21362218510E+04  0.21307867285E+04 0.  0.
        2    1    3    3  502    0 -0.61351521512E+03  0.44479342346E+03 -0.67464585242E+03  0.10145881603E+04  0.25500000920E-02 0. -1.
       -2    1    3    3    0  502  0.61351521512E+03 -0.44479342346E+03  0.82693411309E+03  0.11216336907E+04  0.25500000920E-02 0.  1.
</event>
<event>
 5   0  0.1151180E-06  0.3650650E+04  0.7818609E-02  0.8078987E-01
       -2   -1    0    0    0  501  0.00000000000E+00  0.00000000000E+00  0.22945368592E+04  0.22945368593E+04  0.25500000920E-02 0. -1.
        2   -1    0    0  501    0  0.00000000000E+00  0.00000000000E+00 -0.14520626878E+04  0.14520626878E+04  0.25500000920E-02 0.  1.
    10030    2    1    2    0    0  0.00000000000E+00  0.00000000000E+00  0.84247417145E+03  0.37465995470E+04  0.36506500019E+04 0.  0.
        5    1    3    3  502    0  0.63127322271E+03  0.20625618169E+02  0.21788069376E+04  0.22685134029E+04  0.46999998093E+01 0. -1.
       -5    1    3    3    0  502 -0.63127322271E+03 -0.20625618169E+02 -0.13363327661E+04  0.14780861442E+04  0.46999998093E+01 0.  1.
</event>
<event>
 5   0  0.1151180E-06  0.3754793E+04  0.7818609E-02  0.8055926E-01
       -2   -1    0    0    0  501  0.00000000000E+00  0.00000000000E+00  0.24860270619E+04  0.24860270619E+04  0.25500000920E-02 0.  1.
        2   -1    0    0  501    0  0.00000000000E+00  0.00000000000E+00 -0.14177709919E+04  0.14177709919E+04  0.25500000920E-02 0. -1.
    10030    2    1    2    0    0  0.00000000000E+00  0.00000000000E+00  0.10682560700E+04  0.39037980538E+04  0.37547926992E+04 0.  0.
        5    1    3    3  502    0 -0.28045621842E+03  0.13052497299E+04  0.19064567871E+04  0.23274303682E+04  0.46999998093E+01 0.  1.
       -5    1    3    3    0  502  0.28045621842E+03 -0.13052497299E+04 -0.83820071708E+03  0.15763676855E+04  0.46999998093E+01 0. -1.
</event>
<event>
 5   0  0.1151180E-06  0.3597625E+04  0.7818609E-02  0.8091036E-01
        2   -1    0    0  501    0  0.00000000000E+00  0.00000000000E+00  0.16016954275E+04  0.16016954275E+04  0.25500000920E-02 0. -1.
       -2   -1    0    0    0  501  0.00000000000E+00  0.00000000000E+00 -0.20201879858E+04  0.20201879858E+04  0.25500000920E-02 0.  1.
    10030    2    1    2    0    0  0.00000000000E+00  0.00000000000E+00 -0.41849255825E+03  0.36218834133E+04  0.35976246939E+04 0.  0.
        5    1    3    3  502    0 -0.13804410394E+04  0.11272208757E+04 -0.45473349773E+03  0.18393066655E+04  0.46999998093E+01 0. -1.
       -5    1    3    3    0  502  0.13804410394E+04 -0.11272208757E+04  0.36240939480E+02  0.17825767477E+04  0.46999998093E+01 0.  1.
</event>
<event>
 5   0  0.6186440E-07  0.3777057E+04  0.7818609E-02  0.8051096E-01
       -1   -1    0    0    0  501  0.00000000000E+00  0.00000000000E+00  0.25070635146E+04  0.25070635146E+04  0.50400001928E-02 0. -1.
        1   -1    0    0  501    0  0.00000000000E+00  0.00000000000E+00 -0.14225965627E+04  0.14225965627E+04  0.50400001928E-02 0.  1.
    10030    2    1    2    0    0  0.00000000000E+00  0.00000000000E+00  0.10844669519E+04  0.39296600774E+04  0.37770570229E+04 0.  0.
        3    1    3    3  502    0 -0.96321397946E+03 -0.12155294351E+04 -0.57891656345E+03  0.16554266445E+04  0.10100000352E+00 0.  1.
       -3    1    3    3    0  502  0.96321397946E+03  0.12155294351E+04  0.16633835154E+04  0.22742334329E+04  0.10100000352E+00 0. -1.
</event>
<event>
 5   0  0.1680194E-06  0.2262944E+04  0.7818609E-02  0.8492677E-01
        2   -1    0    0  501    0  0.00000000000E+00  0.00000000000E+00  0.14071502925E+04  0.14071502925E+04  0.25500000920E-02 0.  1.
       -2   -1    0    0    0  501  0.00000000000E+00  0.00000000000E+00 -0.90980254008E+03  0.90980254008E+03  0.25500000920E-02 0. -1.
    10030    2    1    2    0    0  0.00000000000E+00  0.00000000000E+00  0.49734775242E+03  0.23169528326E+04  0.22629440209E+04 0.  0.
        2    1    3    3  502    0  0.46350752613E+03 -0.46054515351E+03 -0.69710837909E+03  0.95545861104E+03  0.25500000920E-02 0.  1.
       -2    1    3    3    0  502 -0.46350752613E+03  0.46054515351E+03  0.11944561315E+04  0.13614942216E+04  0.25500000920E-02 0. -1.
</event>
<event>
 5   0  0.5875011E-07  0.3633985E+04  0.7818609E-02  0.8082751E-01
       -1   -1    0    0    0  501  0.00000000000E+00  0.00000000000E+00  0.14244446643E+04  0.14244446643E+04  0.50400001928E-02 0. -1.
        1   -1    0    0  501    0  0.00000000000E+00  0.00000000000E+00 -0.23177186571E+04  0.23177186571E+04  0.50400001928E-02 0.  1.
    10030    2    1    2    0    0  0.00000000000E+00  0.00000000000E+00 -0.89327399286E+03  0.37421633214E+04  0.36339851262E+04 0.  0.
        2    1    3    3  502    0 -0.11396054997E+04 -0.17807632361E+03 -0.18923710949E+04  0.22161859653E+04  0.25500000920E-02 0.  1.
       -2    1    3    3    0  502  0.11396054997E+04  0.17807632361E+03  0.99909710203E+03  0.15259773561E+04  0.25500000920E-02 0. -1.
</event>
<event>
 5   0  0.1724503E-06  0.3794988E+04  0.7818609E-02  0.8047231E-01
       -2   -1    0    0    0  501  0.00000000000E+00  0.00000000000E+00  0.15117118995E+04  0.15117118995E+04  0.25500000920E-02 0.  1.
        2   -1    0    0  501    0  0.00000000000E+00  0.00000000000E+00 -0.23817256019E+04  0.23817256019E+04  0.25500000920E-02 0. -1.
    10030    2    1    2    0    0  0.00000000000E+00  0.00000000000E+00 -0.87001370241E+03  0.38934375015E+04  0.37949877122E+04 0.  0.
        1    1    3    3  502    0  0.14286652589E+04 -0.44462598472E+02  0.84533496238E+03  0.16606181208E+04  0.50400001928E-02 0.  1.
       -1    1    3    3    0  502 -0.14286652589E+04  0.44462598472E+02 -0.17153486648E+04  0.22328193806E+04  0.50400001928E-02 0. -1.
</event>
<event>
 5   0  0.1151180E-06  0.3700640E+04  0.7818609E-02  0.8067820E-01
        2   -1    0    0  501    0  0.00000000000E+00  0.00000000000E+00  0.13109252244E+04  0.13109252244E+04  0.25500000920E-02 0.  1.
       -2   -1    0    0    0  501  0.00000000000E+00  0.00000000000E+00 -0.26116548970E+04  0.26116548970E+04  0.25500000920E-02 0. -1.
    10030    2    1    2    0    0  0.00000000000E+00  0.00000000000E+00 -0.13007296727E+04  0.39225801214E+04  0.37006400970E+04 0.  0.
        5    1    3    3  502    0  0.14184571559E+04 -0.60708323793E+03  0.43220559729E+03  0.16023091241E+04  0.46999998093E+01 0.  1.
       -5    1    3    3    0  502 -0.14184571559E+04  0.60708323793E+03 -0.17329352700E+04  0.23202709973E+04  0.46999998093E+01 0. -1.
</event>
<event>
 5   0  0.5679750E-07  0.3714487E+04  0.7818609E-02  0.8064759E-01
       -3   -1    0    0    0  501  0.00000000000E+00  0.00000000000E+00  0.14276854523E+04  0.14276854558E+04  0.10100000352E+00 0. -1.
        3   -1    0    0  501    0  0.00000000000E+00  0.00000000000E+00 -0.24160454712E+04  0.24160454733E+04  0.10100000352E+00 0.  1.
    10030    2    1    2    0    0  0.00000000000E+00  0.00000000000E+00 -0.98836001893E+03  0.38437309292E+04  0.37144867652E+04 0.  0.
        4    1    3    3  502    0 -0.11574039286E+04 -0.70677778157E+03 -0.18072820666E+04  0.22595107363E+04  0.12699999809E+01 0.  1.
       -4    1    3    3    0  502  0.11574039286E+04  0.70677778157E+03  0.81892204763E+03  0.15842201929E+04  0.12699999809E+01 0. -1.
</event>
<event>
 5   0  0.1680194E-06  0.3735136E+04  0.7818609E-02  0.8060219E-01
       -2   -1    0    0    0  501  0.00000000000E+00  0.00000000000E+00  0.13900477568E+04  0.13900477568E+04  0.25500000920E-02 0.  1.
        2   -1    0    0  501    0  0.00000000000E+00  0.00000000000E+00 -0.25091303440E+04  0.25091303440E+04  0.25500000920E-02 0. -1.
    10030    2    1    2    0    0  0.00000000000E+00  0.00000000000E+00 -0.11190825872E+04  0.38991781008E+04  0.37351364132E+04 0.  0.
        2    1    3    3  502    0  0.17617414442E+04  0.40633484184E+03 -0.71047556659E+02  0.18093890337E+04  0.25500000920E-02 0.  1.
       -2    1    3    3    0  502 -0.17617414442E+04 -0.40633484184E+03 -0.10480350305E+04  0.20897890671E+04  0.25500000920E-02 0. -1.
</event>
<event>
 5   0  0.6261598E-07  0.3623476E+04  0.7818609E-02  0.8085135E-01
        1   -1    0    0  501    0  0.00000000000E+00  0.00000000000E+00  0.22259903243E+04  0.22259903243E+04  0.50400001928E-02 0.  1.
       -1   -1    0    0    0  501  0.00000000000E+00  0.00000000000E+00 -0.14745768839E+04  0.14745768839E+04  0.50400001928E-02 0. -1.
    10030    2    1    2    0    0  0.00000000000E+00  0.00000000000E+00  0.75141344040E+03  0.37005672082E+04  0.36234756111E+04 0.  0.
        1    1    3    3  502    0  0.16430689381E+04 -0.24342330572E+03 -0.36319406630E+03  0.17002471500E+04  0.50400001928E-02 0. -1.
       -1    1    3    3    0  502 -0.16430689381E+04  0.24342330572E+03  0.11146075067E+04  0.20003200582E+04  0.50400001928E-02 0.  1.
</event>
<event>
 5   0  0.1680194E-06  0.3501091E+04  0.7818609E-02  0.8113531E-01
        2   -1    0    0  501    0  0.00000000000E+00  0.00000000000E+00  0.17306305406E+04  0.17306305406E+04  0.25500000920E-02 0.  1.
       -2   -1    0    0    0  501  0.00000000000E+00  0.00000000000E+00 -0.17706898205E+04  0.17706898205E+04  0.25500000920E-02 0. -1.
    10030    2    1    2    0    0  0.00000000000E+00  0.00000000000E+00 -0.40059279961E+02  0.35013203611E+04  0.35010911906E+04 0.  0.
        2    1    3    3  502    0 -0.57814788521E+03 -0.63728872473E+03  0.15045431662E+04  0.17332172497E+04  0.25500000920E-02 0.  1.
       -2    1    3    3    0  502  0.57814788521E+03  0.63728872473E+03 -0.15446024461E+04  0.17681031114E+04  0.25500000920E-02 0. -1.
</event>
<event>
 5   0  0.6186440E-07  0.1842368E+04  0.7818609E-02  0.8684087E-01
       -1   -1    0    0    0  501  0.00000000000E+00  0.00000000000E+00  0.38290930258E+03  0.38290930261E+03  0.50400001928E-02 0. -1.
        1   -1    0    0  501    0  0.00000000000E+00  0.00000000000E+00 -0.22161390236E+04  0.22161390236E+04  0.50400001928E-02 0.  1.
    10030    2    1    2    0    0  0.00000000000E+00  0.00000000000E+00 -0.18332297210E+04  0.25990483262E+04  0.18423683106E+04 0.  0.
        3    1    3    3  502    0 -0.72236954698E+03  0.23089235850E+03 -0.16543115116E+04  0.18198559369E+04  0.10100000352E+00 0.  1.
       -3    1    3    3    0  502  0.72236954698E+03 -0.23089235850E+03 -0.17891820940E+03  0.77919238925E+03  0.10100000352E+00 0. -1.
</event>
<event>
 5   0  0.5875011E-07  0.3395271E+04  0.7818609E-02  0.8139068E-01
       -1   -1    0    0    0  501  0.00000000000E+00  0.00000000000E+00  0.20930574322E+04  0.20930574322E+04  0.50400001928E-02 0. -1.
        1   -1    0    0  501    0  0.00000000000E+00  0.00000000000E+00 -0.13769171849E+04  0.13769171849E+04  0.50400001928E-02 0.  1.
    10030    2    1    2    0    0  0.00000000000E+00  0.00000000000E+00  0.71614024737E+03  0.34699746171E+04  0.33952712689E+04 0.  0.
        2    1    3    3  502    0  0.17328723875E+03 -0.16830717167E+04  0.49971194416E+03  0.17642196285E+04  0.25500000920E-02 0. -1.
       -2    1    3    3    0  502 -0.17328723875E+03  0.16830717167E+04  0.21642830320E+03  0.17057549886E+04  0.25500000920E-02 0.  1.
</event>
<event>
 5   0  0.1685793E-06  0.2669194E+04  0.7818609E-02  0.8345070E-01
        2   -1    0    0  501    0  0.00000000000E+00  0.00000000000E+00  0.15864553758E+04  0.15864553758E+04  0.25500000920E-02 0.  1.
       -2   -1    0    0    0  501  0.00000000000E+00  0.00000000000E+00 -0.11227227259E+04  0.11227227259E+04  0.25500000920E-02 0. -1.
    10030    2    1    2    0    0  0.00000000000E+00  0.00000000000E+00  0.46373264985E+03  0.27091781017E+04  0.26691942635E+04 0.  0.
        3    1    3    3  502    0 -0.67524084796E+03  0.95134031429E+03 -0.42603387980E+03  0.12419756331E+04  0.10100000352E+00 0. -1.
       -3    1    3    3    0  502  0.67524084796E+03 -0.95134031429E+03  0.88976652965E+03  0.14672024686E+04  0.10100000352E+00 0.  1.
</event>
<event>
 5   0  0.6261598E-07  0.3698281E+04  0.7818609E-02  0.8068343E-01
       -1   -1    0    0    0  501  0.00000000000E+00  0.00000000000E+00  0.17712316755E+04  0.17712316755E+04  0.50400001928E-02 0. -1.
        1   -1    0    0  501    0  0.00000000000E+00  0.00000000000E+00 -0.19304763634E+04  0.19304763634E+04  0.50400001928E-02 0.  1.
    10030    2    1    2    0    0  0.00000000000E+00  0.00000000000E+00 -0.15924468793E+03  0.37017080389E+04  0.36982811595E+04 0.  0.
        1    1    3    3  502    0  0.14416608316E+04 -0.79006184894E+03  0.76776546462E+03  0.18144000350E+04  0.50400001928E-02 0. -1.
       -1    1    3    3    0  502 -0.14416608316E+04  0.79006184894E+03 -0.92701015256E+03  0.18873080038E+04  0.50400001928E-02 0.  1.
</event>
<event>
 5   0  0.1151180E-06  0.3190428E+04  0.7818609E-02  0.8191350E-01
       -2   -1    0    0    0  501  0.00000000000E+00  0.00000000000E+00  0.97558385745E+03  0.97558385746E+03  0.25500000920E-02 0.  1.
        2   -1    0    0  501    0  0.00000000000E+00  0.00000000000E+00 -0.26083951731E+04  0.26083951731E+04  0.25500000920E-02 0. -1.
    10030    2    1    2    0    0  0.00000000000E+00  0.00000000000E+00 -0.16328113156E+04  0.35839790305E+04  0.31904283253E+04 0.  0.
        5    1    3    3  502    0 -0.10452609656E+04  0.70100884154E+03 -0.19174653700E+04  0.22936171035E+04  0.46999998093E+01 0. -1.
       -5    1    3    3    0  502  0.10452609656E+04 -0.70100884154E+03  0.28465405435E+03  0.12903619271E+04  0.46999998093E+01 0.  1.
</event>
<event>
 5   0  0.1151180E-06  0.3658615E+04  0.7818609E-02  0.8077196E-01
       -2   -1    0    0    0  501  0.00000000000E+00  0.00000000000E+00  0.13960909257E+04  0.13960909257E+04  0.25500000920E-02 0.  1.
        2   -1    0    0  501    0  0.00000000000E+00  0.00000000000E+00 -0.23969536982E+04  0.23969536982E+04  0.25500000920E-02 0. -1.
    10030    2    1    2    0    0  0.00000000000E+00  0.00000000000E+00 -0.10008627726E+04  0.37930446239E+04  0.36586146598E+04 0.  0.
        5    1    3    3  502    0 -0.31225345480E+03 -0.76450911637E+03 -0.21926960624E+04  0.23430566619E+04  0.46999998093E+01 0. -1.
       -5    1    3    3    0  502  0.31225345480E+03  0.76450911637E+03  0.11918332898E+04  0.14499879619E+04  0.46999998093E+01 0.  1.
</event>
<event>
 5   0  0.1184684E-06  0.3231058E+04  0.7818609E-02  0.8180663E-01
       -2   -1    0    0    0  501  0.00000000000E+00  0.00000000000E+00  0.12275530049E+04  0.12275530049E+04  0.25500000920E-02 0.  1.
        2   -1    0    0  501    0  0.00000000000E+00  0.00000000000E+00 -0.21261269414E+04  0.21261269414E+04  0.25500000920E-02 0. -1.
    10030    2    1    2    0    0  0.00000000000E+00  0.00000000000E+00 -0.89857393657E+03  0.33536799463E+04  0.32310577313E+04 0.  0.
        4    1    3    3  502    0 -0.98466915735E+02 -0.71409918472E+03  0.10513687000E+04  0.12747592461E+04  0.12699999809E+01 0.  1.
       -4    1    3    3    0  502  0.98466915735E+02  0.71409918472E+03 -0.19499426366E+04  0.20789207003E+04  0.12699999809E+01 0. -1.
</event>
<event>
 5   0  0.5875011E-07  0.3720034E+04  0.7818609E-02  0.8063536E-01
        1   -1    0    0  501    0  0.00000000000E+00  0.00000000000E+00  0.11132542698E+04  0.11132542698E+04  0.50400001928E-02 0.  1.
       -1   -1    0    0    0  501  0.00000000000E+00  0.00000000000E+00 -0.31077032567E+04  0.31077032567E+04  0.50400001928E-02 0. -1.
    10030    2    1    2    0    0  0.00000000000E+00  0.00000000000E+00 -0.19944489870E+04  0.42209575265E+04  0.37200343653E+04 0.  0.
        2    1    3    3  502    0  0.13147448385E+04 -0.98683417190E+03 -0.19846149004E+04  0.25770316211E+04  0.25500000920E-02 0. -1.
       -2    1    3    3    0  502 -0.13147448385E+04  0.98683417190E+03 -0.98340865714E+01  0.16439259054E+04  0.25500000920E-02 0.  1.
</event>
<event>
 5   0  0.5679750E-07  0.3698888E+04  0.7818609E-02  0.8068208E-01
       -1   -1    0    0    0  501  0.00000000000E+00  0.00000000000E+00  0.15438270605E+04  0.15438270605E+04  0.50400001928E-02 0. -1.
        1   -1    0    0  501    0  0.00000000000E+00  0.00000000000E+00 -0.22155611256E+04  0.22155611256E+04  0.50400001928E-02 0.  1.
    10030    2    1    2    0    0  0.00000000000E+00  0.00000000000E+00 -0.67173406505E+03  0.37593881861E+04  0.36988880599E+04 0.  0.
        4    1    3    3  502    0  0.87069886946E+03 -0.23821380234E+03 -0.19764497382E+04  0.21728362841E+04  0.12699999809E+01 0.  1.
       -4    1    3    3    0  502 -0.87069886946E+03  0.23821380234E+03  0.13047156732E+04  0.15865519020E+04  0.12699999809E+01 0. -1.
</event>
<event>
 5   0  0.1685793E-06  0.3113385E+04  0.7818609E-02  0.8212074E-01
       -2   -1    0    0    0  501  0.00000000000E+00  0.00000000000E+00  0.15478824800E+04  0.15478824800E+04  0.25500000920E-02 0.  1.
        2   -1    0    0  501    0  0.00000000000E+00  0.00000000000E+00 -0.15655524798E+04  0.15655524798E+04  0.25500000920E-02 0. -1.
    10030    2    1    2    0    0  0.00000000000E+00  0.00000000000E+00 -0.17669999784E+02  0.31134349598E+04  0.31133848172E+04 0.  0.
        3    1    3    3  502    0  0.13224949799E+04  0.76086206132E+03  0.30001815150E+03  0.15549646136E+04  0.10100000352E+00 0. -1.
       -3    1    3    3    0  502 -0.13224949799E+04 -0.76086206132E+03 -0.31768815128E+03  0.15584703462E+04  0.10100000352E+00 0.  1.
</event>
<event>
 5   0  0.1184684E-06  0.2037986E+04  0.7818609E-02  0.8589064E-01
        2   -1    0    0  501    0  0.00000000000E+00  0.00000000000E+00  0.20036988144E+04  0.20036988144E+04  0.25500000920E-02 0.  1.
       -2   -1    0    0    0  501  0.00000000000E+00  0.00000000000E+00 -0.51821517432E+03  0.51821517432E+03  0.25500000920E-02 0. -1.
    10030    2    1    2    0    0  0.00000000000E+00  0.00000000000E+00  0.14854836401E+04  0.25219139888E+04  0.20379863890E+04 0.  0.
        4    1    3    3  502    0 -0.11991505501E+03  0.38766424537E+03 -0.41391831493E+03  0.57964918001E+03  0.12699999809E+01 0. -1.
       -4    1    3    3    0  502  0.11991505501E+03 -0.38766424537E+03  0.18994019550E+04  0.19422648087E+04  0.12699999809E+01 0.  1.
</event>
<event>
 5   0  0.1724503E-06  0.3774707E+04  0.7818609E-02  0.8051605E-01
        2   -1    0    0  501    0  0.00000000000E+00  0.00000000000E+00  0.27516805324E+04  0.27516805324E+04  0.25500000920E-02 0. -1.
       -2   -1    0    0    0  501  0.00000000000E+00  0.00000000000E+00 -0.12945191459E+04  0.12945191459E+04  0.25500000920E-02 0.  1.
    10030    2    1    2    0    0  0.00000000000E+00  0.00000000000E+00  0.14571613865E+04  0.40461996783E+04  0.37747069463E+04 0.  0.
        1    1    3    3  502    0  0.47565519088E+03  0.87521678125E+02  0.26841286358E+04  0.27273530095E+04  0.50400001928E-02 0. -1.
       -1    1    3    3    0  502 -0.47565519088E+03 -0.87521678125E+02 -0.12269672493E+04  0.13188466688E+04  0.50400001928E-02 0.  1.
</event>
<event>
 5   0  0.6287345E-07  0.2353684E+04  0.7818609E-02  0.8457050E-01
        1   -1    0    0  501    0  0.00000000000E+00  0.00000000000E+00  0.15547109754E+04  0.15547109754E+04  0.50400001928E-02 0. -1.
       -1   -1    0    0    0  501  0.00000000000E+00  0.00000000000E+00 -0.89081331893E+03  0.89081331894E+03  0.50400001928E-02 0.  1.
    10030    2    1    2    0    0  0.00000000000E+00  0.00000000000E+00  0.66389765651E+03  0.24455242944E+04  0.23536841284E+04 0.  0.
        5    1    3    3  502    0  0.23494974803E+02  0.39206479644E+03  0.14845904984E+04  0.15356750491E+04  0.46999998093E+01 0. -1.
       -5    1    3    3    0  502 -0.23494974803E+02 -0.39206479644E+03 -0.82069284189E+03  0.90984924530E+03  0.46999998093E+01 0.  1.
</event>
<event>
 5   0  0.6261598E-07  0.2003186E+04  0.7818609E-02  0.8605132E-01
        1   -1    0    0  501    0  0.00000000000E+00  0.00000000000E+00  0.79775282251E+03  0.79775282252E+03  0.50400001928E-02 0.  1.
       -1   -1    0    0    0  501  0.00000000000E+00  0.00000000000E+00 -0.12575181921E+04  0.12575181921E+04  0.50400001928E-02 0. -1.
    10030    2    1    2    0    0  0.00000000000E+00  0.00000000000E+00 -0.45976536957E+03  0.20552710146E+04  0.20031861492E+04 0.  0.
        1    1    3    3  502    0  0.17945776637E+03 -0.13191506109E+03  0.77202293879E+03  0.80350861308E+03  0.50400001928E-02 0.  1.
       -1    1    3    3    0  502 -0.17945776637E+03  0.13191506109E+03 -0.12317883084E+04  0.12517624015E+04  0.50400001928E-02 0. -1.
</event>
<event>
 5   0  0.1151180E-06  0.3803252E+04  0.7818609E-02  0.8045457E-01
        2   -1    0    0  501    0  0.00000000000E+00  0.00000000000E+00  0.17407524697E+04  0.17407524697E+04  0.25500000920E-02 0.  1.
       -2   -1    0    0    0  501  0.00000000000E+00  0.00000000000E+00 -0.20773671843E+04  0.20773671843E+04  0.25500000920E-02 0. -1.
    10030    2    1    2    0    0  0.00000000000E+00  0.00000000000E+00 -0.33661471464E+03  0.38181196540E+04  0.38032523222E+04 0.  0.
        5    1    3    3  502    0  0.17232796073E+04  0.77783949353E+02 -0.97169625833E+03  0.19798885464E+04  0.46999998093E+01 0.  1.
       -5    1    3    3    0  502 -0.17232796073E+04 -0.77783949353E+02  0.63508154369E+03  0.18382311076E+04  0.46999998093E+01 0. -1.
</event>
<event>
 5   0  0.1680194E-06  0.3663841E+04  0.7818609E-02  0.8076023E-01
        2   -1    0    0  501    0  0.00000000000E+00  0.00000000000E+00  0.23557568544E+04  0.23557568544E+04  0.25500000920E-02 0.  1.
       -2   -1    0    0    0  501  0.00000000000E+00  0.00000000000E+00 -0.14245665105E+04  0.14245665105E+04  0.25500000920E-02 0. -1.
    10030    2    1    2    0    0  0.00000000000E+00  0.00000000000E+00  0.93119034385E+03  0.37803233649E+04  0.36638407835E+04 0.  0.
        2    1    3    3  502    0  0.78795765042E+03  0.10194160365E+04 -0.87805299670E+03  0.15591867686E+04  0.25500000920E-02 0. -1.
       -2    1    3    3    0  502 -0.78795765042E+03 -0.10194160365E+04  0.18092433406E+04  0.22211365963E+04  0.25500000920E-02 0.  1.
</event>
<event>
 5   0  0.6186440E-07  0.3604337E+04  0.7818609E-02  0.8089499E-01
        1   -1    0    0  501    0  0.00000000000E+00  0.00000000000E+00  0.15308214405E+04  0.15308214405E+04  0.50400001928E-02 0. -1.
       -1   -1    0    0    0  501  0.00000000000E+00  0.00000000000E+00 -0.21216130508E+04  0.21216130508E+04  0.50400001928E-02 0.  1.
    10030    2    1    2    0    0  0.00000000000E+00  0.00000000000E+00 -0.59079161037E+03  0.36524344913E+04  0.36043366916E+04 0.  0.
        3    1    3    3  502    0  0.88497057512E+03  0.66024631950E+03 -0.17387314838E+04  0.20596808743E+04  0.10100000352E+00 0.  1.
       -3    1    3    3    0  502 -0.88497057512E+03 -0.66024631950E+03  0.11479398734E+04  0.15927536170E+04  0.10100000352E+00 0. -1.
</event>
<event>
 5   0  0.1184684E-06  0.3809516E+04  0.7818609E-02  0.8044116E-01
        2   -1    0    0  501    0  0.00000000000E+00  0.00000000000E+00  0.18735713206E+04  0.18735713206E+04  0.25500000920E-02 0.  1.
       -2   -1    0    0    0  501  0.00000000000E+00  0.00000000000E+00 -0.19364633719E+04  0.19364633719E+04  0.25500000920E-02 0. -1.
    10030    2    1    2    0    0  0.00000000000E+00  0.00000000000E+00 -0.62892051274E+02  0.38100346925E+04  0.38095155791E+04 0.  0.
        4    1    3    3  502    0  0.43883922917E+03 -0.18360685715E+04  0.22230680866E+03  0.19008286609E+04  0.12699999809E+01 0.  1.
       -4    1    3    3    0  502 -0.43883922917E+03  0.18360685715E+04 -0.28519885993E+03  0.19092060315E+04  0.12699999809E+01 0. -1.
</event>
<event>
 5   0  0.1184684E-06  0.1872258E+04  0.7818609E-02  0.8668790E-01
       -2   -1    0    0    0  501  0.00000000000E+00  0.00000000000E+00  0.82856029938E+03  0.82856029938E+03  0.25500000920E-02 0.  1.
        2   -1    0    0  501    0  0.00000000000E+00  0.00000000000E+00 -0.10576631748E+04  0.10576631748E+04  0.25500000920E-02 0. -1.
    10030    2    1    2    0    0  0.00000000000E+00  0.00000000000E+00 -0.22910287540E+03  0.18862234742E+04  0.18722582266E+04 0.  0.
        4    1    3    3  502    0 -0.50403365761E+03 -0.78553686207E+03 -0.41776804542E+02  0.93427244633E+03  0.12699999809E+01 0. -1.
       -4    1    3    3    0  502  0.50403365761E+03  0.78553686207E+03 -0.18732607085E+03  0.95195102783E+03  0.12699999809E+01 0.  1.
</event>
<event>
 5   0  0.1184684E-06  0.3706989E+04  0.7818609E-02  0.8066415E-01
        2   -1    0    0  501    0  0.00000000000E+00  0.00000000000E+00  0.20487614082E+04  0.20487614082E+04  0.25500000920E-02 0. -1.
       -2   -1    0    0    0  501  0.00000000000E+00  0.00000000000E+00 -0.16768387617E+04  0.16768387617E+04  0.25500000920E-02 0.  1.
    10030    2    1    2    0    0  0.00000000000E+00  0.00000000000E+00  0.37192264653E+03  0.37256001699E+04  0.37069893676E+04 0.  0.
        4    1    3    3  502    0  0.84571231104E+03  0.86854612933E+03 -0.12231616781E+04  0.17221288556E+04  0.12699999809E+01 0.  1.
       -4    1    3    3    0  502 -0.84571231104E+03 -0.86854612933E+03  0.15950843246E+04  0.20034713143E+04  0.12699999809E+01 0. -1.
</event>
<event>
 5   0  0.1680194E-06  0.3298582E+04  0.7818609E-02  0.8163256E-01
        2   -1    0    0  501    0  0.00000000000E+00  0.00000000000E+00  0.25318479360E+04  0.25318479360E+04  0.25500000920E-02 0. -1.
       -2   -1    0    0    0  501  0.00000000000E+00  0.00000000000E+00 -0.10743778326E+04  0.10743778326E+04  0.25500000920E-02 0.  1.
    10030    2    1    2    0    0  0.00000000000E+00  0.00000000000E+00  0.14574701034E+04  0.36062257687E+04  0.32985823004E+04 0.  0.
        2    1    3    3  502    0  0.11492435498E+04 -0.11031431727E+04  0.26172297706E+03  0.16143681466E+04  0.25500000920E-02 0.  1.
       -2    1    3    3    0  502 -0.11492435498E+04  0.11031431727E+04  0.11957471264E+04  0.19918576220E+04  0.25500000920E-02 0. -1.
</event>
<event>
 5   0  0.1151180E-06  0.3654249E+04  0.7818609E-02  0.8078177E-01
        2   -1    0    0  501    0  0.00000000000E+00  0.00000000000E+00  0.18780914394E+04  0.18780914394E+04  0.25500000920E-02 0. -1.
       -2   -1    0    0    0  501  0.00000000000E+00  0.00000000000E+00 -0.17775402999E+04  0.17775402999E+04  0.25500000920E-02 0.  1.
    10030    2    1    2    0    0  0.00000000000E+00  0.00000000000E+00  0.10055113956E+03  0.36556317393E+04  0.36542486070E+04 0.  0.
        5    1    3    3  502    0  0.16771203507E+04  0.71520508218E+03  0.16910668397E+03  0.18310844166E+04  0.46999998093E+01 0. -1.
       -5    1    3    3    0  502 -0.16771203507E+04 -0.71520508218E+03 -0.68555544410E+02  0.18245473227E+04  0.46999998093E+01 0.  1.
</event>
<event>
 5   0  0.1151180E-06  0.2028213E+04  0.7818609E-02  0.8593543E-01
        2   -1    0    0  501    0  0.00000000000E+00  0.00000000000E+00  0.95225202338E+03  0.95225202339E+03  0.25500000920E-02 0. -1.
       -2   -1    0    0    0  501  0.00000000000E+00  0.00000000000E+00 -0.10799784661E+04  0.10799784661E+04  0.25500000920E-02 0.  1.
    10030    2    1    2    0    0  0.00000000000E+00  0.00000000000E+00 -0.12772644269E+03  0.20322304895E+04  0.20282126906E+04 0.  0.
        5    1    3    3  502    0 -0.35871689795E+02  0.65806800696E+03 -0.83613597832E+03  0.10646528750E+04  0.46999998093E+01 0.  1.
       -5    1    3    3    0  502  0.35871689795E+02 -0.65806800696E+03  0.70840953564E+03  0.96757761450E+03  0.46999998093E+01 0. -1.
</event>
<event>
 5   0  0.1724503E-06  0.3743991E+04  0.7818609E-02  0.8058282E-01
       -2   -1    0    0    0  501  0.00000000000E+00  0.00000000000E+00  0.12115130329E+04  0.12115130329E+04  0.25500000920E-02 0.  1.
        2   -1    0    0  501    0  0.00000000000E+00  0.00000000000E+00 -0.28925544874E+04  0.28925544874E+04  0.25500000920E-02 0. -1.
    10030    2    1    2    0    0  0.00000000000E+00  0.00000000000E+00 -0.16810414545E+04  0.41040675203E+04  0.37439911644E+04 0.  0.
        1    1    3    3  502    0 -0.17321097967E+04 -0.16734165938E+03 -0.84112781095E+02  0.17422062274E+04  0.50400001928E-02 0.  1.
       -1    1    3    3    0  502  0.17321097967E+04  0.16734165938E+03 -0.15969286735E+04  0.23618612929E+04  0.50400001928E-02 0. -1.
</event>
<event>
 5   0  0.5679750E-07  0.3328555E+04  0.7818609E-02  0.8155667E-01
        1   -1    0    0  501    0  0.00000000000E+00  0.00000000000E+00  0.23056195952E+04  0.23056195952E+04  0.50400001928E-02 0.  1.
       -1   -1    0    0    0  501  0.00000000000E+00  0.00000000000E+00 -0.12013344687E+04  0.12013344687E+04  0.50400001928E-02 0. -1.
    10030    2    1    2    0    0  0.00000000000E+00  0.00000000000E+00  0.11042851265E+04  0.35069540639E+04  0.33285554173E+04 0.  0.
        4    1    3    3  502    0  0.38213298001E+03 -0.24778814050E+03 -0.11343997762E+04  0.12224111592E+04  0.12699999809E+01 0. -1.
       -4    1    3    3    0  502 -0.38213298001E+03  0.24778814050E+03  0.22386849027E+04  0.22845429047E+04  0.12699999809E+01 0.  1.
</event>
<event>
 5   0  0.6186440E-07  0.3462026E+04  0.7818609E-02  0.8122849E-01
        1   -1    0    0  501    0  0.00000000000E+00  0.00000000000E+00  0.18505939087E+04  0.18505939087E+04  0.50400001928E-02 0.  1.
       -1   -1    0    0    0  501  0.00000000000E+00  0.00000000000E+00 -0.16191588622E+04  0.16191588623E+04  0.50400001928E-02 0. -1.
    10030    2    1    2    0    0  0.00000000000E+00  0.00000000000E+00  0.23143504643E+03  0.34697527709E+04  0.34620257236E+04 0.  0.
        3    1    3    3  502    0  0.48905630600E+03  0.97832500761E+03 -0.12289586763E+04  0.16451854999E+04  0.10100000352E+00 0. -1.
       -3    1    3    3    0  502 -0.48905630600E+03 -0.97832500761E+03  0.14603937227E+04  0.18245672710E+04  0.10100000352E+00 0.  1.
</event>
<event>
 5   0  0.1724503E-06  0.3570816E+04  0.7818609E-02  0.8097209E-01
        2   -1    0    0  501    0  0.00000000000E+00  0.00000000000E+00  0.20309780617E+04  0.20309780617E+04  0.25500000920E-02 0. -1.
       -2   -1    0    0    0  501  0.00000000000E+00  0.00000000000E+00 -0.15695306937E+04  0.15695306937E+04  0.25500000920E-02 0.  1.
    10030    2    1    2    0    0  0.00000000000E+00  0.00000000000E+00  0.46144736801E+03  0.36005087553E+04  0.35708163806E+04 0.  0.
        1    1    3    3  502    0 -0.50103145627E+03 -0.31659432570E+03  0.19288948523E+04  0.20178949027E+04  0.50400001928E-02 0. -1.
       -1    1    3    3    0  502  0.50103145627E+03  0.31659432570E+03 -0.14674474843E+04  0.15826138526E+04  0.50400001928E-02 0.  1.
</event>
<event>
 5   0  0.5875011E-07  0.3736699E+04  0.7818609E-02  0.8059877E-01
        1   -1    0    0  501    0  0.00000000000E+00  0.00000000000E+00  0.11148921654E+04  0.11148921655E+04  0.50400001928E-02 0.  1.
       -1   -1    0    0    0  501  0.00000000000E+00  0.00000000000E+00 -0.31310017588E+04  0.31310017588E+04  0.50400001928E-02 0. -1.
    10030    2    1    2    0    0  0.00000000000E+00  0.00000000000E+00 -0.20161095934E+04  0.42458939243E+04  0.37366987200E+04 0.  0.
        2    1    3    3  502    0  0.51900888065E+03 -0.51052235761E+03  0.94709558926E+03  0.11945682697E+04  0.25500000920E-02 0.  1.
       -2    1    3    3    0  502 -0.51900888065E+03  0.51052235761E+03 -0.29632051827E+04  0.30513256546E+04  0.25500000920E-02 0. -1.
</event>
<event>
 5   0  0.1680194E-06  0.3738513E+04  0.7818609E-02  0.8059480E-01
       -2   -1    0    0    0  501  0.00000000000E+00  0.00000000000E+00  0.26025328218E+04  0.26025328218E+04  0.25500000920E-02 0.  1.
        2   -1    0    0  501    0  0.00000000000E+00  0.00000000000E+00 -0.13425840890E+04  0.13425840890E+04  0.25500000920E-02 0. -1.
    10030    2    1    2    0    0  0.00000000000E+00  0.00000000000E+00  0.12599487328E+04  0.39451169108E+04  0.37385126228E+04 0.  0.
        2    1    3    3  502    0 -0.71117831427E+03  0.10134174567E+04 -0.84789592914E+03  0.15005722385E+04  0.25500000920E-02 0. -1.
       -2    1    3    3    0  502  0.71117831427E+03 -0.10134174567E+04  0.21078446619E+04  0.24445446723E+04  0.25500000920E-02 0.  1.
</event>
<event>
 5   0  0.5875011E-07  0.3171314E+04  0.7818609E-02  0.8196435E-01
       -1   -1    0    0    0  501  0.00000000000E+00  0.00000000000E+00  0.17799692871E+04  0.17799692871E+04  0.50400001928E-02 0. -1.
        1   -1    0    0  501    0  0.00000000000E+00  0.00000000000E+00 -0.14125567023E+04  0.14125567023E+04  0.50400001928E-02 0.  1.
    10030    2    1    2    0    0  0.00000000000E+00  0.00000000000E+00  0.36741258477E+03  0.31925259894E+04  0.31713136372E+04 0.  0.
        2    1    3    3  502    0 -0.14406513933E+04 -0.30155241533E+03  0.77747970100E+03  0.16645975434E+04  0.25500000920E-02 0. -1.
       -2    1    3    3    0  502  0.14406513933E+04  0.30155241533E+03 -0.41006711623E+03  0.15279284459E+04  0.25500000920E-02 0.  1.
</event>
<event>
 5   0  0.5679750E-07  0.3229461E+04  0.7818609E-02  0.8181080E-01
        1   -1    0    0  501    0  0.00000000000E+00  0.00000000000E+00  0.12824079207E+04  0.12824079207E+04  0.50400001928E-02 0. -1.
       -1   -1    0    0    0  501  0.00000000000E+00  0.00000000000E+00 -0.20331711509E+04  0.20331711509E+04  0.50400001928E-02 0.  1.
    10030    2    1    2    0    0  0.00000000000E+00  0.00000000000E+00 -0.75076323020E+03  0.33155790716E+04  0.32294611241E+04 0.  0.
        4    1    3    3  502    0 -0.16012289037E+04  0.20830107173E+03 -0.38098956081E+03  0.16590593711E+04  0.12699999809E+01 0. -1.
       -4    1    3    3    0  502  0.16012289037E+04 -0.20830107173E+03 -0.36977366939E+03  0.16565197005E+04  0.12699999809E+01 0.  1.
</event>
<event>
 5   0  0.1151180E-06  0.2757504E+04  0.7818609E-02  0.8316585E-01
        2   -1    0    0  501    0  0.00000000000E+00  0.00000000000E+00  0.16198295863E+04  0.16198295863E+04  0.25500000920E-02 0.  1.
       -2   -1    0    0    0  501  0.00000000000E+00  0.00000000000E+00 -0.11735534506E+04  0.11735534506E+04  0.25500000920E-02 0. -1.
    10030    2    1    2    0    0  0.00000000000E+00  0.00000000000E+00  0.44627613569E+03  0.27933830369E+04  0.27575036539E+04 0.  0.
        5    1    3    3  502    0 -0.94470728622E+03  0.53804602670E+03  0.10820912953E+04  0.15339195040E+04  0.46999998093E+01 0.  1.
       -5    1    3    3    0  502  0.94470728622E+03 -0.53804602670E+03 -0.63581515958E+03  0.12594635329E+04  0.46999998093E+01 0. -1.
</event>
<event>
 5   0  0.6261598E-07  0.2142112E+04  0.7818609E-02  0.8542916E-01
        1   -1    0    0  501    0  0.00000000000E+00  0.00000000000E+00  0.10806637661E+04  0.10806637662E+04  0.50400001928E-02 0.  1.
       -1   -1    0    0    0  501  0.00000000000E+00  0.00000000000E+00 -0.10615339561E+04  0.10615339561E+04  0.50400001928E-02 0. -1.
    10030    2    1    2    0    0  0.00000000000E+00  0.00000000000E+00  0.19129810041E+02  0.21421977223E+04  0.21421123060E+04 0.  0.
        1    1    3    3  502    0  0.49524372198E+03  0.47455112870E+03 -0.81308333832E+03  0.10637526183E+04  0.50400001928E-02 0. -1.
       -1    1    3    3    0  502 -0.49524372198E+03 -0.47455112870E+03  0.83221314836E+03  0.10784451040E+04  0.50400001928E-02 0.  1.
</event>
<event>
 5   0  0.6287345E-07  0.3636372E+04  0.7818609E-02  0.8082211E-01
       -1   -1    0    0    0  501  0.00000000000E+00  0.00000000000E+00  0.24768075553E+04  0.24768075553E+04  0.50400001928E-02 0. -1.
        1   -1    0    0  501    0  0.00000000000E+00  0.00000000000E+00 -0.13347023003E+04  0.13347023003E+04  0.50400001928E-02 0.  1.
    10030    2    1    2    0    0  0.00000000000E+00  0.00000000000E+00  0.11421052551E+04  0.38115098556E+04  0.36363722260E+04 0.  0.
        5    1    3    3  502    0  0.41013751627E+03 -0.30547316842E+03  0.23998644306E+04  0.24537518240E+04  0.46999998093E+01 0. -1.
       -5    1    3    3    0  502 -0.41013751627E+03  0.30547316842E+03 -0.12577591755E+04  0.13577580316E+04  0.46999998093E+01 0.  1.
</event>
<event>
 5   0  0.6261598E-07  0.3702353E+04  0.7818609E-02  0.8067441E-01
       -1   -1    0    0    0  501  0.00000000000E+00  0.00000000000E+00  0.14288114190E+04  0.14288114190E+04  0.50400001928E-02 0.  1.
        1   -1    0    0  501    0  0.00000000000E+00  0.00000000000E+00 -0.23983948811E+04  0.23983948811E+04  0.50400001928E-02 0. -1.
    10030    2    1    2    0    0  0.00000000000E+00  0.00000000000E+00 -0.96958346210E+03  0.38272063002E+04  0.37023527620E+04 0.  0.
        1    1    3    3  502    0  0.94580522532E+03  0.26865641529E+03  0.11365819642E+04  0.15028447541E+04  0.50400001928E-02 0.  1.
       -1    1    3    3    0  502 -0.94580522532E+03 -0.26865641529E+03 -0.21061654263E+04  0.23243615460E+04  0.50400001928E-02 0. -1.
</event>
<event>
 5   0  0.1680194E-06  0.3612718E+04  0.7818609E-02  0.8087585E-01
        2   -1    0    0  501    0  0.00000000000E+00  0.00000000000E+00  0.24175463986E+04  0.24175463986E+04  0.25500000920E-02 0. -1.
       -2   -1    0    0    0  501  0.00000000000E+00  0.00000000000E+00 -0.13496878679E+04  0.13496878679E+04  0.25500000920E-02 0.  1.
    10030    2    1    2    0    0  0.00000000000E+00  0.00000000000E+00  0.10678585307E+04  0.37672342665E+04  0.36127181149E+04 0.  0.
        2    1    3    3  502    0  0.56511898406E+03 -0.17092469661E+04  0.37909147533E+03  0.18397268830E+04  0.25500000920E-02 0.  1.
       -2    1    3    3    0  502 -0.56511898406E+03  0.17092469661E+04  0.68876705534E+03  0.19275073836E+04  0.25500000920E-02 0. -1.
</event>
<event>
 5   0  0.1184684E-06  0.3702227E+04  0.7818609E-02  0.8067468E-01
        2   -1    0    0  501    0  0.00000000000E+00  0.00000000000E+00  0.11957222597E+04  0.11957222597E+04  0.25500000920E-02 0. -1.
       -2   -1    0    0    0  501  0.00000000000E+00  0.00000000000E+00 -0.28657336714E+04  0.28657336714E+04  0.25500000920E-02 0.  1.
    10030    2    1    2    0    0  0.00000000000E+00  0.00000000000E+00 -0.16700114117E+04  0.40614559312E+04  0.37022271899E+04 0.  0.
        4    1    3    3  502    0 -0.27369627906E+02  0.54205644193E+03  0.11064733981E+04  0.12324200893E+04  0.12699999809E+01 0. -1.
       -4    1    3    3    0  502  0.27369627906E+02 -0.54205644193E+03 -0.27764848098E+04  0.28290358419E+04  0.12699999809E+01 0.  1.
</event>
<event>
 5   0  0.6261598E-07  0.3681404E+04  0.7818609E-02  0.8072095E-01
       -1   -1    0    0    0  501  0.00000000000E+00  0.00000000000E+00  0.17210471710E+04  0.17210471710E+04  0.50400001928E-02 0. -1.
        1   -1    0    0  501    0  0.00000000000E+00  0.00000000000E+00 -0.19686758187E+04  0.19686758188E+04  0.50400001928E-02 0.  1.
    10030    2    1    2    0    0  0.00000000000E+00  0.00000000000E+00 -0.24762864778E+03  0.36897229897E+04  0.36814040519E+04 0.  0.
        1    1    3    3  502    0  0.16368113296E+04  0.17149577510E+03 -0.95006900468E+03  0.19003139854E+04  0.50400001928E-02 0. -1.
       -1    1    3    3    0  502 -0.16368113296E+04 -0.17149577510E+03  0.70244035690E+03  0.17894090043E+04  0.50400001928E-02 0.  1.
</event>
<event>
 5   0  0.1680194E-06  0.3732727E+04  0.7818609E-02  0.8060747E-01
       -2   -1    0    0    0  501  0.00000000000E+00  0.00000000000E+00  0.16420904226E+04  0.16420904226E+04  0.25500000920E-02 0. -1.
        2   -1    0    0  501    0  0.00000000000E+00  0.00000000000E+00 -0.21212677613E+04  0.21212677613E+04  0.25500000920E-02 0.  1.
    10030    2    1    2    0    0  0.00000000000E+00  0.00000000000E+00 -0.47917733872E+03  0.37633581838E+04  0.37327274074E+04 0.  0.
        2    1    3    3  502    0 -0.46812908246E+03  0.43067102029E+03 -0.20086070206E+04  0.21069230002E+04  0.25500000920E-02 0.  1.
       -2    1    3    3    0  502  0.46812908246E+03 -0.43067102029E+03  0.15294296819E+04  0.16564351836E+04  0.25500000920E-02 0. -1.
</event>
<event>
 5   0  0.1184684E-06  0.3687655E+04  0.7818609E-02  0.8070703E-01
       -2   -1    0    0    0  501  0.00000000000E+00  0.00000000000E+00  0.12486187158E+04  0.12486187158E+04  0.25500000920E-02 0. -1.
        2   -1    0    0  501    0  0.00000000000E+00  0.00000000000E+00 -0.27227682760E+04  0.27227682760E+04  0.25500000920E-02 0.  1.
    10030    2    1    2    0    0  0.00000000000E+00  0.00000000000E+00 -0.14741495603E+04  0.39713869918E+04  0.36876547713E+04 0.  0.
        4    1    3    3  502    0  0.10569909745E+04  0.12862419172E+04  0.11639654171E+03  0.16688912360E+04  0.12699999809E+01 0. -1.
       -4    1    3    3    0  502 -0.10569909745E+04 -0.12862419172E+04 -0.15905461020E+04  0.23024957558E+04  0.12699999809E+01 0.  1.
</event>
<event>
 5   0  0.1724503E-06  0.3726204E+04  0.7818609E-02  0.8062179E-01
        2   -1    0    0  501    0  0.00000000000E+00  0.00000000000E+00  0.26815038719E+04  0.26815038719E+04  0.25500000920E-02 0. -1.
       -2   -1    0    0    0  501  0.00000000000E+00  0.00000000000E+00 -0.12944782235E+04  0.12944782235E+04  0.25500000920E-02 0.  1.
    10030    2    1    2    0    0  0.00000000000E+00  0.00000000000E+00  0.13870256484E+04  0.39759820954E+04  0.37262036275E+04 0.  0.
        1    1    3    3  502    0  0.86181614538E+03  0.88643488735E+03  0.21807341999E+04  0.25068098309E+04  0.50400001928E-02 0. -1.
       -1    1    3    3    0  502 -0.86181614538E+03 -0.88643488735E+03 -0.79370855150E+03  0.14691722645E+04  0.50400001928E-02 0.  1.
</event>
<event>
 5   0  0.6261598E-07  0.3647166E+04  0.7818609E-02  0.8079772E-01
       -1   -1    0    0    0  501  0.00000000000E+00  0.00000000000E+00  0.19830235602E+04  0.19830235602E+04  0.50400001928E-02 0.  1.
        1   -1    0    0  501    0  0.00000000000E+00  0.00000000000E+00 -0.16769615265E+04  0.16769615265E+04  0.50400001928E-02 0. -1.
    10030    2    1    2    0    0  0.00000000000E+00  0.00000000000E+00  0.30606203371E+03  0.36599850867E+04  0.36471655935E+04 0.  0.
        1    1    3    3  502    0  0.45776296957E+03  0.17457601731E+04  0.41515537296E+03  0.18519123904E+04  0.50400001928E-02 0. -1.
       -1    1    3    3    0  502 -0.45776296957E+03 -0.17457601731E+04 -0.10909333925E+03  0.18080726962E+04  0.50400001928E-02 0.  1.
</event>
<event>
 5   0  0.1680194E-06  0.3723464E+04  0.7818609E-02  0.8062782E-01
       -2   -1    0    0    0  501  0.00000000000E+00  0.00000000000E+00  0.24115010761E+04  0.24115010761E+04  0.25500000920E-02 0.  1.
        2   -1    0    0  501    0  0.00000000000E+00  0.00000000000E+00 -0.14372978406E+04  0.14372978406E+04  0.25500000920E-02 0. -1.
    10030    2    1    2    0    0  0.00000000000E+00  0.00000000000E+00  0.97420323557E+03  0.38487989167E+04  0.37234635968E+04 0.  0.
        2    1    3    3  502    0  0.18210004958E+04  0.13362600144E+03  0.11134549549E+03  0.18292885320E+04  0.25500000920E-02 0. -1.
       -2    1    3    3    0  502 -0.18210004958E+04 -0.13362600144E+03  0.86285774009E+03  0.20195103847E+04  0.25500000920E-02 0.  1.
</event>
<event>
 5   0  0.6287345E-07  0.3746640E+04  0.7818609E-02  0.8057704E-01
       -1   -1    0    0    0  501  0.00000000000E+00  0.00000000000E+00  0.11878201174E+04  0.11878201174E+04  0.50400001928E-02 0. -1.
        1   -1    0    0  501    0  0.00000000000E+00  0.00000000000E+00 -0.29544276799E+04  0.29544276800E+04  0.50400001928E-02 0.  1.
    10030    2    1    2    0    0  0.00000000000E+00  0.00000000000E+00 -0.17666075626E+04  0.41422477974E+04  0.37466404330E+04 0.  0.
        5    1    3    3  502    0  0.15248236976E+04  0.10805501233E+04 -0.74072697606E+03  0.20103169951E+04  0.46999998093E+01 0. -1.
       -5    1    3    3    0  502 -0.15248236976E+04 -0.10805501233E+04 -0.10258805865E+04  0.21319308022E+04  0.46999998093E+01 0.  1.
</event>
<event>
 5   0  0.5875011E-07  0.3708879E+04  0.7818609E-02  0.8065997E-01
       -1   -1    0    0    0  501  0.00000000000E+00  0.00000000000E+00  0.17200590626E+04  0.17200590626E+04  0.50400001928E-02 0.  1.
        1   -1    0    0  501    0  0.00000000000E+00  0.00000000000E+00 -0.19993180176E+04  0.19993180176E+04  0.50400001928E-02 0. -1.
    10030    2    1    2    0    0  0.00000000000E+00  0.00000000000E+00 -0.27925895503E+03  0.37193770802E+04  0.37088785772E+04 0.  0.
        2    1    3    3  502    0  0.13409186068E+04  0.12029551199E+04 -0.58108156779E+03  0.18928337273E+04  0.25500000920E-02 0. -1.
       -2    1    3    3    0  502 -0.13409186068E+04 -0.12029551199E+04  0.30182261277E+03  0.18265433529E+04  0.25500000920E-02 0.  1.
</event>
<event>
 5   0  0.1680194E-06  0.2157552E+04  0.7818609E-02  0.8536307E-01
       -2   -1    0    0    0  501  0.00000000000E+00  0.00000000000E+00  0.42150149663E+03  0.42150149664E+03  0.25500000920E-02 0.  1.
        2   -1    0    0  501    0  0.00000000000E+00  0.00000000000E+00 -0.27609804986E+04  0.27609804986E+04  0.25500000920E-02 0. -1.
    10030    2    1    2    0    0  0.00000000000E+00  0.00000000000E+00 -0.23394790020E+04  0.31824819952E+04  0.21575517721E+04 0.  0.
        2    1    3    3  502    0 -0.10213185997E+04 -0.29278077887E+03 -0.89400052569E+03  0.13885421155E+04  0.25500000920E-02 0. -1.
       -2    1    3    3    0  502  0.10213185997E+04  0.29278077887E+03 -0.14454784763E+04  0.17939398797E+04  0.25500000920E-02 0.  1.
</event>
<event>
 5   0  0.6186440E-07  0.2721420E+04  0.7818609E-02  0.8328088E-01
        1   -1    0    0  501    0  0.00000000000E+00  0.00000000000E+00  0.13701471151E+04  0.13701471151E+04  0.50400001928E-02 0.  1.
       -1   -1    0    0    0  501  0.00000000000E+00  0.00000000000E+00 -0.13513381226E+04  0.13513381226E+04  0.50400001928E-02 0. -1.
    10030    2    1    2    0    0  0.00000000000E+00  0.00000000000E+00  0.18808992503E+02  0.27214852378E+04  0.27214202397E+04 0.  0.
        3    1    3    3  502    0 -0.10486376816E+04 -0.76950882981E+03 -0.39028891684E+03  0.13579802190E+04  0.10100000352E+00 0. -1.
       -3    1    3    3    0  502  0.10486376816E+04  0.76950882981E+03  0.40909790935E+03  0.13635050187E+04  0.10100000352E+00 0.  1.
</event>
<event>
 5   0  0.6261598E-07  0.3489689E+04  0.7818609E-02  0.8116238E-01
       -1   -1    0    0    0  501  0.00000000000E+00  0.00000000000E+00  0.16233197978E+04  0.16233197978E+04  0.50400001928E-02 0. -1.
        1   -1    0    0  501    0  0.00000000000E+00  0.00000000000E+00 -0.18754666495E+04  0.18754666495E+04  0.50400001928E-02 0.  1.
    10030    2    1    2    0    0  0.00000000000E+00  0.00000000000E+00 -0.25214685164E+03  0.34987864473E+04  0.34896888929E+04 0.  0.
        1    1    3    3  502    0  0.77073163577E+03 -0.15616886165E+04 -0.23398092361E+03  0.17571697874E+04  0.50400001928E-02 0. -1.
       -1    1    3    3    0  502 -0.77073163577E+03  0.15616886165E+04 -0.18165928031E+02  0.17416166599E+04  0.50400001928E-02 0.  1.
</event>
<event>
 5   0  0.6261598E-07  0.2770690E+04  0.7818609E-02  0.8312426E-01
        1   -1    0    0  501    0  0.00000000000E+00  0.00000000000E+00  0.16940817877E+04  0.16940817877E+04  0.50400001928E-02 0. -1.
       -1   -1    0    0    0  501  0.00000000000E+00  0.00000000000E+00 -0.11328740896E+04  0.11328740896E+04  0.50400001928E-02 0.  1.
    10030    2    1    2    0    0  0.00000000000E+00  0.00000000000E+00  0.56120769813E+03  0.28269558774E+04  0.27706904288E+04 0.  0.
        1    1    3    3  502    0 -0.52860126435E+03  0.90840778706E+03 -0.64025244620E+03  0.12306694110E+04  0.50400001928E-02 0.  1.
       -1    1    3    3    0  502  0.52860126435E+03 -0.90840778706E+03  0.12014601443E+04  0.15962864664E+04  0.50400001928E-02 0. -1.
</event>
<event>
 5   0  0.1151180E-06  0.2134313E+04  0.7818609E-02  0.8546277E-01
        2   -1    0    0  501    0  0.00000000000E+00  0.00000000000E+00  0.80582083180E+03  0.80582083181E+03  0.25500000920E-02 0.  1.
       -2   -1    0    0    0  501  0.00000000000E+00  0.00000000000E+00 -0.14132462177E+04  0.14132462177E+04  0.25500000920E-02 0. -1.
    10030    2    1    2    0    0  0.00000000000E+00  0.00000000000E+00 -0.60742538585E+03  0.22190670495E+04  0.21343132316E+04 0.  0.
        5    1    3    3  502    0 -0.98752047374E+03  0.35591474263E+03 -0.10391199646E+03  0.10548420655E+04  0.46999998093E+01 0.  1.
       -5    1    3    3    0  502  0.98752047374E+03 -0.35591474263E+03 -0.50351338939E+03  0.11642249840E+04  0.46999998093E+01 0. -1.
</event>
<event>
 5   0  0.1685793E-06  0.3721454E+04  0.7818609E-02  0.8063224E-01
        2   -1    0    0  501    0  0.00000000000E+00  0.00000000000E+00  0.33819180105E+04  0.33819180105E+04  0.25500000920E-02 0. -1.
       -2   -1    0    0    0  501  0.00000000000E+00  0.00000000000E+00 -0.10237696438E+04  0.10237696438E+04  0.25500000920E-02 0.  1.
    10030    2    1    2    0    0  0.00000000000E+00  0.00000000000E+00  0.23581483667E+04  0.44056876543E+04  0.37214540153E+04 0.  0.
        3    1    3    3  502    0 -0.93484583710E+03  0.14488628527E+04  0.20070708600E+04  0.26460298094E+04  0.10100000352E+00 0. -1.
       -3    1    3    3    0  502  0.93484583710E+03 -0.14488628527E+04  0.35107750675E+03  0.17596578449E+04  0.10100000352E+00 0.  1.
</event>
<event>
 5   0  0.5875011E-07  0.2174538E+04  0.7818609E-02  0.8529101E-01
       -1   -1    0    0    0  501  0.00000000000E+00  0.00000000000E+00  0.23479052687E+04  0.23479052687E+04  0.50400001928E-02 0.  1.
        1   -1    0    0  501    0  0.00000000000E+00  0.00000000000E+00 -0.50349315474E+03  0.50349315476E+03  0.50400001928E-02 0. -1.
    10030    2    1    2    0    0  0.00000000000E+00  0.00000000000E+00  0.18444121139E+04  0.28513984234E+04  0.21745383241E+04 0.  0.
        2    1    3    3  502    0 -0.91821382517E+03 -0.62476037879E+02  0.16310375440E+03  0.93467786898E+03  0.25500000920E-02 0. -1.
       -2    1    3    3    0  502  0.91821382517E+03  0.62476037879E+02  0.16813083595E+04  0.19167205545E+04  0.25500000920E-02 0.  1.
</event>
<event>
 5   0  0.6261598E-07  0.3719619E+04  0.7818609E-02  0.8063628E-01
       -1   -1    0    0    0  501  0.00000000000E+00  0.00000000000E+00  0.25646337043E+04  0.25646337043E+04  0.50400001928E-02 0. -1.
        1   -1    0    0  501    0  0.00000000000E+00  0.00000000000E+00 -0.13486881878E+04  0.13486881878E+04  0.50400001928E-02 0.  1.
    10030    2    1    2    0    0  0.00000000000E+00  0.00000000000E+00  0.12159455165E+04  0.39133218921E+04  0.37196188961E+04 0.  0.
        1    1    3    3  502    0 -0.68538135297E+03 -0.15826951387E+04 -0.12412376813E+03  0.17291842617E+04  0.50400001928E-02 0. -1.
       -1    1    3    3    0  502  0.68538135297E+03  0.15826951387E+04  0.13400692847E+04  0.21841376305E+04  0.50400001928E-02 0.  1.
</event>
<event>
 5   0  0.6287345E-07  0.3439016E+04  0.7818609E-02  0.8128396E-01
        1   -1    0    0  501    0  0.00000000000E+00  0.00000000000E+00  0.16791819852E+04  0.16791819852E+04  0.50400001928E-02 0.  1.
       -1   -1    0    0    0  501  0.00000000000E+00  0.00000000000E+00 -0.17608021028E+04  0.17608021028E+04  0.50400001928E-02 0. -1.
    10030    2    1    2    0    0  0.00000000000E+00  0.00000000000E+00 -0.81620117589E+02  0.34399840879E+04  0.34390156559E+04 0.  0.
        5    1    3    3  502    0  0.59656544559E+03  0.29209567180E+03  0.15456614318E+04  0.16823500124E+04  0.46999998093E+01 0.  1.
       -5    1    3    3    0  502 -0.59656544559E+03 -0.29209567180E+03 -0.16272815494E+04  0.17576340755E+04  0.46999998093E+01 0. -1.
</event>
<event>
 5   0  0.1680194E-06  0.3754528E+04  0.7818609E-02  0.8055984E-01
       -2   -1    0    0    0  501  0.00000000000E+00  0.00000000000E+00  0.17836674984E+04  0.17836674984E+04  0.25500000920E-02 0. -1.
        2   -1    0    0  501    0  0.00000000000E+00  0.00000000000E+00 -0.19757718188E+04  0.19757718188E+04  0.25500000920E-02 0.  1.
    10030    2    1    2    0    0  0.00000000000E+00  0.00000000000E+00 -0.19210432042E+03  0.37594393172E+04  0.37545279210E+04 0.  0.
        2    1    3    3  502    0  0.77309462748E+03 -0.75538443449E+03 -0.16329342413E+04  0.19582530948E+04  0.25500000920E-02 0.  1.
       -2    1    3    3    0  502 -0.77309462748E+03  0.75538443449E+03  0.14408299209E+04  0.18011862224E+04  0.25500000920E-02 0. -1.
</event>
<event>
 5   0  0.6287345E-07  0.3617475E+04  0.7818609E-02  0.8086501E-01
       -1   -1    0    0    0  501  0.00000000000E+00  0.00000000000E+00  0.12834158821E+04  0.12834158821E+04  0.50400001928E-02 0.  1.
        1   -1    0    0  501    0  0.00000000000E+00  0.00000000000E+00 -0.25490806043E+04  0.25490806043E+04  0.50400001928E-02 0. -1.
    10030    2    1    2    0    0  0.00000000000E+00  0.00000000000E+00 -0.12656647222E+04  0.38324964864E+04  0.36174745513E+04 0.  0.
        5    1    3    3  502    0  0.61162619499E+03 -0.16991445459E+04 -0.52515630770E+03  0.18806887110E+04  0.46999998093E+01 0.  1.
       -5    1    3    3    0  502 -0.61162619499E+03  0.16991445459E+04 -0.74050841454E+03  0.19518077754E+04  0.46999998093E+01 0. -1.
</event>
<event>
 5   0  0.1151180E-06  0.3724020E+04  0.7818609E-02  0.8062659E-01
        2   -1    0    0  501    0  0.00000000000E+00  0.00000000000E+00  0.20267479002E+04  0.20267479002E+04  0.25500000920E-02 0. -1.
       -2   -1    0    0    0  501  0.00000000000E+00  0.00000000000E+00 -0.17106624999E+04  0.17106624999E+04  0.25500000920E-02 0.  1.
    10030    2    1    2    0    0  0.00000000000E+00  0.00000000000E+00  0.31608540027E+03  0.37374104000E+04  0.37240202091E+04 0.  0.
        5    1    3    3  502    0 -0.81719351826E+03  0.67441238172E+03 -0.13786133715E+04  0.17387450144E+04  0.46999998093E+01 0.  1.
       -5    1    3    3    0  502  0.81719351826E+03 -0.67441238172E+03  0.16946987718E+04  0.19986653857E+04  0.46999998093E+01 0. -1.
</event>
<event>
 5   0  0.1151180E-06  0.3736854E+04  0.7818609E-02  0.8059843E-01
        2   -1    0    0  501    0  0.00000000000E+00  0.00000000000E+00  0.14634242320E+04  0.14634242320E+04  0.25500000920E-02 0.  1.
       -2   -1    0    0    0  501  0.00000000000E+00  0.00000000000E+00 -0.23855143851E+04  0.23855143851E+04  0.25500000920E-02 0. -1.
    10030    2    1    2    0    0  0.00000000000E+00  0.00000000000E+00 -0.92209015313E+03  0.38489386170E+04  0.37368540549E+04 0.  0.
        5    1    3    3  502    0  0.42137186505E+03 -0.32113255629E+03 -0.23065228308E+04  0.23665903799E+04  0.46999998093E+01 0. -1.
       -5    1    3    3    0  502 -0.42137186505E+03  0.32113255629E+03  0.13844326776E+04  0.14823482372E+04  0.46999998093E+01 0.  1.
</event>
<event>
 5   0  0.5679750E-07  0.3759180E+04  0.7818609E-02  0.8054972E-01
        1   -1    0    0  501    0  0.00000000000E+00  0.00000000000E+00  0.11362106466E+04  0.11362106466E+04  0.50400001928E-02 0.  1.
       -1   -1    0    0    0  501  0.00000000000E+00  0.00000000000E+00 -0.31093334704E+04  0.31093334704E+04  0.50400001928E-02 0. -1.
    10030    2    1    2    0    0  0.00000000000E+00  0.00000000000E+00 -0.19731228238E+04  0.42455441170E+04  0.37591795876E+04 0.  0.
        4    1    3    3  502    0 -0.75767052055E+03  0.35430117419E+03  0.91444539177E+03  0.12392763724E+04  0.12699999809E+01 0.  1.
       -4    1    3    3    0  502  0.75767052055E+03 -0.35430117419E+03 -0.28875682156E+04  0.30062677446E+04  0.12699999809E+01 0. -1.
</event>
<event>
 5   0  0.1724503E-06  0.2953648E+04  0.7818609E-02  0.8257092E-01
       -2   -1    0    0    0  501  0.00000000000E+00  0.00000000000E+00  0.10743999730E+04  0.10743999730E+04  0.25500000920E-02 0. -1.
        2   -1    0    0  501    0  0.00000000000E+00  0.00000000000E+00 -0.20299783177E+04  0.20299783177E+04  0.25500000920E-02 0.  1.
    10030    2    1    2    0    0  0.00000000000E+00  0.00000000000E+00 -0.95557834476E+03  0.31043782907E+04  0.29536476768E+04 0.  0.
        1    1    3    3  502    0  0.96166968607E+03 -0.11179358789E+04 -0.39357903800E+03  0.15262678905E+04  0.50400001928E-02 0.  1.
       -1    1    3    3    0  502 -0.96166968607E+03  0.11179358789E+04 -0.56199930676E+03  0.15781104002E+04  0.50400001928E-02 0. -1.
</event>
<event>
 5   0  0.1151180E-06  0.3866730E+04  0.7818609E-02  0.8031984E-01
        2   -1    0    0  501    0  0.00000000000E+00  0.00000000000E+00  0.20163316714E+04  0.20163316714E+04  0.25500000920E-02 0.  1.
       -2   -1    0    0    0  501  0.00000000000E+00  0.00000000000E+00 -0.18538123296E+04  0.18538123296E+04  0.25500000920E-02 0. -1.
    10030    2    1    2    0    0  0.00000000000E+00  0.00000000000E+00  0.16251934186E+03  0.38701440010E+04  0.38667301499E+04 0.  0.
        5    1    3    3  502    0 -0.50281581696E+02  0.50343560210E+03 -0.17863735064E+04  0.18566442948E+04  0.46999998093E+01 0. -1.
       -5    1    3    3    0  502  0.50281581696E+02 -0.50343560210E+03  0.19488928483E+04  0.20134997062E+04  0.46999998093E+01 0.  1.
</event>
<event>
 5   0  0.5679750E-07  0.1939329E+04  0.7818609E-02  0.8635524E-01
        1   -1    0    0  501    0  0.00000000000E+00  0.00000000000E+00  0.16010892377E+04  0.16010892377E+04  0.50400001928E-02 0. -1.
       -1   -1    0    0    0  501  0.00000000000E+00  0.00000000000E+00 -0.58725588932E+03  0.58725588934E+03  0.50400001928E-02 0.  1.
    10030    2    1    2    0    0  0.00000000000E+00  0.00000000000E+00  0.10138333484E+04  0.21883451270E+04  0.19393288367E+04 0.  0.
        4    1    3    3  502    0  0.19684333796E+03 -0.59266777140E+03 -0.33011606832E+03  0.70638560179E+03  0.12699999809E+01 0.  1.
       -4    1    3    3    0  502 -0.19684333796E+03  0.59266777140E+03  0.13439494167E+04  0.14819595252E+04  0.12699999809E+01 0. -1.
</event>
<event>
 5   0  0.1680194E-06  0.3131102E+04  0.7818609E-02  0.8207254E-01
        2   -1    0    0  501    0  0.00000000000E+00  0.00000000000E+00  0.21185908628E+04  0.21185908628E+04  0.25500000920E-02 0. -1.
       -2   -1    0    0    0  501  0.00000000000E+00  0.00000000000E+00 -0.11568771902E+04  0.11568771902E+04  0.25500000920E-02 0.  1.
    10030    2    1    2    0    0  0.00000000000E+00  0.00000000000E+00  0.96171367261E+03  0.32754680530E+04  0.31311016876E+04 0.  0.
        2    1    3    3  502    0 -0.56944786059E+03 -0.70484255122E+03 -0.85467245937E+03  0.12456078439E+04  0.25500000920E-02 0.  1.
       -2    1    3    3    0  502  0.56944786059E+03  0.70484255122E+03  0.18163861320E+04  0.20298602091E+04  0.25500000920E-02 0. -1.
</event>
<event>
 5   0  0.1685793E-06  0.3672168E+04  0.7818609E-02  0.8074158E-01
       -2   -1    0    0    0  501  0.00000000000E+00  0.00000000000E+00  0.15845783267E+04  0.15845783267E+04  0.25500000920E-02 0. -1.
        2   -1    0    0  501    0  0.00000000000E+00  0.00000000000E+00 -0.21275090860E+04  0.21275090860E+04  0.25500000920E-02 0.  1.
    10030    2    1    2    0    0  0.00000000000E+00  0.00000000000E+00 -0.54293075935E+03  0.37120874127E+04  0.36721681811E+04 0.  0.
        3    1    3    3  502    0 -0.18320267875E+04  0.12071390237E+03 -0.25364475347E+03  0.18534372575E+04  0.10100000352E+00 0. -1.
       -3    1    3    3    0  502  0.18320267875E+04 -0.12071390237E+03 -0.28928600587E+03  0.18586501553E+04  0.10100000352E+00 0.  1.
</event>
<event>
 5   0  0.1151180E-06  0.2862855E+04  0.7818609E-02  0.8284016E-01
        2   -1    0    0  501    0  0.00000000000E+00  0.00000000000E+00  0.23698844874E+04  0.23698844874E+04  0.25500000920E-02 0. -1.
       -2   -1    0    0    0  501  0.00000000000E+00  0.00000000000E+00 -0.86459239631E+03  0.86459239631E+03  0.25500000920E-02 0.  1.
    10030    2    1    2    0    0  0.00000000000E+00  0.00000000000E+00  0.15052920911E+04  0.32344768838E+04  0.28628545950E+04 0.  0.
        5    1    3    3  502    0 -0.81775192169E+02  0.66853056907E+03 -0.67437908568E+03  0.95311570391E+03  0.46999998093E+01 0.  1.
       -5    1    3    3    0  502  0.81775192169E+02 -0.66853056907E+03  0.21796711768E+04  0.22813611798E+04  0.46999998093E+01 0. -1.
</event>
<event>
 5   0  0.1685793E-06  0.3712352E+04  0.7818609E-02  0.8065230E-01
       -2   -1    0    0    0  501  0.00000000000E+00  0.00000000000E+00  0.19827120636E+04  0.19827120636E+04  0.25500000920E-02 0.  1.
        2   -1    0    0  501    0  0.00000000000E+00  0.00000000000E+00 -0.17377158281E+04  0.17377158281E+04  0.25500000920E-02 0. -1.
    10030    2    1    2    0    0  0.00000000000E+00  0.00000000000E+00  0.24499623547E+03  0.37204278917E+04  0.37123524269E+04 0.  0.
        3    1    3    3  502    0  0.14303611073E+04  0.58145121469E+01 -0.10630474787E+04  0.17821438376E+04  0.10100000352E+00 0. -1.
       -3    1    3    3    0  502 -0.14303611073E+04 -0.58145121469E+01  0.13080437142E+04  0.19382840541E+04  0.10100000352E+00 0.  1.
</event>
<event>
 5   0  0.5875011E-07  0.3297911E+04  0.7818609E-02  0.8163427E-01
       -1   -1    0    0    0  501  0.00000000000E+00  0.00000000000E+00  0.14516053338E+04  0.14516053338E+04  0.50400001928E-02 0. -1.
        1   -1    0    0  501    0  0.00000000000E+00  0.00000000000E+00 -0.18731357011E+04  0.18731357011E+04  0.50400001928E-02 0.  1.
    10030    2    1    2    0    0  0.00000000000E+00  0.00000000000E+00 -0.42153036727E+03  0.33247410349E+04  0.32979107172E+04 0.  0.
        2    1    3    3  502    0  0.71635371493E+03 -0.58850800130E+03 -0.15855122352E+04  0.18366690939E+04  0.25500000920E-02 0. -1.
       -2    1    3    3    0  502 -0.71635371493E+03  0.58850800130E+03  0.11639818680E+04  0.14880719410E+04  0.25500000920E-02 0.  1.
</event>
<event>
 5   0  0.6186440E-07  0.2886474E+04  0.7818609E-02  0.8276913E-01
       -1   -1    0    0    0  501  0.00000000000E+00  0.00000000000E+00  0.79055212029E+03  0.79055212030E+03  0.50400001928E-02 0.  1.
        1   -1    0    0  501    0  0.00000000000E+00  0.00000000000E+00 -0.26347830139E+04  0.26347830139E+04  0.50400001928E-02 0. -1.
    10030    2    1    2    0    0  0.00000000000E+00  0.00000000000E+00 -0.18442308936E+04  0.34253351342E+04  0.28864741801E+04 0.  0.
        3    1    3    3  502    0 -0.18909340320E+03  0.13200237332E+04 -0.15771765645E+04  0.20653582975E+04  0.10100000352E+00 0. -1.
       -3    1    3    3    0  502  0.18909340320E+03 -0.13200237332E+04 -0.26705432915E+03  0.13599768367E+04  0.10100000352E+00 0.  1.
</event>
<event>
 5   0  0.6186440E-07  0.2278868E+04  0.7818609E-02  0.8486300E-01
        1   -1    0    0  501    0  0.00000000000E+00  0.00000000000E+00  0.11711927244E+04  0.11711927244E+04  0.50400001928E-02 0. -1.
       -1   -1    0    0    0  501  0.00000000000E+00  0.00000000000E+00 -0.11085362176E+04  0.11085362176E+04  0.50400001928E-02 0.  1.
    10030    2    1    2    0    0  0.00000000000E+00  0.00000000000E+00  0.62656506804E+02  0.22797289420E+04  0.22788677476E+04 0.  0.
        3    1    3    3  502    0 -0.50099509784E+03  0.22893107931E+03 -0.96649744026E+03  0.11124400385E+04  0.10100000352E+00 0.  1.
       -3    1    3    3    0  502  0.50099509784E+03 -0.22893107931E+03  0.10291539471E+04  0.11672889034E+04  0.10100000352E+00 0. -1.
</event>
<event>
 5   0  0.6287345E-07  0.3526579E+04  0.7818609E-02  0.8107520E-01
       -1   -1    0    0    0  501  0.00000000000E+00  0.00000000000E+00  0.10363484795E+04  0.10363484795E+04  0.50400001928E-02 0. -1.
        1   -1    0    0  501    0  0.00000000000E+00  0.00000000000E+00 -0.30001387610E+04  0.30001387610E+04  0.50400001928E-02 0.  1.
    10030    2    1    2    0    0  0.00000000000E+00  0.00000000000E+00 -0.19637902815E+04  0.40364872405E+04  0.35265786497E+04 0.  0.
        5    1    3    3  502    0 -0.13276878147E+04 -0.10975012258E+04 -0.55072743387E+03  0.18084763394E+04  0.46999998093E+01 0.  1.
       -5    1    3    3    0  502  0.13276878147E+04  0.10975012258E+04 -0.14130628477E+04  0.22280109011E+04  0.46999998093E+01 0. -1.
</event>
<event>
 5   0  0.1685793E-06  0.3106100E+04  0.7818609E-02  0.8214066E-01
       -2   -1    0    0    0  501  0.00000000000E+00  0.00000000000E+00  0.17533230600E+04  0.17533230600E+04  0.25500000920E-02 0.  1.
        2   -1    0    0  501    0  0.00000000000E+00  0.00000000000E+00 -0.13756530420E+04  0.13756530420E+04  0.25500000920E-02 0. -1.
    10030    2    1    2    0    0  0.00000000000E+00  0.00000000000E+00  0.37767001796E+03  0.31289761020E+04  0.31060999347E+04 0.  0.
        3    1    3    3  502    0 -0.13591459958E+04 -0.26239468040E+03 -0.52050683564E+03  0.14788699004E+04  0.10100000352E+00 0. -1.
       -3    1    3    3    0  502  0.13591459958E+04  0.26239468040E+03  0.89817685360E+03  0.16501062016E+04  0.10100000352E+00 0.  1.
</event>
<event>
 5   0  0.6186440E-07  0.3692947E+04  0.7818609E-02  0.8069527E-01
       -1   -1    0    0    0  501  0.00000000000E+00  0.00000000000E+00  0.16216413011E+04  0.16216413011E+04  0.50400001928E-02 0.  1.
        1   -1    0    0  501    0  0.00000000000E+00  0.00000000000E+00 -0.21024770877E+04  0.21024770877E+04  0.50400001928E-02 0. -1.
    10030    2    1    2    0    0  0.00000000000E+00  0.00000000000E+00 -0.48083578664E+03  0.37241183888E+04  0.36929466176E+04 0.  0.
        3    1    3    3  502    0 -0.15599063879E+04  0.96992726053E+03 -0.50689339773E+02  0.18375625837E+04  0.10100000352E+00 0.  1.
       -3    1    3    3    0  502  0.15599063879E+04 -0.96992726053E+03 -0.43014644686E+03  0.18865558051E+04  0.10100000352E+00 0. -1.
</event>
<event>
 5   0  0.6186440E-07  0.3389335E+04  0.7818609E-02  0.8140529E-01
        1   -1    0    0  501    0  0.00000000000E+00  0.00000000000E+00  0.25204755630E+04  0.25204755630E+04  0.50400001928E-02 0. -1.
       -1   -1    0    0    0  501  0.00000000000E+00  0.00000000000E+00 -0.11394270363E+04  0.11394270363E+04  0.50400001928E-02 0.  1.
    10030    2    1    2    0    0  0.00000000000E+00  0.00000000000E+00  0.13810485267E+04  0.36599025993E+04  0.33893350385E+04 0.  0.
        3    1    3    3  502    0  0.65976116020E+03 -0.99963603109E+03 -0.60407374483E+03  0.13414403015E+04  0.10100000352E+00 0.  1.
       -3    1    3    3    0  502 -0.65976116020E+03  0.99963603109E+03  0.19851222715E+04  0.23184622978E+04  0.10100000352E+00 0. -1.
</event>
<event>
 5   0  0.1724503E-06  0.3208986E+04  0.7818609E-02  0.8186448E-01
        2   -1    0    0  501    0  0.00000000000E+00  0.00000000000E+00  0.15754003084E+04  0.15754003084E+04  0.25500000920E-02 0.  1.
       -2   -1    0    0    0  501  0.00000000000E+00  0.00000000000E+00 -0.16341233029E+04  0.16341233029E+04  0.25500000920E-02 0. -1.
    10030    2    1    2    0    0  0.00000000000E+00  0.00000000000E+00 -0.58722994575E+02  0.32095236113E+04  0.32089863542E+04 0.  0.
        1    1    3    3  502    0  0.14024276064E+04 -0.20708362502E+03  0.72223722757E+03  0.15910101923E+04  0.50400001928E-02 0.  1.
       -1    1    3    3    0  502 -0.14024276064E+04  0.20708362502E+03 -0.78096022215E+03  0.16185134190E+04  0.50400001928E-02 0. -1.
</event>
<event>
 5   0  0.6287345E-07  0.3702519E+04  0.7818609E-02  0.8067404E-01
        1   -1    0    0  501    0  0.00000000000E+00  0.00000000000E+00  0.27709925272E+04  0.27709925272E+04  0.50400001928E-02 0. -1.
       -1   -1    0    0    0  501  0.00000000000E+00  0.00000000000E+00 -0.12367993570E+04  0.12367993570E+04  0.50400001928E-02 0.  1.
    10030    2    1    2    0    0  0.00000000000E+00  0.00000000000E+00  0.15341931702E+04  0.40077918842E+04  0.37025190214E+04 0.  0.
        5    1    3    3  502    0  0.75711736785E+03 -0.36201841109E+03 -0.10190626444E+04  0.13201495377E+04  0.46999998093E+01 0.  1.
       -5    1    3    3    0  502 -0.75711736785E+03  0.36201841109E+03  0.25532558145E+04  0.26876423466E+04  0.46999998093E+01 0. -1.
</event>
<event>
 5   0  0.1184684E-06  0.3681190E+04  0.7818609E-02  0.8072143E-01
        2   -1    0    0  501    0  0.00000000000E+00  0.00000000000E+00  0.19940841543E+04  0.19940841543E+04  0.25500000920E-02 0.  1.
       -2   -1    0    0    0  501  0.00000000000E+00  0.00000000000E+00 -0.16989201282E+04  0.16989201282E+04  0.25500000920E-02 0. -1.
    10030    2    1    2    0    0  0.00000000000E+00  0.00000000000E+00  0.29516402610E+03  0.36930042825E+04  0.36811898658E+04 0.  0.
        4    1    3    3  502    0 -0.18198780413E+04  0.38456355069E+02  0.42113482650E+03  0.18683658987E+04  0.12699999809E+01 0.  1.
       -4    1    3    3    0  502  0.18198780413E+04 -0.38456355069E+02 -0.12597080039E+03  0.18246383838E+04  0.12699999809E+01 0. -1.
</event>
<event>
 5   0  0.1184684E-06  0.3661787E+04  0.7818609E-02  0.8076483E-01
       -2   -1    0    0    0  501  0.00000000000E+00  0.00000000000E+00  0.11688188864E+04  0.11688188864E+04  0.25500000920E-02 0.  1.
        2   -1    0    0  501    0  0.00000000000E+00  0.00000000000E+00 -0.28679983288E+04  0.28679983288E+04  0.25500000920E-02 0. -1.
    10030    2    1    2    0    0  0.00000000000E+00  0.00000000000E+00 -0.16991794424E+04  0.40368172151E+04  0.36617867839E+04 0.  0.
        4    1    3    3  502    0 -0.17951673810E+04 -0.33288264060E+03 -0.10004728477E+04  0.20819184207E+04  0.12699999809E+01 0.  1.
       -4    1    3    3    0  502  0.17951673810E+04  0.33288264060E+03 -0.69870659465E+03  0.19548987945E+04  0.12699999809E+01 0. -1.
</event>
<event>
 5   0  0.6287345E-07  0.3720611E+04  0.7818609E-02  0.8063409E-01
       -1   -1    0    0    0  501  0.00000000000E+00  0.00000000000E+00  0.14348387727E+04  0.14348387727E+04  0.50400001928E-02 0. -1.
        1   -1    0    0  501    0  0.00000000000E+00  0.00000000000E+00 -0.24119344665E+04  0.24119344665E+04  0.50400001928E-02 0.  1.
    10030    2    1    2    0    0  0.00000000000E+00  0.00000000000E+00 -0.97709569382E+03  0.38467732393E+04  0.37206112884E+04 0.  0.
        5    1    3    3  502    0  0.17282234088E+04  0.68510721406E+03 -0.41852423583E+03  0.19056003441E+04  0.46999998093E+01 0.  1.
       -5    1    3    3    0  502 -0.17282234088E+04 -0.68510721406E+03 -0.55857145799E+03  0.19411728952E+04  0.46999998093E+01 0. -1.
</event>
<event>
 5   0  0.1151180E-06  0.3755541E+04  0.7818609E-02  0.8055764E-01
        2   -1    0    0  501    0  0.00000000000E+00  0.00000000000E+00  0.28248584047E+04  0.28248584047E+04  0.25500000920E-02 0.  1.
       -2   -1    0    0    0  501  0.00000000000E+00  0.00000000000E+00 -0.12482119096E+04  0.12482119096E+04  0.25500000920E-02 0. -1.
    10030    2    1    2    0    0  0.00000000000E+00  0.00000000000E+00  0.15766464951E+04  0.40730703142E+04  0.37555409216E+04 0.  0.
        5    1    3    3  502    0 -0.41627368088E+03 -0.10727847317E+04 -0.82099957650E+03  0.14135817106E+04  0.46999998093E+01 0. -1.
       -5    1    3    3    0  502  0.41627368088E+03  0.10727847317E+04  0.23976460716E+04  0.26594886036E+04  0.46999998093E+01 0.  1.
</event>
<event>
 5   0  0.6287345E-07  0.3659549E+04  0.7818609E-02  0.8076986E-01
        1   -1    0    0  501    0  0.00000000000E+00  0.00000000000E+00  0.25488780425E+04  0.25488780425E+04  0.50400001928E-02 0. -1.
       -1   -1    0    0    0  501  0.00000000000E+00  0.00000000000E+00 -0.13135486518E+04  0.13135486518E+04  0.50400001928E-02 0.  1.
    10030    2    1    2    0    0  0.00000000000E+00  0.00000000000E+00  0.12353293907E+04  0.38624266943E+04  0.36595493254E+04 0.  0.
        5    1    3    3  502    0 -0.25490241986E+03 -0.17474031010E+04  0.11234610431E+04  0.20929834320E+04  0.46999998093E+01 0.  1.
       -5    1    3    3    0  502  0.25490241986E+03  0.17474031010E+04  0.11186834756E+03  0.17694432623E+04  0.46999998093E+01 0. -1.
</event>
<event>
 5   0  0.1151180E-06  0.3726546E+04  0.7818609E-02  0.8062104E-01
       -2   -1    0    0    0  501  0.00000000000E+00  0.00000000000E+00  0.12622733361E+04  0.12622733361E+04  0.25500000920E-02 0. -1.
        2   -1    0    0  501    0  0.00000000000E+00  0.00000000000E+00 -0.27504238655E+04  0.27504238655E+04  0.25500000920E-02 0.  1.
    10030    2    1    2    0    0  0.00000000000E+00  0.00000000000E+00 -0.14881505294E+04  0.40126972015E+04  0.37265462339E+04 0.  0.
        5    1    3    3  502    0  0.61018811807E+03 -0.10095048021E+04  0.80901439125E+03  0.14303691342E+04  0.46999998093E+01 0. -1.
       -5    1    3    3    0  502 -0.61018811807E+03  0.10095048021E+04 -0.22971649206E+04  0.25823280673E+04  0.46999998093E+01 0.  1.
</event>
<event>
 5   0  0.5875011E-07  0.3943377E+04  0.7818609E-02  0.8016068E-01
        1   -1    0    0  501    0  0.00000000000E+00  0.00000000000E+00  0.18330916898E+04  0.18330916898E+04  0.50400001928E-02 0.  1.
       -1   -1    0    0    0  501  0.00000000000E+00  0.00000000000E+00 -0.21207647852E+04  0.21207647852E+04  0.50400001928E-02 0. -1.
    10030    2    1    2    0    0  0.00000000000E+00  0.00000000000E+00 -0.28767309533E+03  0.39538564750E+04  0.39433773868E+04 0.  0.
        2    1    3    3  502    0  0.17998267331E+04  0.37343329434E+03 -0.85898336908E+03  0.20289606016E+04  0.25500000920E-02 0. -1.
       -2    1    3    3    0  502 -0.17998267331E+04 -0.37343329434E+03  0.57131027375E+03  0.19248958734E+04  0.25500000920E-02 0.  1.
</event>
<event>
 5   0  0.1184684E-06  0.3715426E+04  0.7818609E-02  0.8064552E-01
        2   -1    0    0  501    0  0.00000000000E+00  0.00000000000E+00  0.18889109503E+04  0.18889109503E+04  0.25500000920E-02 0.  1.
       -2   -1    0    0    0  501  0.00000000000E+00  0.00000000000E+00 -0.18270298938E+04  0.18270298938E+04  0.25500000920E-02 0. -1.
    10030    2    1    2    0    0  0.00000000000E+00  0.00000000000E+00  0.61881056504E+02  0.37159408441E+04  0.37154255600E+04 0.  0.
        4    1    3    3  502    0 -0.17480127576E+04 -0.53472344991E+03  0.36207161834E+03  0.18634847030E+04  0.12699999809E+01 0.  1.
       -4    1    3    3    0  502  0.17480127576E+04  0.53472344991E+03 -0.30019056184E+03  0.18524561411E+04  0.12699999809E+01 0. -1.
</event>
<event>
 5   0  0.1151180E-06  0.3716468E+04  0.7818609E-02  0.8064322E-01
       -2   -1    0    0    0  501  0.00000000000E+00  0.00000000000E+00  0.17826536043E+04  0.17826536043E+04  0.25500000920E-02 0. -1.
        2   -1    0    0  501    0  0.00000000000E+00  0.00000000000E+00 -0.19370187273E+04  0.19370187273E+04  0.25500000920E-02 0.  1.
    10030    2    1    2    0    0  0.00000000000E+00  0.00000000000E+00 -0.15436512293E+03  0.37196723316E+04  0.37164679016E+04 0.  0.
        5    1    3    3  502    0  0.15253444110E+03  0.51443916974E+02  0.17756559361E+04  0.17829440052E+04  0.46999998093E+01 0. -1.
       -5    1    3    3    0  502 -0.15253444110E+03 -0.51443916974E+02 -0.19300210590E+04  0.19367283264E+04  0.46999998093E+01 0.  1.
</event>
<event>
 5   0  0.1680194E-06  0.3780299E+04  0.7818609E-02  0.8050396E-01
       -2   -1    0    0    0  501  0.00000000000E+00  0.00000000000E+00  0.15596689408E+04  0.15596689408E+04  0.25500000920E-02 0. -1.
        2   -1    0    0  501    0  0.00000000000E+00  0.00000000000E+00 -0.22906559436E+04  0.22906559436E+04  0.25500000920E-02 0.  1.
    10030    2    1    2    0    0  0.00000000000E+00  0.00000000000E+00 -0.73098700282E+03  0.38503248844E+04  0.37802988926E+04 0.  0.
        2    1    3    3  502    0  0.62667440335E+03  0.10243571863E+04  0.11212153120E+04  0.16429096838E+04  0.25500000920E-02 0. -1.
       -2    1    3    3    0  502 -0.62667440335E+03 -0.10243571863E+04 -0.18522023148E+04  0.22074152007E+04  0.25500000920E-02 0.  1.
</event>
<event>
 5   0  0.5679750E-07  0.3686328E+04  0.7818609E-02  0.8070998E-01
       -1   -1    0    0    0  501  0.00000000000E+00  0.00000000000E+00  0.19064502676E+04  0.19064502676E+04  0.50400001928E-02 0.  1.
        1   -1    0    0  501    0  0.00000000000E+00  0.00000000000E+00 -0.17819785577E+04  0.17819785577E+04  0.50400001928E-02 0. -1.
    10030    2    1    2    0    0  0.00000000000E+00  0.00000000000E+00  0.12447170997E+03  0.36884288253E+04  0.36863279823E+04 0.  0.
        4    1    3    3  502    0 -0.42593149153E+03 -0.86111815145E+03 -0.15116544866E+04  0.17911010597E+04  0.12699999809E+01 0.  1.
       -4    1    3    3    0  502  0.42593149153E+03  0.86111815145E+03  0.16361261966E+04  0.18973277656E+04  0.12699999809E+01 0. -1.
</event>
<event>
 5   0  0.5875011E-07  0.2616800E+04  0.7818609E-02  0.8362517E-01
        1   -1    0    0  501    0  0.00000000000E+00  0.00000000000E+00  0.10036590760E+04  0.10036590760E+04  0.50400001928E-02 0.  1.
       -1   -1    0    0    0  501  0.00000000000E+00  0.00000000000E+00 -0.17056694453E+04  0.17056694453E+04  0.50400001928E-02 0. -1.
    10030    2    1    2    0    0  0.00000000000E+00  0.00000000000E+00 -0.70201036927E+03  0.27093285213E+04  0.26168000455E+04 0.  0.
        2    1    3    3  502    0  0.10127982733E+04  0.82636494985E+03 -0.29178799719E+03  0.13393205771E+04  0.25500000920E-02 0.  1.
       -2    1    3    3    0  502 -0.10127982733E+04 -0.82636494985E+03 -0.41022237208E+03  0.13700079443E+04  0.25500000920E-02 0. -1.
</event>
<event>
 5   0  0.1680194E-06  0.3732323E+04  0.7818609E-02  0.8060836E-01
       -2   -1    0    0    0  501  0.00000000000E+00  0.00000000000E+00  0.19810571288E+04  0.19810571289E+04  0.25500000920E-02 0. -1.
        2   -1    0    0  501    0  0.00000000000E+00  0.00000000000E+00 -0.17579297419E+04  0.17579297419E+04  0.25500000920E-02 0.  1.
    10030    2    1    2    0    0  0.00000000000E+00  0.00000000000E+00  0.22312738692E+03  0.37389868708E+04  0.37323232696E+04 0.  0.
        2    1    3    3  502    0 -0.18064320271E+04  0.46822361679E+03  0.10017574333E+03  0.18688138493E+04  0.25500000920E-02 0.  1.
       -2    1    3    3    0  502  0.18064320271E+04 -0.46822361679E+03  0.12295164359E+03  0.18701730215E+04  0.25500000920E-02 0. -1.
</event>
<event>
 5   0  0.1151180E-06  0.3642387E+04  0.7818609E-02  0.8080851E-01
       -2   -1    0    0    0  501  0.00000000000E+00  0.00000000000E+00  0.13524868045E+04  0.13524868045E+04  0.25500000920E-02 0. -1.
        2   -1    0    0  501    0  0.00000000000E+00  0.00000000000E+00 -0.24523312734E+04  0.24523312734E+04  0.25500000920E-02 0.  1.
    10030    2    1    2    0    0  0.00000000000E+00  0.00000000000E+00 -0.10998444689E+04  0.38048180779E+04  0.36423869578E+04 0.  0.
        5    1    3    3  502    0 -0.74410740395E+03  0.16556482315E+04 -0.39548922488E+03  0.18577676690E+04  0.46999998093E+01 0.  1.
       -5    1    3    3    0  502  0.74410740395E+03 -0.16556482315E+04 -0.70435524403E+03  0.19470504089E+04  0.46999998093E+01 0. -1.
</event>
<event>
 5   0  0.5875011E-07  0.3254789E+04  0.7818609E-02  0.8174496E-01
        1   -1    0    0  501    0  0.00000000000E+00  0.00000000000E+00  0.21127679919E+04  0.21127679920E+04  0.50400001928E-02 0.  1.
       -1   -1    0    0    0  501  0.00000000000E+00  0.00000000000E+00 -0.12535274840E+04  0.12535274840E+04  0.50400001928E-02 0. -1.
    10030    2    1    2    0    0  0.00000000000E+00  0.00000000000E+00  0.85924050793E+03  0.33662954760E+04  0.32547889303E+04 0.  0.
        2    1    3    3  502    0 -0.29906678199E+03 -0.85581952821E+03 -0.96817821488E+03  0.13263623414E+04  0.25500000920E-02 0. -1.
       -2    1    3    3    0  502  0.29906678199E+03  0.85581952821E+03  0.18274187228E+04  0.20399331346E+04  0.25500000920E-02 0.  1.
</event>
<event>
 5   0  0.1151180E-06  0.2013219E+04  0.7818609E-02  0.8600465E-01
        2   -1    0    0  501    0  0.00000000000E+00  0.00000000000E+00  0.22110906515E+04  0.22110906515E+04  0.25500000920E-02 0. -1.
       -2   -1    0    0    0  501  0.00000000000E+00  0.00000000000E+00 -0.45826375289E+03  0.45826375290E+03  0.25500000920E-02 0.  1.
    10030    2    1    2    0    0  0.00000000000E+00  0.00000000000E+00  0.17528268986E+04  0.26693544044E+04  0.20132190144E+04 0.  0.
        5    1    3    3  502    0  0.31635064921E+02 -0.30672340210E+03 -0.39408616516E+03  0.50040585358E+03  0.46999998093E+01 0.  1.
       -5    1    3    3    0  502 -0.31635064921E+02  0.30672340210E+03  0.21469130638E+04  0.21689485508E+04  0.46999998093E+01 0. -1.
</event>
<event>
 5   0  0.5679750E-07  0.3241151E+04  0.7818609E-02  0.8178033E-01
        3   -1    0    0  501    0  0.00000000000E+00  0.00000000000E+00  0.14729801582E+04  0.14729801616E+04  0.10100000352E+00 0.  1.
       -3   -1    0    0    0  501  0.00000000000E+00  0.00000000000E+00 -0.17829603480E+04  0.17829603509E+04  0.10100000352E+00 0. -1.
    10030    2    1    2    0    0  0.00000000000E+00  0.00000000000E+00 -0.30998018984E+03  0.32559405125E+04  0.32411511694E+04 0.  0.
        2    1    3    3  502    0  0.53417222014E+03  0.16462237545E+03 -0.16830571211E+04  0.17734491141E+04  0.25500000920E-02 0. -1.
       -2    1    3    3    0  502 -0.53417222014E+03 -0.16462237545E+03  0.13730769313E+04  0.14824913984E+04  0.25500000920E-02 0.  1.
</event>
<event>
 5   0  0.6287345E-07  0.3424447E+04  0.7818609E-02  0.8131932E-01
       -1   -1    0    0    0  501  0.00000000000E+00  0.00000000000E+00  0.13675568137E+04  0.13675568137E+04  0.50400001928E-02 0.  1.
        1   -1    0    0  501    0  0.00000000000E+00  0.00000000000E+00 -0.21437573953E+04  0.21437573954E+04  0.50400001928E-02 0. -1.
    10030    2    1    2    0    0  0.00000000000E+00  0.00000000000E+00 -0.77620058166E+03  0.35113142090E+04  0.34244474199E+04 0.  0.
        5    1    3    3  502    0 -0.11080418678E+04 -0.98818205706E+03 -0.12626288864E+04  0.19489777714E+04  0.46999998093E+01 0. -1.
       -5    1    3    3    0  502  0.11080418678E+04  0.98818205706E+03  0.48642830470E+03  0.15623364376E+04  0.46999998093E+01 0.  1.
</event>
<event>
 5   0  0.1184684E-06  0.2080140E+04  0.7818609E-02  0.8570043E-01
       -2   -1    0    0    0  501  0.00000000000E+00  0.00000000000E+00  0.10337202863E+04  0.10337202863E+04  0.25500000920E-02 0.  1.
        2   -1    0    0  501    0  0.00000000000E+00  0.00000000000E+00 -0.10464585610E+04  0.10464585610E+04  0.25500000920E-02 0. -1.
    10030    2    1    2    0    0  0.00000000000E+00  0.00000000000E+00 -0.12738274714E+02  0.20801788472E+04  0.20801398445E+04 0.  0.
        4    1    3    3  502    0 -0.49410221583E+03 -0.45736963928E+03 -0.79911336451E+03  0.10449439070E+04  0.12699999809E+01 0. -1.
       -4    1    3    3    0  502  0.49410221583E+03  0.45736963928E+03  0.78637508979E+03  0.10352349402E+04  0.12699999809E+01 0.  1.
</event>
<event>
 5   0  0.6186440E-07  0.3710025E+04  0.7818609E-02  0.8065744E-01
       -1   -1    0    0    0  501  0.00000000000E+00  0.00000000000E+00  0.18455589823E+04  0.18455589823E+04  0.50400001928E-02 0.  1.
        1   -1    0    0  501    0  0.00000000000E+00  0.00000000000E+00 -0.18645145969E+04  0.18645145969E+04  0.50400001928E-02 0. -1.
    10030    2    1    2    0    0  0.00000000000E+00  0.00000000000E+00 -0.18955614618E+02  0.37100735792E+04  0.37100251546E+04 0.  0.
        3    1    3    3  502    0  0.22683233951E+03  0.17591680400E+04  0.53361909737E+03  0.18522619833E+04  0.10100000352E+00 0. -1.
       -3    1    3    3    0  502 -0.22683233951E+03 -0.17591680400E+04 -0.55257471199E+03  0.18578115959E+04  0.10100000352E+00 0.  1.
</event>
<event>
 5   0  0.1184684E-06  0.1859104E+04  0.7818609E-02  0.8675485E-01
        2   -1    0    0  501    0  0.00000000000E+00  0.00000000000E+00  0.87646428624E+03  0.87646428625E+03  0.25500000920E-02 0.  1.
       -2   -1    0    0    0  501  0.00000000000E+00  0.00000000000E+00 -0.98585532620E+03  0.98585532620E+03  0.25500000920E-02 0. -1.
    10030    2    1    2    0    0  0.00000000000E+00  0.00000000000E+00 -0.10939103995E+03  0.18623196124E+04  0.18591040690E+04 0.  0.
        4    1    3    3  502    0  0.16157913651E+03  0.35656612089E+03  0.78986304696E+03  0.88155116798E+03  0.12699999809E+01 0.  1.
       -4    1    3    3    0  502 -0.16157913651E+03 -0.35656612089E+03 -0.89925408691E+03  0.98076844446E+03  0.12699999809E+01 0. -1.
</event>
<event>
 5   0  0.1184684E-06  0.3721721E+04  0.7818609E-02  0.8063165E-01
        2   -1    0    0  501    0  0.00000000000E+00  0.00000000000E+00  0.12830701571E+04  0.12830701571E+04  0.25500000920E-02 0.  1.
       -2   -1    0    0    0  501  0.00000000000E+00  0.00000000000E+00 -0.26988406193E+04  0.26988406193E+04  0.25500000920E-02 0. -1.
    10030    2    1    2    0    0  0.00000000000E+00  0.00000000000E+00 -0.14157704622E+04  0.39819107765E+04  0.37217210307E+04 0.  0.
        4    1    3    3  502    0 -0.13178148427E+04 -0.10941064314E+04  0.70356834355E+02  0.17142510142E+04  0.12699999809E+01 0.  1.
       -4    1    3    3    0  502  0.13178148427E+04  0.10941064314E+04 -0.14861272965E+04  0.22676597622E+04  0.12699999809E+01 0. -1.
</event>
<event>
 5   0  0.1685793E-06  0.3736511E+04  0.7818609E-02  0.8059918E-01
       -2   -1    0    0    0  501  0.00000000000E+00  0.00000000000E+00  0.18922331793E+04  0.18922331793E+04  0.25500000920E-02 0. -1.
        2   -1    0    0  501    0  0.00000000000E+00  0.00000000000E+00 -0.18445814992E+04  0.18445814992E+04  0.25500000920E-02 0.  1.
    10030    2    1    2    0    0  0.00000000000E+00  0.00000000000E+00  0.47651680105E+02  0.37368146786E+04  0.37365108403E+04 0.  0.
        3    1    3    3  502    0  0.10954979493E+04 -0.48984587495E+03 -0.14081822000E+04  0.18501464420E+04  0.10100000352E+00 0.  1.
       -3    1    3    3    0  502 -0.10954979493E+04  0.48984587495E+03  0.14558338801E+04  0.18866682366E+04  0.10100000352E+00 0. -1.
</event>
<event>
 5   0  0.1151180E-06  0.3503035E+04  0.7818609E-02  0.8113071E-01
       -2   -1    0    0    0  501  0.00000000000E+00  0.00000000000E+00  0.15184009618E+04  0.15184009618E+04  0.25500000920E-02 0. -1.
        2   -1    0    0  501    0  0.00000000000E+00  0.00000000000E+00 -0.20204233706E+04  0.20204233706E+04  0.25500000920E-02 0.  1.
    10030    2    1    2    0    0  0.00000000000E+00  0.00000000000E+00 -0.50202240876E+03  0.35388243324E+04  0.35030345641E+04 0.  0.
        5    1    3    3  502    0 -0.21422721164E+03  0.73910040908E+03 -0.18404992797E+04  0.19948990956E+04  0.46999998093E+01 0.  1.
       -5    1    3    3    0  502  0.21422721164E+03 -0.73910040908E+03  0.13384768710E+04  0.15439252369E+04  0.46999998093E+01 0. -1.
</event>
<event>
 5   0  0.5679750E-07  0.3684794E+04  0.7818609E-02  0.8071340E-01
        1   -1    0    0  501    0  0.00000000000E+00  0.00000000000E+00  0.18412266506E+04  0.18412266506E+04  0.50400001928E-02 0. -1.
       -1   -1    0    0    0  501  0.00000000000E+00  0.00000000000E+00 -0.18435679768E+04  0.18435679768E+04  0.50400001928E-02 0.  1.
    10030    2    1    2    0    0  0.00000000000E+00  0.00000000000E+00 -0.23413261804E+01  0.36847946275E+04  0.36847938836E+04 0.  0.
        4    1    3    3  502    0  0.49345929135E+03 -0.17668638989E+04  0.16945987563E+03  0.18422888947E+04  0.12699999809E+01 0. -1.
       -4    1    3    3    0  502 -0.49345929135E+03  0.17668638989E+04 -0.17180120181E+03  0.18425057327E+04  0.12699999809E+01 0.  1.
</event>
<event>
 5   0  0.6186440E-07  0.3677946E+04  0.7818609E-02  0.8072867E-01
       -1   -1    0    0    0  501  0.00000000000E+00  0.00000000000E+00  0.13598454964E+04  0.13598454964E+04  0.50400001928E-02 0.  1.
        1   -1    0    0  501    0  0.00000000000E+00  0.00000000000E+00 -0.24869162274E+04  0.24869162274E+04  0.50400001928E-02 0. -1.
    10030    2    1    2    0    0  0.00000000000E+00  0.00000000000E+00 -0.11270707310E+04  0.38467617238E+04  0.36779460745E+04 0.  0.
        3    1    3    3  502    0  0.63718663490E+03  0.16487981871E+04 -0.10940441311E+04  0.20788157303E+04  0.10100000352E+00 0. -1.
       -3    1    3    3    0  502 -0.63718663490E+03 -0.16487981871E+04 -0.33026599946E+02  0.17679459935E+04  0.10100000352E+00 0.  1.
</event>
<event>
 5   0  0.1724503E-06  0.3650624E+04  0.7818609E-02  0.8078993E-01
       -2   -1    0    0    0  501  0.00000000000E+00  0.00000000000E+00  0.15539779850E+04  0.15539779850E+04  0.25500000920E-02 0.  1.
        2   -1    0    0  501    0  0.00000000000E+00  0.00000000000E+00 -0.21440222026E+04  0.21440222026E+04  0.25500000920E-02 0. -1.
    10030    2    1    2    0    0  0.00000000000E+00  0.00000000000E+00 -0.59004421752E+03  0.36980001876E+04  0.36506236740E+04 0.  0.
        1    1    3    3  502    0 -0.73088644498E+03  0.16007323940E+04  0.19627112135E+03  0.17706105008E+04  0.50400001928E-02 0.  1.
       -1    1    3    3    0  502  0.73088644498E+03 -0.16007323940E+04 -0.78631533887E+03  0.19273896868E+04  0.50400001928E-02 0. -1.
</event>
<event>
 5   0  0.1151180E-06  0.3748647E+04  0.7818609E-02  0.8057266E-01
       -2   -1    0    0    0  501  0.00000000000E+00  0.00000000000E+00  0.26806376104E+04  0.26806376104E+04  0.25500000920E-02 0.  1.
        2   -1    0    0  501    0  0.00000000000E+00  0.00000000000E+00 -0.13105422819E+04  0.13105422819E+04  0.25500000920E-02 0. -1.
    10030    2    1    2    0    0  0.00000000000E+00  0.00000000000E+00  0.13700953285E+04  0.39911798923E+04  0.37486471858E+04 0.  0.
        5    1    3    3  502    0  0.25055312301E+03  0.13156199055E+04  0.20811572871E+04  0.24748475401E+04  0.46999998093E+01 0.  1.
       -5    1    3    3    0  502 -0.25055312301E+03 -0.13156199055E+04 -0.71106195863E+03  0.15163323522E+04  0.46999998093E+01 0. -1.
</event>
<event>
 5   0  0.1184684E-06  0.3223103E+04  0.7818609E-02  0.8182742E-01
       -2   -1    0    0    0  501  0.00000000000E+00  0.00000000000E+00  0.12398065923E+04  0.12398065923E+04  0.25500000920E-02 0.  1.
        2   -1    0    0  501    0  0.00000000000E+00  0.00000000000E+00 -0.20947602158E+04  0.20947602158E+04  0.25500000920E-02 0. -1.
    10030    2    1    2    0    0  0.00000000000E+00  0.00000000000E+00 -0.85495362346E+03  0.33345668081E+04  0.32231025580E+04 0.  0.
        4    1    3    3  502    0  0.40256978802E+03 -0.38449684183E+03 -0.19921259198E+04  0.20684456843E+04  0.12699999809E+01 0. -1.
       -4    1    3    3    0  502 -0.40256978802E+03  0.38449684183E+03  0.11371722963E+04  0.12661211238E+04  0.12699999809E+01 0.  1.
</event>
<event>
 5   0  0.6186440E-07  0.3694289E+04  0.7818609E-02  0.8069229E-01
       -1   -1    0    0    0  501  0.00000000000E+00  0.00000000000E+00  0.18821106062E+04  0.18821106062E+04  0.50400001928E-02 0. -1.
        1   -1    0    0  501    0  0.00000000000E+00  0.00000000000E+00 -0.18128284068E+04  0.18128284068E+04  0.50400001928E-02 0.  1.
    10030    2    1    2    0    0  0.00000000000E+00  0.00000000000E+00  0.69282199379E+02  0.36949390131E+04  0.36942894157E+04 0.  0.
        3    1    3    3  502    0 -0.66848297977E+03 -0.16565902611E+04  0.50459899673E+03  0.18562814833E+04  0.10100000352E+00 0. -1.
       -3    1    3    3    0  502  0.66848297977E+03  0.16565902611E+04 -0.43531679735E+03  0.18386575298E+04  0.10100000352E+00 0.  1.
</event>
<event>
 5   0  0.5679750E-07  0.3498759E+04  0.7818609E-02  0.8114084E-01
        1   -1    0    0  501    0  0.00000000000E+00  0.00000000000E+00  0.19355974499E+04  0.19355974499E+04  0.50400001928E-02 0. -1.
       -1   -1    0    0    0  501  0.00000000000E+00  0.00000000000E+00 -0.15810774324E+04  0.15810774324E+04  0.50400001928E-02 0.  1.
    10030    2    1    2    0    0  0.00000000000E+00  0.00000000000E+00  0.35452001746E+03  0.35166748823E+04  0.34987594637E+04 0.  0.
        4    1    3    3  502    0 -0.11467920865E+03 -0.17161033382E+04  0.49853061962E+03  0.17907250989E+04  0.12699999809E+01 0.  1.
       -4    1    3    3    0  502  0.11467920865E+03  0.17161033382E+04 -0.14401060215E+03  0.17259497834E+04  0.12699999809E+01 0. -1.
</event>
<event>
 5   0  0.1151180E-06  0.2501738E+04  0.7818609E-02  0.8402367E-01
       -2   -1    0    0    0  501  0.00000000000E+00  0.00000000000E+00  0.11820323222E+04  0.11820323222E+04  0.25500000920E-02 0.  1.
        2   -1    0    0  501    0  0.00000000000E+00  0.00000000000E+00 -0.13237143215E+04  0.13237143215E+04  0.25500000920E-02 0. -1.
    10030    2    1    2    0    0  0.00000000000E+00  0.00000000000E+00 -0.14168199930E+03  0.25057466436E+04  0.25017378866E+04 0.  0.
        5    1    3    3  502    0  0.56152447192E+03  0.56957650964E+03  0.89242970001E+03  0.11984072732E+04  0.46999998093E+01 0.  1.
       -5    1    3    3    0  502 -0.56152447192E+03 -0.56957650964E+03 -0.10341116993E+04  0.13073393705E+04  0.46999998093E+01 0. -1.
</event>
<event>
 5   0  0.6287345E-07  0.2379398E+04  0.7818609E-02  0.8447257E-01
        1   -1    0    0  501    0  0.00000000000E+00  0.00000000000E+00  0.17648295286E+04  0.17648295286E+04  0.50400001928E-02 0.  1.
       -1   -1    0    0    0  501  0.00000000000E+00  0.00000000000E+00 -0.80199474573E+03  0.80199474574E+03  0.50400001928E-02 0. -1.
    10030    2    1    2    0    0  0.00000000000E+00  0.00000000000E+00  0.96283478290E+03  0.25668242744E+04  0.23793982509E+04 0.  0.
        5    1    3    3  502    0  0.83522933731E+03  0.76040060692E+03  0.88439954485E+03  0.14345737255E+04  0.46999998093E+01 0. -1.
       -5    1    3    3    0  502 -0.83522933731E+03 -0.76040060692E+03  0.78435238045E+02  0.11322505489E+04  0.46999998093E+01 0.  1.
</event>
<event>
 5   0  0.1151180E-06  0.3702773E+04  0.7818609E-02  0.8067348E-01
        2   -1    0    0  501    0  0.00000000000E+00  0.00000000000E+00  0.12544801813E+04  0.12544801813E+04  0.25500000920E-02 0. -1.
       -2   -1    0    0    0  501  0.00000000000E+00  0.00000000000E+00 -0.27323127192E+04  0.27323127192E+04  0.25500000920E-02 0.  1.
    10030    2    1    2    0    0  0.00000000000E+00  0.00000000000E+00 -0.14778325379E+04  0.39867929006E+04  0.37027730989E+04 0.  0.
        5    1    3    3  502    0  0.64903617611E+03  0.12959291648E+04  0.50136599966E+03  0.15336460849E+04  0.46999998093E+01 0. -1.
       -5    1    3    3    0  502 -0.64903617611E+03 -0.12959291648E+04 -0.19791985376E+04  0.24531468157E+04  0.46999998093E+01 0.  1.
</event>
<event>
 5   0  0.6261598E-07  0.3604351E+04  0.7818609E-02  0.8089496E-01
       -1   -1    0    0    0  501  0.00000000000E+00  0.00000000000E+00  0.16256656883E+04  0.16256656883E+04  0.50400001928E-02 0. -1.
        1   -1    0    0  501    0  0.00000000000E+00  0.00000000000E+00 -0.19978500183E+04  0.19978500183E+04  0.50400001928E-02 0.  1.
    10030    2    1    2    0    0  0.00000000000E+00  0.00000000000E+00 -0.37218433005E+03  0.36235157066E+04  0.36043508293E+04 0.  0.
        1    1    3    3  502    0  0.54567940039E+03  0.90859473025E+03 -0.16514176398E+04  0.19622667028E+04  0.50400001928E-02 0.  1.
       -1    1    3    3    0  502 -0.54567940039E+03 -0.90859473025E+03  0.12792333098E+04  0.16612490038E+04  0.50400001928E-02 0. -1.
</event>
<event>
 5   0  0.1724503E-06  0.3686560E+04  0.7818609E-02  0.8070947E-01
        2   -1    0    0  501    0  0.00000000000E+00  0.00000000000E+00  0.26231601912E+04  0.26231601912E+04  0.25500000920E-02 0. -1.
       -2   -1    0    0    0  501  0.00000000000E+00  0.00000000000E+00 -0.12952628872E+04  0.12952628872E+04  0.25500000920E-02 0.  1.
    10030    2    1    2    0    0  0.00000000000E+00  0.00000000000E+00  0.13278973040E+04  0.39184230784E+04  0.36865604799E+04 0.  0.
        1    1    3    3  502    0  0.16589113856E+04 -0.13817791024E+03 -0.17741902608E+03  0.16740841170E+04  0.50400001928E-02 0.  1.
       -1    1    3    3    0  502 -0.16589113856E+04  0.13817791024E+03  0.15053163301E+04  0.22443389614E+04  0.50400001928E-02 0. -1.
</event>
<event>
 5   0  0.5679750E-07  0.1836040E+04  0.7818609E-02  0.8687365E-01
        4   -1    0    0  501    0  0.00000000000E+00  0.00000000000E+00  0.19765538989E+04  0.19765543069E+04  0.12699999809E+01 0. -1.
       -4   -1    0    0    0  501  0.00000000000E+00  0.00000000000E+00 -0.42637761167E+03  0.42637950306E+03  0.12699999809E+01 0.  1.
    10030    2    1    2    0    0  0.00000000000E+00  0.00000000000E+00  0.15501762872E+04  0.24029338099E+04  0.18360404063E+04 0.  0.
        1    1    3    3  502    0  0.49345456971E+03 -0.61167439366E+03  0.13960498193E+04  0.16020605713E+04  0.50400001928E-02 0. -1.
       -1    1    3    3    0  502 -0.49345456971E+03  0.61167439366E+03  0.15412646793E+03  0.80087323864E+03  0.50400001928E-02 0.  1.
</event>
<event>
 5   0  0.5679750E-07  0.2630876E+04  0.7818609E-02  0.8357788E-01
        1   -1    0    0  501    0  0.00000000000E+00  0.00000000000E+00  0.13681225182E+04  0.13681225182E+04  0.50400001928E-02 0.  1.
       -1   -1    0    0    0  501  0.00000000000E+00  0.00000000000E+00 -0.12647822247E+04  0.12647822247E+04  0.50400001928E-02 0. -1.
    10030    2    1    2    0    0  0.00000000000E+00  0.00000000000E+00  0.10334029358E+03  0.26329047429E+04  0.26308759319E+04 0.  0.
        4    1    3    3  502    0 -0.47618548160E+02 -0.11167883300E+04  0.74566848860E+03  0.13436914854E+04  0.12699999809E+01 0.  1.
       -4    1    3    3    0  502  0.47618548160E+02  0.11167883300E+04 -0.64232819502E+03  0.12892132575E+04  0.12699999809E+01 0. -1.
</event>
<event>
 5   0  0.1184684E-06  0.3260752E+04  0.7818609E-02  0.8172955E-01
       -2   -1    0    0    0  501  0.00000000000E+00  0.00000000000E+00  0.15275999659E+04  0.15275999659E+04  0.25500000920E-02 0.  1.
        2   -1    0    0  501    0  0.00000000000E+00  0.00000000000E+00 -0.17400664088E+04  0.17400664088E+04  0.25500000920E-02 0. -1.
    10030    2    1    2    0    0  0.00000000000E+00  0.00000000000E+00 -0.21246644286E+03  0.32676663747E+04  0.32607516843E+04 0.  0.
        4    1    3    3  502    0 -0.13996777398E+04 -0.23996484532E+03  0.69636644214E+03  0.15816474756E+04  0.12699999809E+01 0.  1.
       -4    1    3    3    0  502  0.13996777398E+04  0.23996484532E+03 -0.90883288500E+03  0.16860188991E+04  0.12699999809E+01 0. -1.
</event>
<event>
 5   0  0.6186440E-07  0.2766843E+04  0.7818609E-02  0.8313637E-01
        1   -1    0    0  501    0  0.00000000000E+00  0.00000000000E+00  0.19997903898E+04  0.19997903898E+04  0.50400001928E-02 0.  1.
       -1   -1    0    0    0  501  0.00000000000E+00  0.00000000000E+00 -0.95702756357E+03  0.95702756358E+03  0.50400001928E-02 0. -1.
    10030    2    1    2    0    0  0.00000000000E+00  0.00000000000E+00  0.10427628263E+04  0.29568179534E+04  0.27668426225E+04 0.  0.
        3    1    3    3  502    0  0.86576323923E+02  0.72265393358E+03 -0.73588879432E+03  0.10350152151E+04  0.10100000352E+00 0. -1.
       -3    1    3    3    0  502 -0.86576323923E+02 -0.72265393358E+03  0.17786516206E+04  0.19218027384E+04  0.10100000352E+00 0.  1.
</event>
<event>
 5   0  0.9636667E-07  0.1821074E+04  0.7818609E-02  0.8695172E-01
       -1   -1    0    0    0  501  0.00000000000E+00  0.00000000000E+00  0.12566485164E+04  0.12566485164E+04  0.50400001928E-02 0. -1.
        1   -1    0    0  501    0  0.00000000000E+00  0.00000000000E+00 -0.65975297645E+03  0.65975297647E+03  0.50400001928E-02 0.  1.
    10030    2    1    2    0    0  0.00000000000E+00  0.00000000000E+00  0.59689553994E+03  0.19164014929E+04  0.18210739678E+04 0.  0.
        3    1    3    3  502    0 -0.66004109065E+03  0.83303664858E+01 -0.36156246986E+03  0.75262943482E+03  0.10100000352E+00 0.  1.
       -3    1    3    3    0  502  0.66004109065E+03 -0.83303664858E+01  0.95845800980E+03  0.11637720581E+04  0.10100000352E+00 0. -1.
</event>
<event>
 5   0  0.6287345E-07  0.3541014E+04  0.7818609E-02  0.8104138E-01
        1   -1    0    0  501    0  0.00000000000E+00  0.00000000000E+00  0.11333369680E+04  0.11333369681E+04  0.50400001928E-02 0.  1.
       -1   -1    0    0    0  501  0.00000000000E+00  0.00000000000E+00 -0.27658984177E+04  0.27658984177E+04  0.50400001928E-02 0. -1.
    10030    2    1    2    0    0  0.00000000000E+00  0.00000000000E+00 -0.16325614497E+04  0.38992353858E+04  0.35410139377E+04 0.  0.
        5    1    3    3  502    0  0.70422215139E+03  0.13909590836E+03 -0.25984642473E+04  0.26957958092E+04  0.46999998093E+01 0. -1.
       -5    1    3    3    0  502 -0.70422215139E+03 -0.13909590836E+03  0.96590279759E+03  0.12034395766E+04  0.46999998093E+01 0.  1.
</event>
<event>
 5   0  0.1151180E-06  0.3700601E+04  0.7818609E-02  0.8067829E-01
        2   -1    0    0  501    0  0.00000000000E+00  0.00000000000E+00  0.28552458332E+04  0.28552458332E+04  0.25500000920E-02 0.  1.
       -2   -1    0    0    0  501  0.00000000000E+00  0.00000000000E+00 -0.11990605856E+04  0.11990605856E+04  0.25500000920E-02 0. -1.
    10030    2    1    2    0    0  0.00000000000E+00  0.00000000000E+00  0.16561852476E+04  0.40543064189E+04  0.37006014327E+04 0.  0.
        5    1    3    3  502    0  0.64213899459E+03 -0.67076396214E+03  0.25814744660E+04  0.27434101571E+04  0.46999998093E+01 0.  1.
       -5    1    3    3    0  502 -0.64213899459E+03  0.67076396214E+03 -0.92528921846E+03  0.13108962618E+04  0.46999998093E+01 0. -1.
</event>
<event>
 5   0  0.1202694E-06  0.1988462E+04  0.7818609E-02  0.8612034E-01
        2   -1    0    0  501    0  0.00000000000E+00  0.00000000000E+00  0.94658624013E+03  0.94658624014E+03  0.25500000920E-02 0. -1.
       -2   -1    0    0    0  501  0.00000000000E+00  0.00000000000E+00 -0.10442742120E+04  0.10442742120E+04  0.25500000920E-02 0.  1.
    10030    2    1    2    0    0  0.00000000000E+00  0.00000000000E+00 -0.97687971901E+02  0.19908604522E+04  0.19884623205E+04 0.  0.
        4    1    3    3  502    0  0.14011676598E+03 -0.49511656621E+03 -0.90058782410E+03  0.10372237772E+04  0.12699999809E+01 0.  1.
       -4    1    3    3    0  502 -0.14011676598E+03  0.49511656621E+03  0.80289985220E+03  0.95363667494E+03  0.12699999809E+01 0. -1.
</event>
<event>
 5   0  0.5875011E-07  0.3202335E+04  0.7818609E-02  0.8188201E-01
       -1   -1    0    0    0  501  0.00000000000E+00  0.00000000000E+00  0.12423331176E+04  0.12423331177E+04  0.50400001928E-02 0.  1.
        1   -1    0    0  501    0  0.00000000000E+00  0.00000000000E+00 -0.20636471433E+04  0.20636471433E+04  0.50400001928E-02 0. -1.
    10030    2    1    2    0    0  0.00000000000E+00  0.00000000000E+00 -0.82131402561E+03  0.33059802609E+04  0.32023348914E+04 0.  0.
        2    1    3    3  502    0 -0.50371769304E+03 -0.63603549786E+03  0.10144055866E+04  0.12989577988E+04  0.25500000920E-02 0.  1.
       -2    1    3    3    0  502  0.50371769304E+03  0.63603549786E+03 -0.18357196122E+04  0.20070224621E+04  0.25500000920E-02 0. -1.
</event>
<event>
 5   0  0.1724503E-06  0.3561183E+04  0.7818609E-02  0.8099441E-01
       -2   -1    0    0    0  501  0.00000000000E+00  0.00000000000E+00  0.15744769863E+04  0.15744769863E+04  0.25500000920E-02 0.  1.
        2   -1    0    0  501    0  0.00000000000E+00  0.00000000000E+00 -0.20136884896E+04  0.20136884896E+04  0.25500000920E-02 0. -1.
    10030    2    1    2    0    0  0.00000000000E+00  0.00000000000E+00 -0.43921150331E+03  0.35881654759E+04  0.35611830531E+04 0.  0.
        1    1    3    3  502    0 -0.54286478756E+03 -0.46123981739E+03 -0.18638593116E+04  0.19953485610E+04  0.50400001928E-02 0. -1.
       -1    1    3    3    0  502  0.54286478756E+03  0.46123981739E+03  0.14246478083E+04  0.15928169149E+04  0.50400001928E-02 0.  1.
</event>
<event>
 5   0  0.1724503E-06  0.3718319E+04  0.7818609E-02  0.8063914E-01
       -2   -1    0    0    0  501  0.00000000000E+00  0.00000000000E+00  0.22671819283E+04  0.22671819283E+04  0.25500000920E-02 0. -1.
        2   -1    0    0  501    0  0.00000000000E+00  0.00000000000E+00 -0.15245686059E+04  0.15245686060E+04  0.25500000920E-02 0.  1.
    10030    2    1    2    0    0  0.00000000000E+00  0.00000000000E+00  0.74261332235E+03  0.37917505343E+04  0.37183191858E+04 0.  0.
        1    1    3    3  502    0 -0.34060775719E+03 -0.98303030555E+03  0.19425509275E+04  0.22036030341E+04  0.50400001928E-02 0. -1.
       -1    1    3    3    0  502  0.34060775719E+03  0.98303030555E+03 -0.11999376052E+04  0.15881475001E+04  0.50400001928E-02 0.  1.
</event>
<event>
 5   0  0.1685793E-06  0.2969289E+04  0.7818609E-02  0.8252555E-01
        2   -1    0    0  501    0  0.00000000000E+00  0.00000000000E+00  0.12322672821E+04  0.12322672821E+04  0.25500000920E-02 0.  1.
       -2   -1    0    0    0  501  0.00000000000E+00  0.00000000000E+00 -0.17887104197E+04  0.17887104197E+04  0.25500000920E-02 0. -1.
    10030    2    1    2    0    0  0.00000000000E+00  0.00000000000E+00 -0.55644313765E+03  0.30209777018E+04  0.29692890243E+04 0.  0.
        3    1    3    3  502    0  0.64115295634E+03  0.10611871731E+04  0.55267983928E+03  0.13574425751E+04  0.10100000352E+00 0.  1.
       -3    1    3    3    0  502 -0.64115295634E+03 -0.10611871731E+04 -0.11091229769E+04  0.16635351267E+04  0.10100000352E+00 0. -1.
</event>
<event>
 5   0  0.5679750E-07  0.2276224E+04  0.7818609E-02  0.8487355E-01
        1   -1    0    0  501    0  0.00000000000E+00  0.00000000000E+00  0.16354297783E+04  0.16354297784E+04  0.50400001928E-02 0. -1.
       -1   -1    0    0    0  501  0.00000000000E+00  0.00000000000E+00 -0.79202331495E+03  0.79202331497E+03  0.50400001928E-02 0.  1.
    10030    2    1    2    0    0  0.00000000000E+00  0.00000000000E+00  0.84340646340E+03  0.24274530933E+04  0.22762236397E+04 0.  0.
        4    1    3    3  502    0  0.92840414942E+03  0.64760763749E+03  0.29566936902E+03  0.11699367100E+04  0.12699999809E+01 0. -1.
       -4    1    3    3    0  502 -0.92840414942E+03 -0.64760763749E+03  0.54773709437E+03  0.12575163833E+04  0.12699999809E+01 0.  1.
</event>
<event>
 5   0  0.6186440E-07  0.3740249E+04  0.7818609E-02  0.8059100E-01
       -1   -1    0    0    0  501  0.00000000000E+00  0.00000000000E+00  0.16368436485E+04  0.16368436485E+04  0.50400001928E-02 0. -1.
        1   -1    0    0  501    0  0.00000000000E+00  0.00000000000E+00 -0.21366527963E+04  0.21366527963E+04  0.50400001928E-02 0.  1.
    10030    2    1    2    0    0  0.00000000000E+00  0.00000000000E+00 -0.49980914785E+03  0.37734964448E+04  0.37402494883E+04 0.  0.
        3    1    3    3  502    0  0.23222751722E+03 -0.18388192272E+04  0.16727250219E+01  0.18534261729E+04  0.10100000352E+00 0. -1.
       -3    1    3    3    0  502 -0.23222751722E+03  0.18388192272E+04 -0.50148187287E+03  0.19200702719E+04  0.10100000352E+00 0.  1.
</event>
<event>
 5   0  0.1724503E-06  0.3465518E+04  0.7818609E-02  0.8122011E-01
       -2   -1    0    0    0  501  0.00000000000E+00  0.00000000000E+00  0.12235824618E+04  0.12235824618E+04  0.25500000920E-02 0.  1.
        2   -1    0    0  501    0  0.00000000000E+00  0.00000000000E+00 -0.24538218041E+04  0.24538218041E+04  0.25500000920E-02 0. -1.
    10030    2    1    2    0    0  0.00000000000E+00  0.00000000000E+00 -0.12302393423E+04  0.36774042659E+04  0.34655177529E+04 0.  0.
        1    1    3    3  502    0 -0.56228348982E+03  0.16364060686E+04 -0.51748440253E+03  0.18060392164E+04  0.50400001928E-02 0.  1.
       -1    1    3    3    0  502  0.56228348982E+03 -0.16364060686E+04 -0.71275493978E+03  0.18713650495E+04  0.50400001928E-02 0. -1.
</event>
<event>
 5   0  0.6287345E-07  0.2221799E+04  0.7818609E-02  0.8509409E-01
        1   -1    0    0  501    0  0.00000000000E+00  0.00000000000E+00  0.14046979680E+04  0.14046979680E+04  0.50400001928E-02 0. -1.
       -1   -1    0    0    0  501  0.00000000000E+00  0.00000000000E+00 -0.87855026232E+03  0.87855026233E+03  0.50400001928E-02 0.  1.
    10030    2    1    2    0    0  0.00000000000E+00  0.00000000000E+00  0.52614770565E+03  0.22832482303E+04  0.22217990623E+04 0.  0.
        5    1    3    3  502    0  0.82768829707E+03  0.28497591391E+03  0.96594680281E+03  0.13035929213E+04  0.46999998093E+01 0. -1.
       -5    1    3    3    0  502 -0.82768829707E+03 -0.28497591391E+03 -0.43979909716E+03  0.97965530901E+03  0.46999998093E+01 0.  1.
</event>
<event>
 5   0  0.6186440E-07  0.3794585E+04  0.7818609E-02  0.8047318E-01
        1   -1    0    0  501    0  0.00000000000E+00  0.00000000000E+00  0.20557992000E+04  0.20557992000E+04  0.50400001928E-02 0. -1.
       -1   -1    0    0    0  501  0.00000000000E+00  0.00000000000E+00 -0.17510068018E+04  0.17510068018E+04  0.50400001928E-02 0.  1.
    10030    2    1    2    0    0  0.00000000000E+00  0.00000000000E+00  0.30479239822E+03  0.38068060018E+04  0.37945847638E+04 0.  0.
        3    1    3    3  502    0  0.96091349038E+03 -0.15808342829E+04 -0.27006170309E+03  0.18695788562E+04  0.10100000352E+00 0. -1.
       -3    1    3    3    0  502 -0.96091349038E+03  0.15808342829E+04  0.57485410131E+03  0.19372271457E+04  0.10100000352E+00 0.  1.
</event>
<event>
 5   0  0.1680194E-06  0.3558441E+04  0.7818609E-02  0.8100078E-01
        2   -1    0    0  501    0  0.00000000000E+00  0.00000000000E+00  0.13099957342E+04  0.13099957342E+04  0.25500000920E-02 0. -1.
       -2   -1    0    0    0  501  0.00000000000E+00  0.00000000000E+00 -0.24165165654E+04  0.24165165654E+04  0.25500000920E-02 0.  1.
    10030    2    1    2    0    0  0.00000000000E+00  0.00000000000E+00 -0.11065208312E+04  0.37265122997E+04  0.35584414523E+04 0.  0.
        2    1    3    3  502    0  0.19481608583E+03  0.91861492742E+03  0.10293486229E+04  0.13933288484E+04  0.25500000920E-02 0. -1.
       -2    1    3    3    0  502 -0.19481608583E+03 -0.91861492742E+03 -0.21358694542E+04  0.23331834513E+04  0.25500000920E-02 0.  1.
</event>
<event>
 5   0  0.5679750E-07  0.1940088E+04  0.7818609E-02  0.8635155E-01
       -1   -1    0    0    0  501  0.00000000000E+00  0.00000000000E+00  0.51411282976E+03  0.51411282978E+03  0.50400001928E-02 0.  1.
        1   -1    0    0  501    0  0.00000000000E+00  0.00000000000E+00 -0.18303094165E+04  0.18303094165E+04  0.50400001928E-02 0. -1.
    10030    2    1    2    0    0  0.00000000000E+00  0.00000000000E+00 -0.13161965868E+04  0.23444222463E+04  0.19400881975E+04 0.  0.
        4    1    3    3  502    0  0.40028938509E+03 -0.33773228426E+03  0.32858116624E+03  0.61827330797E+03  0.12699999809E+01 0.  1.
       -4    1    3    3    0  502 -0.40028938509E+03  0.33773228426E+03 -0.16447777530E+04  0.17261489383E+04  0.12699999809E+01 0. -1.
</event>
<event>
 5   0  0.5679750E-07  0.3735516E+04  0.7818609E-02  0.8060136E-01
       -1   -1    0    0    0  501  0.00000000000E+00  0.00000000000E+00  0.15481403241E+04  0.15481403241E+04  0.50400001928E-02 0. -1.
        1   -1    0    0  501    0  0.00000000000E+00  0.00000000000E+00 -0.22533617798E+04  0.22533617798E+04  0.50400001928E-02 0.  1.
    10030    2    1    2    0    0  0.00000000000E+00  0.00000000000E+00 -0.70522145569E+03  0.38015021039E+04  0.37355161550E+04 0.  0.
        4    1    3    3  502    0  0.12279841147E+04  0.15196988637E+03 -0.17764243669E+04  0.21648845181E+04  0.12699999809E+01 0.  1.
       -4    1    3    3    0  502 -0.12279841147E+04 -0.15196988637E+03  0.10712029112E+04  0.16366175858E+04  0.12699999809E+01 0. -1.
</event>
<event>
 5   0  0.5875011E-07  0.2091065E+04  0.7818609E-02  0.8565189E-01
       -1   -1    0    0    0  501  0.00000000000E+00  0.00000000000E+00  0.10631897878E+04  0.10631897878E+04  0.50400001928E-02 0. -1.
        1   -1    0    0  501    0  0.00000000000E+00  0.00000000000E+00 -0.10281685932E+04  0.10281685932E+04  0.50400001928E-02 0.  1.
    10030    2    1    2    0    0  0.00000000000E+00  0.00000000000E+00  0.35021194614E+02  0.20913583810E+04  0.20910651338E+04 0.  0.
        2    1    3    3  502    0 -0.28818289827E+03  0.56772273261E+03 -0.81193065077E+03  0.10317896421E+04  0.25500000920E-02 0.  1.
       -2    1    3    3    0  502  0.28818289827E+03 -0.56772273261E+03  0.84695184538E+03  0.10595687389E+04  0.25500000920E-02 0. -1.
</event>
<event>
 5   0  0.1184684E-06  0.1839072E+04  0.7818609E-02  0.8685793E-01
        2   -1    0    0  501    0  0.00000000000E+00  0.00000000000E+00  0.43639902521E+03  0.43639902522E+03  0.25500000920E-02 0. -1.
       -2   -1    0    0    0  501  0.00000000000E+00  0.00000000000E+00 -0.19375536194E+04  0.19375536194E+04  0.25500000920E-02 0.  1.
    10030    2    1    2    0    0  0.00000000000E+00  0.00000000000E+00 -0.15011545942E+04  0.23739526446E+04  0.18390720604E+04 0.  0.
        4    1    3    3  502    0 -0.62245678183E+03 -0.65671704435E+03 -0.96195717052E+03  0.13206411066E+04  0.12699999809E+01 0. -1.
       -4    1    3    3    0  502  0.62245678183E+03  0.65671704435E+03 -0.53919742368E+03  0.10533115381E+04  0.12699999809E+01 0.  1.
</event>
<event>
 5   0  0.6261598E-07  0.3651439E+04  0.7818609E-02  0.8078810E-01
        1   -1    0    0  501    0  0.00000000000E+00  0.00000000000E+00  0.29210472712E+04  0.29210472712E+04  0.50400001928E-02 0. -1.
       -1   -1    0    0    0  501  0.00000000000E+00  0.00000000000E+00 -0.11411150215E+04  0.11411150215E+04  0.50400001928E-02 0.  1.
    10030    2    1    2    0    0  0.00000000000E+00  0.00000000000E+00  0.17799322497E+04  0.40621622927E+04  0.36514385766E+04 0.  0.
        1    1    3    3  502    0  0.10062788328E+04  0.44331875048E+03 -0.73140723056E+03  0.13206381566E+04  0.50400001928E-02 0.  1.
       -1    1    3    3    0  502 -0.10062788328E+04 -0.44331875048E+03  0.25113394802E+04  0.27415241361E+04  0.50400001928E-02 0. -1.
</event>
<event>
 5   0  0.6186440E-07  0.2508791E+04  0.7818609E-02  0.8399860E-01
        1   -1    0    0  501    0  0.00000000000E+00  0.00000000000E+00  0.15901751501E+04  0.15901751501E+04  0.50400001928E-02 0. -1.
       -1   -1    0    0    0  501  0.00000000000E+00  0.00000000000E+00 -0.98951898301E+03  0.98951898303E+03  0.50400001928E-02 0.  1.
    10030    2    1    2    0    0  0.00000000000E+00  0.00000000000E+00  0.60065616711E+03  0.25796941332E+04  0.25087913404E+04 0.  0.
        3    1    3    3  502    0 -0.31781722155E+03  0.80612280374E+03 -0.63231535690E+03  0.10726903010E+04  0.10100000352E+00 0.  1.
       -3    1    3    3    0  502  0.31781722155E+03 -0.80612280374E+03  0.12329715240E+04  0.15070038322E+04  0.10100000352E+00 0. -1.
</event>
<event>
 5   0  0.5875011E-07  0.3704979E+04  0.7818609E-02  0.8066859E-01
        1   -1    0    0  501    0  0.00000000000E+00  0.00000000000E+00  0.23679594991E+04  0.23679594992E+04  0.50400001928E-02 0.  1.
       -1   -1    0    0    0  501  0.00000000000E+00  0.00000000000E+00 -0.14492295620E+04  0.14492295620E+04  0.50400001928E-02 0. -1.
    10030    2    1    2    0    0  0.00000000000E+00  0.00000000000E+00  0.91872993717E+03  0.38171890611E+04  0.37049787626E+04 0.  0.
        2    1    3    3  502    0  0.17666865011E+04  0.43914825740E+03  0.81280653449E+03  0.19936616683E+04  0.25500000920E-02 0.  1.
       -2    1    3    3    0  502 -0.17666865011E+04 -0.43914825740E+03  0.10592340268E+03  0.18235273928E+04  0.25500000920E-02 0. -1.
</event>
<event>
 5   0  0.1680194E-06  0.3673500E+04  0.7818609E-02  0.8073860E-01
       -2   -1    0    0    0  501  0.00000000000E+00  0.00000000000E+00  0.16456861162E+04  0.16456861162E+04  0.25500000920E-02 0.  1.
        2   -1    0    0  501    0  0.00000000000E+00  0.00000000000E+00 -0.20499962989E+04  0.20499962989E+04  0.25500000920E-02 0. -1.
    10030    2    1    2    0    0  0.00000000000E+00  0.00000000000E+00 -0.40431018263E+03  0.36956824151E+04  0.36734999373E+04 0.  0.
        2    1    3    3  502    0  0.69281487465E+03 -0.48314273157E+03 -0.18430255251E+04  0.20273535547E+04  0.25500000920E-02 0. -1.
       -2    1    3    3    0  502 -0.69281487465E+03  0.48314273157E+03  0.14387153425E+04  0.16683288604E+04  0.25500000920E-02 0.  1.
</event>
<event>
 5   0  0.6287345E-07  0.3795495E+04  0.7818609E-02  0.8047122E-01
       -1   -1    0    0    0  501  0.00000000000E+00  0.00000000000E+00  0.14717929511E+04  0.14717929511E+04  0.50400001928E-02 0. -1.
        1   -1    0    0  501    0  0.00000000000E+00  0.00000000000E+00 -0.24469784240E+04  0.24469784240E+04  0.50400001928E-02 0.  1.
    10030    2    1    2    0    0  0.00000000000E+00  0.00000000000E+00 -0.97518547288E+03  0.39187713751E+04  0.37954950117E+04 0.  0.
        5    1    3    3  502    0  0.18538651003E+03  0.18101347883E+04  0.68862453949E+02  0.18209119247E+04  0.46999998093E+01 0. -1.
       -5    1    3    3    0  502 -0.18538651003E+03 -0.18101347883E+04 -0.10440479268E+04  0.20978594504E+04  0.46999998093E+01 0.  1.
</event>
<event>
 5   0  0.1184684E-06  0.3705719E+04  0.7818609E-02  0.8066696E-01
       -2   -1    0    0    0  501  0.00000000000E+00  0.00000000000E+00  0.21511237355E+04  0.21511237355E+04  0.25500000920E-02 0.  1.
        2   -1    0    0  501    0  0.00000000000E+00  0.00000000000E+00 -0.15959507524E+04  0.15959507524E+04  0.25500000920E-02 0. -1.
    10030    2    1    2    0    0  0.00000000000E+00  0.00000000000E+00  0.55517298316E+03  0.37470744879E+04  0.37057185776E+04 0.  0.
        4    1    3    3  502    0  0.58302910986E+03  0.13085087236E+04  0.14658470583E+04  0.20495919676E+04  0.12699999809E+01 0.  1.
       -4    1    3    3    0  502 -0.58302910986E+03 -0.13085087236E+04 -0.91067407513E+03  0.16974825203E+04  0.12699999809E+01 0. -1.
</event>
<event>
 5   0  0.1184684E-06  0.3106134E+04  0.7818609E-02  0.8214056E-01
        2   -1    0    0  501    0  0.00000000000E+00  0.00000000000E+00  0.14292028791E+04  0.14292028791E+04  0.25500000920E-02 0. -1.
       -2   -1    0    0    0  501  0.00000000000E+00  0.00000000000E+00 -0.16876664929E+04  0.16876664929E+04  0.25500000920E-02 0.  1.
    10030    2    1    2    0    0  0.00000000000E+00  0.00000000000E+00 -0.25846361375E+03  0.31168693720E+04  0.31061344534E+04 0.  0.
        4    1    3    3  502    0 -0.49953012299E+03  0.31861713681E+03 -0.15698008489E+04  0.16778925894E+04  0.12699999809E+01 0.  1.
       -4    1    3    3    0  502  0.49953012299E+03 -0.31861713681E+03  0.13113372351E+04  0.14389767826E+04  0.12699999809E+01 0. -1.
</event>
<event>
 5   0  0.5875011E-07  0.3835209E+04  0.7818609E-02  0.8038641E-01
        1   -1    0    0  501    0  0.00000000000E+00  0.00000000000E+00  0.22932979882E+04  0.22932979883E+04  0.50400001928E-02 0. -1.
       -1   -1    0    0    0  501  0.00000000000E+00  0.00000000000E+00 -0.16034583307E+04  0.16034583307E+04  0.50400001928E-02 0.  1.
    10030    2    1    2    0    0  0.00000000000E+00  0.00000000000E+00  0.68983965758E+03  0.38967563189E+04  0.38352093888E+04 0.  0.
        2    1    3    3  502    0  0.12154153396E+04  0.12897950968E+04 -0.39922819399E+03  0.18166422296E+04  0.25500000920E-02 0. -1.
       -2    1    3    3    0  502 -0.12154153396E+04 -0.12897950968E+04  0.10890678516E+04  0.20801140894E+04  0.25500000920E-02 0.  1.
</event>
<event>
 5   0  0.1827393E-06  0.1850330E+04  0.7818609E-02  0.8679983E-01
       -2   -1    0    0    0  501  0.00000000000E+00  0.00000000000E+00  0.64799940158E+03  0.64799940159E+03  0.25500000920E-02 0.  1.
        2   -1    0    0  501    0  0.00000000000E+00  0.00000000000E+00 -0.13208809963E+04  0.13208809963E+04  0.25500000920E-02 0. -1.
    10030    2    1    2    0    0  0.00000000000E+00  0.00000000000E+00 -0.67288159471E+03  0.19688803979E+04  0.18503298032E+04 0.  0.
        2    1    3    3  502    0  0.23245604585E+02  0.84623815757E+03 -0.73354099017E+03  0.11201525618E+04  0.25500000920E-02 0. -1.
       -2    1    3    3    0  502 -0.23245604585E+02 -0.84623815757E+03  0.60659395460E+02  0.84872783607E+03  0.25500000920E-02 0.  1.
</event>
<event>
 5   0  0.6287345E-07  0.3780044E+04  0.7818609E-02  0.8050451E-01
        1   -1    0    0  501    0  0.00000000000E+00  0.00000000000E+00  0.24580109553E+04  0.24580109553E+04  0.50400001928E-02 0. -1.
       -1   -1    0    0    0  501  0.00000000000E+00  0.00000000000E+00 -0.14532823105E+04  0.14532823105E+04  0.50400001928E-02 0.  1.
    10030    2    1    2    0    0  0.00000000000E+00  0.00000000000E+00  0.10047286448E+04  0.39112932657E+04  0.37800443597E+04 0.  0.
        5    1    3    3  502    0 -0.14244611189E+04 -0.12361044690E+04  0.37513979765E+03  0.19229653391E+04  0.46999998093E+01 0.  1.
       -5    1    3    3    0  502  0.14244611189E+04  0.12361044690E+04  0.62958884715E+03  0.19883279267E+04  0.46999998093E+01 0. -1.
</event>
<event>
 5   0  0.1184684E-06  0.2470107E+04  0.7818609E-02  0.8413713E-01
        2   -1    0    0  501    0  0.00000000000E+00  0.00000000000E+00  0.14818337226E+04  0.14818337226E+04  0.25500000920E-02 0. -1.
       -2   -1    0    0    0  501  0.00000000000E+00  0.00000000000E+00 -0.10293711059E+04  0.10293711059E+04  0.25500000920E-02 0.  1.
    10030    2    1    2    0    0  0.00000000000E+00  0.00000000000E+00  0.45246261668E+03  0.25112048285E+04  0.24701067328E+04 0.  0.
        4    1    3    3  502    0 -0.11124746514E+04 -0.24280554017E+03 -0.26005854855E+03  0.11679839219E+04  0.12699999809E+01 0.  1.
       -4    1    3    3    0  502  0.11124746514E+04  0.24280554017E+03  0.71252116523E+03  0.13432209066E+04  0.12699999809E+01 0. -1.
</event>
<event>
 5   0  0.1685793E-06  0.3796863E+04  0.7818609E-02  0.8046828E-01
       -2   -1    0    0    0  501  0.00000000000E+00  0.00000000000E+00  0.17040622882E+04  0.17040622882E+04  0.25500000920E-02 0. -1.
        2   -1    0    0  501    0  0.00000000000E+00  0.00000000000E+00 -0.21149714509E+04  0.21149714509E+04  0.25500000920E-02 0.  1.
    10030    2    1    2    0    0  0.00000000000E+00  0.00000000000E+00 -0.41090916271E+03  0.38190337390E+04  0.37968634898E+04 0.  0.
        3    1    3    3  502    0 -0.79803308394E+03 -0.14010632680E+04  0.80249857599E+03  0.18010660895E+04  0.10100000352E+00 0. -1.
       -3    1    3    3    0  502  0.79803308394E+03  0.14010632680E+04 -0.12134077387E+04  0.20179676495E+04  0.10100000352E+00 0.  1.
</event>
<event>
 5   0  0.1151180E-06  0.3426257E+04  0.7818609E-02  0.8131492E-01
        2   -1    0    0  501    0  0.00000000000E+00  0.00000000000E+00  0.21827228614E+04  0.21827228614E+04  0.25500000920E-02 0.  1.
       -2   -1    0    0    0  501  0.00000000000E+00  0.00000000000E+00 -0.13445634632E+04  0.13445634632E+04  0.25500000920E-02 0. -1.
    10030    2    1    2    0    0  0.00000000000E+00  0.00000000000E+00  0.83815939822E+03  0.35272863246E+04  0.34262570889E+04 0.  0.
        5    1    3    3  502    0  0.10567761309E+04  0.41646978449E+03  0.17392994213E+04  0.20773558769E+04  0.46999998093E+01 0.  1.
       -5    1    3    3    0  502 -0.10567761309E+04 -0.41646978449E+03 -0.90114002304E+03  0.14499304478E+04  0.46999998093E+01 0. -1.
</event>
<event>
 5   0  0.1685793E-06  0.3433745E+04  0.7818609E-02  0.8129673E-01
        2   -1    0    0  501    0  0.00000000000E+00  0.00000000000E+00  0.22635037646E+04  0.22635037646E+04  0.25500000920E-02 0. -1.
       -2   -1    0    0    0  501  0.00000000000E+00  0.00000000000E+00 -0.13022517854E+04  0.13022517854E+04  0.25500000920E-02 0.  1.
    10030    2    1    2    0    0  0.00000000000E+00  0.00000000000E+00  0.96125197919E+03  0.35657555500E+04  0.34337453713E+04 0.  0.
        3    1    3    3  502    0 -0.12100553011E+04  0.10432555345E+04  0.11333081525E+04  0.19588270267E+04  0.10100000352E+00 0. -1.
       -3    1    3    3    0  502  0.12100553011E+04 -0.10432555345E+04 -0.17205617329E+03  0.16069285233E+04  0.10100000352E+00 0.  1.
</event>
<event>
 5   0  0.6186440E-07  0.3672650E+04  0.7818609E-02  0.8074050E-01
        1   -1    0    0  501    0  0.00000000000E+00  0.00000000000E+00  0.18318400294E+04  0.18318400294E+04  0.50400001928E-02 0.  1.
       -1   -1    0    0    0  501  0.00000000000E+00  0.00000000000E+00 -0.18408208405E+04  0.18408208405E+04  0.50400001928E-02 0. -1.
    10030    2    1    2    0    0  0.00000000000E+00  0.00000000000E+00 -0.89808111572E+01  0.36726608699E+04  0.36726498894E+04 0.  0.
        3    1    3    3  502    0 -0.15311415742E+04 -0.10110906152E+04  0.68930109918E+02  0.18361508987E+04  0.10100000352E+00 0.  1.
       -3    1    3    3    0  502  0.15311415742E+04  0.10110906152E+04 -0.77910921075E+02  0.18365099712E+04  0.10100000352E+00 0. -1.
</event>
<event>
 5   0  0.1151180E-06  0.3712661E+04  0.7818609E-02  0.8065162E-01
       -2   -1    0    0    0  501  0.00000000000E+00  0.00000000000E+00  0.16216704727E+04  0.16216704727E+04  0.25500000920E-02 0.  1.
        2   -1    0    0  501    0  0.00000000000E+00  0.00000000000E+00 -0.21249469792E+04  0.21249469792E+04  0.25500000920E-02 0. -1.
    10030    2    1    2    0    0  0.00000000000E+00  0.00000000000E+00 -0.50327650657E+03  0.37466174519E+04  0.37126614562E+04 0.  0.
        5    1    3    3  502    0 -0.45039173684E+03 -0.17500419171E+04 -0.68030828613E+03  0.19308912145E+04  0.46999998093E+01 0.  1.
       -5    1    3    3    0  502  0.45039173684E+03  0.17500419171E+04  0.17703177955E+03  0.18157262374E+04  0.46999998093E+01 0. -1.
</event>
<event>
 5   0  0.1184684E-06  0.2323989E+04  0.7818609E-02  0.8468522E-01
       -2   -1    0    0    0  501  0.00000000000E+00  0.00000000000E+00  0.50389298930E+03  0.50389298931E+03  0.25500000920E-02 0.  1.
        2   -1    0    0  501    0  0.00000000000E+00  0.00000000000E+00 -0.26795980090E+04  0.26795980090E+04  0.25500000920E-02 0. -1.
    10030    2    1    2    0    0  0.00000000000E+00  0.00000000000E+00 -0.21757050197E+04  0.31834909983E+04  0.23239885119E+04 0.  0.
        4    1    3    3  502    0  0.33666903306E+03 -0.97231834140E+03 -0.34829140623E+03  0.10863045206E+04  0.12699999809E+01 0.  1.
       -4    1    3    3    0  502 -0.33666903306E+03  0.97231834140E+03 -0.18274136135E+04  0.20971864777E+04  0.12699999809E+01 0. -1.
</event>
<event>
 5   0  0.5875011E-07  0.3049939E+04  0.7818609E-02  0.8229613E-01
        1   -1    0    0  501    0  0.00000000000E+00  0.00000000000E+00  0.18263992331E+04  0.18263992331E+04  0.50400001928E-02 0. -1.
       -1   -1    0    0    0  501  0.00000000000E+00  0.00000000000E+00 -0.12732879321E+04  0.12732879321E+04  0.50400001928E-02 0.  1.
    10030    2    1    2    0    0  0.00000000000E+00  0.00000000000E+00  0.55311130099E+03  0.30996871652E+04  0.30499390831E+04 0.  0.
        2    1    3    3  502    0  0.97436269694E+01 -0.12233270443E+04  0.12018499645E+04  0.17149540323E+04  0.25500000920E-02 0. -1.
       -2    1    3    3    0  502 -0.97436269694E+01  0.12233270443E+04 -0.64873866352E+03  0.13847331329E+04  0.25500000920E-02 0.  1.
</event>
<event>
 5   0  0.1685793E-06  0.2025698E+04  0.7818609E-02  0.8594700E-01
       -2   -1    0    0    0  501  0.00000000000E+00  0.00000000000E+00  0.41642382892E+03  0.41642382893E+03  0.25500000920E-02 0. -1.
        2   -1    0    0  501    0  0.00000000000E+00  0.00000000000E+00 -0.24635063077E+04  0.24635063077E+04  0.25500000920E-02 0.  1.
    10030    2    1    2    0    0  0.00000000000E+00  0.00000000000E+00 -0.20470824788E+04  0.28799301367E+04  0.20256976371E+04 0.  0.
        3    1    3    3  502    0  0.38072866076E+03 -0.14558097761E+03 -0.23417508640E+04  0.23769613488E+04  0.10100000352E+00 0.  1.
       -3    1    3    3    0  502 -0.38072866076E+03  0.14558097761E+03  0.29466838520E+03  0.50296878790E+03  0.10100000352E+00 0. -1.
</event>
<event>
 5   0  0.6186440E-07  0.3741001E+04  0.7818609E-02  0.8058936E-01
       -1   -1    0    0    0  501  0.00000000000E+00  0.00000000000E+00  0.18925239049E+04  0.18925239049E+04  0.50400001928E-02 0. -1.
        1   -1    0    0  501    0  0.00000000000E+00  0.00000000000E+00 -0.18487336307E+04  0.18487336307E+04  0.50400001928E-02 0.  1.
    10030    2    1    2    0    0  0.00000000000E+00  0.00000000000E+00  0.43790274193E+02  0.37412575356E+04  0.37410012509E+04 0.  0.
        3    1    3    3  502    0  0.22837009398E+03 -0.42282465735E+03 -0.17859452164E+04  0.18494685499E+04  0.10100000352E+00 0.  1.
       -3    1    3    3    0  502 -0.22837009398E+03  0.42282465735E+03  0.18297354906E+04  0.18917889857E+04  0.10100000352E+00 0. -1.
</event>
<event>
 5   0  0.6261598E-07  0.2061626E+04  0.7818609E-02  0.8578338E-01
       -1   -1    0    0    0  501  0.00000000000E+00  0.00000000000E+00  0.11321179558E+04  0.11321179558E+04  0.50400001928E-02 0. -1.
        1   -1    0    0  501    0  0.00000000000E+00  0.00000000000E+00 -0.93857306678E+03  0.93857306680E+03  0.50400001928E-02 0.  1.
    10030    2    1    2    0    0  0.00000000000E+00  0.00000000000E+00  0.19354488902E+03  0.20706910226E+04  0.20616259814E+04 0.  0.
        1    1    3    3  502    0  0.82468663907E+03 -0.12075013372E+03  0.70597611234E+03  0.10922870130E+04  0.50400001928E-02 0. -1.
       -1    1    3    3    0  502 -0.82468663907E+03  0.12075013372E+03 -0.51243122332E+03  0.97840400965E+03  0.50400001928E-02 0.  1.
</event>
<event>
 5   0  0.5679750E-07  0.3616660E+04  0.7818609E-02  0.8086686E-01
        3   -1    0    0  501    0  0.00000000000E+00  0.00000000000E+00  0.21033633360E+04  0.21033633384E+04  0.10100000352E+00 0. -1.
       -3   -1    0    0    0  501  0.00000000000E+00  0.00000000000E+00 -0.15546800873E+04  0.15546800906E+04  0.10100000352E+00 0.  1.
    10030    2    1    2    0    0  0.00000000000E+00  0.00000000000E+00  0.54868324871E+03  0.36580434290E+04  0.36166598432E+04 0.  0.
        4    1    3    3  502    0  0.34865533277E+03 -0.16928811197E+04  0.81207192530E+03  0.19096778396E+04  0.12699999809E+01 0. -1.
       -4    1    3    3    0  502 -0.34865533277E+03  0.16928811197E+04 -0.26338867658E+03  0.17483655894E+04  0.12699999809E+01 0.  1.
</event>
<event>
 5   0  0.6287345E-07  0.3749489E+04  0.7818609E-02  0.8057082E-01
       -1   -1    0    0    0  501  0.00000000000E+00  0.00000000000E+00  0.25225714026E+04  0.25225714026E+04  0.50400001928E-02 0.  1.
        1   -1    0    0  501    0  0.00000000000E+00  0.00000000000E+00 -0.13932876841E+04  0.13932876842E+04  0.50400001928E-02 0. -1.
    10030    2    1    2    0    0  0.00000000000E+00  0.00000000000E+00  0.11292837184E+04  0.39158590867E+04  0.37494893880E+04 0.  0.
        5    1    3    3  502    0 -0.61528357507E+03  0.42286357410E+03 -0.12313300569E+04  0.14399941941E+04  0.46999998093E+01 0. -1.
       -5    1    3    3    0  502  0.61528357507E+03 -0.42286357410E+03  0.23606137754E+04  0.24758648926E+04  0.46999998093E+01 0.  1.
</event>
<event>
 5   0  0.1680194E-06  0.3690622E+04  0.7818609E-02  0.8070043E-01
       -2   -1    0    0    0  501  0.00000000000E+00  0.00000000000E+00  0.16491807057E+04  0.16491807057E+04  0.25500000920E-02 0. -1.
        2   -1    0    0  501    0  0.00000000000E+00  0.00000000000E+00 -0.20647664971E+04  0.20647664971E+04  0.25500000920E-02 0.  1.
    10030    2    1    2    0    0  0.00000000000E+00  0.00000000000E+00 -0.41558579142E+03  0.37139472029E+04  0.36906222071E+04 0.  0.
        2    1    3    3  502    0 -0.94921256323E+03 -0.10638392206E+04 -0.13866979079E+04  0.19888915167E+04  0.25500000920E-02 0.  1.
       -2    1    3    3    0  502  0.94921256323E+03  0.10638392206E+04  0.97111211646E+03  0.17250556861E+04  0.25500000920E-02 0. -1.
</event>
<event>
 5   0  0.1151180E-06  0.2081384E+04  0.7818609E-02  0.8569488E-01
        2   -1    0    0  501    0  0.00000000000E+00  0.00000000000E+00  0.99989239492E+03  0.99989239492E+03  0.25500000920E-02 0.  1.
       -2   -1    0    0    0  501  0.00000000000E+00  0.00000000000E+00 -0.10831568966E+04  0.10831568966E+04  0.25500000920E-02 0. -1.
    10030    2    1    2    0    0  0.00000000000E+00  0.00000000000E+00 -0.83264501715E+02  0.20830492916E+04  0.20813844849E+04 0.  0.
        5    1    3    3  502    0 -0.32007106103E+03 -0.84160970024E+03 -0.56384064096E+03  0.10623985740E+04  0.46999998093E+01 0. -1.
       -5    1    3    3    0  502  0.32007106103E+03  0.84160970024E+03  0.48057613924E+03  0.10206507176E+04  0.46999998093E+01 0.  1.
</event>
<event>
 5   0  0.5875011E-07  0.2436178E+04  0.7818609E-02  0.8426082E-01
       -1   -1    0    0    0  501  0.00000000000E+00  0.00000000000E+00  0.11983515381E+04  0.11983515381E+04  0.50400001928E-02 0.  1.
        1   -1    0    0  501    0  0.00000000000E+00  0.00000000000E+00 -0.12381512989E+04  0.12381512989E+04  0.50400001928E-02 0. -1.
    10030    2    1    2    0    0  0.00000000000E+00  0.00000000000E+00 -0.39799760810E+02  0.24365028371E+04  0.24361777550E+04 0.  0.
        2    1    3    3  502    0  0.31344611207E+03 -0.82102866336E+03  0.82366034480E+03  0.12044720399E+04  0.25500000920E-02 0. -1.
       -2    1    3    3    0  502 -0.31344611207E+03  0.82102866336E+03 -0.86346010561E+03  0.12320307972E+04  0.25500000920E-02 0.  1.
</event>
<event>
 5   0  0.1184684E-06  0.3441588E+04  0.7818609E-02  0.8127774E-01
        2   -1    0    0  501    0  0.00000000000E+00  0.00000000000E+00  0.13500854595E+04  0.13500854595E+04  0.25500000920E-02 0. -1.
       -2   -1    0    0    0  501  0.00000000000E+00  0.00000000000E+00 -0.21932917749E+04  0.21932917749E+04  0.25500000920E-02 0.  1.
    10030    2    1    2    0    0  0.00000000000E+00  0.00000000000E+00 -0.84320631540E+03  0.35433772344E+04  0.34415876184E+04 0.  0.
        4    1    3    3  502    0 -0.19750734159E+03  0.48100780940E+03  0.12672636508E+04  0.13697943044E+04  0.12699999809E+01 0. -1.
       -4    1    3    3    0  502  0.19750734159E+03 -0.48100780940E+03 -0.21104699662E+04  0.21735829301E+04  0.12699999809E+01 0.  1.
</event>
<event>
 5   0  0.6186440E-07  0.3688394E+04  0.7818609E-02  0.8070539E-01
        1   -1    0    0  501    0  0.00000000000E+00  0.00000000000E+00  0.17670640825E+04  0.17670640825E+04  0.50400001928E-02 0.  1.
       -1   -1    0    0    0  501  0.00000000000E+00  0.00000000000E+00 -0.19246972371E+04  0.19246972371E+04  0.50400001928E-02 0. -1.
    10030    2    1    2    0    0  0.00000000000E+00  0.00000000000E+00 -0.15763315458E+03  0.36917613196E+04  0.36883944244E+04 0.  0.
        3    1    3    3  502    0 -0.11198206978E+04 -0.44418113245E+03  0.13187990104E+04  0.17862043875E+04  0.10100000352E+00 0.  1.
       -3    1    3    3    0  502  0.11198206978E+04  0.44418113245E+03 -0.14764321650E+04  0.19055569322E+04  0.10100000352E+00 0. -1.
</event>
<event>
 5   0  0.1680194E-06  0.2765307E+04  0.7818609E-02  0.8314121E-01
        2   -1    0    0  501    0  0.00000000000E+00  0.00000000000E+00  0.17753578529E+04  0.17753578529E+04  0.25500000920E-02 0.  1.
       -2   -1    0    0    0  501  0.00000000000E+00  0.00000000000E+00 -0.10768144931E+04  0.10768144931E+04  0.25500000920E-02 0. -1.
    10030    2    1    2    0    0  0.00000000000E+00  0.00000000000E+00  0.69854335988E+03  0.28521723460E+04  0.27653072642E+04 0.  0.
        2    1    3    3  502    0 -0.23048791065E+03  0.66906458169E+03  0.15744225237E+04  0.17261455253E+04  0.25500000920E-02 0.  1.
       -2    1    3    3    0  502  0.23048791065E+03 -0.66906458169E+03 -0.87587916378E+03  0.11260268207E+04  0.25500000920E-02 0. -1.
</event>
<event>
 5   0  0.1685793E-06  0.3695610E+04  0.7818609E-02  0.8068935E-01
       -2   -1    0    0    0  501  0.00000000000E+00  0.00000000000E+00  0.13128068413E+04  0.13128068413E+04  0.25500000920E-02 0. -1.
        2   -1    0    0  501    0  0.00000000000E+00  0.00000000000E+00 -0.26008262544E+04  0.26008262544E+04  0.25500000920E-02 0.  1.
    10030    2    1    2    0    0  0.00000000000E+00  0.00000000000E+00 -0.12880194132E+04  0.39136330957E+04  0.36956095572E+04 0.  0.
        3    1    3    3  502    0 -0.14887234454E+04  0.32889458124E+02 -0.18026315074E+04  0.23381316419E+04  0.10100000352E+00 0. -1.
       -3    1    3    3    0  502  0.14887234454E+04 -0.32889458124E+02  0.51461209421E+03  0.15755014538E+04  0.10100000352E+00 0.  1.
</event>
<event>
 5   0  0.1151180E-06  0.3495606E+04  0.7818609E-02  0.8114832E-01
       -2   -1    0    0    0  501  0.00000000000E+00  0.00000000000E+00  0.15874027046E+04  0.15874027046E+04  0.25500000920E-02 0.  1.
        2   -1    0    0  501    0  0.00000000000E+00  0.00000000000E+00 -0.19244110214E+04  0.19244110214E+04  0.25500000920E-02 0. -1.
    10030    2    1    2    0    0  0.00000000000E+00  0.00000000000E+00 -0.33700831681E+03  0.35118137261E+04  0.34956059619E+04 0.  0.
        5    1    3    3  502    0 -0.13319576005E+04  0.10691852632E+04 -0.54106724019E+03  0.17916595729E+04  0.46999998093E+01 0. -1.
       -5    1    3    3    0  502  0.13319576005E+04 -0.10691852632E+04  0.20405892339E+03  0.17201541532E+04  0.46999998093E+01 0.  1.
</event>
<event>
 5   0  0.6186440E-07  0.2255684E+04  0.7818609E-02  0.8495602E-01
        1   -1    0    0  501    0  0.00000000000E+00  0.00000000000E+00  0.93365120331E+03  0.93365120333E+03  0.50400001928E-02 0. -1.
       -1   -1    0    0    0  501  0.00000000000E+00  0.00000000000E+00 -0.13624225589E+04  0.13624225589E+04  0.50400001928E-02 0.  1.
    10030    2    1    2    0    0  0.00000000000E+00  0.00000000000E+00 -0.42877135558E+03  0.22960737622E+04  0.22556838977E+04 0.  0.
        3    1    3    3  502    0  0.85087582929E+03 -0.72177831987E+03 -0.46898155837E+02  0.11167600759E+04  0.10100000352E+00 0. -1.
       -3    1    3    3    0  502 -0.85087582929E+03  0.72177831987E+03 -0.38187319975E+03  0.11793136863E+04  0.10100000352E+00 0.  1.
</event>
<event>
 5   0  0.1724503E-06  0.3806928E+04  0.7818609E-02  0.8044670E-01
        2   -1    0    0  501    0  0.00000000000E+00  0.00000000000E+00  0.23870780270E+04  0.23870780270E+04  0.25500000920E-02 0. -1.
       -2   -1    0    0    0  501  0.00000000000E+00  0.00000000000E+00 -0.15178286156E+04  0.15178286156E+04  0.25500000920E-02 0.  1.
    10030    2    1    2    0    0  0.00000000000E+00  0.00000000000E+00  0.86924941141E+03  0.39049066425E+04  0.38069280723E+04 0.  0.
        1    1    3    3  502    0 -0.18931275218E+04 -0.19750761740E+03  0.45032432161E+03  0.19559481249E+04  0.50400001928E-02 0.  1.
       -1    1    3    3    0  502  0.18931275218E+04  0.19750761740E+03  0.41892508980E+03  0.19489585176E+04  0.50400001928E-02 0. -1.
</event>
<event>
 5   0  0.1685793E-06  0.3261909E+04  0.7818609E-02  0.8172656E-01
        2   -1    0    0  501    0  0.00000000000E+00  0.00000000000E+00  0.19599879868E+04  0.19599879868E+04  0.25500000920E-02 0. -1.
       -2   -1    0    0    0  501  0.00000000000E+00  0.00000000000E+00 -0.13571572929E+04  0.13571572929E+04  0.25500000920E-02 0.  1.
    10030    2    1    2    0    0  0.00000000000E+00  0.00000000000E+00  0.60283069388E+03  0.33171452797E+04  0.32619086378E+04 0.  0.
        3    1    3    3  502    0  0.89831211418E+03  0.11025159646E+04 -0.51054495223E+03  0.15110136549E+04  0.10100000352E+00 0.  1.
       -3    1    3    3    0  502 -0.89831211418E+03 -0.11025159646E+04  0.11133756461E+04  0.18061316248E+04  0.10100000352E+00 0. -1.
</event>
<event>
 5   0  0.1680194E-06  0.2283558E+04  0.7818609E-02  0.8484432E-01
        2   -1    0    0  501    0  0.00000000000E+00  0.00000000000E+00  0.10813797080E+04  0.10813797080E+04  0.25500000920E-02 0.  1.
       -2   -1    0    0    0  501  0.00000000000E+00  0.00000000000E+00 -0.12055516241E+04  0.12055516241E+04  0.25500000920E-02 0. -1.
    10030    2    1    2    0    0  0.00000000000E+00  0.00000000000E+00 -0.12417191608E+03  0.22869313320E+04  0.22835578059E+04 0.  0.
        2    1    3    3  502    0 -0.43819726663E+02  0.23122653848E+03 -0.11809979669E+04  0.12042184513E+04  0.25500000920E-02 0. -1.
       -2    1    3    3    0  502  0.43819726663E+02 -0.23122653848E+03  0.10568260508E+04  0.10827128808E+04  0.25500000920E-02 0.  1.
</event>
<event>
 5   0  0.5679750E-07  0.2927021E+04  0.7818609E-02  0.8264883E-01
       -1   -1    0    0    0  501  0.00000000000E+00  0.00000000000E+00  0.13762485675E+04  0.13762485675E+04  0.50400001928E-02 0. -1.
        1   -1    0    0  501    0  0.00000000000E+00  0.00000000000E+00 -0.15563053197E+04  0.15563053197E+04  0.50400001928E-02 0.  1.
    10030    2    1    2    0    0  0.00000000000E+00  0.00000000000E+00 -0.18005675213E+03  0.29325538872E+04  0.29270209885E+04 0.  0.
        4    1    3    3  502    0 -0.68183271081E+03  0.11716576664E+04 -0.64259954351E+03  0.15002044258E+04  0.12699999809E+01 0. -1.
       -4    1    3    3    0  502  0.68183271081E+03 -0.11716576664E+04  0.46254279138E+03  0.14323494614E+04  0.12699999809E+01 0.  1.
</event>
<event>
 5   0  0.1184684E-06  0.2013976E+04  0.7818609E-02  0.8600114E-01
        2   -1    0    0  501    0  0.00000000000E+00  0.00000000000E+00  0.17991087377E+04  0.17991087377E+04  0.25500000920E-02 0.  1.
       -2   -1    0    0    0  501  0.00000000000E+00  0.00000000000E+00 -0.56362608059E+03  0.56362608059E+03  0.25500000920E-02 0. -1.
    10030    2    1    2    0    0  0.00000000000E+00  0.00000000000E+00  0.12354826571E+04  0.23627348183E+04  0.20139757758E+04 0.  0.
        4    1    3    3  502    0  0.61552523290E+03 -0.54511627388E+03 -0.64313116061E+02  0.82471865153E+03  0.12699999809E+01 0. -1.
       -4    1    3    3    0  502 -0.61552523290E+03  0.54511627388E+03  0.12997957732E+04  0.15380161668E+04  0.12699999809E+01 0.  1.
</event>
<event>
 5   0  0.2300750E-06  0.1934205E+04  0.7818609E-02  0.8638015E-01
        2   -1    0    0  501    0  0.00000000000E+00  0.00000000000E+00  0.10053204906E+04  0.10053204906E+04  0.25500000920E-02 0. -1.
       -2   -1    0    0    0  501  0.00000000000E+00  0.00000000000E+00 -0.93033761619E+03  0.93033761619E+03  0.25500000920E-02 0.  1.
    10030    2    1    2    0    0  0.00000000000E+00  0.00000000000E+00  0.74982874384E+02  0.19356581068E+04  0.19342052308E+04 0.  0.
        1    1    3    3  502    0  0.13339596452E+03 -0.20127675935E+03  0.97466731836E+03  0.10041330583E+04  0.50400001928E-02 0. -1.
       -1    1    3    3    0  502 -0.13339596452E+03  0.20127675935E+03 -0.89968444398E+03  0.93152504849E+03  0.50400001928E-02 0.  1.
</event>
<event>
 5   0  0.1151180E-06  0.3697764E+04  0.7818609E-02  0.8068457E-01
        2   -1    0    0  501    0  0.00000000000E+00  0.00000000000E+00  0.22651117350E+04  0.22651117350E+04  0.25500000920E-02 0. -1.
       -2   -1    0    0    0  501  0.00000000000E+00  0.00000000000E+00 -0.15091377131E+04  0.15091377132E+04  0.25500000920E-02 0.  1.
    10030    2    1    2    0    0  0.00000000000E+00  0.00000000000E+00  0.75597402181E+03  0.37742494481E+04  0.36977644834E+04 0.  0.
        5    1    3    3  502    0  0.33363707344E+03  0.11707639205E+04 -0.10423203613E+04  0.16026402216E+04  0.46999998093E+01 0.  1.
       -5    1    3    3    0  502 -0.33363707344E+03 -0.11707639205E+04  0.17982943831E+04  0.21716092265E+04  0.46999998093E+01 0. -1.
</event>
<event>
 5   0  0.5679750E-07  0.1834167E+04  0.7818609E-02  0.8688338E-01
        1   -1    0    0  501    0  0.00000000000E+00  0.00000000000E+00  0.92670978360E+03  0.92670978361E+03  0.50400001928E-02 0.  1.
       -1   -1    0    0    0  501  0.00000000000E+00  0.00000000000E+00 -0.90755754837E+03  0.90755754838E+03  0.50400001928E-02 0. -1.
    10030    2    1    2    0    0  0.00000000000E+00  0.00000000000E+00  0.19152235232E+02  0.18342673320E+04  0.18341673416E+04 0.  0.
        4    1    3    3  502    0 -0.32790947002E+03 -0.65895603918E+03  0.55668286893E+03  0.92284620147E+03  0.12699999809E+01 0. -1.
       -4    1    3    3    0  502  0.32790947002E+03  0.65895603918E+03 -0.53753063370E+03  0.91142113052E+03  0.12699999809E+01 0.  1.
</event>
<event>
 5   0  0.1184684E-06  0.3662559E+04  0.7818609E-02  0.8076310E-01
        2   -1    0    0  501    0  0.00000000000E+00  0.00000000000E+00  0.20620180094E+04  0.20620180094E+04  0.25500000920E-02 0. -1.
       -2   -1    0    0    0  501  0.00000000000E+00  0.00000000000E+00 -0.16263601801E+04  0.16263601801E+04  0.25500000920E-02 0.  1.
    10030    2    1    2    0    0  0.00000000000E+00  0.00000000000E+00  0.43565782922E+03  0.36883781895E+04  0.36625586582E+04 0.  0.
        4    1    3    3  502    0  0.23025075241E+03  0.26872933294E+03  0.20272567364E+04  0.20579121341E+04  0.12699999809E+01 0. -1.
       -4    1    3    3    0  502 -0.23025075241E+03 -0.26872933294E+03 -0.15915989072E+04  0.16304660554E+04  0.12699999809E+01 0.  1.
</event>
<event>
 5   0  0.6186440E-07  0.3373354E+04  0.7818609E-02  0.8144477E-01
        1   -1    0    0  501    0  0.00000000000E+00  0.00000000000E+00  0.20368593108E+04  0.20368593108E+04  0.50400001928E-02 0. -1.
       -1   -1    0    0    0  501  0.00000000000E+00  0.00000000000E+00 -0.13966993055E+04  0.13966993055E+04  0.50400001928E-02 0.  1.
    10030    2    1    2    0    0  0.00000000000E+00  0.00000000000E+00  0.64016000533E+03  0.34335586163E+04  0.33733544046E+04 0.  0.
        3    1    3    3  502    0 -0.12906482479E+04 -0.82820430468E+03  0.10348845304E+04  0.18500489917E+04  0.10100000352E+00 0. -1.
       -3    1    3    3    0  502  0.12906482479E+04  0.82820430468E+03 -0.39472452511E+03  0.15835096246E+04  0.10100000352E+00 0.  1.
</event>
<event>
 5   0  0.5875011E-07  0.3580781E+04  0.7818609E-02  0.8094908E-01
       -1   -1    0    0    0  501  0.00000000000E+00  0.00000000000E+00  0.12814369522E+04  0.12814369523E+04  0.50400001928E-02 0.  1.
        1   -1    0    0  501    0  0.00000000000E+00  0.00000000000E+00 -0.25014877308E+04  0.25014877308E+04  0.50400001928E-02 0. -1.
    10030    2    1    2    0    0  0.00000000000E+00  0.00000000000E+00 -0.12200507786E+04  0.37829246831E+04  0.35807813750E+04 0.  0.
        2    1    3    3  502    0  0.36555361314E+03 -0.71512663631E+03  0.10804512101E+04  0.13462579127E+04  0.25500000920E-02 0.  1.
       -2    1    3    3    0  502 -0.36555361314E+03  0.71512663631E+03 -0.23005019887E+04  0.24366667704E+04  0.25500000920E-02 0. -1.
</event>
<event>
 5   0  0.1724503E-06  0.2658328E+04  0.7818609E-02  0.8348654E-01
        2   -1    0    0  501    0  0.00000000000E+00  0.00000000000E+00  0.12648167628E+04  0.12648167628E+04  0.25500000920E-02 0. -1.
       -2   -1    0    0    0  501  0.00000000000E+00  0.00000000000E+00 -0.13967850874E+04  0.13967850874E+04  0.25500000920E-02 0.  1.
    10030    2    1    2    0    0  0.00000000000E+00  0.00000000000E+00 -0.13196832460E+03  0.26616018501E+04  0.26583281908E+04 0.  0.
        1    1    3    3  502    0  0.19565693202E+03  0.56253696819E+03 -0.12557015275E+04  0.13897898409E+04  0.50400001928E-02 0.  1.
       -1    1    3    3    0  502 -0.19565693202E+03 -0.56253696819E+03  0.11237332029E+04  0.12718120093E+04  0.50400001928E-02 0. -1.
</event>
<event>
 5   0  0.5679750E-07  0.1962739E+04  0.7818609E-02  0.8624242E-01
       -3   -1    0    0    0  501  0.00000000000E+00  0.00000000000E+00  0.93647122968E+03  0.93647123513E+03  0.10100000352E+00 0.  1.
        3   -1    0    0  501    0  0.00000000000E+00  0.00000000000E+00 -0.10284207591E+04  0.10284207641E+04  0.10100000352E+00 0. -1.
    10030    2    1    2    0    0  0.00000000000E+00  0.00000000000E+00 -0.91949529426E+02  0.19648919992E+04  0.19627393746E+04 0.  0.
        3    1    3    3  502    0  0.20303471467E+02 -0.97898361242E+03  0.19406192968E+02  0.97938641754E+03  0.10100000352E+00 0.  1.
       -3    1    3    3    0  502 -0.20303471467E+02  0.97898361242E+03 -0.11135572239E+03  0.98550558165E+03  0.10100000352E+00 0. -1.
</event>
<event>
 5   0  0.5875011E-07  0.3607583E+04  0.7818609E-02  0.8088757E-01
       -1   -1    0    0    0  501  0.00000000000E+00  0.00000000000E+00  0.16225992087E+04  0.16225992087E+04  0.50400001928E-02 0.  1.
        1   -1    0    0  501    0  0.00000000000E+00  0.00000000000E+00 -0.20052170886E+04  0.20052170886E+04  0.50400001928E-02 0. -1.
    10030    2    1    2    0    0  0.00000000000E+00  0.00000000000E+00 -0.38261787996E+03  0.36278162973E+04  0.36075829367E+04 0.  0.
        2    1    3    3  502    0 -0.50343250919E+03 -0.15169324318E+04 -0.10321416525E+04  0.19025889427E+04  0.25500000920E-02 0. -1.
       -2    1    3    3    0  502  0.50343250919E+03  0.15169324318E+04  0.64952377254E+03  0.17252273546E+04  0.25500000920E-02 0.  1.
</event>
<event>
 5   0  0.5679750E-07  0.3682605E+04  0.7818609E-02  0.8071828E-01
        1   -1    0    0  501    0  0.00000000000E+00  0.00000000000E+00  0.17247590751E+04  0.17247590751E+04  0.50400001928E-02 0. -1.
       -1   -1    0    0    0  501  0.00000000000E+00  0.00000000000E+00 -0.19657204112E+04  0.19657204112E+04  0.50400001928E-02 0.  1.
    10030    2    1    2    0    0  0.00000000000E+00  0.00000000000E+00 -0.24096133611E+03  0.36904794864E+04  0.36826045774E+04 0.  0.
        4    1    3    3  502    0  0.15197070614E+04  0.46770611292E+03 -0.10509778870E+04  0.19059944104E+04  0.12699999809E+01 0.  1.
       -4    1    3    3    0  502 -0.15197070614E+04 -0.46770611292E+03  0.81001655090E+03  0.17844850759E+04  0.12699999809E+01 0. -1.
</event>
<event>
 5   0  0.1151180E-06  0.2494696E+04  0.7818609E-02  0.8404877E-01
        2   -1    0    0  501    0  0.00000000000E+00  0.00000000000E+00  0.17525600989E+04  0.17525600989E+04  0.25500000920E-02 0. -1.
       -2   -1    0    0    0  501  0.00000000000E+00  0.00000000000E+00 -0.88777409104E+03  0.88777409104E+03  0.25500000920E-02 0.  1.
    10030    2    1    2    0    0  0.00000000000E+00  0.00000000000E+00  0.86478600789E+03  0.26403341900E+04  0.24946963333E+04 0.  0.
        5    1    3    3  502    0  0.30043629616E+03 -0.10760975816E+04 -0.15460900849E+03  0.11279069149E+04  0.46999998093E+01 0.  1.
       -5    1    3    3    0  502 -0.30043629616E+03  0.10760975816E+04  0.10193950164E+04  0.15124272751E+04  0.46999998093E+01 0. -1.
</event>
<event>
 5   0  0.1724503E-06  0.3634900E+04  0.7818609E-02  0.8082544E-01
       -2   -1    0    0    0  501  0.00000000000E+00  0.00000000000E+00  0.15005789870E+04  0.15005789870E+04  0.25500000920E-02 0.  1.
        2   -1    0    0  501    0  0.00000000000E+00  0.00000000000E+00 -0.22012331991E+04  0.22012331991E+04  0.25500000920E-02 0. -1.
    10030    2    1    2    0    0  0.00000000000E+00  0.00000000000E+00 -0.70065421217E+03  0.37018121861E+04  0.36348998798E+04 0.  0.
        1    1    3    3  502    0 -0.23659407081E+03 -0.28223127097E+03  0.14621801850E+04  0.15078468550E+04  0.50400001928E-02 0.  1.
       -1    1    3    3    0  502  0.23659407081E+03  0.28223127097E+03 -0.21628343972E+04  0.21939653311E+04  0.50400001928E-02 0. -1.
</event>
<event>
 5   0  0.6287345E-07  0.3739557E+04  0.7818609E-02  0.8059252E-01
        1   -1    0    0  501    0  0.00000000000E+00  0.00000000000E+00  0.13258233974E+04  0.13258233974E+04  0.50400001928E-02 0.  1.
       -1   -1    0    0    0  501  0.00000000000E+00  0.00000000000E+00 -0.26369066362E+04  0.26369066362E+04  0.50400001928E-02 0. -1.
    10030    2    1    2    0    0  0.00000000000E+00  0.00000000000E+00 -0.13110832388E+04  0.39627300336E+04  0.37395574685E+04 0.  0.
        5    1    3    3  502    0 -0.88379937793E+02 -0.12204768376E+04 -0.21536576146E+04  0.24770219893E+04  0.46999998093E+01 0. -1.
       -5    1    3    3    0  502  0.88379937793E+02  0.12204768376E+04  0.84257437577E+03  0.14857080444E+04  0.46999998093E+01 0.  1.
</event>
<event>
 5   0  0.1724503E-06  0.3461501E+04  0.7818609E-02  0.8122975E-01
        2   -1    0    0  501    0  0.00000000000E+00  0.00000000000E+00  0.28387523472E+04  0.28387523472E+04  0.25500000920E-02 0.  1.
       -2   -1    0    0    0  501  0.00000000000E+00  0.00000000000E+00 -0.10552160410E+04  0.10552160410E+04  0.25500000920E-02 0. -1.
    10030    2    1    2    0    0  0.00000000000E+00  0.00000000000E+00  0.17835363061E+04  0.38939683882E+04  0.34615008382E+04 0.  0.
        1    1    3    3  502    0  0.16782273344E+04 -0.37377089989E+03  0.11149067210E+04  0.20491873189E+04  0.50400001928E-02 0.  1.
       -1    1    3    3    0  502 -0.16782273344E+04  0.37377089989E+03  0.66862958518E+03  0.18447810693E+04  0.50400001928E-02 0. -1.
</event>
<event>
 5   0  0.1680194E-06  0.3176738E+04  0.7818609E-02  0.8194988E-01
        2   -1    0    0  501    0  0.00000000000E+00  0.00000000000E+00  0.18662671591E+04  0.18662671591E+04  0.25500000920E-02 0. -1.
       -2   -1    0    0    0  501  0.00000000000E+00  0.00000000000E+00 -0.13518518642E+04  0.13518518642E+04  0.25500000920E-02 0.  1.
    10030    2    1    2    0    0  0.00000000000E+00  0.00000000000E+00  0.51441529494E+03  0.32181190233E+04  0.31767384143E+04 0.  0.
        2    1    3    3  502    0  0.19949862718E+03  0.81922809179E+03 -0.11064257580E+04  0.13910831487E+04  0.25500000920E-02 0.  1.
       -2    1    3    3    0  502 -0.19949862718E+03 -0.81922809179E+03  0.16208410529E+04  0.18270358747E+04  0.25500000920E-02 0. -1.
</event>
<event>
 5   0  0.1184684E-06  0.3483764E+04  0.7818609E-02  0.8117648E-01
       -2   -1    0    0    0  501  0.00000000000E+00  0.00000000000E+00  0.18814954188E+04  0.18814954188E+04  0.25500000920E-02 0. -1.
        2   -1    0    0  501    0  0.00000000000E+00  0.00000000000E+00 -0.16126286473E+04  0.16126286473E+04  0.25500000920E-02 0.  1.
    10030    2    1    2    0    0  0.00000000000E+00  0.00000000000E+00  0.26886677152E+03  0.34941240660E+04  0.34837642928E+04 0.  0.
        4    1    3    3  502    0  0.10619772410E+02 -0.12686803789E+04  0.13315022241E+04  0.18391743987E+04  0.12699999809E+01 0. -1.
       -4    1    3    3    0  502 -0.10619772410E+02  0.12686803789E+04 -0.10626354526E+04  0.16549496673E+04  0.12699999809E+01 0.  1.
</event>
<event>
 5   0  0.1724503E-06  0.2740512E+04  0.7818609E-02  0.8321979E-01
        2   -1    0    0  501    0  0.00000000000E+00  0.00000000000E+00  0.98275490653E+03  0.98275490653E+03  0.25500000920E-02 0.  1.
       -2   -1    0    0    0  501  0.00000000000E+00  0.00000000000E+00 -0.19105488278E+04  0.19105488278E+04  0.25500000920E-02 0. -1.
    10030    2    1    2    0    0  0.00000000000E+00  0.00000000000E+00 -0.92779392128E+03  0.28933037343E+04  0.27405118024E+04 0.  0.
        1    1    3    3  502    0 -0.58172638948E+03 -0.71476196322E+03  0.60669650176E+03  0.11033453229E+04  0.50400001928E-02 0.  1.
       -1    1    3    3    0  502  0.58172638948E+03  0.71476196322E+03 -0.15344904230E+04  0.17899584114E+04  0.50400001928E-02 0. -1.
</event>
<event>
 5   0  0.5679750E-07  0.3623125E+04  0.7818609E-02  0.8085215E-01
        1   -1    0    0  501    0  0.00000000000E+00  0.00000000000E+00  0.17748476100E+04  0.17748476100E+04  0.50400001928E-02 0. -1.
       -1   -1    0    0    0  501  0.00000000000E+00  0.00000000000E+00 -0.18490372048E+04  0.18490372048E+04  0.50400001928E-02 0.  1.
    10030    2    1    2    0    0  0.00000000000E+00  0.00000000000E+00 -0.74189594739E+02  0.36238848148E+04  0.36231253159E+04 0.  0.
        4    1    3    3  502    0 -0.30361601390E+01  0.16497348796E+04  0.71147591826E+03  0.17966173734E+04  0.12699999809E+01 0. -1.
       -4    1    3    3    0  502  0.30361601390E+01 -0.16497348796E+04 -0.78566551300E+03  0.18272674414E+04  0.12699999809E+01 0.  1.
</event>
<event>
 5   0  0.6287345E-07  0.3727516E+04  0.7818609E-02  0.8061891E-01
       -1   -1    0    0    0  501  0.00000000000E+00  0.00000000000E+00  0.14323245035E+04  0.14323245035E+04  0.50400001928E-02 0. -1.
        1   -1    0    0  501    0  0.00000000000E+00  0.00000000000E+00 -0.24251449099E+04  0.24251449099E+04  0.50400001928E-02 0.  1.
    10030    2    1    2    0    0  0.00000000000E+00  0.00000000000E+00 -0.99282040638E+03  0.38574694135E+04  0.37275163201E+04 0.  0.
        5    1    3    3  502    0  0.14489430107E+04 -0.82430391667E+03  0.36610936468E+03  0.17067427903E+04  0.46999998093E+01 0. -1.
       -5    1    3    3    0  502 -0.14489430107E+04  0.82430391667E+03 -0.13589297711E+04  0.21507266232E+04  0.46999998093E+01 0.  1.
</event>
<event>
 5   0  0.6287345E-07  0.3684548E+04  0.7818609E-02  0.8071395E-01
        1   -1    0    0  501    0  0.00000000000E+00  0.00000000000E+00  0.14291715954E+04  0.14291715954E+04  0.50400001928E-02 0. -1.
       -1   -1    0    0    0  501  0.00000000000E+00  0.00000000000E+00 -0.23747839160E+04  0.23747839160E+04  0.50400001928E-02 0.  1.
    10030    2    1    2    0    0  0.00000000000E+00  0.00000000000E+00 -0.94561232059E+03  0.38039555114E+04  0.36845481231E+04 0.  0.
        5    1    3    3  502    0 -0.15445552406E+04  0.91852162769E+03 -0.89168734556E+03  0.20061060002E+04  0.46999998093E+01 0.  1.
       -5    1    3    3    0  502  0.15445552406E+04 -0.91852162769E+03 -0.53924975023E+02  0.17978495112E+04  0.46999998093E+01 0. -1.
</event>
<event>
 5   0  0.6287345E-07  0.3648895E+04  0.7818609E-02  0.8079383E-01
        1   -1    0    0  501    0  0.00000000000E+00  0.00000000000E+00  0.16156605200E+04  0.16156605200E+04  0.50400001928E-02 0.  1.
       -1   -1    0    0    0  501  0.00000000000E+00  0.00000000000E+00 -0.20602155758E+04  0.20602155758E+04  0.50400001928E-02 0. -1.
    10030    2    1    2    0    0  0.00000000000E+00  0.00000000000E+00 -0.44455505588E+03  0.36758760958E+04  0.36488951580E+04 0.  0.
        5    1    3    3  502    0  0.16154903378E+04  0.69106945295E+03 -0.71703105976E+03  0.18977728133E+04  0.46999998093E+01 0.  1.
       -5    1    3    3    0  502 -0.16154903378E+04 -0.69106945295E+03  0.27247600388E+03  0.17781032825E+04  0.46999998093E+01 0. -1.
</event>
<event>
 5   0  0.1184684E-06  0.3305381E+04  0.7818609E-02  0.8161528E-01
        2   -1    0    0  501    0  0.00000000000E+00  0.00000000000E+00  0.19886273501E+04  0.19886273501E+04  0.25500000920E-02 0. -1.
       -2   -1    0    0    0  501  0.00000000000E+00  0.00000000000E+00 -0.13735030965E+04  0.13735030965E+04  0.25500000920E-02 0.  1.
    10030    2    1    2    0    0  0.00000000000E+00  0.00000000000E+00  0.61512425359E+03  0.33621304466E+04  0.33053809603E+04 0.  0.
        4    1    3    3  502    0 -0.20033465754E+03 -0.84982997106E+03  0.17348784273E+04  0.19422022874E+04  0.12699999809E+01 0. -1.
       -4    1    3    3    0  502  0.20033465754E+03  0.84982997106E+03 -0.11197541737E+04  0.14199281592E+04  0.12699999809E+01 0.  1.
</event>
<event>
 5   0  0.1680194E-06  0.3663366E+04  0.7818609E-02  0.8076129E-01
       -2   -1    0    0    0  501  0.00000000000E+00  0.00000000000E+00  0.14584121977E+04  0.14584121977E+04  0.25500000920E-02 0. -1.
        2   -1    0    0  501    0  0.00000000000E+00  0.00000000000E+00 -0.23004900466E+04  0.23004900466E+04  0.25500000920E-02 0.  1.
    10030    2    1    2    0    0  0.00000000000E+00  0.00000000000E+00 -0.84207784891E+03  0.37589022442E+04  0.36633660721E+04 0.  0.
        2    1    3    3  502    0 -0.83041249071E+03 -0.81693419385E+03  0.10293648694E+04  0.15545283581E+04  0.25500000920E-02 0. -1.
       -2    1    3    3    0  502  0.83041249071E+03  0.81693419385E+03 -0.18714427183E+04  0.22043738861E+04  0.25500000920E-02 0.  1.
</event>
<event>
 5   0  0.1151180E-06  0.3482167E+04  0.7818609E-02  0.8118029E-01
       -2   -1    0    0    0  501  0.00000000000E+00  0.00000000000E+00  0.22475503367E+04  0.22475503367E+04  0.25500000920E-02 0.  1.
        2   -1    0    0  501    0  0.00000000000E+00  0.00000000000E+00 -0.13487449308E+04  0.13487449308E+04  0.25500000920E-02 0. -1.
    10030    2    1    2    0    0  0.00000000000E+00  0.00000000000E+00  0.89880540595E+03  0.35962952676E+04  0.34821672122E+04 0.  0.
        5    1    3    3  502    0 -0.11178219777E+03 -0.12757559354E+04 -0.76879101826E+03  0.14936901238E+04  0.46999998093E+01 0. -1.
       -5    1    3    3    0  502  0.11178219777E+03  0.12757559354E+04  0.16675964242E+04  0.21026051437E+04  0.46999998093E+01 0.  1.
</event>
<event>
 5   0  0.6287345E-07  0.2083312E+04  0.7818609E-02  0.8568630E-01
        1   -1    0    0  501    0  0.00000000000E+00  0.00000000000E+00  0.90022292266E+03  0.90022292267E+03  0.50400001928E-02 0.  1.
       -1   -1    0    0    0  501  0.00000000000E+00  0.00000000000E+00 -0.12053096280E+04  0.12053096280E+04  0.50400001928E-02 0. -1.
    10030    2    1    2    0    0  0.00000000000E+00  0.00000000000E+00 -0.30508670529E+03  0.21055325506E+04  0.20833121283E+04 0.  0.
        5    1    3    3  502    0  0.68844906623E+03  0.73937893092E+03  0.10389894917E+03  0.10156083900E+04  0.46999998093E+01 0.  1.
       -5    1    3    3    0  502 -0.68844906623E+03 -0.73937893092E+03 -0.40898565446E+03  0.10899241606E+04  0.46999998093E+01 0. -1.
</event>
<event>
 5   0  0.1151180E-06  0.3614982E+04  0.7818609E-02  0.8087069E-01
        2   -1    0    0  501    0  0.00000000000E+00  0.00000000000E+00  0.24563720087E+04  0.24563720087E+04  0.25500000920E-02 0. -1.
       -2   -1    0    0    0  501  0.00000000000E+00  0.00000000000E+00 -0.13300197267E+04  0.13300197267E+04  0.25500000920E-02 0.  1.
    10030    2    1    2    0    0  0.00000000000E+00  0.00000000000E+00  0.11263522820E+04  0.37863917354E+04  0.36149817304E+04 0.  0.
        5    1    3    3  502    0  0.53477727682E+03  0.53731787876E+03  0.22818025334E+04  0.24044421661E+04  0.46999998093E+01 0. -1.
       -5    1    3    3    0  502 -0.53477727682E+03 -0.53731787876E+03 -0.11554502514E+04  0.13819495693E+04  0.46999998093E+01 0.  1.
</event>
<event>
 5   0  0.1184684E-06  0.2434904E+04  0.7818609E-02  0.8426550E-01
        2   -1    0    0  501    0  0.00000000000E+00  0.00000000000E+00  0.20806471672E+04  0.20806471672E+04  0.25500000920E-02 0.  1.
       -2   -1    0    0    0  501  0.00000000000E+00  0.00000000000E+00 -0.71236932175E+03  0.71236932176E+03  0.25500000920E-02 0. -1.
    10030    2    1    2    0    0  0.00000000000E+00  0.00000000000E+00  0.13682778454E+04  0.27930164889E+04  0.24349038677E+04 0.  0.
        4    1    3    3  502    0 -0.15947860896E+03 -0.60805689807E+03 -0.51180452368E+03  0.81062451318E+03  0.12699999809E+01 0. -1.
       -4    1    3    3    0  502  0.15947860896E+03  0.60805689807E+03  0.18800823691E+04  0.19823919757E+04  0.12699999809E+01 0.  1.
</event>
<event>
 5   0  0.5875011E-07  0.1933739E+04  0.7818609E-02  0.8638242E-01
       -1   -1    0    0    0  501  0.00000000000E+00  0.00000000000E+00  0.59921743102E+03  0.59921743104E+03  0.50400001928E-02 0.  1.
        1   -1    0    0  501    0  0.00000000000E+00  0.00000000000E+00 -0.15600960645E+04  0.15600960645E+04  0.50400001928E-02 0. -1.
    10030    2    1    2    0    0  0.00000000000E+00  0.00000000000E+00 -0.96087863351E+03  0.21593134956E+04  0.19337391303E+04 0.  0.
        2    1    3    3  502    0 -0.27656793209E+03 -0.65195353555E+03  0.25460567580E+03  0.75256712905E+03  0.25500000920E-02 0.  1.
       -2    1    3    3    0  502  0.27656793209E+03  0.65195353555E+03 -0.12154843093E+04  0.14067463665E+04  0.25500000920E-02 0. -1.
</event>
<event>
 5   0  0.6186440E-07  0.3666741E+04  0.7818609E-02  0.8075373E-01
       -1   -1    0    0    0  501  0.00000000000E+00  0.00000000000E+00  0.26089073362E+04  0.26089073362E+04  0.50400001928E-02 0.  1.
        1   -1    0    0  501    0  0.00000000000E+00  0.00000000000E+00 -0.12883738384E+04  0.12883738384E+04  0.50400001928E-02 0. -1.
    10030    2    1    2    0    0  0.00000000000E+00  0.00000000000E+00  0.13205334978E+04  0.38972811746E+04  0.36667413100E+04 0.  0.
        3    1    3    3  502    0  0.23655530441E+03  0.31964198838E+03 -0.12419849191E+04  0.13040920068E+04  0.10100000352E+00 0. -1.
       -3    1    3    3    0  502 -0.23655530441E+03 -0.31964198838E+03  0.25625184169E+04  0.25931891678E+04  0.10100000352E+00 0.  1.
</event>
<event>
 5   0  0.5679750E-07  0.2551322E+04  0.7818609E-02  0.8384926E-01
       -1   -1    0    0    0  501  0.00000000000E+00  0.00000000000E+00  0.13479561871E+04  0.13479561871E+04  0.50400001928E-02 0.  1.
        1   -1    0    0  501    0  0.00000000000E+00  0.00000000000E+00 -0.12072436001E+04  0.12072436001E+04  0.50400001928E-02 0. -1.
    10030    2    1    2    0    0  0.00000000000E+00  0.00000000000E+00  0.14071258700E+03  0.25551997871E+04  0.25513223865E+04 0.  0.
        4    1    3    3  502    0 -0.88481444998E+03  0.32062184229E+03  0.93283571836E+03  0.13250958709E+04  0.12699999809E+01 0.  1.
       -4    1    3    3    0  502  0.88481444998E+03 -0.32062184229E+03 -0.79212313137E+03  0.12301039163E+04  0.12699999809E+01 0. -1.
</event>
<event>
 5   0  0.6261598E-07  0.3617960E+04  0.7818609E-02  0.8086390E-01
        1   -1    0    0  501    0  0.00000000000E+00  0.00000000000E+00  0.19251559675E+04  0.19251559675E+04  0.50400001928E-02 0. -1.
       -1   -1    0    0    0  501  0.00000000000E+00  0.00000000000E+00 -0.16998145461E+04  0.16998145461E+04  0.50400001928E-02 0.  1.
    10030    2    1    2    0    0  0.00000000000E+00  0.00000000000E+00  0.22534142137E+03  0.36249705136E+04  0.36179597107E+04 0.  0.
        1    1    3    3  502    0  0.14412787347E+04  0.17115780639E+03 -0.96915706840E+03  0.17452348865E+04  0.50400001928E-02 0.  1.
       -1    1    3    3    0  502 -0.14412787347E+04 -0.17115780639E+03  0.11944984898E+04  0.18797356271E+04  0.50400001928E-02 0. -1.
</event>
<event>
 5   0  0.6287345E-07  0.3688884E+04  0.7818609E-02  0.8070430E-01
       -1   -1    0    0    0  501  0.00000000000E+00  0.00000000000E+00  0.19195138530E+04  0.19195138531E+04  0.50400001928E-02 0.  1.
        1   -1    0    0  501    0  0.00000000000E+00  0.00000000000E+00 -0.17723057179E+04  0.17723057179E+04  0.50400001928E-02 0. -1.
    10030    2    1    2    0    0  0.00000000000E+00  0.00000000000E+00  0.14720813515E+03  0.36918195710E+04  0.36888835045E+04 0.  0.
        5    1    3    3  502    0  0.17188443364E+04  0.56102028380E+03 -0.29106717508E+03  0.18313688328E+04  0.46999998093E+01 0. -1.
       -5    1    3    3    0  502 -0.17188443364E+04 -0.56102028380E+03  0.43827531023E+03  0.18604507381E+04  0.46999998093E+01 0.  1.
</event>
<event>
 5   0  0.1724503E-06  0.3780782E+04  0.7818609E-02  0.8050292E-01
       -2   -1    0    0    0  501  0.00000000000E+00  0.00000000000E+00  0.17235852196E+04  0.17235852196E+04  0.25500000920E-02 0.  1.
        2   -1    0    0  501    0  0.00000000000E+00  0.00000000000E+00 -0.20733405176E+04  0.20733405176E+04  0.25500000920E-02 0. -1.
    10030    2    1    2    0    0  0.00000000000E+00  0.00000000000E+00 -0.34975529807E+03  0.37969257372E+04  0.37807824964E+04 0.  0.
        1    1    3    3  502    0  0.11302928003E+03  0.18160856261E+04 -0.68954653083E+03  0.19458717938E+04  0.50400001928E-02 0. -1.
       -1    1    3    3    0  502 -0.11302928003E+03 -0.18160856261E+04  0.33979123275E+03  0.18510539434E+04  0.50400001928E-02 0.  1.
</event>
<event>
 5   0  0.1184684E-06  0.3733575E+04  0.7818609E-02  0.8060562E-01
       -2   -1    0    0    0  501  0.00000000000E+00  0.00000000000E+00  0.14238102780E+04  0.14238102780E+04  0.25500000920E-02 0.  1.
        2   -1    0    0  501    0  0.00000000000E+00  0.00000000000E+00 -0.24475837325E+04  0.24475837325E+04  0.25500000920E-02 0. -1.
    10030    2    1    2    0    0  0.00000000000E+00  0.00000000000E+00 -0.10237734546E+04  0.38713940105E+04  0.37335746274E+04 0.  0.
        4    1    3    3  502    0  0.62639441064E+02 -0.42199117001E+03  0.13725857135E+04  0.14373563932E+04  0.12699999809E+01 0.  1.
       -4    1    3    3    0  502 -0.62639441064E+02  0.42199117001E+03 -0.23963591681E+04  0.24340376173E+04  0.12699999809E+01 0. -1.
</event>
<event>
 5   0  0.6287345E-07  0.3933846E+04  0.7818609E-02  0.8018027E-01
       -1   -1    0    0    0  501  0.00000000000E+00  0.00000000000E+00  0.11115494881E+04  0.11115494881E+04  0.50400001928E-02 0.  1.
        1   -1    0    0  501    0  0.00000000000E+00  0.00000000000E+00 -0.34805338627E+04  0.34805338627E+04  0.50400001928E-02 0. -1.
    10030    2    1    2    0    0  0.00000000000E+00  0.00000000000E+00 -0.23689843746E+04  0.45920833508E+04  0.39338457690E+04 0.  0.
        5    1    3    3  502    0  0.15866558246E+04  0.93581628761E+03 -0.19894693253E+04  0.27113168601E+04  0.46999998093E+01 0. -1.
       -5    1    3    3    0  502 -0.15866558246E+04 -0.93581628761E+03 -0.37951504934E+03  0.18807664907E+04  0.46999998093E+01 0.  1.
</event>
<event>
 5   0  0.1184684E-06  0.3694654E+04  0.7818609E-02  0.8069148E-01
       -2   -1    0    0    0  501  0.00000000000E+00  0.00000000000E+00  0.10950882861E+04  0.10950882862E+04  0.25500000920E-02 0.  1.
        2   -1    0    0  501    0  0.00000000000E+00  0.00000000000E+00 -0.31162939221E+04  0.31162939221E+04  0.25500000920E-02 0. -1.
    10030    2    1    2    0    0  0.00000000000E+00  0.00000000000E+00 -0.20212056360E+04  0.42113822083E+04  0.36946539596E+04 0.  0.
        4    1    3    3  502    0  0.24175237525E+02 -0.14451881703E+04 -0.23219166387E+04  0.27350414585E+04  0.12699999809E+01 0. -1.
       -4    1    3    3    0  502 -0.24175237525E+02  0.14451881703E+04  0.30071100270E+03  0.14763407498E+04  0.12699999809E+01 0.  1.
</event>
<event>
 5   0  0.1151180E-06  0.3652238E+04  0.7818609E-02  0.8078630E-01
       -2   -1    0    0    0  501  0.00000000000E+00  0.00000000000E+00  0.16401427101E+04  0.16401427101E+04  0.25500000920E-02 0. -1.
        2   -1    0    0  501    0  0.00000000000E+00  0.00000000000E+00 -0.20331836570E+04  0.20331836570E+04  0.25500000920E-02 0.  1.
    10030    2    1    2    0    0  0.00000000000E+00  0.00000000000E+00 -0.39304094692E+03  0.36733263671E+04  0.36522384113E+04 0.  0.
        5    1    3    3  502    0  0.12225988135E+04 -0.12782816322E+04 -0.65294406756E+03  0.18854998900E+04  0.46999998093E+01 0.  1.
       -5    1    3    3    0  502 -0.12225988135E+04  0.12782816322E+04  0.25990312064E+03  0.17878264771E+04  0.46999998093E+01 0. -1.
</event>
<event>
 5   0  0.1685793E-06  0.3121568E+04  0.7818609E-02  0.8209844E-01
       -2   -1    0    0    0  501  0.00000000000E+00  0.00000000000E+00  0.22292270459E+04  0.22292270459E+04  0.25500000920E-02 0. -1.
        2   -1    0    0  501    0  0.00000000000E+00  0.00000000000E+00 -0.10927764564E+04  0.10927764564E+04  0.25500000920E-02 0.  1.
    10030    2    1    2    0    0  0.00000000000E+00  0.00000000000E+00  0.11364505895E+04  0.33220035023E+04  0.31215680878E+04 0.  0.
        3    1    3    3  502    0  0.11226849788E+04  0.54017761354E+03  0.15687146676E+04  0.20032671150E+04  0.10100000352E+00 0. -1.
       -3    1    3    3    0  502 -0.11226849788E+04 -0.54017761354E+03 -0.43226407804E+03  0.13187363873E+04  0.10100000352E+00 0.  1.
</event>
<event>
 5   0  0.1685793E-06  0.3823866E+04  0.7818609E-02  0.8041053E-01
       -2   -1    0    0    0  501  0.00000000000E+00  0.00000000000E+00  0.12809895278E+04  0.12809895278E+04  0.25500000920E-02 0.  1.
        2   -1    0    0  501    0  0.00000000000E+00  0.00000000000E+00 -0.28536442757E+04  0.28536442757E+04  0.25500000920E-02 0. -1.
    10030    2    1    2    0    0  0.00000000000E+00  0.00000000000E+00 -0.15726547479E+04  0.41346338035E+04  0.38238663330E+04 0.  0.
        3    1    3    3  502    0 -0.13936225709E+03  0.10225050089E+04 -0.25266523198E+04  0.27292691856E+04  0.10100000352E+00 0. -1.
       -3    1    3    3    0  502  0.13936225709E+03 -0.10225050089E+04  0.95399757184E+03  0.14053646179E+04  0.10100000352E+00 0.  1.
</event>
<event>
 5   0  0.1685793E-06  0.3848733E+04  0.7818609E-02  0.8035777E-01
        2   -1    0    0  501    0  0.00000000000E+00  0.00000000000E+00  0.24803134904E+04  0.24803134904E+04  0.25500000920E-02 0.  1.
       -2   -1    0    0    0  501  0.00000000000E+00  0.00000000000E+00 -0.14930313401E+04  0.14930313401E+04  0.25500000920E-02 0. -1.
    10030    2    1    2    0    0  0.00000000000E+00  0.00000000000E+00  0.98728215033E+03  0.39733448305E+04  0.38487326613E+04 0.  0.
        3    1    3    3  502    0  0.17287910248E+04  0.78876348266E+03  0.17996218488E+03  0.19087306351E+04  0.10100000352E+00 0.  1.
       -3    1    3    3    0  502 -0.17287910248E+04 -0.78876348266E+03  0.80731996545E+03  0.20646141954E+04  0.10100000352E+00 0. -1.
</event>
<event>
 5   0  0.1685793E-06  0.3824227E+04  0.7818609E-02  0.8040976E-01
        2   -1    0    0  501    0  0.00000000000E+00  0.00000000000E+00  0.19129420918E+04  0.19129420918E+04  0.25500000920E-02 0. -1.
       -2   -1    0    0    0  501  0.00000000000E+00  0.00000000000E+00 -0.19112856537E+04  0.19112856537E+04  0.25500000920E-02 0.  1.
    10030    2    1    2    0    0  0.00000000000E+00  0.00000000000E+00  0.16564381326E+01  0.38242277454E+04  0.38242273867E+04 0.  0.
        3    1    3    3  502    0 -0.17499477507E+04 -0.70757613245E+03  0.30611115386E+03  0.19122461039E+04  0.10100000352E+00 0. -1.
       -3    1    3    3    0  502  0.17499477507E+04  0.70757613245E+03 -0.30445471572E+03  0.19119816415E+04  0.10100000352E+00 0.  1.
</event>
<event>
 5   0  0.1680194E-06  0.3701294E+04  0.7818609E-02  0.8067675E-01
        2   -1    0    0  501    0  0.00000000000E+00  0.00000000000E+00  0.12341429485E+04  0.12341429485E+04  0.25500000920E-02 0.  1.
       -2   -1    0    0    0  501  0.00000000000E+00  0.00000000000E+00 -0.27751196903E+04  0.27751196903E+04  0.25500000920E-02 0. -1.
    10030    2    1    2    0    0  0.00000000000E+00  0.00000000000E+00 -0.15409767418E+04  0.40092626388E+04  0.37012940424E+04 0.  0.
        2    1    3    3  502    0 -0.16932225975E+04  0.33951933539E+03 -0.49836399794E+02  0.17276457422E+04  0.25500000920E-02 0.  1.
       -2    1    3    3    0  502  0.16932225975E+04 -0.33951933539E+03 -0.14911403420E+04  0.22816168967E+04  0.25500000920E-02 0. -1.
</event>
<event>
 5   0  0.1151180E-06  0.1987968E+04  0.7818609E-02  0.8612267E-01
       -2   -1    0    0    0  501  0.00000000000E+00  0.00000000000E+00  0.68428530058E+03  0.68428530059E+03  0.25500000920E-02 0.  1.
        2   -1    0    0  501    0  0.00000000000E+00  0.00000000000E+00 -0.14438479958E+04  0.14438479958E+04  0.25500000920E-02 0. -1.
    10030    2    1    2    0    0  0.00000000000E+00  0.00000000000E+00 -0.75956269520E+03  0.21281332964E+04  0.19879677661E+04 0.  0.
        5    1    3    3  502    0 -0.53519555590E+03 -0.23711482078E+03 -0.12397417355E+04  0.13709994099E+04  0.46999998093E+01 0. -1.
       -5    1    3    3    0  502  0.53519555590E+03  0.23711482078E+03  0.48017904029E+03  0.75713388646E+03  0.46999998093E+01 0.  1.
</event>
<event>
 5   0  0.1680194E-06  0.3631868E+04  0.7818609E-02  0.8083231E-01
       -2   -1    0    0    0  501  0.00000000000E+00  0.00000000000E+00  0.22725559952E+04  0.22725559952E+04  0.25500000920E-02 0.  1.
        2   -1    0    0  501    0  0.00000000000E+00  0.00000000000E+00 -0.14510601827E+04  0.14510601827E+04  0.25500000920E-02 0. -1.
    10030    2    1    2    0    0  0.00000000000E+00  0.00000000000E+00  0.82149581253E+03  0.37236161780E+04  0.36318675734E+04 0.  0.
        2    1    3    3  502    0 -0.94233563788E+03  0.81018999839E+03  0.17682860017E+04  0.21613050853E+04  0.25500000920E-02 0.  1.
       -2    1    3    3    0  502  0.94233563788E+03 -0.81018999839E+03 -0.94679018918E+03  0.15623110927E+04  0.25500000920E-02 0. -1.
</event>
<event>
 5   0  0.1184684E-06  0.2799882E+04  0.7818609E-02  0.8303305E-01
       -2   -1    0    0    0  501  0.00000000000E+00  0.00000000000E+00  0.16763492772E+04  0.16763492772E+04  0.25500000920E-02 0.  1.
        2   -1    0    0  501    0  0.00000000000E+00  0.00000000000E+00 -0.11691088016E+04  0.11691088016E+04  0.25500000920E-02 0. -1.
    10030    2    1    2    0    0  0.00000000000E+00  0.00000000000E+00  0.50724047556E+03  0.28454580788E+04  0.27998819222E+04 0.  0.
        4    1    3    3  502    0  0.59584571033E+03 -0.34111721155E+03  0.14934959259E+04  0.16437532528E+04  0.12699999809E+01 0.  1.
       -4    1    3    3    0  502 -0.59584571033E+03  0.34111721155E+03 -0.98625545037E+03  0.12017048260E+04  0.12699999809E+01 0. -1.
</event>
<event>
 5   0  0.1184684E-06  0.3694900E+04  0.7818609E-02  0.8069093E-01
        2   -1    0    0  501    0  0.00000000000E+00  0.00000000000E+00  0.16740234700E+04  0.16740234700E+04  0.25500000920E-02 0.  1.
       -2   -1    0    0    0  501  0.00000000000E+00  0.00000000000E+00 -0.20388437344E+04  0.20388437344E+04  0.25500000920E-02 0. -1.
    10030    2    1    2    0    0  0.00000000000E+00  0.00000000000E+00 -0.36482026441E+03  0.37128672043E+04  0.36949004116E+04 0.  0.
        4    1    3    3  502    0 -0.10043331537E+04 -0.13856214778E+04  0.51699060852E+03  0.17877116283E+04  0.12699999809E+01 0.  1.
       -4    1    3    3    0  502  0.10043331537E+04  0.13856214778E+04 -0.88181087293E+03  0.19251555761E+04  0.12699999809E+01 0. -1.
</event>
<event>
 5   0  0.5679750E-07  0.2142472E+04  0.7818609E-02  0.8542762E-01
       -1   -1    0    0    0  501  0.00000000000E+00  0.00000000000E+00  0.62138456876E+03  0.62138456878E+03  0.50400001928E-02 0. -1.
        1   -1    0    0  501    0  0.00000000000E+00  0.00000000000E+00 -0.18467567530E+04  0.18467567530E+04  0.50400001928E-02 0.  1.
    10030    2    1    2    0    0  0.00000000000E+00  0.00000000000E+00 -0.12253721842E+04  0.24681413217E+04  0.21424716087E+04 0.  0.
        4    1    3    3  502    0  0.97047491549E+01 -0.22847662131E+03 -0.18183085742E+04  0.18326329236E+04  0.12699999809E+01 0.  1.
       -4    1    3    3    0  502 -0.97047491549E+01  0.22847662131E+03  0.59293639001E+03  0.63550839817E+03  0.12699999809E+01 0. -1.
</event>
<event>
 5   0  0.6186440E-07  0.2739287E+04  0.7818609E-02  0.8322369E-01
       -1   -1    0    0    0  501  0.00000000000E+00  0.00000000000E+00  0.14362176485E+04  0.14362176485E+04  0.50400001928E-02 0.  1.
        1   -1    0    0  501    0  0.00000000000E+00  0.00000000000E+00 -0.13061549583E+04  0.13061549583E+04  0.50400001928E-02 0. -1.
    10030    2    1    2    0    0  0.00000000000E+00  0.00000000000E+00  0.13006269025E+03  0.27423726068E+04  0.27392866245E+04 0.  0.
        3    1    3    3  502    0 -0.21507861726E+03 -0.78914084697E+03  0.11648684166E+04  0.14233483502E+04  0.10100000352E+00 0.  1.
       -3    1    3    3    0  502  0.21507861726E+03  0.78914084697E+03 -0.10348057263E+04  0.13190242566E+04  0.10100000352E+00 0. -1.
</event>
<event>
 5   0  0.1151180E-06  0.3081750E+04  0.7818609E-02  0.8220764E-01
       -2   -1    0    0    0  501  0.00000000000E+00  0.00000000000E+00  0.11180034161E+04  0.11180034161E+04  0.25500000920E-02 0.  1.
        2   -1    0    0  501    0  0.00000000000E+00  0.00000000000E+00 -0.21236927002E+04  0.21236927002E+04  0.25500000920E-02 0. -1.
    10030    2    1    2    0    0  0.00000000000E+00  0.00000000000E+00 -0.10056892840E+04  0.32416961163E+04  0.30817499533E+04 0.  0.
        5    1    3    3  502    0 -0.13827111258E+04 -0.64934588565E+03 -0.29054435064E+03  0.15549849666E+04  0.46999998093E+01 0.  1.
       -5    1    3    3    0  502  0.13827111258E+04  0.64934588565E+03 -0.71514493338E+03  0.16867111497E+04  0.46999998093E+01 0. -1.
</event>
<event>
 5   0  0.6186440E-07  0.2009872E+04  0.7818609E-02  0.8602019E-01
       -1   -1    0    0    0  501  0.00000000000E+00  0.00000000000E+00  0.67294198938E+03  0.67294198940E+03  0.50400001928E-02 0.  1.
        1   -1    0    0  501    0  0.00000000000E+00  0.00000000000E+00 -0.15007179103E+04  0.15007179103E+04  0.50400001928E-02 0. -1.
    10030    2    1    2    0    0  0.00000000000E+00  0.00000000000E+00 -0.82777592096E+03  0.21736598997E+04  0.20098717333E+04 0.  0.
        3    1    3    3  502    0  0.56319238695E+03  0.86870332555E+02 -0.13090888572E+04  0.14277414912E+04  0.10100000352E+00 0. -1.
       -3    1    3    3    0  502 -0.56319238695E+03 -0.86870332555E+02  0.48131293625E+03  0.74591840855E+03  0.10100000352E+00 0.  1.
</event>
<event>
 5   0  0.1724503E-06  0.3669105E+04  0.7818609E-02  0.8074843E-01
        2   -1    0    0  501    0  0.00000000000E+00  0.00000000000E+00  0.14126328223E+04  0.14126328223E+04  0.25500000920E-02 0. -1.
       -2   -1    0    0    0  501  0.00000000000E+00  0.00000000000E+00 -0.23824897427E+04  0.23824897427E+04  0.25500000920E-02 0.  1.
    10030    2    1    2    0    0  0.00000000000E+00  0.00000000000E+00 -0.96985692039E+03  0.37951225649E+04  0.36691051820E+04 0.  0.
        1    1    3    3  502    0 -0.54045452090E+03  0.78853833879E+03  0.11346397942E+04  0.14836749184E+04  0.50400001928E-02 0. -1.
       -1    1    3    3    0  502  0.54045452090E+03 -0.78853833879E+03 -0.21044967146E+04  0.23114476465E+04  0.50400001928E-02 0.  1.
</event>
<event>
 5   0  0.1184684E-06  0.2239464E+04  0.7818609E-02  0.8502179E-01
       -2   -1    0    0    0  501  0.00000000000E+00  0.00000000000E+00  0.68260775829E+03  0.68260775829E+03  0.25500000920E-02 0. -1.
        2   -1    0    0  501    0  0.00000000000E+00  0.00000000000E+00 -0.18367796066E+04  0.18367796066E+04  0.25500000920E-02 0.  1.
    10030    2    1    2    0    0  0.00000000000E+00  0.00000000000E+00 -0.11541718483E+04  0.25193873649E+04  0.22394642303E+04 0.  0.
        4    1    3    3  502    0 -0.67999195679E+03 -0.76247023171E+03 -0.10926831712E+04  0.14958970690E+04  0.12699999809E+01 0.  1.
       -4    1    3    3    0  502  0.67999195679E+03  0.76247023171E+03 -0.61488677161E+02  0.10234902959E+04  0.12699999809E+01 0. -1.
</event>
<event>
 5   0  0.5875011E-07  0.3475373E+04  0.7818609E-02  0.8119651E-01
       -1   -1    0    0    0  501  0.00000000000E+00  0.00000000000E+00  0.33370537509E+04  0.33370537509E+04  0.50400001928E-02 0.  1.
        1   -1    0    0  501    0  0.00000000000E+00  0.00000000000E+00 -0.90485663830E+03  0.90485663832E+03  0.50400001928E-02 0. -1.
    10030    2    1    2    0    0  0.00000000000E+00  0.00000000000E+00  0.24321971126E+04  0.42419103893E+04  0.34753734988E+04 0.  0.
        2    1    3    3  502    0 -0.31199337442E+03  0.56328400857E+02 -0.86925747584E+03  0.92526823880E+03  0.25500000920E-02 0. -1.
       -2    1    3    3    0  502  0.31199337442E+03 -0.56328400857E+02  0.33014545885E+04  0.33166421505E+04  0.25500000920E-02 0.  1.
</event>
<event>
 5   0  0.1151180E-06  0.3682003E+04  0.7818609E-02  0.8071962E-01
       -2   -1    0    0    0  501  0.00000000000E+00  0.00000000000E+00  0.15924081599E+04  0.15924081599E+04  0.25500000920E-02 0.  1.
        2   -1    0    0  501    0  0.00000000000E+00  0.00000000000E+00 -0.21284036462E+04  0.21284036462E+04  0.25500000920E-02 0. -1.
    10030    2    1    2    0    0  0.00000000000E+00  0.00000000000E+00 -0.53599548636E+03  0.37208118061E+04  0.36820034404E+04 0.  0.
        5    1    3    3  502    0  0.93437279360E+03  0.37999685961E+03  0.12883044539E+04  0.16362153241E+04  0.46999998093E+01 0.  1.
       -5    1    3    3    0  502 -0.93437279360E+03 -0.37999685961E+03 -0.18242999403E+04  0.20845964820E+04  0.46999998093E+01 0. -1.
</event>
<event>
 5   0  0.1151180E-06  0.3677369E+04  0.7818609E-02  0.8072996E-01
       -2   -1    0    0    0  501  0.00000000000E+00  0.00000000000E+00  0.14769149116E+04  0.14769149116E+04  0.25500000920E-02 0.  1.
        2   -1    0    0  501    0  0.00000000000E+00  0.00000000000E+00 -0.22890695163E+04  0.22890695163E+04  0.25500000920E-02 0. -1.
    10030    2    1    2    0    0  0.00000000000E+00  0.00000000000E+00 -0.81215460475E+03  0.37659844279E+04  0.36773691152E+04 0.  0.
        5    1    3    3  502    0  0.14032661140E+04  0.95792495721E+03 -0.11258384807E+04  0.20382125465E+04  0.46999998093E+01 0.  1.
       -5    1    3    3    0  502 -0.14032661140E+04 -0.95792495721E+03  0.31368387591E+03  0.17277718814E+04  0.46999998093E+01 0. -1.
</event>
<event>
 5   0  0.1680194E-06  0.3235733E+04  0.7818609E-02  0.8179443E-01
       -2   -1    0    0    0  501  0.00000000000E+00  0.00000000000E+00  0.18874956785E+04  0.18874956785E+04  0.25500000920E-02 0. -1.
        2   -1    0    0  501    0  0.00000000000E+00  0.00000000000E+00 -0.13867539890E+04  0.13867539890E+04  0.25500000920E-02 0.  1.
    10030    2    1    2    0    0  0.00000000000E+00  0.00000000000E+00  0.50074168949E+03  0.32742496675E+04  0.32357330924E+04 0.  0.
        2    1    3    3  502    0 -0.33176503002E+03 -0.10955816858E+04  0.14072757028E+04  0.18140540701E+04  0.25500000920E-02 0. -1.
       -2    1    3    3    0  502  0.33176503002E+03  0.10955816858E+04 -0.90653401326E+03  0.14601955974E+04  0.25500000920E-02 0.  1.
</event>
<event>
 5   0  0.5679750E-07  0.3072518E+04  0.7818609E-02  0.8223321E-01
        1   -1    0    0  501    0  0.00000000000E+00  0.00000000000E+00  0.18974684425E+04  0.18974684425E+04  0.50400001928E-02 0. -1.
       -1   -1    0    0    0  501  0.00000000000E+00  0.00000000000E+00 -0.12438105787E+04  0.12438105787E+04  0.50400001928E-02 0.  1.
    10030    2    1    2    0    0  0.00000000000E+00  0.00000000000E+00  0.65365786373E+03  0.31412790212E+04  0.30725177439E+04 0.  0.
        4    1    3    3  502    0 -0.17142470833E+03 -0.62561908422E+03 -0.10969254225E+04  0.12743754018E+04  0.12699999809E+01 0.  1.
       -4    1    3    3    0  502  0.17142470833E+03  0.62561908422E+03  0.17505832863E+04  0.18669036194E+04  0.12699999809E+01 0. -1.
</event>
<event>
 5   0  0.5679750E-07  0.1987427E+04  0.7818609E-02  0.8612522E-01
       -4   -1    0    0    0  501  0.00000000000E+00  0.00000000000E+00  0.95131392807E+03  0.95131477579E+03  0.12699999809E+01 0.  1.
        4   -1    0    0  501    0  0.00000000000E+00  0.00000000000E+00 -0.10380012495E+04  0.10380020264E+04  0.12699999809E+01 0. -1.
    10030    2    1    2    0    0  0.00000000000E+00  0.00000000000E+00 -0.86687321438E+02  0.19893168022E+04  0.19874271428E+04 0.  0.
        3    1    3    3  502    0  0.69351059558E+03  0.38300037598E+03 -0.64376433188E+03  0.10208225896E+04  0.10100000352E+00 0. -1.
       -3    1    3    3    0  502 -0.69351059558E+03 -0.38300037598E+03  0.55707701044E+03  0.96849421265E+03  0.10100000352E+00 0.  1.
</event>
<event>
 5   0  0.6261598E-07  0.3302778E+04  0.7818609E-02  0.8162189E-01
       -1   -1    0    0    0  501  0.00000000000E+00  0.00000000000E+00  0.19343993503E+04  0.19343993503E+04  0.50400001928E-02 0. -1.
        1   -1    0    0  501    0  0.00000000000E+00  0.00000000000E+00 -0.14097844604E+04  0.14097844604E+04  0.50400001928E-02 0.  1.
    10030    2    1    2    0    0  0.00000000000E+00  0.00000000000E+00  0.52461488989E+03  0.33441838107E+04  0.33027783118E+04 0.  0.
        1    1    3    3  502    0  0.97703192861E+03 -0.52947420801E+03  0.14991579826E+04  0.18661213742E+04  0.50400001928E-02 0.  1.
       -1    1    3    3    0  502 -0.97703192861E+03  0.52947420801E+03 -0.97454309271E+03  0.14780624365E+04  0.50400001928E-02 0. -1.
</event>
<event>
 5   0  0.5875011E-07  0.3691536E+04  0.7818609E-02  0.8069840E-01
        1   -1    0    0  501    0  0.00000000000E+00  0.00000000000E+00  0.18157723188E+04  0.18157723188E+04  0.50400001928E-02 0. -1.
       -1   -1    0    0    0  501  0.00000000000E+00  0.00000000000E+00 -0.18762596892E+04  0.18762596892E+04  0.50400001928E-02 0.  1.
    10030    2    1    2    0    0  0.00000000000E+00  0.00000000000E+00 -0.60487370401E+02  0.36920320079E+04  0.36915364857E+04 0.  0.
        2    1    3    3  502    0 -0.14306382710E+04  0.79766807285E+03 -0.88115762504E+03  0.18599567137E+04  0.25500000920E-02 0. -1.
       -2    1    3    3    0  502  0.14306382710E+04 -0.79766807285E+03  0.82067025464E+03  0.18320752942E+04  0.25500000920E-02 0.  1.
</event>
<event>
 5   0  0.1184684E-06  0.2605264E+04  0.7818609E-02  0.8366415E-01
        2   -1    0    0  501    0  0.00000000000E+00  0.00000000000E+00  0.99426849254E+03  0.99426849255E+03  0.25500000920E-02 0.  1.
       -2   -1    0    0    0  501  0.00000000000E+00  0.00000000000E+00 -0.17066317296E+04  0.17066317296E+04  0.25500000920E-02 0. -1.
    10030    2    1    2    0    0  0.00000000000E+00  0.00000000000E+00 -0.71236323701E+03  0.27009002221E+04  0.26052640228E+04 0.  0.
        4    1    3    3  502    0  0.37565722757E+03 -0.60120524768E+03 -0.14891305186E+04  0.16492657205E+04  0.12699999809E+01 0. -1.
       -4    1    3    3    0  502 -0.37565722757E+03  0.60120524768E+03  0.77676728155E+03  0.10516345016E+04  0.12699999809E+01 0.  1.
</event>
<event>
 5   0  0.1680194E-06  0.3714229E+04  0.7818609E-02  0.8064816E-01
       -2   -1    0    0    0  501  0.00000000000E+00  0.00000000000E+00  0.22487009926E+04  0.22487009926E+04  0.25500000920E-02 0. -1.
        2   -1    0    0  501    0  0.00000000000E+00  0.00000000000E+00 -0.15337188550E+04  0.15337188550E+04  0.25500000920E-02 0.  1.
    10030    2    1    2    0    0  0.00000000000E+00  0.00000000000E+00  0.71498213758E+03  0.37824198476E+04  0.37142294553E+04 0.  0.
        2    1    3    3  502    0 -0.52991461821E+03 -0.98351168568E+01 -0.14550650316E+04  0.15485866066E+04  0.25500000920E-02 0.  1.
       -2    1    3    3    0  502  0.52991461821E+03  0.98351168568E+01  0.21700471692E+04  0.22338332410E+04  0.25500000920E-02 0. -1.
</event>
<event>
 5   0  0.1685793E-06  0.2245929E+04  0.7818609E-02  0.8499551E-01
        2   -1    0    0  501    0  0.00000000000E+00  0.00000000000E+00  0.83139571399E+03  0.83139571399E+03  0.25500000920E-02 0. -1.
       -2   -1    0    0    0  501  0.00000000000E+00  0.00000000000E+00 -0.15167853069E+04  0.15167853069E+04  0.25500000920E-02 0.  1.
    10030    2    1    2    0    0  0.00000000000E+00  0.00000000000E+00 -0.68538959292E+03  0.23481810209E+04  0.22459285859E+04 0.  0.
        3    1    3    3  502    0  0.94565070701E+03 -0.30502522542E+03 -0.88972989167E+03  0.13337597003E+04  0.10100000352E+00 0. -1.
       -3    1    3    3    0  502 -0.94565070701E+03  0.30502522542E+03  0.20434029875E+03  0.10144213206E+04  0.10100000352E+00 0.  1.
</event>
<event>
 5   0  0.1685793E-06  0.3914031E+04  0.7818609E-02  0.8022117E-01
        2   -1    0    0  501    0  0.00000000000E+00  0.00000000000E+00  0.19779628503E+04  0.19779628503E+04  0.25500000920E-02 0. -1.
       -2   -1    0    0    0  501  0.00000000000E+00  0.00000000000E+00 -0.19362901782E+04  0.19362901782E+04  0.25500000920E-02 0.  1.
    10030    2    1    2    0    0  0.00000000000E+00  0.00000000000E+00  0.41672672063E+02  0.39142530285E+04  0.39140311904E+04 0.  0.
        3    1    3    3  502    0 -0.10536979934E+04 -0.44034098696E+03  0.16101810742E+04  0.19740473013E+04  0.10100000352E+00 0. -1.
       -3    1    3    3    0  502  0.10536979934E+04  0.44034098696E+03 -0.15685084021E+04  0.19402057272E+04  0.10100000352E+00 0.  1.
</event>
<event>
 5   0  0.1184684E-06  0.3241743E+04  0.7818609E-02  0.8177879E-01
        2   -1    0    0  501    0  0.00000000000E+00  0.00000000000E+00  0.22806902430E+04  0.22806902430E+04  0.25500000920E-02 0.  1.
       -2   -1    0    0    0  501  0.00000000000E+00  0.00000000000E+00 -0.11519427871E+04  0.11519427871E+04  0.25500000920E-02 0. -1.
    10030    2    1    2    0    0  0.00000000000E+00  0.00000000000E+00  0.11287474559E+04  0.34326330301E+04  0.32417431576E+04 0.  0.
        4    1    3    3  502    0 -0.11520813533E+04 -0.11026300449E+04  0.25722662799E+03  0.16153178051E+04  0.12699999809E+01 0. -1.
       -4    1    3    3    0  502  0.11520813533E+04  0.11026300449E+04  0.87152082790E+03  0.18173152250E+04  0.12699999809E+01 0.  1.
</event>
<event>
 5   0  0.6261598E-07  0.3635317E+04  0.7818609E-02  0.8082450E-01
        1   -1    0    0  501    0  0.00000000000E+00  0.00000000000E+00  0.18099065010E+04  0.18099065010E+04  0.50400001928E-02 0. -1.
       -1   -1    0    0    0  501  0.00000000000E+00  0.00000000000E+00 -0.18254433471E+04  0.18254433471E+04  0.50400001928E-02 0.  1.
    10030    2    1    2    0    0  0.00000000000E+00  0.00000000000E+00 -0.15536846116E+02  0.36353498482E+04  0.36353166471E+04 0.  0.
        1    1    3    3  502    0 -0.71887436732E+03 -0.46293168323E+03 -0.16117767386E+04  0.18245301736E+04  0.50400001928E-02 0.  1.
       -1    1    3    3    0  502  0.71887436732E+03  0.46293168323E+03  0.15962398925E+04  0.18108196745E+04  0.50400001928E-02 0. -1.
</event>
<event>
 5   0  0.6261598E-07  0.3398670E+04  0.7818609E-02  0.8138233E-01
        1   -1    0    0  501    0  0.00000000000E+00  0.00000000000E+00  0.16917998332E+04  0.16917998332E+04  0.50400001928E-02 0.  1.
       -1   -1    0    0    0  501  0.00000000000E+00  0.00000000000E+00 -0.17069034734E+04  0.17069034734E+04  0.50400001928E-02 0. -1.
    10030    2    1    2    0    0  0.00000000000E+00  0.00000000000E+00 -0.15103640184E+02  0.33987033066E+04  0.33986697466E+04 0.  0.
        1    1    3    3  502    0 -0.14687678712E+02  0.85727721342E+03  0.14596365028E+04  0.16928315536E+04  0.50400001928E-02 0.  1.
       -1    1    3    3    0  502  0.14687678712E+02 -0.85727721342E+03 -0.14747401430E+04  0.17058717531E+04  0.50400001928E-02 0. -1.
</event>
<event>
 5   0  0.1685793E-06  0.3387107E+04  0.7818609E-02  0.8141078E-01
        2   -1    0    0  501    0  0.00000000000E+00  0.00000000000E+00  0.21626442350E+04  0.21626442350E+04  0.25500000920E-02 0. -1.
       -2   -1    0    0    0  501  0.00000000000E+00  0.00000000000E+00 -0.13262113577E+04  0.13262113577E+04  0.25500000920E-02 0.  1.
    10030    2    1    2    0    0  0.00000000000E+00  0.00000000000E+00  0.83643287733E+03  0.34888555927E+04  0.33871069349E+04 0.  0.
        3    1    3    3  502    0  0.56683114180E+03 -0.15605149102E+04  0.74085937990E+02  0.16619245063E+04  0.10100000352E+00 0.  1.
       -3    1    3    3    0  502 -0.56683114180E+03  0.15605149102E+04  0.76234693934E+03  0.18269310864E+04  0.10100000352E+00 0. -1.
</event>
<event>
 5   0  0.5875011E-07  0.3864122E+04  0.7818609E-02  0.8032533E-01
       -1   -1    0    0    0  501  0.00000000000E+00  0.00000000000E+00  0.20791457107E+04  0.20791457107E+04  0.50400001928E-02 0.  1.
        1   -1    0    0  501    0  0.00000000000E+00  0.00000000000E+00 -0.17953815357E+04  0.17953815357E+04  0.50400001928E-02 0. -1.
    10030    2    1    2    0    0  0.00000000000E+00  0.00000000000E+00  0.28376417498E+03  0.38745272465E+04  0.38641220577E+04 0.  0.
        2    1    3    3  502    0 -0.82773624627E+03 -0.11158090405E+04 -0.12043735342E+04  0.18386660160E+04  0.25500000920E-02 0. -1.
       -2    1    3    3    0  502  0.82773624627E+03  0.11158090405E+04  0.14881377092E+04  0.20358612305E+04  0.25500000920E-02 0.  1.
</event>
<event>
 5   0  0.1724503E-06  0.3736148E+04  0.7818609E-02  0.8059998E-01
        2   -1    0    0  501    0  0.00000000000E+00  0.00000000000E+00  0.21536162332E+04  0.21536162332E+04  0.25500000920E-02 0. -1.
       -2   -1    0    0    0  501  0.00000000000E+00  0.00000000000E+00 -0.16203908807E+04  0.16203908807E+04  0.25500000920E-02 0.  1.
    10030    2    1    2    0    0  0.00000000000E+00  0.00000000000E+00  0.53322535245E+03  0.37740071139E+04  0.37361478048E+04 0.  0.
        1    1    3    3  502    0 -0.57336933518E+02  0.17358195612E+04 -0.42835828710E+03  0.17888118669E+04  0.50400001928E-02 0.  1.
       -1    1    3    3    0  502  0.57336933518E+02 -0.17358195612E+04  0.96158363955E+03  0.19851952470E+04  0.50400001928E-02 0. -1.
</event>
<event>
 5   0  0.6287345E-07  0.3242143E+04  0.7818609E-02  0.8177775E-01
       -1   -1    0    0    0  501  0.00000000000E+00  0.00000000000E+00  0.22991003275E+04  0.22991003275E+04  0.50400001928E-02 0.  1.
        1   -1    0    0  501    0  0.00000000000E+00  0.00000000000E+00 -0.11430006852E+04  0.11430006852E+04  0.50400001928E-02 0. -1.
    10030    2    1    2    0    0  0.00000000000E+00  0.00000000000E+00  0.11560996423E+04  0.34421010128E+04  0.32421432725E+04 0.  0.
        5    1    3    3  502    0 -0.47126365859E+03 -0.53859555303E+03 -0.96619461413E+03  0.12023846007E+04  0.46999998093E+01 0. -1.
       -5    1    3    3    0  502  0.47126365859E+03  0.53859555303E+03  0.21222942564E+04  0.22397164120E+04  0.46999998093E+01 0.  1.
</event>
<event>
 5   0  0.1724503E-06  0.3018566E+04  0.7818609E-02  0.8238449E-01
       -2   -1    0    0    0  501  0.00000000000E+00  0.00000000000E+00  0.13543730339E+04  0.13543730339E+04  0.25500000920E-02 0.  1.
        2   -1    0    0  501    0  0.00000000000E+00  0.00000000000E+00 -0.16819112258E+04  0.16819112258E+04  0.25500000920E-02 0. -1.
    10030    2    1    2    0    0  0.00000000000E+00  0.00000000000E+00 -0.32753819195E+03  0.30362842597E+04  0.30185660235E+04 0.  0.
        1    1    3    3  502    0  0.20350399600E+03  0.12551369380E+04 -0.98165477505E+03  0.16063712855E+04  0.50400001928E-02 0.  1.
       -1    1    3    3    0  502 -0.20350399600E+03 -0.12551369380E+04  0.65411658310E+03  0.14299129742E+04  0.50400001928E-02 0. -1.
</event>
<event>
 5   0  0.6287345E-07  0.3686333E+04  0.7818609E-02  0.8070997E-01
        1   -1    0    0  501    0  0.00000000000E+00  0.00000000000E+00  0.17515896222E+04  0.17515896222E+04  0.50400001928E-02 0. -1.
       -1   -1    0    0    0  501  0.00000000000E+00  0.00000000000E+00 -0.19395314033E+04  0.19395314033E+04  0.50400001928E-02 0.  1.
    10030    2    1    2    0    0  0.00000000000E+00  0.00000000000E+00 -0.18794178105E+03  0.36911210255E+04  0.36863331797E+04 0.  0.
        5    1    3    3  502    0 -0.74567808235E+03 -0.16282777333E+04  0.34238958057E+03  0.18233422318E+04  0.46999998093E+01 0. -1.
       -5    1    3    3    0  502  0.74567808235E+03  0.16282777333E+04 -0.53033136161E+03  0.18677787938E+04  0.46999998093E+01 0.  1.
</event>
<event>
 5   0  0.5679750E-07  0.3705364E+04  0.7818609E-02  0.8066774E-01
        1   -1    0    0  501    0  0.00000000000E+00  0.00000000000E+00  0.15674504889E+04  0.15674504889E+04  0.50400001928E-02 0. -1.
       -1   -1    0    0    0  501  0.00000000000E+00  0.00000000000E+00 -0.21898180957E+04  0.21898180957E+04  0.50400001928E-02 0.  1.
    10030    2    1    2    0    0  0.00000000000E+00  0.00000000000E+00 -0.62236760683E+03  0.37572685847E+04  0.37053644597E+04 0.  0.
        4    1    3    3  502    0  0.15820402129E+02  0.13090930921E+04 -0.16404451291E+04  0.20988179634E+04  0.12699999809E+01 0.  1.
       -4    1    3    3    0  502 -0.15820402129E+02 -0.13090930921E+04  0.10180775223E+04  0.16584506213E+04  0.12699999809E+01 0. -1.
</event>
<event>
 5   0  0.1685793E-06  0.3418870E+04  0.7818609E-02  0.8133290E-01
        2   -1    0    0  501    0  0.00000000000E+00  0.00000000000E+00  0.24334627887E+04  0.24334627887E+04  0.25500000920E-02 0.  1.
       -2   -1    0    0    0  501  0.00000000000E+00  0.00000000000E+00 -0.12008270844E+04  0.12008270845E+04  0.25500000920E-02 0. -1.
    10030    2    1    2    0    0  0.00000000000E+00  0.00000000000E+00  0.12326357043E+04  0.36342898732E+04  0.34188700038E+04 0.  0.
        3    1    3    3  502    0  0.13305002013E+04  0.23767579377E+03 -0.49626599353E+03  0.14397918305E+04  0.10100000352E+00 0. -1.
       -3    1    3    3    0  502 -0.13305002013E+04 -0.23767579377E+03  0.17289016978E+04  0.21944980427E+04  0.10100000352E+00 0.  1.
</event>
<event>
 5   0  0.1724503E-06  0.2252103E+04  0.7818609E-02  0.8497049E-01
        2   -1    0    0  501    0  0.00000000000E+00  0.00000000000E+00  0.13496710178E+04  0.13496710178E+04  0.25500000920E-02 0.  1.
       -2   -1    0    0    0  501  0.00000000000E+00  0.00000000000E+00 -0.93948244504E+03  0.93948244505E+03  0.25500000920E-02 0. -1.
    10030    2    1    2    0    0  0.00000000000E+00  0.00000000000E+00  0.41018857277E+03  0.22891534629E+04  0.22521032195E+04 0.  0.
        1    1    3    3  502    0 -0.16537373805E+03  0.10656929369E+04 -0.12418312975E+03  0.10855742069E+04  0.50400001928E-02 0. -1.
       -1    1    3    3    0  502  0.16537373805E+03 -0.10656929369E+04  0.53437170252E+03  0.12035792560E+04  0.50400001928E-02 0.  1.
</event>
<event>
 5   0  0.1151180E-06  0.3677472E+04  0.7818609E-02  0.8072973E-01
       -2   -1    0    0    0  501  0.00000000000E+00  0.00000000000E+00  0.16633485703E+04  0.16633485703E+04  0.25500000920E-02 0.  1.
        2   -1    0    0  501    0  0.00000000000E+00  0.00000000000E+00 -0.20326171206E+04  0.20326171206E+04  0.25500000920E-02 0. -1.
    10030    2    1    2    0    0  0.00000000000E+00  0.00000000000E+00 -0.36926855023E+03  0.36959656909E+04  0.36774723828E+04 0.  0.
        5    1    3    3  502    0 -0.14131851903E+04 -0.12023067010E+03  0.99145595828E+03  0.17304782007E+04  0.46999998093E+01 0.  1.
       -5    1    3    3    0  502  0.14131851903E+04  0.12023067010E+03 -0.13607245085E+04  0.19654874902E+04  0.46999998093E+01 0. -1.
</event>
<event>
 5   0  0.1184684E-06  0.3689295E+04  0.7818609E-02  0.8070338E-01
       -2   -1    0    0    0  501  0.00000000000E+00  0.00000000000E+00  0.17438833315E+04  0.17438833315E+04  0.25500000920E-02 0.  1.
        2   -1    0    0  501    0  0.00000000000E+00  0.00000000000E+00 -0.19512337883E+04  0.19512337883E+04  0.25500000920E-02 0. -1.
    10030    2    1    2    0    0  0.00000000000E+00  0.00000000000E+00 -0.20735045671E+03  0.36951171198E+04  0.36892948265E+04 0.  0.
        4    1    3    3  502    0 -0.12778708551E+04  0.78463286347E+03 -0.11796703292E+04  0.19079377220E+04  0.12699999809E+01 0. -1.
       -4    1    3    3    0  502  0.12778708551E+04 -0.78463286347E+03  0.97231987246E+03  0.17871793978E+04  0.12699999809E+01 0.  1.
</event>
<event>
 5   0  0.1680194E-06  0.3599798E+04  0.7818609E-02  0.8090538E-01
       -2   -1    0    0    0  501  0.00000000000E+00  0.00000000000E+00  0.14309491814E+04  0.14309491814E+04  0.25500000920E-02 0.  1.
        2   -1    0    0  501    0  0.00000000000E+00  0.00000000000E+00 -0.22639772295E+04  0.22639772295E+04  0.25500000920E-02 0. -1.
    10030    2    1    2    0    0  0.00000000000E+00  0.00000000000E+00 -0.83302804812E+03  0.36949264109E+04  0.35997979739E+04 0.  0.
        2    1    3    3  502    0 -0.11849445928E+04  0.79111979063E+03 -0.15454297075E+04  0.21019793510E+04  0.25500000920E-02 0. -1.
       -2    1    3    3    0  502  0.11849445928E+04 -0.79111979063E+03  0.71240165939E+03  0.15929470599E+04  0.25500000920E-02 0.  1.
</event>
<event>
 5   0  0.6261598E-07  0.2628440E+04  0.7818609E-02  0.8358604E-01
        1   -1    0    0  501    0  0.00000000000E+00  0.00000000000E+00  0.12170767527E+04  0.12170767528E+04  0.50400001928E-02 0. -1.
       -1   -1    0    0    0  501  0.00000000000E+00  0.00000000000E+00 -0.14191172870E+04  0.14191172870E+04  0.50400001928E-02 0.  1.
    10030    2    1    2    0    0  0.00000000000E+00  0.00000000000E+00 -0.20204053424E+03  0.26361940397E+04  0.26284403432E+04 0.  0.
        1    1    3    3  502    0  0.32704012555E+03  0.79515011219E+03  0.89587145143E+03  0.12416942466E+04  0.50400001928E-02 0. -1.
       -1    1    3    3    0  502 -0.32704012555E+03 -0.79515011219E+03 -0.10979119857E+04  0.13944997931E+04  0.50400001928E-02 0.  1.
</event>
<event>
 5   0  0.5875011E-07  0.3001946E+04  0.7818609E-02  0.8243175E-01
        1   -1    0    0  501    0  0.00000000000E+00  0.00000000000E+00  0.97520782545E+03  0.97520782546E+03  0.50400001928E-02 0. -1.
       -1   -1    0    0    0  501  0.00000000000E+00  0.00000000000E+00 -0.23101950243E+04  0.23101950243E+04  0.50400001928E-02 0.  1.
    10030    2    1    2    0    0  0.00000000000E+00  0.00000000000E+00 -0.13349871989E+04  0.32854028498E+04  0.30019462127E+04 0.  0.
        2    1    3    3  502    0 -0.21836951080E+03  0.14849437507E+04 -0.68205725502E+03  0.16486192057E+04  0.25500000920E-02 0. -1.
       -2    1    3    3    0  502  0.21836951080E+03 -0.14849437507E+04 -0.65292994384E+03  0.16367836441E+04  0.25500000920E-02 0.  1.
</event>
<event>
 5   0  0.6186440E-07  0.2149885E+04  0.7818609E-02  0.8539581E-01
       -1   -1    0    0    0  501  0.00000000000E+00  0.00000000000E+00  0.17669378004E+04  0.17669378004E+04  0.50400001928E-02 0.  1.
        1   -1    0    0  501    0  0.00000000000E+00  0.00000000000E+00 -0.65395710669E+03  0.65395710671E+03  0.50400001928E-02 0. -1.
    10030    2    1    2    0    0  0.00000000000E+00  0.00000000000E+00  0.11129806937E+04  0.24208949071E+04  0.21498851427E+04 0.  0.
        3    1    3    3  502    0 -0.85548137632E+03 -0.59060669907E+03  0.86453839856E+03  0.13520692700E+04  0.10100000352E+00 0. -1.
       -3    1    3    3    0  502  0.85548137632E+03  0.59060669907E+03  0.24844229513E+03  0.10688256371E+04  0.10100000352E+00 0.  1.
</event>
<event>
 5   0  0.5679750E-07  0.2062681E+04  0.7818609E-02  0.8577863E-01
        3   -1    0    0  501    0  0.00000000000E+00  0.00000000000E+00  0.12340470630E+04  0.12340470671E+04  0.10100000352E+00 0.  1.
       -3   -1    0    0    0  501  0.00000000000E+00  0.00000000000E+00 -0.86193090061E+03  0.86193090653E+03  0.10100000352E+00 0. -1.
    10030    2    1    2    0    0  0.00000000000E+00  0.00000000000E+00  0.37211616234E+03  0.20959779736E+04  0.20626810775E+04 0.  0.
        4    1    3    3  502    0 -0.85668061797E+03 -0.30200074948E+03 -0.31024777710E+03  0.95987573674E+03  0.12699999809E+01 0. -1.
       -4    1    3    3    0  502  0.85668061797E+03  0.30200074948E+03  0.68236393944E+03  0.11361022369E+04  0.12699999809E+01 0.  1.
</event>
<event>
 5   0  0.5875011E-07  0.3741946E+04  0.7818609E-02  0.8058729E-01
        1   -1    0    0  501    0  0.00000000000E+00  0.00000000000E+00  0.10396446968E+04  0.10396446968E+04  0.50400001928E-02 0. -1.
       -1   -1    0    0    0  501  0.00000000000E+00  0.00000000000E+00 -0.33670543600E+04  0.33670543600E+04  0.50400001928E-02 0.  1.
    10030    2    1    2    0    0  0.00000000000E+00  0.00000000000E+00 -0.23274096632E+04  0.44066990568E+04  0.37419461296E+04 0.  0.
        2    1    3    3  502    0 -0.13709179972E+04 -0.10338120034E+04 -0.28846774377E+03  0.17410907652E+04  0.25500000920E-02 0. -1.
       -2    1    3    3    0  502  0.13709179972E+04  0.10338120034E+04 -0.20389419194E+04  0.26656082916E+04  0.25500000920E-02 0.  1.
</event>
<event>
 5   0  0.5679750E-07  0.3698282E+04  0.7818609E-02  0.8068343E-01
       -1   -1    0    0    0  501  0.00000000000E+00  0.00000000000E+00  0.21941739691E+04  0.21941739691E+04  0.50400001928E-02 0.  1.
        1   -1    0    0  501    0  0.00000000000E+00  0.00000000000E+00 -0.15583639504E+04  0.15583639504E+04  0.50400001928E-02 0. -1.
    10030    2    1    2    0    0  0.00000000000E+00  0.00000000000E+00  0.63581001869E+03  0.37525379195E+04  0.36982815547E+04 0.  0.
        4    1    3    3  502    0 -0.29253979797E+03 -0.17030721052E+04 -0.34999643495E+03  0.17631032999E+04  0.12699999809E+01 0. -1.
       -4    1    3    3    0  502  0.29253979797E+03  0.17030721052E+04  0.98580645365E+03  0.19894346196E+04  0.12699999809E+01 0.  1.
</event>
<event>
 5   0  0.1685793E-06  0.3707132E+04  0.7818609E-02  0.8066383E-01
        2   -1    0    0  501    0  0.00000000000E+00  0.00000000000E+00  0.17883275889E+04  0.17883275889E+04  0.25500000920E-02 0.  1.
       -2   -1    0    0    0  501  0.00000000000E+00  0.00000000000E+00 -0.19211842818E+04  0.19211842818E+04  0.25500000920E-02 0. -1.
    10030    2    1    2    0    0  0.00000000000E+00  0.00000000000E+00 -0.13285669292E+03  0.37095118706E+04  0.37071319666E+04 0.  0.
        3    1    3    3  502    0 -0.33037125228E+03 -0.17955337417E+04  0.25412128258E+03  0.18432754050E+04  0.10100000352E+00 0.  1.
       -3    1    3    3    0  502  0.33037125228E+03  0.17955337417E+04 -0.38697797550E+03  0.18662364657E+04  0.10100000352E+00 0. -1.
</event>
<event>
 5   0  0.5875011E-07  0.3685686E+04  0.7818609E-02  0.8071141E-01
       -1   -1    0    0    0  501  0.00000000000E+00  0.00000000000E+00  0.14123873109E+04  0.14123873109E+04  0.50400001928E-02 0.  1.
        1   -1    0    0  501    0  0.00000000000E+00  0.00000000000E+00 -0.24044896867E+04  0.24044896867E+04  0.50400001928E-02 0. -1.
    10030    2    1    2    0    0  0.00000000000E+00  0.00000000000E+00 -0.99210237571E+03  0.38168769976E+04  0.36856862171E+04 0.  0.
        2    1    3    3  502    0 -0.36519093165E+03 -0.15995075023E+04 -0.13651379159E+04  0.21343360082E+04  0.25500000920E-02 0. -1.
       -2    1    3    3    0  502  0.36519093165E+03  0.15995075023E+04  0.37303554022E+03  0.16825409894E+04  0.25500000920E-02 0.  1.
</event>
<event>
 5   0  0.1151180E-06  0.3709334E+04  0.7818609E-02  0.8065897E-01
        2   -1    0    0  501    0  0.00000000000E+00  0.00000000000E+00  0.26766234205E+04  0.26766234205E+04  0.25500000920E-02 0.  1.
       -2   -1    0    0    0  501  0.00000000000E+00  0.00000000000E+00 -0.12851224997E+04  0.12851224997E+04  0.25500000920E-02 0. -1.
    10030    2    1    2    0    0  0.00000000000E+00  0.00000000000E+00  0.13915009207E+04  0.39617459202E+04  0.37093336226E+04 0.  0.
        5    1    3    3  502    0 -0.48227106881E+03 -0.91179995079E+03 -0.95049987954E+03  0.14026534301E+04  0.46999998093E+01 0. -1.
       -5    1    3    3    0  502  0.48227106881E+03  0.91179995079E+03  0.23420008003E+04  0.25590924900E+04  0.46999998093E+01 0.  1.
</event>
<event>
 5   0  0.1685793E-06  0.2155823E+04  0.7818609E-02  0.8537044E-01
       -2   -1    0    0    0  501  0.00000000000E+00  0.00000000000E+00  0.47232659636E+03  0.47232659636E+03  0.25500000920E-02 0.  1.
        2   -1    0    0  501    0  0.00000000000E+00  0.00000000000E+00 -0.24599363180E+04  0.24599363180E+04  0.25500000920E-02 0. -1.
    10030    2    1    2    0    0  0.00000000000E+00  0.00000000000E+00 -0.19876097216E+04  0.29322629143E+04  0.21558231359E+04 0.  0.
        3    1    3    3  502    0  0.36157159794E+03 -0.89005601394E+03 -0.32891144934E+03  0.10154390578E+04  0.10100000352E+00 0.  1.
       -3    1    3    3    0  502 -0.36157159794E+03  0.89005601394E+03 -0.16586982723E+04  0.19168238566E+04  0.10100000352E+00 0. -1.
</event>
<event>
 5   0  0.1724503E-06  0.3372819E+04  0.7818609E-02  0.8144610E-01
       -2   -1    0    0    0  501  0.00000000000E+00  0.00000000000E+00  0.11574990428E+04  0.11574990428E+04  0.25500000920E-02 0. -1.
        2   -1    0    0  501    0  0.00000000000E+00  0.00000000000E+00 -0.24570013167E+04  0.24570013167E+04  0.25500000920E-02 0.  1.
    10030    2    1    2    0    0  0.00000000000E+00  0.00000000000E+00 -0.12995022739E+04  0.36145003595E+04  0.33728188046E+04 0.  0.
        1    1    3    3  502    0 -0.14004767195E+04 -0.83461598221E+03 -0.18749871680E+03  0.16410590022E+04  0.50400001928E-02 0. -1.
       -1    1    3    3    0  502  0.14004767195E+04  0.83461598221E+03 -0.11120035571E+04  0.19734413573E+04  0.50400001928E-02 0.  1.
</event>
<event>
 5   0  0.6186440E-07  0.3759516E+04  0.7818609E-02  0.8054899E-01
       -1   -1    0    0    0  501  0.00000000000E+00  0.00000000000E+00  0.20321837702E+04  0.20321837702E+04  0.50400001928E-02 0.  1.
        1   -1    0    0  501    0  0.00000000000E+00  0.00000000000E+00 -0.17387648683E+04  0.17387648683E+04  0.50400001928E-02 0. -1.
    10030    2    1    2    0    0  0.00000000000E+00  0.00000000000E+00  0.29341890189E+03  0.37709486385E+04  0.37595157909E+04 0.  0.
        3    1    3    3  502    0 -0.13430709770E+04 -0.97544362992E+03  0.10315257266E+04  0.19543221994E+04  0.10100000352E+00 0.  1.
       -3    1    3    3    0  502  0.13430709770E+04  0.97544362992E+03 -0.73810682467E+03  0.18166264391E+04  0.10100000352E+00 0. -1.
</event>
<event>
 5   0  0.1289585E-06  0.1926945E+04  0.7818609E-02  0.8641559E-01
        2   -1    0    0  501    0  0.00000000000E+00  0.00000000000E+00  0.17803925069E+04  0.17803925069E+04  0.25500000920E-02 0. -1.
       -2   -1    0    0    0  501  0.00000000000E+00  0.00000000000E+00 -0.52138998099E+03  0.52138998100E+03  0.25500000920E-02 0.  1.
    10030    2    1    2    0    0  0.00000000000E+00  0.00000000000E+00  0.12590025259E+04  0.23017824879E+04  0.19269445403E+04 0.  0.
        5    1    3    3  502    0 -0.57444801603E+02  0.93100445716E+03  0.34135698921E+03  0.99328540136E+03  0.46999998093E+01 0.  1.
       -5    1    3    3    0  502  0.57444801603E+02 -0.93100445716E+03  0.91764553673E+03  0.13084970866E+04  0.46999998093E+01 0. -1.
</event>
<event>
 5   0  0.1685793E-06  0.3735576E+04  0.7818609E-02  0.8060123E-01
       -2   -1    0    0    0  501  0.00000000000E+00  0.00000000000E+00  0.14815306543E+04  0.14815306543E+04  0.25500000920E-02 0. -1.
        2   -1    0    0  501    0  0.00000000000E+00  0.00000000000E+00 -0.23547482975E+04  0.23547482975E+04  0.25500000920E-02 0.  1.
    10030    2    1    2    0    0  0.00000000000E+00  0.00000000000E+00 -0.87321764314E+03  0.38362789518E+04  0.37355758785E+04 0.  0.
        3    1    3    3  502    0 -0.11514665381E+04  0.14246504140E+03  0.10665643230E+04  0.15759857048E+04  0.10100000352E+00 0. -1.
       -3    1    3    3    0  502  0.11514665381E+04 -0.14246504140E+03 -0.19397819661E+04  0.22602932471E+04  0.10100000352E+00 0.  1.
</event>
<event>
 5   0  0.6261598E-07  0.3529769E+04  0.7818609E-02  0.8106771E-01
        1   -1    0    0  501    0  0.00000000000E+00  0.00000000000E+00  0.12764160839E+04  0.12764160839E+04  0.50400001928E-02 0.  1.
       -1   -1    0    0    0  501  0.00000000000E+00  0.00000000000E+00 -0.24402842639E+04  0.24402842639E+04  0.50400001928E-02 0. -1.
    10030    2    1    2    0    0  0.00000000000E+00  0.00000000000E+00 -0.11638681800E+04  0.37167003478E+04  0.35297694450E+04 0.  0.
        1    1    3    3  502    0  0.94830333787E+03 -0.46827090776E+02  0.98458565215E+03  0.13678014854E+04  0.50400001928E-02 0.  1.
       -1    1    3    3    0  502 -0.94830333787E+03  0.46827090776E+02 -0.21484538321E+04  0.23488988624E+04  0.50400001928E-02 0. -1.
</event>
<event>
 5   0  0.6261598E-07  0.3355241E+04  0.7818609E-02  0.8148980E-01
       -1   -1    0    0    0  501  0.00000000000E+00  0.00000000000E+00  0.12464223143E+04  0.12464223143E+04  0.50400001928E-02 0. -1.
        1   -1    0    0  501    0  0.00000000000E+00  0.00000000000E+00 -0.22579904845E+04  0.22579904845E+04  0.50400001928E-02 0.  1.
    10030    2    1    2    0    0  0.00000000000E+00  0.00000000000E+00 -0.10115681702E+04  0.35044127988E+04  0.33552405132E+04 0.  0.
        1    1    3    3  502    0  0.12087558235E+04 -0.99318527179E+03 -0.11384387283E+04  0.19348256673E+04  0.50400001928E-02 0.  1.
       -1    1    3    3    0  502 -0.12087558235E+04  0.99318527179E+03  0.12687055809E+03  0.15695871315E+04  0.50400001928E-02 0. -1.
</event>
<event>
 5   0  0.5875011E-07  0.3703804E+04  0.7818609E-02  0.8067119E-01
        1   -1    0    0  501    0  0.00000000000E+00  0.00000000000E+00  0.11516356380E+04  0.11516356380E+04  0.50400001928E-02 0. -1.
       -1   -1    0    0    0  501  0.00000000000E+00  0.00000000000E+00 -0.29779732945E+04  0.29779732945E+04  0.50400001928E-02 0.  1.
    10030    2    1    2    0    0  0.00000000000E+00  0.00000000000E+00 -0.18263376565E+04  0.41296089325E+04  0.37038035449E+04 0.  0.
        2    1    3    3  502    0 -0.74346431263E+03 -0.80427438960E+03  0.75180699843E+03  0.13284616068E+04  0.25500000920E-02 0. -1.
       -2    1    3    3    0  502  0.74346431263E+03  0.80427438960E+03 -0.25781446550E+04  0.28011473256E+04  0.25500000920E-02 0.  1.
</event>
<event>
 5   0  0.6287345E-07  0.2197771E+04  0.7818609E-02  0.8519356E-01
        1   -1    0    0  501    0  0.00000000000E+00  0.00000000000E+00  0.16322367040E+04  0.16322367040E+04  0.50400001928E-02 0.  1.
       -1   -1    0    0    0  501  0.00000000000E+00  0.00000000000E+00 -0.73981289783E+03  0.73981289785E+03  0.50400001928E-02 0. -1.
    10030    2    1    2    0    0  0.00000000000E+00  0.00000000000E+00  0.89242380618E+03  0.23720496019E+04  0.21977713857E+04 0.  0.
        5    1    3    3  502    0 -0.67194245014E+03 -0.65513179949E+03 -0.17080603041E+03  0.95388737334E+03  0.46999998093E+01 0. -1.
       -5    1    3    3    0  502  0.67194245014E+03  0.65513179949E+03  0.10632298366E+04  0.14181622285E+04  0.46999998093E+01 0.  1.
</event>
<event>
 5   0  0.1724503E-06  0.3808478E+04  0.7818609E-02  0.8044338E-01
       -2   -1    0    0    0  501  0.00000000000E+00  0.00000000000E+00  0.23533008284E+04  0.23533008284E+04  0.25500000920E-02 0.  1.
        2   -1    0    0  501    0  0.00000000000E+00  0.00000000000E+00 -0.15408680796E+04  0.15408680796E+04  0.25500000920E-02 0. -1.
    10030    2    1    2    0    0  0.00000000000E+00  0.00000000000E+00  0.81243274877E+03  0.38941689081E+04  0.38084779786E+04 0.  0.
        1    1    3    3  502    0 -0.17359454177E+04  0.23498591918E+03 -0.35717510193E+03  0.17878196019E+04  0.50400001928E-02 0. -1.
       -1    1    3    3    0  502  0.17359454177E+04 -0.23498591918E+03  0.11696078507E+04  0.21063493062E+04  0.50400001928E-02 0.  1.
</event>
<event>
 5   0  0.1151180E-06  0.3676863E+04  0.7818609E-02  0.8073109E-01
        2   -1    0    0  501    0  0.00000000000E+00  0.00000000000E+00  0.15936361213E+04  0.15936361213E+04  0.25500000920E-02 0. -1.
       -2   -1    0    0    0  501  0.00000000000E+00  0.00000000000E+00 -0.21208297057E+04  0.21208297057E+04  0.25500000920E-02 0.  1.
    10030    2    1    2    0    0  0.00000000000E+00  0.00000000000E+00 -0.52719358445E+03  0.37144658270E+04  0.36768632425E+04 0.  0.
        5    1    3    3  502    0 -0.52746085993E+02  0.13369024857E+04 -0.15373314946E+04  0.20380138911E+04  0.46999998093E+01 0.  1.
       -5    1    3    3    0  502  0.52746085993E+02 -0.13369024857E+04  0.10101379101E+04  0.16764519359E+04  0.46999998093E+01 0. -1.
</event>
<event>
 5   0  0.1680194E-06  0.3696322E+04  0.7818609E-02  0.8068777E-01
        2   -1    0    0  501    0  0.00000000000E+00  0.00000000000E+00  0.24394037858E+04  0.24394037858E+04  0.25500000920E-02 0. -1.
       -2   -1    0    0    0  501  0.00000000000E+00  0.00000000000E+00 -0.14002188945E+04  0.14002188945E+04  0.25500000920E-02 0.  1.
    10030    2    1    2    0    0  0.00000000000E+00  0.00000000000E+00  0.10391848913E+04  0.38396226804E+04  0.36963221030E+04 0.  0.
        2    1    3    3  502    0  0.13318817353E+04  0.12613010103E+04  0.28521241073E+03  0.18563769323E+04  0.25500000920E-02 0. -1.
       -2    1    3    3    0  502 -0.13318817353E+04 -0.12613010103E+04  0.75397248056E+03  0.19832457480E+04  0.25500000920E-02 0.  1.
</event>
<event>
 5   0  0.1685793E-06  0.3698151E+04  0.7818609E-02  0.8068372E-01
       -2   -1    0    0    0  501  0.00000000000E+00  0.00000000000E+00  0.19834426645E+04  0.19834426645E+04  0.25500000920E-02 0. -1.
        2   -1    0    0  501    0  0.00000000000E+00  0.00000000000E+00 -0.17238110686E+04  0.17238110686E+04  0.25500000920E-02 0.  1.
    10030    2    1    2    0    0  0.00000000000E+00  0.00000000000E+00  0.25963159595E+03  0.37072537331E+04  0.36981511159E+04 0.  0.
        3    1    3    3  502    0 -0.78566383616E+02 -0.14421758151E+04 -0.10275981257E+04  0.17725692304E+04  0.10100000352E+00 0.  1.
       -3    1    3    3    0  502  0.78566383616E+02  0.14421758151E+04  0.12872297217E+04  0.19346845027E+04  0.10100000352E+00 0. -1.
</event>
<event>
 5   0  0.1151180E-06  0.3627677E+04  0.7818609E-02  0.8084181E-01
       -2   -1    0    0    0  501  0.00000000000E+00  0.00000000000E+00  0.28051880470E+04  0.28051880470E+04  0.25500000920E-02 0. -1.
        2   -1    0    0  501    0  0.00000000000E+00  0.00000000000E+00 -0.11728305819E+04  0.11728305819E+04  0.25500000920E-02 0.  1.
    10030    2    1    2    0    0  0.00000000000E+00  0.00000000000E+00  0.16323574651E+04  0.39780186289E+04  0.36276771243E+04 0.  0.
        5    1    3    3  502    0  0.25119325389E+03 -0.11549509577E+04 -0.69254952293E+03  0.13699112005E+04  0.46999998093E+01 0.  1.
       -5    1    3    3    0  502 -0.25119325389E+03  0.11549509577E+04  0.23249069880E+04  0.26081074284E+04  0.46999998093E+01 0. -1.
</event>
<event>
 5   0  0.5679750E-07  0.2959064E+04  0.7818609E-02  0.8255518E-01
        1   -1    0    0  501    0  0.00000000000E+00  0.00000000000E+00  0.19651955111E+04  0.19651955111E+04  0.50400001928E-02 0.  1.
       -1   -1    0    0    0  501  0.00000000000E+00  0.00000000000E+00 -0.11138917535E+04  0.11138917535E+04  0.50400001928E-02 0. -1.
    10030    2    1    2    0    0  0.00000000000E+00  0.00000000000E+00  0.85130375761E+03  0.30790872646E+04  0.29590640911E+04 0.  0.
        4    1    3    3  502    0 -0.12854971208E+04 -0.59394193843E+03 -0.20388032842E+02  0.14162228492E+04  0.12699999809E+01 0. -1.
       -4    1    3    3    0  502  0.12854971208E+04  0.59394193843E+03  0.87169179045E+03  0.16628644154E+04  0.12699999809E+01 0.  1.
</event>
<event>
 5   0  0.1685793E-06  0.3588547E+04  0.7818609E-02  0.8093120E-01
        2   -1    0    0  501    0  0.00000000000E+00  0.00000000000E+00  0.24553134681E+04  0.24553134681E+04  0.25500000920E-02 0.  1.
       -2   -1    0    0    0  501  0.00000000000E+00  0.00000000000E+00 -0.13112042178E+04  0.13112042178E+04  0.25500000920E-02 0. -1.
    10030    2    1    2    0    0  0.00000000000E+00  0.00000000000E+00  0.11441092503E+04  0.37665176859E+04  0.35885469903E+04 0.  0.
        3    1    3    3  502    0 -0.87625968236E+03  0.15062970251E+04  0.10206325288E+04  0.20195178949E+04  0.10100000352E+00 0. -1.
       -3    1    3    3    0  502  0.87625968236E+03 -0.15062970251E+04  0.12347672156E+03  0.17469997910E+04  0.10100000352E+00 0.  1.
</event>
<event>
 5   0  0.1685793E-06  0.2643539E+04  0.7818609E-02  0.8353561E-01
       -2   -1    0    0    0  501  0.00000000000E+00  0.00000000000E+00  0.10961220884E+04  0.10961220885E+04  0.25500000920E-02 0. -1.
        2   -1    0    0  501    0  0.00000000000E+00  0.00000000000E+00 -0.15938685216E+04  0.15938685216E+04  0.25500000920E-02 0.  1.
    10030    2    1    2    0    0  0.00000000000E+00  0.00000000000E+00 -0.49774643311E+03  0.26899906100E+04  0.26435389103E+04 0.  0.
        3    1    3    3  502    0  0.12713968220E+04  0.27914465356E+02 -0.61554569801E+03  0.14128430957E+04  0.10100000352E+00 0.  1.
       -3    1    3    3    0  502 -0.12713968220E+04 -0.27914465356E+02  0.11779926490E+03  0.12771475144E+04  0.10100000352E+00 0. -1.
</event>
<event>
 5   0  0.6261598E-07  0.3697130E+04  0.7818609E-02  0.8068598E-01
        1   -1    0    0  501    0  0.00000000000E+00  0.00000000000E+00  0.11900657080E+04  0.11900657080E+04  0.50400001928E-02 0. -1.
       -1   -1    0    0    0  501  0.00000000000E+00  0.00000000000E+00 -0.28714313401E+04  0.28714313401E+04  0.50400001928E-02 0.  1.
    10030    2    1    2    0    0  0.00000000000E+00  0.00000000000E+00 -0.16813656320E+04  0.40614970481E+04  0.36971296817E+04 0.  0.
        1    1    3    3  502    0  0.46291282715E+03  0.52861399286E+03  0.10376426543E+04  0.12531653191E+04  0.50400001928E-02 0. -1.
       -1    1    3    3    0  502 -0.46291282715E+03 -0.52861399286E+03 -0.27190082863E+04  0.28083317290E+04  0.50400001928E-02 0.  1.
</event>
<event>
 5   0  0.5679750E-07  0.3750545E+04  0.7818609E-02  0.8056852E-01
       -4   -1    0    0    0  501  0.00000000000E+00  0.00000000000E+00  0.23224339986E+04  0.23224343459E+04  0.12699999809E+01 0. -1.
        4   -1    0    0  501    0  0.00000000000E+00  0.00000000000E+00 -0.15142068811E+04  0.15142074137E+04  0.12699999809E+01 0.  1.
    10030    2    1    2    0    0  0.00000000000E+00  0.00000000000E+00  0.80822711754E+03  0.38366417595E+04  0.37505451494E+04 0.  0.
        3    1    3    3  502    0 -0.11751633719E+04 -0.38315133048E+02 -0.10903019959E+04  0.16035072350E+04  0.10100000352E+00 0.  1.
       -3    1    3    3    0  502  0.11751633719E+04  0.38315133048E+02  0.18985291135E+04  0.22331345246E+04  0.10100000352E+00 0. -1.
</event>
<event>
 5   0  0.1151180E-06  0.2611428E+04  0.7818609E-02  0.8364330E-01
       -2   -1    0    0    0  501  0.00000000000E+00  0.00000000000E+00  0.54115530863E+03  0.54115530864E+03  0.25500000920E-02 0.  1.
        2   -1    0    0  501    0  0.00000000000E+00  0.00000000000E+00 -0.31504605911E+04  0.31504605911E+04  0.25500000920E-02 0. -1.
    10030    2    1    2    0    0  0.00000000000E+00  0.00000000000E+00 -0.26093052825E+04  0.36916158997E+04  0.26114275586E+04 0.  0.
        5    1    3    3  502    0  0.90227969259E+02  0.12976440523E+04 -0.14648698418E+04  0.19590525558E+04  0.46999998093E+01 0.  1.
       -5    1    3    3    0  502 -0.90227969259E+02 -0.12976440523E+04 -0.11444354407E+04  0.17325633440E+04  0.46999998093E+01 0. -1.
</event>
<event>
 5   0  0.6287345E-07  0.3156798E+04  0.7818609E-02  0.8200321E-01
       -1   -1    0    0    0  501  0.00000000000E+00  0.00000000000E+00  0.15705964700E+04  0.15705964700E+04  0.50400001928E-02 0. -1.
        1   -1    0    0  501    0  0.00000000000E+00  0.00000000000E+00 -0.15862398243E+04  0.15862398243E+04  0.50400001928E-02 0.  1.
    10030    2    1    2    0    0  0.00000000000E+00  0.00000000000E+00 -0.15643354370E+02  0.31568362943E+04  0.31567975346E+04 0.  0.
        5    1    3    3  502    0 -0.20956753049E+03 -0.12875407590E+04 -0.89644995347E+03  0.15828216467E+04  0.46999998093E+01 0.  1.
       -5    1    3    3    0  502  0.20956753049E+03  0.12875407590E+04  0.88080659910E+03  0.15740146477E+04  0.46999998093E+01 0. -1.
</event>
<event>
 5   0  0.1184684E-06  0.3761560E+04  0.7818609E-02  0.8054455E-01
        2   -1    0    0  501    0  0.00000000000E+00  0.00000000000E+00  0.21086050069E+04  0.21086050069E+04  0.25500000920E-02 0. -1.
       -2   -1    0    0    0  501  0.00000000000E+00  0.00000000000E+00 -0.16775707724E+04  0.16775707724E+04  0.25500000920E-02 0.  1.
    10030    2    1    2    0    0  0.00000000000E+00  0.00000000000E+00  0.43103423447E+03  0.37861757793E+04  0.37615603837E+04 0.  0.
        4    1    3    3  502    0  0.20903468935E+03 -0.18673378006E+04  0.13321065632E+03  0.18837177747E+04  0.12699999809E+01 0.  1.
       -4    1    3    3    0  502 -0.20903468935E+03  0.18673378006E+04  0.29782357815E+03  0.19024580046E+04  0.12699999809E+01 0. -1.
</event>
<event>
 5   0  0.6287345E-07  0.3528672E+04  0.7818609E-02  0.8107029E-01
        1   -1    0    0  501    0  0.00000000000E+00  0.00000000000E+00  0.18847335723E+04  0.18847335723E+04  0.50400001928E-02 0.  1.
       -1   -1    0    0    0  501  0.00000000000E+00  0.00000000000E+00 -0.16516290376E+04  0.16516290376E+04  0.50400001928E-02 0. -1.
    10030    2    1    2    0    0  0.00000000000E+00  0.00000000000E+00  0.23310453467E+03  0.35363626099E+04  0.35286715325E+04 0.  0.
        5    1    3    3  502    0 -0.20629950700E+03 -0.85203777696E+03  0.16510102399E+04  0.18693273556E+04  0.46999998093E+01 0.  1.
       -5    1    3    3    0  502  0.20629950700E+03  0.85203777696E+03 -0.14179057053E+04  0.16670352543E+04  0.46999998093E+01 0. -1.
</event>
<event>
 5   0  0.6186440E-07  0.3033776E+04  0.7818609E-02  0.8234151E-01
        1   -1    0    0  501    0  0.00000000000E+00  0.00000000000E+00  0.18998163737E+04  0.18998163738E+04  0.50400001928E-02 0.  1.
       -1   -1    0    0    0  501  0.00000000000E+00  0.00000000000E+00 -0.12111425670E+04  0.12111425670E+04  0.50400001928E-02 0. -1.
    10030    2    1    2    0    0  0.00000000000E+00  0.00000000000E+00  0.68867380679E+03  0.31109589407E+04  0.30337755221E+04 0.  0.
        3    1    3    3  502    0 -0.11245315661E+04 -0.77374243603E+03 -0.33408372468E+03  0.14052973158E+04  0.10100000352E+00 0. -1.
       -3    1    3    3    0  502  0.11245315661E+04  0.77374243603E+03  0.10227575315E+04  0.17056616249E+04  0.10100000352E+00 0.  1.
</event>
<event>
 5   0  0.1685793E-06  0.3248317E+04  0.7818609E-02  0.8176172E-01
        2   -1    0    0  501    0  0.00000000000E+00  0.00000000000E+00  0.17094883572E+04  0.17094883572E+04  0.25500000920E-02 0.  1.
       -2   -1    0    0    0  501  0.00000000000E+00  0.00000000000E+00 -0.15430880753E+04  0.15430880753E+04  0.25500000920E-02 0. -1.
    10030    2    1    2    0    0  0.00000000000E+00  0.00000000000E+00  0.16640028182E+03  0.32525764325E+04  0.32483171636E+04 0.  0.
        3    1    3    3  502    0  0.89168330819E+02  0.10918346463E+04  0.12838709225E+04  0.16877139692E+04  0.10100000352E+00 0.  1.
       -3    1    3    3    0  502 -0.89168330819E+02 -0.10918346463E+04 -0.11174706407E+04  0.15648624633E+04  0.10100000352E+00 0. -1.
</event>
<event>
 5   0  0.1151180E-06  0.2311358E+04  0.7818609E-02  0.8473456E-01
        2   -1    0    0  501    0  0.00000000000E+00  0.00000000000E+00  0.13557126429E+04  0.13557126429E+04  0.25500000920E-02 0.  1.
       -2   -1    0    0    0  501  0.00000000000E+00  0.00000000000E+00 -0.98515969439E+03  0.98515969439E+03  0.25500000920E-02 0. -1.
    10030    2    1    2    0    0  0.00000000000E+00  0.00000000000E+00  0.37055294853E+03  0.23408723373E+04  0.23113575690E+04 0.  0.
        5    1    3    3  502    0 -0.73946772355E+03  0.74196844937E+03 -0.30905635615E+03  0.10921847899E+04  0.46999998093E+01 0. -1.
       -5    1    3    3    0  502  0.73946772355E+03 -0.74196844937E+03  0.67960930467E+03  0.12486875474E+04  0.46999998093E+01 0.  1.
</event>
<event>
 5   0  0.6287345E-07  0.3346701E+04  0.7818609E-02  0.8151113E-01
        1   -1    0    0  501    0  0.00000000000E+00  0.00000000000E+00  0.99446488755E+03  0.99446488756E+03  0.50400001928E-02 0. -1.
       -1   -1    0    0    0  501  0.00000000000E+00  0.00000000000E+00 -0.28156862291E+04  0.28156862291E+04  0.50400001928E-02 0.  1.
    10030    2    1    2    0    0  0.00000000000E+00  0.00000000000E+00 -0.18212213416E+04  0.38101511167E+04  0.33467005180E+04 0.  0.
        5    1    3    3  502    0 -0.90409105886E+03  0.33649031454E+03  0.64601756873E+03  0.11610198808E+04  0.46999998093E+01 0. -1.
       -5    1    3    3    0  502  0.90409105886E+03 -0.33649031454E+03 -0.24672389103E+04  0.26491312359E+04  0.46999998093E+01 0.  1.
</event>
<event>
 5   0  0.6287345E-07  0.2416299E+04  0.7818609E-02  0.8433427E-01
       -1   -1    0    0    0  501  0.00000000000E+00  0.00000000000E+00  0.12987421143E+04  0.12987421143E+04  0.50400001928E-02 0.  1.
        1   -1    0    0  501    0  0.00000000000E+00  0.00000000000E+00 -0.11238759002E+04  0.11238759002E+04  0.50400001928E-02 0. -1.
    10030    2    1    2    0    0  0.00000000000E+00  0.00000000000E+00  0.17486621402E+03  0.24226180145E+04  0.24162987918E+04 0.  0.
        5    1    3    3  502    0 -0.89270052664E+02  0.10274819281E+04  0.71829613204E+03  0.12568451290E+04  0.46999998093E+01 0.  1.
       -5    1    3    3    0  502  0.89270052664E+02 -0.10274819281E+04 -0.54342991802E+03  0.11657728856E+04  0.46999998093E+01 0. -1.
</event>
<event>
 5   0  0.1184684E-06  0.2703136E+04  0.7818609E-02  0.8333988E-01
        2   -1    0    0  501    0  0.00000000000E+00  0.00000000000E+00  0.11364987076E+04  0.11364987076E+04  0.25500000920E-02 0.  1.
       -2   -1    0    0    0  501  0.00000000000E+00  0.00000000000E+00 -0.16073361274E+04  0.16073361274E+04  0.25500000920E-02 0. -1.
    10030    2    1    2    0    0  0.00000000000E+00  0.00000000000E+00 -0.47083741973E+03  0.27438348350E+04  0.27031355360E+04 0.  0.
        4    1    3    3  502    0  0.71232903387E+03 -0.71909859484E+03  0.67373318207E+03  0.12159084896E+04  0.12699999809E+01 0.  1.
       -4    1    3    3    0  502 -0.71232903387E+03  0.71909859484E+03 -0.11445706018E+04  0.15279263454E+04  0.12699999809E+01 0. -1.
</event>
<event>
 5   0  0.6186440E-07  0.2277408E+04  0.7818609E-02  0.8486882E-01
        1   -1    0    0  501    0  0.00000000000E+00  0.00000000000E+00  0.11384939922E+04  0.11384939922E+04  0.50400001928E-02 0. -1.
       -1   -1    0    0    0  501  0.00000000000E+00  0.00000000000E+00 -0.11389141692E+04  0.11389141692E+04  0.50400001928E-02 0.  1.
    10030    2    1    2    0    0  0.00000000000E+00  0.00000000000E+00 -0.42017700204E+00  0.22774081614E+04  0.22774081226E+04 0.  0.
        3    1    3    3  502    0  0.62325637196E+03 -0.91569511838E+03 -0.26421932392E+03  0.11387527898E+04  0.10100000352E+00 0.  1.
       -3    1    3    3    0  502 -0.62325637196E+03  0.91569511838E+03  0.26379914692E+03  0.11386553715E+04  0.10100000352E+00 0. -1.
</event>
<event>
 5   0  0.1151180E-06  0.2252962E+04  0.7818609E-02  0.8496702E-01
       -2   -1    0    0    0  501  0.00000000000E+00  0.00000000000E+00  0.97054559457E+03  0.97054559458E+03  0.25500000920E-02 0. -1.
        2   -1    0    0  501    0  0.00000000000E+00  0.00000000000E+00 -0.13074697013E+04  0.13074697013E+04  0.25500000920E-02 0.  1.
    10030    2    1    2    0    0  0.00000000000E+00  0.00000000000E+00 -0.33692410671E+03  0.22780152959E+04  0.22529615697E+04 0.  0.
        5    1    3    3  502    0 -0.97064728077E+03 -0.38369462909E+03 -0.59691844948E+03  0.12023774105E+04  0.46999998093E+01 0.  1.
       -5    1    3    3    0  502  0.97064728077E+03  0.38369462909E+03  0.25999434276E+03  0.10756378853E+04  0.46999998093E+01 0. -1.
</event>
<event>
 5   0  0.1680194E-06  0.2354496E+04  0.7818609E-02  0.8456739E-01
        2   -1    0    0  501    0  0.00000000000E+00  0.00000000000E+00  0.19641276146E+04  0.19641276146E+04  0.25500000920E-02 0.  1.
       -2   -1    0    0    0  501  0.00000000000E+00  0.00000000000E+00 -0.70561213039E+03  0.70561213040E+03  0.25500000920E-02 0. -1.
    10030    2    1    2    0    0  0.00000000000E+00  0.00000000000E+00  0.12585154842E+04  0.26697397450E+04  0.23544955048E+04 0.  0.
        2    1    3    3  502    0 -0.94943826315E+03  0.67824284842E+03  0.80661607665E+03  0.14184766026E+04  0.25500000920E-02 0.  1.
       -2    1    3    3    0  502  0.94943826315E+03 -0.67824284842E+03  0.45189940753E+03  0.12512631424E+04  0.25500000920E-02 0. -1.
</event>
<event>
 5   0  0.1680194E-06  0.3827322E+04  0.7818609E-02  0.8040317E-01
        2   -1    0    0  501    0  0.00000000000E+00  0.00000000000E+00  0.13275835258E+04  0.13275835258E+04  0.25500000920E-02 0.  1.
       -2   -1    0    0    0  501  0.00000000000E+00  0.00000000000E+00 -0.27584690781E+04  0.27584690781E+04  0.25500000920E-02 0. -1.
    10030    2    1    2    0    0  0.00000000000E+00  0.00000000000E+00 -0.14308855523E+04  0.40860526038E+04  0.38273218335E+04 0.  0.
        2    1    3    3  502    0  0.11016251376E+04  0.15607281676E+04 -0.83550753777E+03  0.20850715102E+04  0.25500000920E-02 0. -1.
       -2    1    3    3    0  502 -0.11016251376E+04 -0.15607281676E+04 -0.59537801453E+03  0.20009810936E+04  0.25500000920E-02 0.  1.
</event>
<event>
 5   0  0.1184684E-06  0.3742126E+04  0.7818609E-02  0.8058690E-01
        2   -1    0    0  501    0  0.00000000000E+00  0.00000000000E+00  0.26050102469E+04  0.26050102469E+04  0.25500000920E-02 0.  1.
       -2   -1    0    0    0  501  0.00000000000E+00  0.00000000000E+00 -0.13439015337E+04  0.13439015337E+04  0.25500000920E-02 0. -1.
    10030    2    1    2    0    0  0.00000000000E+00  0.00000000000E+00  0.12611087132E+04  0.39489117807E+04  0.37421262759E+04 0.  0.
        4    1    3    3  502    0  0.14324052100E+04 -0.82283571318E+03  0.15577614480E+04  0.22705650482E+04  0.12699999809E+01 0.  1.
       -4    1    3    3    0  502 -0.14324052100E+04  0.82283571318E+03 -0.29665273475E+03  0.16783467325E+04  0.12699999809E+01 0. -1.
</event>
<event>
 5   0  0.1680194E-06  0.3732976E+04  0.7818609E-02  0.8060693E-01
        2   -1    0    0  501    0  0.00000000000E+00  0.00000000000E+00  0.22492475063E+04  0.22492475063E+04  0.25500000920E-02 0.  1.
       -2   -1    0    0    0  501  0.00000000000E+00  0.00000000000E+00 -0.15488634414E+04  0.15488634414E+04  0.25500000920E-02 0. -1.
    10030    2    1    2    0    0  0.00000000000E+00  0.00000000000E+00  0.70038406491E+03  0.37981109476E+04  0.37329758815E+04 0.  0.
        2    1    3    3  502    0 -0.16283650591E+04 -0.35901242839E+03  0.12034635754E+04  0.20564015335E+04  0.25500000920E-02 0.  1.
       -2    1    3    3    0  502  0.16283650591E+04  0.35901242839E+03 -0.50307951052E+03  0.17417094142E+04  0.25500000920E-02 0. -1.
</event>
<event>
 5   0  0.1680194E-06  0.2337060E+04  0.7818609E-02  0.8463450E-01
        2   -1    0    0  501    0  0.00000000000E+00  0.00000000000E+00  0.14763691554E+04  0.14763691554E+04  0.25500000920E-02 0. -1.
       -2   -1    0    0    0  501  0.00000000000E+00  0.00000000000E+00 -0.92487892586E+03  0.92487892587E+03  0.25500000920E-02 0.  1.
    10030    2    1    2    0    0  0.00000000000E+00  0.00000000000E+00  0.55149022953E+03  0.24012480813E+04  0.23370603061E+04 0.  0.
        2    1    3    3  502    0  0.71015305068E+03  0.95837324755E+02 -0.67262281529E+03  0.98281412274E+03  0.25500000920E-02 0.  1.
       -2    1    3    3    0  502 -0.71015305068E+03 -0.95837324755E+02  0.12241130448E+04  0.14184339585E+04  0.25500000920E-02 0. -1.
</event>
<event>
 5   0  0.1724503E-06  0.3762633E+04  0.7818609E-02  0.8054221E-01
        2   -1    0    0  501    0  0.00000000000E+00  0.00000000000E+00  0.22061702794E+04  0.22061702794E+04  0.25500000920E-02 0. -1.
       -2   -1    0    0    0  501  0.00000000000E+00  0.00000000000E+00 -0.16042971559E+04  0.16042971559E+04  0.25500000920E-02 0.  1.
    10030    2    1    2    0    0  0.00000000000E+00  0.00000000000E+00  0.60187312348E+03  0.38104674353E+04  0.37626334952E+04 0.  0.
        1    1    3    3  502    0  0.11663997500E+04 -0.61580625585E+03  0.16595002373E+04  0.21198223414E+04  0.50400001928E-02 0. -1.
       -1    1    3    3    0  502 -0.11663997500E+04  0.61580625585E+03 -0.10576271139E+04  0.16906450939E+04  0.50400001928E-02 0.  1.
</event>
<event>
 5   0  0.5875011E-07  0.1908777E+04  0.7818609E-02  0.8650500E-01
       -1   -1    0    0    0  501  0.00000000000E+00  0.00000000000E+00  0.50145910549E+03  0.50145910551E+03  0.50400001928E-02 0.  1.
        1   -1    0    0  501    0  0.00000000000E+00  0.00000000000E+00 -0.18164133104E+04  0.18164133104E+04  0.50400001928E-02 0. -1.
    10030    2    1    2    0    0  0.00000000000E+00  0.00000000000E+00 -0.13149542049E+04  0.23178724159E+04  0.19087765651E+04 0.  0.
        2    1    3    3  502    0  0.57622212662E+03 -0.33411946257E+03 -0.14874823697E+04  0.16298072140E+04  0.25500000920E-02 0. -1.
       -2    1    3    3    0  502 -0.57622212662E+03  0.33411946257E+03  0.17252816481E+03  0.68806520195E+03  0.25500000920E-02 0.  1.
</event>
<event>
 5   0  0.5679750E-07  0.2146864E+04  0.7818609E-02  0.8540876E-01
       -1   -1    0    0    0  501  0.00000000000E+00  0.00000000000E+00  0.82567913418E+03  0.82567913420E+03  0.50400001928E-02 0.  1.
        1   -1    0    0  501    0  0.00000000000E+00  0.00000000000E+00 -0.13955255570E+04  0.13955255570E+04  0.50400001928E-02 0. -1.
    10030    2    1    2    0    0  0.00000000000E+00  0.00000000000E+00 -0.56984642277E+03  0.22212046912E+04  0.21468640699E+04 0.  0.
        4    1    3    3  502    0 -0.18102850885E+03 -0.22940979386E+03  0.78372961931E+03  0.83644121348E+03  0.12699999809E+01 0.  1.
       -4    1    3    3    0  502  0.18102850885E+03  0.22940979386E+03 -0.13535760421E+04  0.13847634777E+04  0.12699999809E+01 0. -1.
</event>
<event>
 5   0  0.6261598E-07  0.3721544E+04  0.7818609E-02  0.8063204E-01
       -1   -1    0    0    0  501  0.00000000000E+00  0.00000000000E+00  0.19429674404E+04  0.19429674404E+04  0.50400001928E-02 0. -1.
        1   -1    0    0  501    0  0.00000000000E+00  0.00000000000E+00 -0.17820540986E+04  0.17820540986E+04  0.50400001928E-02 0.  1.
    10030    2    1    2    0    0  0.00000000000E+00  0.00000000000E+00  0.16091334180E+03  0.37250215390E+04  0.37215443518E+04 0.  0.
        1    1    3    3  502    0 -0.28005961278E+03 -0.11953084817E+04  0.14800754874E+04  0.19229714511E+04  0.50400001928E-02 0. -1.
       -1    1    3    3    0  502  0.28005961278E+03  0.11953084817E+04 -0.13191621456E+04  0.18020500880E+04  0.50400001928E-02 0.  1.
</event>
<event>
 5   0  0.6287345E-07  0.3655249E+04  0.7818609E-02  0.8077952E-01
       -1   -1    0    0    0  501  0.00000000000E+00  0.00000000000E+00  0.14576554866E+04  0.14576554866E+04  0.50400001928E-02 0.  1.
        1   -1    0    0  501    0  0.00000000000E+00  0.00000000000E+00 -0.22914951006E+04  0.22914951006E+04  0.50400001928E-02 0. -1.
    10030    2    1    2    0    0  0.00000000000E+00  0.00000000000E+00 -0.83383961400E+03  0.37491505872E+04  0.36552485037E+04 0.  0.
        5    1    3    3  502    0  0.14658311421E+04  0.42461396621E+03 -0.14483528162E+04  0.21039738420E+04  0.46999998093E+01 0. -1.
       -5    1    3    3    0  502 -0.14658311421E+04 -0.42461396621E+03  0.61451320220E+03  0.16451767453E+04  0.46999998093E+01 0.  1.
</event>
<event>
 5   0  0.1151180E-06  0.3455372E+04  0.7818609E-02  0.8124448E-01
        2   -1    0    0  501    0  0.00000000000E+00  0.00000000000E+00  0.17746665380E+04  0.17746665380E+04  0.25500000920E-02 0.  1.
       -2   -1    0    0    0  501  0.00000000000E+00  0.00000000000E+00 -0.16819496380E+04  0.16819496380E+04  0.25500000920E-02 0. -1.
    10030    2    1    2    0    0  0.00000000000E+00  0.00000000000E+00  0.92716899943E+02  0.34566161760E+04  0.34553724785E+04 0.  0.
        5    1    3    3  502    0  0.13721098760E+04 -0.61665338246E+03 -0.80361244954E+03  0.17055092979E+04  0.46999998093E+01 0. -1.
       -5    1    3    3    0  502 -0.13721098760E+04  0.61665338246E+03  0.89632934949E+03  0.17511068782E+04  0.46999998093E+01 0.  1.
</event>
<event>
 5   0  0.5679750E-07  0.2392605E+04  0.7818609E-02  0.8442277E-01
       -1   -1    0    0    0  501  0.00000000000E+00  0.00000000000E+00  0.85155685926E+03  0.85155685928E+03  0.50400001928E-02 0. -1.
        1   -1    0    0  501    0  0.00000000000E+00  0.00000000000E+00 -0.16806153476E+04  0.16806153476E+04  0.50400001928E-02 0.  1.
    10030    2    1    2    0    0  0.00000000000E+00  0.00000000000E+00 -0.82905848836E+03  0.25321722069E+04  0.23926048793E+04 0.  0.
        4    1    3    3  502    0 -0.10634747924E+04  0.97204914548E+02 -0.98515661758E+03  0.14529152086E+04  0.12699999809E+01 0.  1.
       -4    1    3    3    0  502  0.10634747924E+04 -0.97204914548E+02  0.15609812923E+03  0.10792569983E+04  0.12699999809E+01 0. -1.
</event>
<event>
 5   0  0.1184684E-06  0.2903253E+04  0.7818609E-02  0.8271910E-01
        2   -1    0    0  501    0  0.00000000000E+00  0.00000000000E+00  0.17465476498E+04  0.17465476498E+04  0.25500000920E-02 0.  1.
       -2   -1    0    0    0  501  0.00000000000E+00  0.00000000000E+00 -0.12065052101E+04  0.12065052101E+04  0.25500000920E-02 0. -1.
    10030    2    1    2    0    0  0.00000000000E+00  0.00000000000E+00  0.54004243969E+03  0.29530528599E+04  0.29032525479E+04 0.  0.
        4    1    3    3  502    0 -0.53990200140E+03 -0.13018323474E+04 -0.83731172279E+02  0.14118336141E+04  0.12699999809E+01 0. -1.
       -4    1    3    3    0  502  0.53990200140E+03  0.13018323474E+04  0.62377361196E+03  0.15412192458E+04  0.12699999809E+01 0.  1.
</event>
<event>
 5   0  0.1184684E-06  0.3659923E+04  0.7818609E-02  0.8076902E-01
        2   -1    0    0  501    0  0.00000000000E+00  0.00000000000E+00  0.21368509045E+04  0.21368509045E+04  0.25500000920E-02 0.  1.
       -2   -1    0    0    0  501  0.00000000000E+00  0.00000000000E+00 -0.15671464033E+04  0.15671464033E+04  0.25500000920E-02 0. -1.
    10030    2    1    2    0    0  0.00000000000E+00  0.00000000000E+00  0.56970450117E+03  0.37039973078E+04  0.36599225180E+04 0.  0.
        4    1    3    3  502    0  0.24190062503E+03  0.87879862122E+03 -0.13210630587E+04  0.16049959959E+04  0.12699999809E+01 0. -1.
       -4    1    3    3    0  502 -0.24190062503E+03 -0.87879862122E+03  0.18907675598E+04  0.20990013119E+04  0.12699999809E+01 0.  1.
</event>
<event>
 5   0  0.1680194E-06  0.2507212E+04  0.7818609E-02  0.8400421E-01
       -2   -1    0    0    0  501  0.00000000000E+00  0.00000000000E+00  0.71417685225E+03  0.71417685226E+03  0.25500000920E-02 0.  1.
        2   -1    0    0  501    0  0.00000000000E+00  0.00000000000E+00 -0.22004752750E+04  0.22004752750E+04  0.25500000920E-02 0. -1.
    10030    2    1    2    0    0  0.00000000000E+00  0.00000000000E+00 -0.14862984227E+04  0.29146521272E+04  0.25072124005E+04 0.  0.
        2    1    3    3  502    0  0.69351984063E+03  0.78719217342E+03 -0.15408757708E+04  0.18641189416E+04  0.25500000920E-02 0. -1.
       -2    1    3    3    0  502 -0.69351984063E+03 -0.78719217342E+03  0.54577348098E+02  0.10505331857E+04  0.25500000920E-02 0.  1.
</event>
<event>
 5   0  0.6287345E-07  0.3076911E+04  0.7818609E-02  0.8222103E-01
       -1   -1    0    0    0  501  0.00000000000E+00  0.00000000000E+00  0.11290184332E+04  0.11290184332E+04  0.50400001928E-02 0. -1.
        1   -1    0    0  501    0  0.00000000000E+00  0.00000000000E+00 -0.20963747993E+04  0.20963747993E+04  0.50400001928E-02 0.  1.
    10030    2    1    2    0    0  0.00000000000E+00  0.00000000000E+00 -0.96735636610E+03  0.32253932326E+04  0.30769113029E+04 0.  0.
        5    1    3    3  502    0 -0.33499683097E+03  0.84851967155E+03  0.81489801941E+03  0.12232290799E+04  0.46999998093E+01 0. -1.
       -5    1    3    3    0  502  0.33499683097E+03 -0.84851967155E+03 -0.17822543855E+04  0.20021641527E+04  0.46999998093E+01 0.  1.
</event>
<event>
 5   0  0.5875011E-07  0.3666846E+04  0.7818609E-02  0.8075349E-01
        1   -1    0    0  501    0  0.00000000000E+00  0.00000000000E+00  0.11372361156E+04  0.11372361156E+04  0.50400001928E-02 0. -1.
       -1   -1    0    0    0  501  0.00000000000E+00  0.00000000000E+00 -0.29557984814E+04  0.29557984814E+04  0.50400001928E-02 0.  1.
    10030    2    1    2    0    0  0.00000000000E+00  0.00000000000E+00 -0.18185623658E+04  0.40930345970E+04  0.36668464836E+04 0.  0.
        2    1    3    3  502    0 -0.64458432541E+03  0.14233105924E+04  0.16144730285E+03  0.15707855445E+04  0.25500000920E-02 0. -1.
       -2    1    3    3    0  502  0.64458432541E+03 -0.14233105924E+04 -0.19800096687E+04  0.25222490526E+04  0.25500000920E-02 0.  1.
</event>
<event>
 5   0  0.6261598E-07  0.2766571E+04  0.7818609E-02  0.8313722E-01
       -1   -1    0    0    0  501  0.00000000000E+00  0.00000000000E+00  0.20618129321E+04  0.20618129321E+04  0.50400001928E-02 0. -1.
        1   -1    0    0  501    0  0.00000000000E+00  0.00000000000E+00 -0.92805649252E+03  0.92805649254E+03  0.50400001928E-02 0.  1.
    10030    2    1    2    0    0  0.00000000000E+00  0.00000000000E+00  0.11337564395E+04  0.29898694246E+04  0.27665710748E+04 0.  0.
        1    1    3    3  502    0  0.66147075346E+03 -0.26766765146E+03 -0.71379606994E+03  0.10093038981E+04  0.50400001928E-02 0.  1.
       -1    1    3    3    0  502 -0.66147075346E+03  0.26766765146E+03  0.18475525095E+04  0.19805655265E+04  0.50400001928E-02 0. -1.
</event>
<event>
 5   0  0.6287345E-07  0.1833515E+04  0.7818609E-02  0.8688677E-01
        1   -1    0    0  501    0  0.00000000000E+00  0.00000000000E+00  0.19468155677E+04  0.19468155677E+04  0.50400001928E-02 0. -1.
       -1   -1    0    0    0  501  0.00000000000E+00  0.00000000000E+00 -0.43170214795E+03  0.43170214798E+03  0.50400001928E-02 0.  1.
    10030    2    1    2    0    0  0.00000000000E+00  0.00000000000E+00  0.15151134198E+04  0.23785177157E+04  0.18335151620E+04 0.  0.
        5    1    3    3  502    0 -0.17909686029E+03 -0.75640706137E+03  0.13880163295E+04  0.15908610086E+04  0.46999998093E+01 0. -1.
       -5    1    3    3    0  502  0.17909686029E+03  0.75640706137E+03  0.12709709030E+03  0.78765670709E+03  0.46999998093E+01 0.  1.
</event>
<event>
 5   0  0.5875011E-07  0.3739086E+04  0.7818609E-02  0.8059355E-01
        1   -1    0    0  501    0  0.00000000000E+00  0.00000000000E+00  0.25469358445E+04  0.25469358445E+04  0.50400001928E-02 0. -1.
       -1   -1    0    0    0  501  0.00000000000E+00  0.00000000000E+00 -0.13723118773E+04  0.13723118773E+04  0.50400001928E-02 0.  1.
    10030    2    1    2    0    0  0.00000000000E+00  0.00000000000E+00  0.11746239672E+04  0.39192477219E+04  0.37390856156E+04 0.  0.
        2    1    3    3  502    0 -0.14482891259E+04  0.74662249146E+03 -0.37348054857E+03  0.16716681062E+04  0.25500000920E-02 0.  1.
       -2    1    3    3    0  502  0.14482891259E+04 -0.74662249146E+03  0.15481045158E+04  0.22475796157E+04  0.25500000920E-02 0. -1.
</event>
<event>
 5   0  0.5875011E-07  0.3662751E+04  0.7818609E-02  0.8076267E-01
       -1   -1    0    0    0  501  0.00000000000E+00  0.00000000000E+00  0.17750215372E+04  0.17750215372E+04  0.50400001928E-02 0.  1.
        1   -1    0    0  501    0  0.00000000000E+00  0.00000000000E+00 -0.18895182203E+04  0.18895182203E+04  0.50400001928E-02 0. -1.
    10030    2    1    2    0    0  0.00000000000E+00  0.00000000000E+00 -0.11449668312E+03  0.36645397575E+04  0.36627506254E+04 0.  0.
        2    1    3    3  502    0  0.97984298631E+03  0.57136293836E+03  0.13812953125E+04  0.17873233131E+04  0.25500000920E-02 0.  1.
       -2    1    3    3    0  502 -0.97984298631E+03 -0.57136293836E+03 -0.14957919956E+04  0.18772164444E+04  0.25500000920E-02 0. -1.
</event>
<event>
 5   0  0.1724503E-06  0.4491955E+04  0.7818609E-02  0.7912047E-01
        2   -1    0    0  501    0  0.00000000000E+00  0.00000000000E+00  0.23640371049E+04  0.23640371049E+04  0.25500000920E-02 0.  1.
       -2   -1    0    0    0  501  0.00000000000E+00  0.00000000000E+00 -0.21338137919E+04  0.21338137919E+04  0.25500000920E-02 0. -1.
    10030    2    1    2    0    0  0.00000000000E+00  0.00000000000E+00  0.23022331299E+03  0.44978508968E+04  0.44919550216E+04 0.  0.
        1    1    3    3  502    0  0.48025130187E+03 -0.21464263260E+04 -0.34004816555E+03  0.22256280105E+04  0.50400001928E-02 0. -1.
       -1    1    3    3    0  502 -0.48025130187E+03  0.21464263260E+04  0.57027147855E+03  0.22722228864E+04  0.50400001928E-02 0.  1.
</event>
<event>
 5   0  0.1680194E-06  0.2959633E+04  0.7818609E-02  0.8255353E-01
       -2   -1    0    0    0  501  0.00000000000E+00  0.00000000000E+00  0.10102302246E+04  0.10102302246E+04  0.25500000920E-02 0.  1.
        2   -1    0    0  501    0  0.00000000000E+00  0.00000000000E+00 -0.21676806296E+04  0.21676806296E+04  0.25500000920E-02 0. -1.
    10030    2    1    2    0    0  0.00000000000E+00  0.00000000000E+00 -0.11574504050E+04  0.31779108541E+04  0.29596327402E+04 0.  0.
        2    1    3    3  502    0 -0.10031960219E+04  0.27216108178E+03 -0.17096782046E+04  0.20008681806E+04  0.25500000920E-02 0. -1.
       -2    1    3    3    0  502  0.10031960219E+04 -0.27216108178E+03  0.55222779959E+03  0.11770426736E+04  0.25500000920E-02 0.  1.
</event>
<event>
 5   0  0.1685793E-06  0.3696774E+04  0.7818609E-02  0.8068677E-01
       -2   -1    0    0    0  501  0.00000000000E+00  0.00000000000E+00  0.16548106286E+04  0.16548106286E+04  0.25500000920E-02 0.  1.
        2   -1    0    0  501    0  0.00000000000E+00  0.00000000000E+00 -0.20646070192E+04  0.20646070193E+04  0.25500000920E-02 0. -1.
    10030    2    1    2    0    0  0.00000000000E+00  0.00000000000E+00 -0.40979639062E+03  0.37194176479E+04  0.36967735334E+04 0.  0.
        3    1    3    3  502    0 -0.16843625411E+04  0.46287641714E+03  0.40312283989E+03  0.17927185450E+04  0.10100000352E+00 0.  1.
       -3    1    3    3    0  502  0.16843625411E+04 -0.46287641714E+03 -0.81291923051E+03  0.19266991029E+04  0.10100000352E+00 0. -1.
</event>
<event>
 5   0  0.1685793E-06  0.1971947E+04  0.7818609E-02  0.8619850E-01
       -2   -1    0    0    0  501  0.00000000000E+00  0.00000000000E+00  0.89418338647E+03  0.89418338647E+03  0.25500000920E-02 0. -1.
        2   -1    0    0  501    0  0.00000000000E+00  0.00000000000E+00 -0.10871856814E+04  0.10871856814E+04  0.25500000920E-02 0.  1.
    10030    2    1    2    0    0  0.00000000000E+00  0.00000000000E+00 -0.19300229495E+03  0.19813690679E+04  0.19719466264E+04 0.  0.
        3    1    3    3  502    0  0.70921107111E+03 -0.66469079417E+03 -0.26266719491E+03  0.10068705283E+04  0.10100000352E+00 0.  1.
       -3    1    3    3    0  502 -0.70921107111E+03  0.66469079417E+03  0.69664899965E+02  0.97449853962E+03  0.10100000352E+00 0. -1.
</event>
<event>
 5   0  0.6287345E-07  0.3349258E+04  0.7818609E-02  0.8150474E-01
       -1   -1    0    0    0  501  0.00000000000E+00  0.00000000000E+00  0.14091742744E+04  0.14091742744E+04  0.50400001928E-02 0. -1.
        1   -1    0    0  501    0  0.00000000000E+00  0.00000000000E+00 -0.19900887907E+04  0.19900887907E+04  0.50400001928E-02 0.  1.
    10030    2    1    2    0    0  0.00000000000E+00  0.00000000000E+00 -0.58091451630E+03  0.33992630651E+04  0.33492577851E+04 0.  0.
        5    1    3    3  502    0  0.10703081167E+04 -0.46715656930E+03  0.92769800617E+03  0.14914558008E+04  0.46999998093E+01 0. -1.
       -5    1    3    3    0  502 -0.10703081167E+04  0.46715656930E+03 -0.15086125225E+04  0.19078072644E+04  0.46999998093E+01 0.  1.
</event>
<event>
 5   0  0.6186440E-07  0.3727975E+04  0.7818609E-02  0.8061790E-01
       -1   -1    0    0    0  501  0.00000000000E+00  0.00000000000E+00  0.20168452831E+04  0.20168452831E+04  0.50400001928E-02 0. -1.
        1   -1    0    0  501    0  0.00000000000E+00  0.00000000000E+00 -0.17227148396E+04  0.17227148396E+04  0.50400001928E-02 0.  1.
    10030    2    1    2    0    0  0.00000000000E+00  0.00000000000E+00  0.29413044350E+03  0.37395601227E+04  0.37279749454E+04 0.  0.
        3    1    3    3  502    0  0.10737025782E+04 -0.14782863940E+04 -0.22324510813E+03  0.18406537636E+04  0.10100000352E+00 0.  1.
       -3    1    3    3    0  502 -0.10737025782E+04  0.14782863940E+04  0.51737555162E+03  0.18989063591E+04  0.10100000352E+00 0. -1.
</event>
<event>
 5   0  0.6287345E-07  0.3654311E+04  0.7818609E-02  0.8078163E-01
        1   -1    0    0  501    0  0.00000000000E+00  0.00000000000E+00  0.19455623223E+04  0.19455623223E+04  0.50400001928E-02 0. -1.
       -1   -1    0    0    0  501  0.00000000000E+00  0.00000000000E+00 -0.17159546478E+04  0.17159546478E+04  0.50400001928E-02 0.  1.
    10030    2    1    2    0    0  0.00000000000E+00  0.00000000000E+00  0.22960767458E+03  0.36615169701E+04  0.36543107200E+04 0.  0.
        5    1    3    3  502    0  0.11690489572E+02  0.16638212327E+04 -0.64169288041E+03  0.17833198268E+04  0.46999998093E+01 0.  1.
       -5    1    3    3    0  502 -0.11690489572E+02 -0.16638212327E+04  0.87130055499E+03  0.18781971433E+04  0.46999998093E+01 0. -1.
</event>
<event>
 5   0  0.1151180E-06  0.3648063E+04  0.7818609E-02  0.8079570E-01
       -2   -1    0    0    0  501  0.00000000000E+00  0.00000000000E+00  0.14501943234E+04  0.14501943234E+04  0.25500000920E-02 0.  1.
        2   -1    0    0  501    0  0.00000000000E+00  0.00000000000E+00 -0.22942375525E+04  0.22942375525E+04  0.25500000920E-02 0. -1.
    10030    2    1    2    0    0  0.00000000000E+00  0.00000000000E+00 -0.84404322913E+03  0.37444318758E+04  0.36480626503E+04 0.  0.
        5    1    3    3  502    0  0.60868751671E+03  0.51256171129E+03 -0.21066736226E+04  0.22519582241E+04  0.46999998093E+01 0. -1.
       -5    1    3    3    0  502 -0.60868751671E+03 -0.51256171129E+03  0.12626303934E+04  0.14924736518E+04  0.46999998093E+01 0.  1.
</event>
<event>
 5   0  0.6186440E-07  0.2021534E+04  0.7818609E-02  0.8596619E-01
        1   -1    0    0  501    0  0.00000000000E+00  0.00000000000E+00  0.10843862821E+04  0.10843862821E+04  0.50400001928E-02 0. -1.
       -1   -1    0    0    0  501  0.00000000000E+00  0.00000000000E+00 -0.94214541796E+03  0.94214541798E+03  0.50400001928E-02 0.  1.
    10030    2    1    2    0    0  0.00000000000E+00  0.00000000000E+00  0.14224086409E+03  0.20265317000E+04  0.20215336425E+04 0.  0.
        3    1    3    3  502    0 -0.16112620180E+03  0.85480898044E+03 -0.44492361203E+03  0.97704507403E+03  0.10100000352E+00 0.  1.
       -3    1    3    3    0  502  0.16112620180E+03 -0.85480898044E+03  0.58716447612E+03  0.10494866260E+04  0.10100000352E+00 0. -1.
</event>
<event>
 5   0  0.1680194E-06  0.3798547E+04  0.7818609E-02  0.8046467E-01
        2   -1    0    0  501    0  0.00000000000E+00  0.00000000000E+00  0.21151393450E+04  0.21151393450E+04  0.25500000920E-02 0. -1.
       -2   -1    0    0    0  501  0.00000000000E+00  0.00000000000E+00 -0.17054381841E+04  0.17054381841E+04  0.25500000920E-02 0.  1.
    10030    2    1    2    0    0  0.00000000000E+00  0.00000000000E+00  0.40970116091E+03  0.38205775292E+04  0.37985467767E+04 0.  0.
        2    1    3    3  502    0 -0.71343161745E+03  0.27733446913E+03 -0.15434309182E+04  0.17228110981E+04  0.25500000920E-02 0.  1.
       -2    1    3    3    0  502  0.71343161745E+03 -0.27733446913E+03  0.19531320791E+04  0.20977664310E+04  0.25500000920E-02 0. -1.
</event>
<event>
 5   0  0.1184684E-06  0.3701492E+04  0.7818609E-02  0.8067631E-01
       -2   -1    0    0    0  501  0.00000000000E+00  0.00000000000E+00  0.33525690088E+04  0.33525690088E+04  0.25500000920E-02 0. -1.
        2   -1    0    0  501    0  0.00000000000E+00  0.00000000000E+00 -0.10216825809E+04  0.10216825809E+04  0.25500000920E-02 0.  1.
    10030    2    1    2    0    0  0.00000000000E+00  0.00000000000E+00  0.23308864279E+04  0.43742515896E+04  0.37014923247E+04 0.  0.
        4    1    3    3  502    0  0.50632651165E+03  0.63897288013E+03  0.31289354443E+04  0.32334024657E+04  0.12699999809E+01 0. -1.
       -4    1    3    3    0  502 -0.50632651165E+03 -0.63897288013E+03 -0.79804901641E+03  0.11408491239E+04  0.12699999809E+01 0.  1.
</event>
<event>
 5   0  0.1184684E-06  0.3727523E+04  0.7818609E-02  0.8061890E-01
        2   -1    0    0  501    0  0.00000000000E+00  0.00000000000E+00  0.24447453659E+04  0.24447453659E+04  0.25500000920E-02 0. -1.
       -2   -1    0    0    0  501  0.00000000000E+00  0.00000000000E+00 -0.14208464829E+04  0.14208464829E+04  0.25500000920E-02 0.  1.
    10030    2    1    2    0    0  0.00000000000E+00  0.00000000000E+00  0.10238988829E+04  0.38655918488E+04  0.37275234968E+04 0.  0.
        4    1    3    3  502    0  0.17839491125E+04 -0.17615099198E+03  0.10408426400E+04  0.20728865435E+04  0.12699999809E+01 0. -1.
       -4    1    3    3    0  502 -0.17839491125E+04  0.17615099198E+03 -0.16943757099E+02  0.17927053053E+04  0.12699999809E+01 0.  1.
</event>
<event>
 5   0  0.1685793E-06  0.2921849E+04  0.7818609E-02  0.8266406E-01
       -2   -1    0    0    0  501  0.00000000000E+00  0.00000000000E+00  0.14060781346E+04  0.14060781346E+04  0.25500000920E-02 0. -1.
        2   -1    0    0  501    0  0.00000000000E+00  0.00000000000E+00 -0.15179098046E+04  0.15179098046E+04  0.25500000920E-02 0.  1.
    10030    2    1    2    0    0  0.00000000000E+00  0.00000000000E+00 -0.11183167004E+03  0.29239879392E+04  0.29218485837E+04 0.  0.
        3    1    3    3  502    0  0.84164925949E+03 -0.93880175939E+03 -0.79441114305E+03  0.14902386701E+04  0.10100000352E+00 0.  1.
       -3    1    3    3    0  502 -0.84164925949E+03  0.93880175939E+03  0.68257947302E+03  0.14337492691E+04  0.10100000352E+00 0. -1.
</event>
<event>
 5   0  0.5875011E-07  0.3639786E+04  0.7818609E-02  0.8081439E-01
       -1   -1    0    0    0  501  0.00000000000E+00  0.00000000000E+00  0.17962739861E+04  0.17962739862E+04  0.50400001928E-02 0. -1.
        1   -1    0    0  501    0  0.00000000000E+00  0.00000000000E+00 -0.18438220843E+04  0.18438220843E+04  0.50400001928E-02 0.  1.
    10030    2    1    2    0    0  0.00000000000E+00  0.00000000000E+00 -0.47548098144E+02  0.36400960704E+04  0.36397855130E+04 0.  0.
        2    1    3    3  502    0  0.13006812628E+04 -0.12692244066E+04  0.72708549868E+02  0.18187877487E+04  0.25500000920E-02 0.  1.
       -2    1    3    3    0  502 -0.13006812628E+04  0.12692244066E+04 -0.12025664801E+03  0.18213083218E+04  0.25500000920E-02 0. -1.
</event>
<event>
 5   0  0.1724503E-06  0.2874604E+04  0.7818609E-02  0.8280474E-01
       -2   -1    0    0    0  501  0.00000000000E+00  0.00000000000E+00  0.13284919726E+04  0.13284919726E+04  0.25500000920E-02 0. -1.
        2   -1    0    0  501    0  0.00000000000E+00  0.00000000000E+00 -0.15550235643E+04  0.15550235643E+04  0.25500000920E-02 0.  1.
    10030    2    1    2    0    0  0.00000000000E+00  0.00000000000E+00 -0.22653159164E+03  0.28835155369E+04  0.28746035013E+04 0.  0.
        1    1    3    3  502    0 -0.12464400000E+04 -0.61556496434E+03 -0.47950513939E+03  0.14705298629E+04  0.50400001928E-02 0.  1.
       -1    1    3    3    0  502  0.12464400000E+04  0.61556496434E+03  0.25297354775E+03  0.14129856740E+04  0.50400001928E-02 0. -1.
</event>
<event>
 5   0  0.1151180E-06  0.3658757E+04  0.7818609E-02  0.8077164E-01
       -2   -1    0    0    0  501  0.00000000000E+00  0.00000000000E+00  0.25837453076E+04  0.25837453076E+04  0.25500000920E-02 0. -1.
        2   -1    0    0  501    0  0.00000000000E+00  0.00000000000E+00 -0.12952612604E+04  0.12952612604E+04  0.25500000920E-02 0.  1.
    10030    2    1    2    0    0  0.00000000000E+00  0.00000000000E+00  0.12884840472E+04  0.38790065680E+04  0.36587567307E+04 0.  0.
        5    1    3    3  502    0 -0.69117158528E+03 -0.16027210514E+04  0.63382978205E+02  0.17465601681E+04  0.46999998093E+01 0.  1.
       -5    1    3    3    0  502  0.69117158528E+03  0.16027210514E+04  0.12251010690E+04  0.21324463998E+04  0.46999998093E+01 0. -1.
</event>
<event>
 5   0  0.1151180E-06  0.2870480E+04  0.7818609E-02  0.8281715E-01
       -2   -1    0    0    0  501  0.00000000000E+00  0.00000000000E+00  0.28344994373E+04  0.28344994373E+04  0.25500000920E-02 0.  1.
        2   -1    0    0  501    0  0.00000000000E+00  0.00000000000E+00 -0.72672918202E+03  0.72672918202E+03  0.25500000920E-02 0. -1.
    10030    2    1    2    0    0  0.00000000000E+00  0.00000000000E+00  0.21077702553E+04  0.35612286194E+04  0.28704797213E+04 0.  0.
        5    1    3    3  502    0  0.28116703737E+03 -0.51839850766E+03 -0.56945627719E+03  0.81981367229E+03  0.46999998093E+01 0. -1.
       -5    1    3    3    0  502 -0.28116703737E+03  0.51839850766E+03  0.26772265325E+04  0.27414149471E+04  0.46999998093E+01 0.  1.
</event>
<event>
 5   0  0.1724503E-06  0.3663794E+04  0.7818609E-02  0.8076033E-01
       -2   -1    0    0    0  501  0.00000000000E+00  0.00000000000E+00  0.25582280518E+04  0.25582280518E+04  0.25500000920E-02 0. -1.
        2   -1    0    0  501    0  0.00000000000E+00  0.00000000000E+00 -0.13117856988E+04  0.13117856988E+04  0.25500000920E-02 0.  1.
    10030    2    1    2    0    0  0.00000000000E+00  0.00000000000E+00  0.12464423531E+04  0.38700137506E+04  0.36637941932E+04 0.  0.
        1    1    3    3  502    0  0.10148802432E+04  0.50539692988E+03 -0.89667057742E+03  0.14454847247E+04  0.50400001928E-02 0.  1.
       -1    1    3    3    0  502 -0.10148802432E+04 -0.50539692988E+03  0.21431129305E+04  0.24245290259E+04  0.50400001928E-02 0. -1.
</event>
<event>
 5   0  0.1151180E-06  0.3673442E+04  0.7818609E-02  0.8073873E-01
       -2   -1    0    0    0  501  0.00000000000E+00  0.00000000000E+00  0.19495339599E+04  0.19495339599E+04  0.25500000920E-02 0.  1.
        2   -1    0    0  501    0  0.00000000000E+00  0.00000000000E+00 -0.17304362715E+04  0.17304362715E+04  0.25500000920E-02 0. -1.
    10030    2    1    2    0    0  0.00000000000E+00  0.00000000000E+00  0.21909768840E+03  0.36799702314E+04  0.36734421333E+04 0.  0.
        5    1    3    3  502    0  0.65969351757E+03  0.21259311196E+03  0.18134921410E+04  0.19414343161E+04  0.46999998093E+01 0.  1.
       -5    1    3    3    0  502 -0.65969351757E+03 -0.21259311196E+03 -0.15943944526E+04  0.17385359153E+04  0.46999998093E+01 0. -1.
</event>
<event>
 5   0  0.1151180E-06  0.3569043E+04  0.7818609E-02  0.8097620E-01
       -2   -1    0    0    0  501  0.00000000000E+00  0.00000000000E+00  0.11682544939E+04  0.11682544939E+04  0.25500000920E-02 0. -1.
        2   -1    0    0  501    0  0.00000000000E+00  0.00000000000E+00 -0.27258768140E+04  0.27258768140E+04  0.25500000920E-02 0.  1.
    10030    2    1    2    0    0  0.00000000000E+00  0.00000000000E+00 -0.15576223201E+04  0.38941313079E+04  0.35690434784E+04 0.  0.
        5    1    3    3  502    0  0.12382397056E+04 -0.66360813316E+03 -0.19794426806E+04  0.24273089500E+04  0.46999998093E+01 0.  1.
       -5    1    3    3    0  502 -0.12382397056E+04  0.66360813316E+03  0.42182036049E+03  0.14668223578E+04  0.46999998093E+01 0. -1.
</event>
<event>
 5   0  0.6287345E-07  0.3734192E+04  0.7818609E-02  0.8060427E-01
        1   -1    0    0  501    0  0.00000000000E+00  0.00000000000E+00  0.22728272105E+04  0.22728272105E+04  0.50400001928E-02 0. -1.
       -1   -1    0    0    0  501  0.00000000000E+00  0.00000000000E+00 -0.15337930801E+04  0.15337930801E+04  0.50400001928E-02 0.  1.
    10030    2    1    2    0    0  0.00000000000E+00  0.00000000000E+00  0.73903413040E+03  0.38066202906E+04  0.37341915579E+04 0.  0.
        5    1    3    3  502    0  0.17625471393E+04 -0.14128517737E+03 -0.24168773727E+03  0.17846481367E+04  0.46999998093E+01 0.  1.
       -5    1    3    3    0  502 -0.17625471393E+04  0.14128517737E+03  0.98072186767E+03  0.20219721539E+04  0.46999998093E+01 0. -1.
</event>
<event>
 5   0  0.6186440E-07  0.3594886E+04  0.7818609E-02  0.8091664E-01
        1   -1    0    0  501    0  0.00000000000E+00  0.00000000000E+00  0.12376316766E+04  0.12376316766E+04  0.50400001928E-02 0.  1.
       -1   -1    0    0    0  501  0.00000000000E+00  0.00000000000E+00 -0.26104706041E+04  0.26104706041E+04  0.50400001928E-02 0. -1.
    10030    2    1    2    0    0  0.00000000000E+00  0.00000000000E+00 -0.13728389275E+04  0.38481022807E+04  0.35948858733E+04 0.  0.
        3    1    3    3  502    0 -0.11029386710E+04 -0.83354461919E+03  0.54320149811E+03  0.14853747749E+04  0.10100000352E+00 0.  1.
       -3    1    3    3    0  502  0.11029386710E+04  0.83354461919E+03 -0.19160404256E+04  0.23627275058E+04  0.10100000352E+00 0. -1.
</event>
<event>
 5   0  0.1680194E-06  0.2910419E+04  0.7818609E-02  0.8269784E-01
        2   -1    0    0  501    0  0.00000000000E+00  0.00000000000E+00  0.18057618767E+04  0.18057618767E+04  0.25500000920E-02 0. -1.
       -2   -1    0    0    0  501  0.00000000000E+00  0.00000000000E+00 -0.11727094461E+04  0.11727094461E+04  0.25500000920E-02 0.  1.
    10030    2    1    2    0    0  0.00000000000E+00  0.00000000000E+00  0.63305243058E+03  0.29784713229E+04  0.29104185337E+04 0.  0.
        2    1    3    3  502    0 -0.68756455124E+03 -0.12443566642E+04  0.63437749470E+03  0.15567926406E+04  0.25500000920E-02 0. -1.
       -2    1    3    3    0  502  0.68756455124E+03  0.12443566642E+04 -0.13250641199E+01  0.14216786823E+04  0.25500000920E-02 0.  1.
</event>
<event>
 5   0  0.1680194E-06  0.3726477E+04  0.7818609E-02  0.8062119E-01
        2   -1    0    0  501    0  0.00000000000E+00  0.00000000000E+00  0.22252934894E+04  0.22252934894E+04  0.25500000920E-02 0. -1.
       -2   -1    0    0    0  501  0.00000000000E+00  0.00000000000E+00 -0.15600901362E+04  0.15600901362E+04  0.25500000920E-02 0.  1.
    10030    2    1    2    0    0  0.00000000000E+00  0.00000000000E+00  0.66520335318E+03  0.37853836256E+04  0.37264773838E+04 0.  0.
        2    1    3    3  502    0 -0.80167857438E+02 -0.66687974594E+03 -0.14328305129E+04  0.15824533989E+04  0.25500000920E-02 0.  1.
       -2    1    3    3    0  502  0.80167857438E+02  0.66687974594E+03  0.20980338661E+04  0.22029302268E+04  0.25500000920E-02 0. -1.
</event>
<event>
 5   0  0.6261598E-07  0.3674521E+04  0.7818609E-02  0.8073632E-01
       -1   -1    0    0    0  501  0.00000000000E+00  0.00000000000E+00  0.19796838759E+04  0.19796838759E+04  0.50400001928E-02 0. -1.
        1   -1    0    0  501    0  0.00000000000E+00  0.00000000000E+00 -0.17050834279E+04  0.17050834279E+04  0.50400001928E-02 0.  1.
    10030    2    1    2    0    0  0.00000000000E+00  0.00000000000E+00  0.27460044804E+03  0.36847673038E+04  0.36745210133E+04 0.  0.
        1    1    3    3  502    0  0.29394055195E+03  0.11139423538E+04  0.15724644962E+04  0.19493366070E+04  0.50400001928E-02 0. -1.
       -1    1    3    3    0  502 -0.29394055195E+03 -0.11139423538E+04 -0.12978640482E+04  0.17354306968E+04  0.50400001928E-02 0.  1.
</event>
<event>
 5   0  0.1184684E-06  0.3684462E+04  0.7818609E-02  0.8071414E-01
       -2   -1    0    0    0  501  0.00000000000E+00  0.00000000000E+00  0.15543693462E+04  0.15543693462E+04  0.25500000920E-02 0. -1.
        2   -1    0    0  501    0  0.00000000000E+00  0.00000000000E+00 -0.21834030277E+04  0.21834030277E+04  0.25500000920E-02 0.  1.
    10030    2    1    2    0    0  0.00000000000E+00  0.00000000000E+00 -0.62903368149E+03  0.37377723739E+04  0.36844618260E+04 0.  0.
        4    1    3    3  502    0  0.11520533013E+04 -0.14260329992E+04 -0.49884951846E+03  0.18999077290E+04  0.12699999809E+01 0.  1.
       -4    1    3    3    0  502 -0.11520533013E+04  0.14260329992E+04 -0.13018416303E+03  0.18378646449E+04  0.12699999809E+01 0. -1.
</event>
<event>
 5   0  0.5679750E-07  0.3745685E+04  0.7818609E-02  0.8057912E-01
        1   -1    0    0  501    0  0.00000000000E+00  0.00000000000E+00  0.11124749332E+04  0.11124749332E+04  0.50400001928E-02 0. -1.
       -1   -1    0    0    0  501  0.00000000000E+00  0.00000000000E+00 -0.31529145778E+04  0.31529145778E+04  0.50400001928E-02 0.  1.
    10030    2    1    2    0    0  0.00000000000E+00  0.00000000000E+00 -0.20404396446E+04  0.42653895109E+04  0.37456846820E+04 0.  0.
        4    1    3    3  502    0 -0.13795416090E+04  0.11530899138E+04 -0.16171510860E+04  0.24182495008E+04  0.12699999809E+01 0. -1.
       -4    1    3    3    0  502  0.13795416090E+04 -0.11530899138E+04 -0.42328855862E+03  0.18471400101E+04  0.12699999809E+01 0.  1.
</event>
<event>
 5   0  0.1680194E-06  0.3555551E+04  0.7818609E-02  0.8100750E-01
       -2   -1    0    0    0  501  0.00000000000E+00  0.00000000000E+00  0.25041929560E+04  0.25041929560E+04  0.25500000920E-02 0. -1.
        2   -1    0    0  501    0  0.00000000000E+00  0.00000000000E+00 -0.12620775110E+04  0.12620775110E+04  0.25500000920E-02 0.  1.
    10030    2    1    2    0    0  0.00000000000E+00  0.00000000000E+00  0.12421154450E+04  0.37662704670E+04  0.35555509351E+04 0.  0.
        2    1    3    3  502    0 -0.48358877910E+03 -0.17058864752E+04  0.75744744983E+03  0.19281165455E+04  0.25500000920E-02 0. -1.
       -2    1    3    3    0  502  0.48358877910E+03  0.17058864752E+04  0.48466799520E+03  0.18381539215E+04  0.25500000920E-02 0.  1.
</event>
<event>
 5   0  0.6261598E-07  0.3816303E+04  0.7818609E-02  0.8042665E-01
       -1   -1    0    0    0  501  0.00000000000E+00  0.00000000000E+00  0.14559424956E+04  0.14559424956E+04  0.50400001928E-02 0.  1.
        1   -1    0    0  501    0  0.00000000000E+00  0.00000000000E+00 -0.25008146550E+04  0.25008146550E+04  0.50400001928E-02 0. -1.
    10030    2    1    2    0    0  0.00000000000E+00  0.00000000000E+00 -0.10448721594E+04  0.39567571506E+04  0.38163030959E+04 0.  0.
        1    1    3    3  502    0  0.83091795967E+02  0.17429127197E+04  0.27825119593E+03  0.17669388001E+04  0.50400001928E-02 0.  1.
       -1    1    3    3    0  502 -0.83091795967E+02 -0.17429127197E+04 -0.13231233553E+04  0.21898183506E+04  0.50400001928E-02 0. -1.
</event>
<event>
 5   0  0.6287345E-07  0.3697231E+04  0.7818609E-02  0.8068576E-01
        1   -1    0    0  501    0  0.00000000000E+00  0.00000000000E+00  0.23480405940E+04  0.23480405940E+04  0.50400001928E-02 0.  1.
       -1   -1    0    0    0  501  0.00000000000E+00  0.00000000000E+00 -0.14554175601E+04  0.14554175601E+04  0.50400001928E-02 0. -1.
    10030    2    1    2    0    0  0.00000000000E+00  0.00000000000E+00  0.89262303396E+03  0.38034581541E+04  0.36972311328E+04 0.  0.
        5    1    3    3  502    0  0.23319299077E+03  0.87048427023E+03 -0.12141374871E+04  0.15120429105E+04  0.46999998093E+01 0. -1.
       -5    1    3    3    0  502 -0.23319299077E+03 -0.87048427023E+03  0.21067605210E+04  0.22914152436E+04  0.46999998093E+01 0.  1.
</event>
<event>
 5   0  0.1724503E-06  0.3217390E+04  0.7818609E-02  0.8184240E-01
       -2   -1    0    0    0  501  0.00000000000E+00  0.00000000000E+00  0.13293431653E+04  0.13293431653E+04  0.25500000920E-02 0.  1.
        2   -1    0    0  501    0  0.00000000000E+00  0.00000000000E+00 -0.19467503769E+04  0.19467503769E+04  0.25500000920E-02 0. -1.
    10030    2    1    2    0    0  0.00000000000E+00  0.00000000000E+00 -0.61740721163E+03  0.32760935422E+04  0.32173898166E+04 0.  0.
        1    1    3    3  502    0  0.62351082506E+03 -0.13701553545E+04  0.26892798487E+03  0.15291872696E+04  0.50400001928E-02 0.  1.
       -1    1    3    3    0  502 -0.62351082506E+03  0.13701553545E+04 -0.88633519650E+03  0.17469062725E+04  0.50400001928E-02 0. -1.
</event>
<event>
 5   0  0.1151180E-06  0.3075028E+04  0.7818609E-02  0.8222625E-01
       -2   -1    0    0    0  501  0.00000000000E+00  0.00000000000E+00  0.17148547001E+04  0.17148547001E+04  0.25500000920E-02 0.  1.
        2   -1    0    0  501    0  0.00000000000E+00  0.00000000000E+00 -0.13785131480E+04  0.13785131480E+04  0.25500000920E-02 0. -1.
    10030    2    1    2    0    0  0.00000000000E+00  0.00000000000E+00  0.33634155208E+03  0.30933678480E+04  0.30750282932E+04 0.  0.
        5    1    3    3  502    0  0.12831039234E+04  0.83064076588E+03  0.33531799043E+03  0.15648578226E+04  0.46999998093E+01 0.  1.
       -5    1    3    3    0  502 -0.12831039234E+04 -0.83064076588E+03  0.10235616540E+01  0.15285100255E+04  0.46999998093E+01 0. -1.
</event>
<event>
 5   0  0.5679750E-07  0.1873482E+04  0.7818609E-02  0.8668170E-01
        1   -1    0    0  501    0  0.00000000000E+00  0.00000000000E+00  0.12545697992E+04  0.12545697992E+04  0.50400001928E-02 0. -1.
       -1   -1    0    0    0  501  0.00000000000E+00  0.00000000000E+00 -0.69942981733E+03  0.69942981735E+03  0.50400001928E-02 0.  1.
    10030    2    1    2    0    0  0.00000000000E+00  0.00000000000E+00  0.55513998183E+03  0.19539996165E+04  0.18734818125E+04 0.  0.
        4    1    3    3  502    0 -0.15834537458E+03 -0.74933738178E+03 -0.28496359010E+03  0.81718151592E+03  0.12699999809E+01 0.  1.
       -4    1    3    3    0  502  0.15834537458E+03  0.74933738178E+03  0.84010357193E+03  0.11368181006E+04  0.12699999809E+01 0. -1.
</event>
<event>
 5   0  0.5875011E-07  0.2718479E+04  0.7818609E-02  0.8329034E-01
       -1   -1    0    0    0  501  0.00000000000E+00  0.00000000000E+00  0.84853495281E+03  0.84853495282E+03  0.50400001928E-02 0. -1.
        1   -1    0    0  501    0  0.00000000000E+00  0.00000000000E+00 -0.21773190837E+04  0.21773190837E+04  0.50400001928E-02 0.  1.
    10030    2    1    2    0    0  0.00000000000E+00  0.00000000000E+00 -0.13287841309E+04  0.30258540365E+04  0.27184785053E+04 0.  0.
        2    1    3    3  502    0  0.65944475683E+03  0.11869900992E+04 -0.73226612257E+03  0.15427334692E+04  0.25500000920E-02 0.  1.
       -2    1    3    3    0  502 -0.65944475683E+03 -0.11869900992E+04 -0.59651800831E+03  0.14831205673E+04  0.25500000920E-02 0. -1.
</event>
<event>
 5   0  0.5875011E-07  0.3946390E+04  0.7818609E-02  0.8015450E-01
        1   -1    0    0  501    0  0.00000000000E+00  0.00000000000E+00  0.18312136967E+04  0.18312136967E+04  0.50400001928E-02 0.  1.
       -1   -1    0    0    0  501  0.00000000000E+00  0.00000000000E+00 -0.21261847837E+04  0.21261847837E+04  0.50400001928E-02 0. -1.
    10030    2    1    2    0    0  0.00000000000E+00  0.00000000000E+00 -0.29497108700E+03  0.39573984804E+04  0.39463900961E+04 0.  0.
        2    1    3    3  502    0 -0.47030957138E+03  0.35671323410E+03 -0.20355715158E+04  0.21194307774E+04  0.25500000920E-02 0. -1.
       -2    1    3    3    0  502  0.47030957138E+03 -0.35671323410E+03  0.17406004288E+04  0.18379677029E+04  0.25500000920E-02 0.  1.
</event>
<event>
 5   0  0.1680194E-06  0.3607114E+04  0.7818609E-02  0.8088864E-01
       -2   -1    0    0    0  501  0.00000000000E+00  0.00000000000E+00  0.14721909776E+04  0.14721909776E+04  0.25500000920E-02 0. -1.
        2   -1    0    0  501    0  0.00000000000E+00  0.00000000000E+00 -0.22095079725E+04  0.22095079725E+04  0.25500000920E-02 0.  1.
    10030    2    1    2    0    0  0.00000000000E+00  0.00000000000E+00 -0.73731699488E+03  0.36816989501E+04  0.36071139167E+04 0.  0.
        2    1    3    3  502    0  0.16018964697E+04 -0.46376640709E+03 -0.10696387080E+04  0.19812315729E+04  0.25500000920E-02 0.  1.
       -2    1    3    3    0  502 -0.16018964697E+04  0.46376640709E+03  0.33232171312E+03  0.17004673772E+04  0.25500000920E-02 0. -1.
</event>
<event>
 5   0  0.1680194E-06  0.1944789E+04  0.7818609E-02  0.8632878E-01
       -2   -1    0    0    0  501  0.00000000000E+00  0.00000000000E+00  0.10235686310E+04  0.10235686310E+04  0.25500000920E-02 0.  1.
        2   -1    0    0  501    0  0.00000000000E+00  0.00000000000E+00 -0.92377864508E+03  0.92377864509E+03  0.25500000920E-02 0. -1.
    10030    2    1    2    0    0  0.00000000000E+00  0.00000000000E+00  0.99789985878E+02  0.19473472761E+04  0.19447887732E+04 0.  0.
        2    1    3    3  502    0 -0.36264668613E+03 -0.78376710499E+03 -0.39762400955E+03  0.95074094621E+03  0.25500000920E-02 0.  1.
       -2    1    3    3    0  502  0.36264668613E+03  0.78376710499E+03  0.49741399543E+03  0.99660632984E+03  0.25500000920E-02 0. -1.
</event>
<event>
 5   0  0.1184684E-06  0.2917523E+04  0.7818609E-02  0.8267683E-01
        2   -1    0    0  501    0  0.00000000000E+00  0.00000000000E+00  0.15100067419E+04  0.15100067419E+04  0.25500000920E-02 0.  1.
       -2   -1    0    0    0  501  0.00000000000E+00  0.00000000000E+00 -0.14092550210E+04  0.14092550210E+04  0.25500000920E-02 0. -1.
    10030    2    1    2    0    0  0.00000000000E+00  0.00000000000E+00  0.10075172094E+03  0.29192617629E+04  0.29175226360E+04 0.  0.
        4    1    3    3  502    0 -0.71046909982E+03 -0.12126565916E+04  0.44135245592E+03  0.14731245549E+04  0.12699999809E+01 0.  1.
       -4    1    3    3    0  502  0.71046909982E+03  0.12126565916E+04 -0.34060073498E+03  0.14461372081E+04  0.12699999809E+01 0. -1.
</event>
<event>
 5   0  0.6287345E-07  0.3008705E+04  0.7818609E-02  0.8241250E-01
       -1   -1    0    0    0  501  0.00000000000E+00  0.00000000000E+00  0.14929385689E+04  0.14929385689E+04  0.50400001928E-02 0.  1.
        1   -1    0    0  501    0  0.00000000000E+00  0.00000000000E+00 -0.15158536394E+04  0.15158536394E+04  0.50400001928E-02 0. -1.
    10030    2    1    2    0    0  0.00000000000E+00  0.00000000000E+00 -0.22915070474E+02  0.30087922083E+04  0.30087049460E+04 0.  0.
        5    1    3    3  502    0  0.83280574002E+03 -0.12422573840E+04  0.15067509303E+03  0.15031612962E+04  0.46999998093E+01 0. -1.
       -5    1    3    3    0  502 -0.83280574002E+03  0.12422573840E+04 -0.17359016351E+03  0.15056309121E+04  0.46999998093E+01 0.  1.
</event>
<event>
 5   0  0.1685793E-06  0.2402098E+04  0.7818609E-02  0.8438718E-01
       -2   -1    0    0    0  501  0.00000000000E+00  0.00000000000E+00  0.69913390722E+03  0.69913390723E+03  0.25500000920E-02 0.  1.
        2   -1    0    0  501    0  0.00000000000E+00  0.00000000000E+00 -0.20632944575E+04  0.20632944575E+04  0.25500000920E-02 0. -1.
    10030    2    1    2    0    0  0.00000000000E+00  0.00000000000E+00 -0.13641605503E+04  0.27624283647E+04  0.24020983459E+04 0.  0.
        3    1    3    3  502    0  0.22508011220E+03  0.88372928259E+03  0.21675148246E+03  0.93734717003E+03  0.10100000352E+00 0.  1.
       -3    1    3    3    0  502 -0.22508011220E+03 -0.88372928259E+03 -0.15809120327E+04  0.18250811947E+04  0.10100000352E+00 0. -1.
</event>
<event>
 5   0  0.1680194E-06  0.3514258E+04  0.7818609E-02  0.8110419E-01
       -2   -1    0    0    0  501  0.00000000000E+00  0.00000000000E+00  0.12513390554E+04  0.12513390554E+04  0.25500000920E-02 0.  1.
        2   -1    0    0  501    0  0.00000000000E+00  0.00000000000E+00 -0.24673586764E+04  0.24673586764E+04  0.25500000920E-02 0. -1.
    10030    2    1    2    0    0  0.00000000000E+00  0.00000000000E+00 -0.12160196210E+04  0.37186977317E+04  0.35142579731E+04 0.  0.
        2    1    3    3  502    0  0.82783283062E+03  0.34332975435E+03 -0.22073309890E+04  0.23823292406E+04  0.25500000920E-02 0. -1.
       -2    1    3    3    0  502 -0.82783283062E+03 -0.34332975435E+03  0.99131136803E+03  0.13363684911E+04  0.25500000920E-02 0.  1.
</event>
<event>
 5   0  0.1184684E-06  0.1924146E+04  0.7818609E-02  0.8642930E-01
       -2   -1    0    0    0  501  0.00000000000E+00  0.00000000000E+00  0.14580251883E+04  0.14580251883E+04  0.25500000920E-02 0. -1.
        2   -1    0    0  501    0  0.00000000000E+00  0.00000000000E+00 -0.63482056009E+03  0.63482056010E+03  0.25500000920E-02 0.  1.
    10030    2    1    2    0    0  0.00000000000E+00  0.00000000000E+00  0.82320462816E+03  0.20928457483E+04  0.19241459057E+04 0.  0.
        4    1    3    3  502    0 -0.32272763574E+03  0.58474007080E+02  0.13953384763E+04  0.14333678568E+04  0.12699999809E+01 0. -1.
       -4    1    3    3    0  502  0.32272763574E+03 -0.58474007080E+02 -0.57213384817E+03  0.65947789159E+03  0.12699999809E+01 0.  1.
</event>
<event>
 5   0  0.1184684E-06  0.2262189E+04  0.7818609E-02  0.8492981E-01
       -2   -1    0    0    0  501  0.00000000000E+00  0.00000000000E+00  0.15000810813E+04  0.15000810813E+04  0.25500000920E-02 0. -1.
        2   -1    0    0  501    0  0.00000000000E+00  0.00000000000E+00 -0.85287014451E+03  0.85287014451E+03  0.25500000920E-02 0.  1.
    10030    2    1    2    0    0  0.00000000000E+00  0.00000000000E+00  0.64721093678E+03  0.23529512258E+04  0.22621886469E+04 0.  0.
        4    1    3    3  502    0  0.52381050121E+03 -0.43818021320E+03  0.12614430247E+04  0.14344404686E+04  0.12699999809E+01 0. -1.
       -4    1    3    3    0  502 -0.52381050121E+03  0.43818021320E+03 -0.61423208792E+03  0.91851075723E+03  0.12699999809E+01 0.  1.
</event>
<event>
 5   0  0.1184684E-06  0.3783395E+04  0.7818609E-02  0.8049728E-01
       -2   -1    0    0    0  501  0.00000000000E+00  0.00000000000E+00  0.14170466216E+04  0.14170466216E+04  0.25500000920E-02 0.  1.
        2   -1    0    0  501    0  0.00000000000E+00  0.00000000000E+00 -0.25253362514E+04  0.25253362514E+04  0.25500000920E-02 0. -1.
    10030    2    1    2    0    0  0.00000000000E+00  0.00000000000E+00 -0.11082896298E+04  0.39423828729E+04  0.37833948794E+04 0.  0.
        4    1    3    3  502    0 -0.18035192733E+04 -0.55517353008E+03 -0.41583354840E+03  0.19323091292E+04  0.12699999809E+01 0.  1.
       -4    1    3    3    0  502  0.18035192733E+04  0.55517353008E+03 -0.69245608142E+03  0.20100737438E+04  0.12699999809E+01 0. -1.
</event>
<event>
 5   0  0.1685793E-06  0.3701386E+04  0.7818609E-02  0.8067655E-01
       -2   -1    0    0    0  501  0.00000000000E+00  0.00000000000E+00  0.13057595464E+04  0.13057595464E+04  0.25500000920E-02 0. -1.
        2   -1    0    0  501    0  0.00000000000E+00  0.00000000000E+00 -0.26230440477E+04  0.26230440477E+04  0.25500000920E-02 0.  1.
    10030    2    1    2    0    0  0.00000000000E+00  0.00000000000E+00 -0.13172845014E+04  0.39288035941E+04  0.37013861219E+04 0.  0.
        3    1    3    3  502    0  0.80949200883E+03  0.12548025429E+04  0.50180864201E+03  0.15753154152E+04  0.10100000352E+00 0. -1.
       -3    1    3    3    0  502 -0.80949200883E+03 -0.12548025429E+04 -0.18190931434E+04  0.23534881789E+04  0.10100000352E+00 0.  1.
</event>
<event>
 5   0  0.5875011E-07  0.3659431E+04  0.7818609E-02  0.8077012E-01
        1   -1    0    0  501    0  0.00000000000E+00  0.00000000000E+00  0.21818490527E+04  0.21818490527E+04  0.50400001928E-02 0.  1.
       -1   -1    0    0    0  501  0.00000000000E+00  0.00000000000E+00 -0.15344132987E+04  0.15344132987E+04  0.50400001928E-02 0. -1.
    10030    2    1    2    0    0  0.00000000000E+00  0.00000000000E+00  0.64743575399E+03  0.37162623514E+04  0.36594306673E+04 0.  0.
        2    1    3    3  502    0  0.17698457150E+04  0.35727492842E+03  0.62473132833E+03  0.19105728099E+04  0.25500000920E-02 0.  1.
       -2    1    3    3    0  502 -0.17698457150E+04 -0.35727492842E+03  0.22704425659E+02  0.18056895415E+04  0.25500000920E-02 0. -1.
</event>
<event>
 5   0  0.1734083E-06  0.2003613E+04  0.7818609E-02  0.8604934E-01
       -2   -1    0    0    0  501  0.00000000000E+00  0.00000000000E+00  0.92174958952E+03  0.92174958953E+03  0.25500000920E-02 0.  1.
        2   -1    0    0  501    0  0.00000000000E+00  0.00000000000E+00 -0.10888161894E+04  0.10888161894E+04  0.25500000920E-02 0. -1.
    10030    2    1    2    0    0  0.00000000000E+00  0.00000000000E+00 -0.16706659986E+03  0.20105657789E+04  0.20036126129E+04 0.  0.
        3    1    3    3  502    0 -0.40452447474E+03  0.27567447550E+03  0.79355911062E+03  0.93240149043E+03  0.10100000352E+00 0.  1.
       -3    1    3    3    0  502  0.40452447474E+03 -0.27567447550E+03 -0.96062571049E+03  0.10781642885E+04  0.10100000352E+00 0. -1.
</event>
<event>
 5   0  0.1685793E-06  0.3320684E+04  0.7818609E-02  0.8157652E-01
       -2   -1    0    0    0  501  0.00000000000E+00  0.00000000000E+00  0.17407088698E+04  0.17407088698E+04  0.25500000920E-02 0. -1.
        2   -1    0    0  501    0  0.00000000000E+00  0.00000000000E+00 -0.15836856262E+04  0.15836856262E+04  0.25500000920E-02 0.  1.
    10030    2    1    2    0    0  0.00000000000E+00  0.00000000000E+00  0.15702324355E+03  0.33243944960E+04  0.33206840359E+04 0.  0.
        3    1    3    3  502    0 -0.10766015569E+03 -0.10802403325E+03  0.17336816345E+04  0.17403769479E+04  0.10100000352E+00 0. -1.
       -3    1    3    3    0  502  0.10766015569E+03  0.10802403325E+03 -0.15766583909E+04  0.15840175481E+04  0.10100000352E+00 0.  1.
</event>
<event>
 5   0  0.1151180E-06  0.3686346E+04  0.7818609E-02  0.8070994E-01
       -2   -1    0    0    0  501  0.00000000000E+00  0.00000000000E+00  0.22642857604E+04  0.22642857604E+04  0.25500000920E-02 0. -1.
        2   -1    0    0  501    0  0.00000000000E+00  0.00000000000E+00 -0.15003790273E+04  0.15003790273E+04  0.25500000920E-02 0.  1.
    10030    2    1    2    0    0  0.00000000000E+00  0.00000000000E+00  0.76390673304E+03  0.37646647877E+04  0.36863460862E+04 0.  0.
        5    1    3    3  502    0  0.75392054332E+02  0.16556695793E+03 -0.14911815934E+04  0.15022453241E+04  0.46999998093E+01 0.  1.
       -5    1    3    3    0  502 -0.75392054332E+02 -0.16556695793E+03  0.22550883264E+04  0.22624194636E+04  0.46999998093E+01 0. -1.
</event>
<event>
 5   0  0.5679750E-07  0.2296784E+04  0.7818609E-02  0.8479190E-01
        1   -1    0    0  501    0  0.00000000000E+00  0.00000000000E+00  0.17719058502E+04  0.17719058502E+04  0.50400001928E-02 0.  1.
       -1   -1    0    0    0  501  0.00000000000E+00  0.00000000000E+00 -0.74428561392E+03  0.74428561394E+03  0.50400001928E-02 0. -1.
    10030    2    1    2    0    0  0.00000000000E+00  0.00000000000E+00  0.10276202363E+04  0.25161914641E+04  0.22967838675E+04 0.  0.
        4    1    3    3  502    0  0.11021964461E+04  0.13082600619E+03  0.19095446564E+03  0.11262405030E+04  0.12699999809E+01 0. -1.
       -4    1    3    3    0  502 -0.11021964461E+04 -0.13082600619E+03  0.83666577063E+03  0.13899509611E+04  0.12699999809E+01 0.  1.
</event>
<event>
 5   0  0.6186440E-07  0.3671926E+04  0.7818609E-02  0.8074212E-01
       -1   -1    0    0    0  501  0.00000000000E+00  0.00000000000E+00  0.17569489518E+04  0.17569489519E+04  0.50400001928E-02 0. -1.
        1   -1    0    0  501    0  0.00000000000E+00  0.00000000000E+00 -0.19185300942E+04  0.19185300942E+04  0.50400001928E-02 0.  1.
    10030    2    1    2    0    0  0.00000000000E+00  0.00000000000E+00 -0.16158114238E+03  0.36754790461E+04  0.36719256192E+04 0.  0.
        3    1    3    3  502    0 -0.55431221656E+03 -0.98993813652E+03  0.13640465804E+04  0.17742216973E+04  0.10100000352E+00 0. -1.
       -3    1    3    3    0  502  0.55431221656E+03  0.98993813652E+03 -0.15256277228E+04  0.19012573488E+04  0.10100000352E+00 0.  1.
</event>
<event>
 5   0  0.6186440E-07  0.3675976E+04  0.7818609E-02  0.8073307E-01
       -1   -1    0    0    0  501  0.00000000000E+00  0.00000000000E+00  0.13233531928E+04  0.13233531928E+04  0.50400001928E-02 0. -1.
        1   -1    0    0  501    0  0.00000000000E+00  0.00000000000E+00 -0.25527581267E+04  0.25527581267E+04  0.50400001928E-02 0.  1.
    10030    2    1    2    0    0  0.00000000000E+00  0.00000000000E+00 -0.12294049339E+04  0.38761113195E+04  0.36759763968E+04 0.  0.
        3    1    3    3  502    0 -0.64879528801E+03  0.11706993639E+04 -0.19429371251E+04  0.23593382565E+04  0.10100000352E+00 0.  1.
       -3    1    3    3    0  502  0.64879528801E+03 -0.11706993639E+04  0.71353219125E+03  0.15167730629E+04  0.10100000352E+00 0. -1.
</event>
<event>
 5   0  0.6287345E-07  0.3912068E+04  0.7818609E-02  0.8022524E-01
       -1   -1    0    0    0  501  0.00000000000E+00  0.00000000000E+00  0.16210618599E+04  0.16210618599E+04  0.50400001928E-02 0.  1.
        1   -1    0    0  501    0  0.00000000000E+00  0.00000000000E+00 -0.23602237514E+04  0.23602237514E+04  0.50400001928E-02 0. -1.
    10030    2    1    2    0    0  0.00000000000E+00  0.00000000000E+00 -0.73916189143E+03  0.39812856113E+04  0.39120678441E+04 0.  0.
        5    1    3    3  502    0 -0.13060140271E+04  0.84298290886E+03 -0.15779193868E+04  0.22149818295E+04  0.46999998093E+01 0. -1.
       -5    1    3    3    0  502  0.13060140271E+04 -0.84298290886E+03  0.83875749539E+03  0.17663037818E+04  0.46999998093E+01 0.  1.
</event>
<event>
 5   0  0.6287345E-07  0.3689742E+04  0.7818609E-02  0.8070239E-01
        1   -1    0    0  501    0  0.00000000000E+00  0.00000000000E+00  0.18093219720E+04  0.18093219720E+04  0.50400001928E-02 0.  1.
       -1   -1    0    0    0  501  0.00000000000E+00  0.00000000000E+00 -0.18811183136E+04  0.18811183136E+04  0.50400001928E-02 0. -1.
    10030    2    1    2    0    0  0.00000000000E+00  0.00000000000E+00 -0.71796341542E+02  0.36904402856E+04  0.36897418321E+04 0.  0.
        5    1    3    3  502    0  0.85689665040E+03 -0.80997512167E+02 -0.16679834353E+04  0.18769718423E+04  0.46999998093E+01 0. -1.
       -5    1    3    3    0  502 -0.85689665040E+03  0.80997512167E+02  0.15961870938E+04  0.18134684433E+04  0.46999998093E+01 0.  1.
</event>
<event>
 5   0  0.1724503E-06  0.3208337E+04  0.7818609E-02  0.8186619E-01
       -2   -1    0    0    0  501  0.00000000000E+00  0.00000000000E+00  0.15726380876E+04  0.15726380876E+04  0.25500000920E-02 0. -1.
        2   -1    0    0  501    0  0.00000000000E+00  0.00000000000E+00 -0.16363308569E+04  0.16363308569E+04  0.25500000920E-02 0.  1.
    10030    2    1    2    0    0  0.00000000000E+00  0.00000000000E+00 -0.63692769344E+02  0.32089689446E+04  0.32083367838E+04 0.  0.
        1    1    3    3  502    0 -0.46584793966E+02  0.15617403862E+04  0.33175385725E+03  0.15972676039E+04  0.50400001928E-02 0. -1.
       -1    1    3    3    0  502  0.46584793966E+02 -0.15617403862E+04 -0.39544662660E+03  0.16117013406E+04  0.50400001928E-02 0.  1.
</event>
<event>
 5   0  0.1724503E-06  0.1903596E+04  0.7818609E-02  0.8653069E-01
        2   -1    0    0  501    0  0.00000000000E+00  0.00000000000E+00  0.12328415698E+04  0.12328415698E+04  0.25500000920E-02 0. -1.
       -2   -1    0    0    0  501  0.00000000000E+00  0.00000000000E+00 -0.73482220955E+03  0.73482220955E+03  0.25500000920E-02 0.  1.
    10030    2    1    2    0    0  0.00000000000E+00  0.00000000000E+00  0.49801936028E+03  0.19676637794E+04  0.19035959302E+04 0.  0.
        1    1    3    3  502    0 -0.19718832274E+03 -0.18164878369E+03 -0.69498495174E+03  0.74490509356E+03  0.50400001928E-02 0.  1.
       -1    1    3    3    0  502  0.19718832274E+03  0.18164878369E+03  0.11930043120E+04  0.12227586858E+04  0.50400001928E-02 0. -1.
</event>
<event>
 5   0  0.5875011E-07  0.3675221E+04  0.7818609E-02  0.8073475E-01
        1   -1    0    0  501    0  0.00000000000E+00  0.00000000000E+00  0.21361998413E+04  0.21361998413E+04  0.50400001928E-02 0. -1.
       -1   -1    0    0    0  501  0.00000000000E+00  0.00000000000E+00 -0.15807566836E+04  0.15807566836E+04  0.50400001928E-02 0.  1.
    10030    2    1    2    0    0  0.00000000000E+00  0.00000000000E+00  0.55544315774E+03  0.37169565249E+04  0.36752209058E+04 0.  0.
        2    1    3    3  502    0  0.11333251206E+04  0.39253706758E+03 -0.11303172875E+04  0.16480680656E+04  0.25500000920E-02 0.  1.
       -2    1    3    3    0  502 -0.11333251206E+04 -0.39253706758E+03  0.16857604452E+04  0.20688884593E+04  0.25500000920E-02 0. -1.
</event>
<event>
 5   0  0.1680194E-06  0.3572579E+04  0.7818609E-02  0.8096802E-01
        2   -1    0    0  501    0  0.00000000000E+00  0.00000000000E+00  0.21340418617E+04  0.21340418617E+04  0.25500000920E-02 0. -1.
       -2   -1    0    0    0  501  0.00000000000E+00  0.00000000000E+00 -0.14952048683E+04  0.14952048683E+04  0.25500000920E-02 0.  1.
    10030    2    1    2    0    0  0.00000000000E+00  0.00000000000E+00  0.63883699342E+03  0.36292467300E+04  0.35725787777E+04 0.  0.
        2    1    3    3  502    0 -0.86595724408E+03 -0.26621372429E+03 -0.12445068107E+04  0.15393339136E+04  0.25500000920E-02 0.  1.
       -2    1    3    3    0  502  0.86595724408E+03  0.26621372429E+03  0.18833438041E+04  0.20899128164E+04  0.25500000920E-02 0. -1.
</event>
<event>
 5   0  0.6287345E-07  0.3642388E+04  0.7818609E-02  0.8080851E-01
       -1   -1    0    0    0  501  0.00000000000E+00  0.00000000000E+00  0.23957720049E+04  0.23957720049E+04  0.50400001928E-02 0.  1.
        1   -1    0    0  501    0  0.00000000000E+00  0.00000000000E+00 -0.13844170054E+04  0.13844170054E+04  0.50400001928E-02 0. -1.
    10030    2    1    2    0    0  0.00000000000E+00  0.00000000000E+00  0.10113549995E+04  0.37801890103E+04  0.36423879555E+04 0.  0.
        5    1    3    3  502    0  0.76299962545E+03 -0.13924956471E+04  0.14313362611E+04  0.21377460415E+04  0.46999998093E+01 0.  1.
       -5    1    3    3    0  502 -0.76299962545E+03  0.13924956471E+04 -0.41998126158E+03  0.16424429688E+04  0.46999998093E+01 0. -1.
</event>
<event>
 5   0  0.1151180E-06  0.2347411E+04  0.7818609E-02  0.8459459E-01
       -2   -1    0    0    0  501  0.00000000000E+00  0.00000000000E+00  0.56487422922E+03  0.56487422923E+03  0.25500000920E-02 0. -1.
        2   -1    0    0  501    0  0.00000000000E+00  0.00000000000E+00 -0.24387451040E+04  0.24387451041E+04  0.25500000920E-02 0.  1.
    10030    2    1    2    0    0  0.00000000000E+00  0.00000000000E+00 -0.18738708748E+04  0.30036193333E+04  0.23474107105E+04 0.  0.
        5    1    3    3  502    0  0.24971689622E+03  0.34317672907E+03  0.46323688527E+03  0.62828281650E+03  0.46999998093E+01 0. -1.
       -5    1    3    3    0  502 -0.24971689622E+03 -0.34317672907E+03 -0.23371077601E+04  0.23753365168E+04  0.46999998093E+01 0.  1.
</event>
<event>
 5   0  0.1151180E-06  0.3631930E+04  0.7818609E-02  0.8083217E-01
       -2   -1    0    0    0  501  0.00000000000E+00  0.00000000000E+00  0.16381013559E+04  0.16381013559E+04  0.25500000920E-02 0.  1.
        2   -1    0    0  501    0  0.00000000000E+00  0.00000000000E+00 -0.20131414225E+04  0.20131414225E+04  0.25500000920E-02 0. -1.
    10030    2    1    2    0    0  0.00000000000E+00  0.00000000000E+00 -0.37504006660E+03  0.36512427785E+04  0.36319304475E+04 0.  0.
        5    1    3    3  502    0 -0.17583011488E+04  0.24504036032E+03  0.19666367597E+03  0.17861596792E+04  0.46999998093E+01 0.  1.
       -5    1    3    3    0  502  0.17583011488E+04 -0.24504036032E+03 -0.57170374257E+03  0.18650830993E+04  0.46999998093E+01 0. -1.
</event>
<event>
 5   0  0.5679750E-07  0.2200938E+04  0.7818609E-02  0.8518038E-01
        1   -1    0    0  501    0  0.00000000000E+00  0.00000000000E+00  0.16207042793E+04  0.16207042793E+04  0.50400001928E-02 0. -1.
       -1   -1    0    0    0  501  0.00000000000E+00  0.00000000000E+00 -0.74722599599E+03  0.74722599601E+03  0.50400001928E-02 0.  1.
    10030    2    1    2    0    0  0.00000000000E+00  0.00000000000E+00  0.87347828330E+03  0.23679302753E+04  0.22009383175E+04 0.  0.
        4    1    3    3  502    0  0.70602776962E+03 -0.23733609871E+03 -0.43480246856E+03  0.86247228060E+03  0.12699999809E+01 0.  1.
       -4    1    3    3    0  502 -0.70602776962E+03  0.23733609871E+03  0.13082807519E+04  0.15054579947E+04  0.12699999809E+01 0. -1.
</event>
<event>
 5   0  0.5875011E-07  0.4021063E+04  0.7818609E-02  0.8000311E-01
        1   -1    0    0  501    0  0.00000000000E+00  0.00000000000E+00  0.13811602940E+04  0.13811602940E+04  0.50400001928E-02 0.  1.
       -1   -1    0    0    0  501  0.00000000000E+00  0.00000000000E+00 -0.29266967056E+04  0.29266967057E+04  0.50400001928E-02 0. -1.
    10030    2    1    2    0    0  0.00000000000E+00  0.00000000000E+00 -0.15455364116E+04  0.43078569997E+04  0.40210631841E+04 0.  0.
        2    1    3    3  502    0  0.19697893396E+04  0.76183559616E+02 -0.34913713837E+03  0.20019417371E+04  0.25500000920E-02 0.  1.
       -2    1    3    3    0  502 -0.19697893396E+04 -0.76183559616E+02 -0.11963992732E+04  0.23059152626E+04  0.25500000920E-02 0. -1.
</event>
<event>
 5   0  0.1685793E-06  0.3615632E+04  0.7818609E-02  0.8086920E-01
       -2   -1    0    0    0  501  0.00000000000E+00  0.00000000000E+00  0.15181922387E+04  0.15181922387E+04  0.25500000920E-02 0.  1.
        2   -1    0    0  501    0  0.00000000000E+00  0.00000000000E+00 -0.21526905882E+04  0.21526905882E+04  0.25500000920E-02 0. -1.
    10030    2    1    2    0    0  0.00000000000E+00  0.00000000000E+00 -0.63449834943E+03  0.36708828269E+04  0.36156316977E+04 0.  0.
        3    1    3    3  502    0 -0.46077495754E+03  0.13933213381E+04 -0.13890996622E+04  0.20207067562E+04  0.10100000352E+00 0. -1.
       -3    1    3    3    0  502  0.46077495754E+03 -0.13933213381E+04  0.75460131282E+03  0.16501760707E+04  0.10100000352E+00 0.  1.
</event>
<event>
 5   0  0.1184684E-06  0.3609675E+04  0.7818609E-02  0.8088279E-01
        2   -1    0    0  501    0  0.00000000000E+00  0.00000000000E+00  0.33324296144E+04  0.33324296144E+04  0.25500000920E-02 0.  1.
       -2   -1    0    0    0  501  0.00000000000E+00  0.00000000000E+00 -0.97749638250E+03  0.97749638250E+03  0.25500000920E-02 0. -1.
    10030    2    1    2    0    0  0.00000000000E+00  0.00000000000E+00  0.23549332319E+04  0.43099259969E+04  0.36096747183E+04 0.  0.
        4    1    3    3  502    0 -0.67930722147E+03  0.47844754332E+03  0.30904899030E+04  0.32002343361E+04  0.12699999809E+01 0.  1.
       -4    1    3    3    0  502  0.67930722147E+03 -0.47844754332E+03 -0.73555667105E+03  0.11096916608E+04  0.12699999809E+01 0. -1.
</event>
<event>
 5   0  0.1151180E-06  0.3746327E+04  0.7818609E-02  0.8057772E-01
       -2   -1    0    0    0  501  0.00000000000E+00  0.00000000000E+00  0.14015208893E+04  0.14015208893E+04  0.25500000920E-02 0. -1.
        2   -1    0    0  501    0  0.00000000000E+00  0.00000000000E+00 -0.25035247539E+04  0.25035247539E+04  0.25500000920E-02 0.  1.
    10030    2    1    2    0    0  0.00000000000E+00  0.00000000000E+00 -0.11020038646E+04  0.39050456432E+04  0.37463273960E+04 0.  0.
        5    1    3    3  502    0 -0.13285833725E+04 -0.78947405329E+03  0.55229107823E+03  0.16411735385E+04  0.46999998093E+01 0. -1.
       -5    1    3    3    0  502  0.13285833725E+04  0.78947405329E+03 -0.16542949429E+04  0.22638721047E+04  0.46999998093E+01 0.  1.
</event>
<event>
 5   0  0.1151180E-06  0.3717708E+04  0.7818609E-02  0.8064049E-01
        2   -1    0    0  501    0  0.00000000000E+00  0.00000000000E+00  0.22201680662E+04  0.22201680662E+04  0.25500000920E-02 0. -1.
       -2   -1    0    0    0  501  0.00000000000E+00  0.00000000000E+00 -0.15563404570E+04  0.15563404570E+04  0.25500000920E-02 0.  1.
    10030    2    1    2    0    0  0.00000000000E+00  0.00000000000E+00  0.66382760918E+03  0.37765085232E+04  0.37177075640E+04 0.  0.
        5    1    3    3  502    0  0.15022155198E+04  0.53627443153E+02  0.14427303131E+04  0.20835115112E+04  0.46999998093E+01 0. -1.
       -5    1    3    3    0  502 -0.15022155198E+04 -0.53627443153E+02 -0.77890270394E+03  0.16929970121E+04  0.46999998093E+01 0.  1.
</event>
<event>
 5   0  0.1724503E-06  0.3891259E+04  0.7818609E-02  0.8026850E-01
        2   -1    0    0  501    0  0.00000000000E+00  0.00000000000E+00  0.27441266842E+04  0.27441266842E+04  0.25500000920E-02 0. -1.
       -2   -1    0    0    0  501  0.00000000000E+00  0.00000000000E+00 -0.13794822244E+04  0.13794822244E+04  0.25500000920E-02 0.  1.
    10030    2    1    2    0    0  0.00000000000E+00  0.00000000000E+00  0.13646444597E+04  0.41236089086E+04  0.38912589132E+04 0.  0.
        1    1    3    3  502    0 -0.40319902410E+02  0.19432116342E+04  0.58887020515E+03  0.20308779551E+04  0.50400001928E-02 0.  1.
       -1    1    3    3    0  502  0.40319902410E+02 -0.19432116342E+04  0.77577425458E+03  0.20927309535E+04  0.50400001928E-02 0. -1.
</event>
<event>
 5   0  0.1184684E-06  0.3704366E+04  0.7818609E-02  0.8066995E-01
       -2   -1    0    0    0  501  0.00000000000E+00  0.00000000000E+00  0.12278593903E+04  0.12278593903E+04  0.25500000920E-02 0.  1.
        2   -1    0    0  501    0  0.00000000000E+00  0.00000000000E+00 -0.27939535214E+04  0.27939535214E+04  0.25500000920E-02 0. -1.
    10030    2    1    2    0    0  0.00000000000E+00  0.00000000000E+00 -0.15660941311E+04  0.40218129117E+04  0.37043661089E+04 0.  0.
        4    1    3    3  502    0  0.78695729866E+03 -0.15728604869E+04 -0.15241923372E+03  0.17653399494E+04  0.12699999809E+01 0.  1.
       -4    1    3    3    0  502 -0.78695729866E+03  0.15728604869E+04 -0.14136748974E+04  0.22564729623E+04  0.12699999809E+01 0. -1.
</event>
<event>
 5   0  0.6186440E-07  0.3451302E+04  0.7818609E-02  0.8125429E-01
       -1   -1    0    0    0  501  0.00000000000E+00  0.00000000000E+00  0.12976491068E+04  0.12976491068E+04  0.50400001928E-02 0. -1.
        1   -1    0    0  501    0  0.00000000000E+00  0.00000000000E+00 -0.22948202758E+04  0.22948202758E+04  0.50400001928E-02 0.  1.
    10030    2    1    2    0    0  0.00000000000E+00  0.00000000000E+00 -0.99717116898E+03  0.35924693826E+04  0.34513020623E+04 0.  0.
        3    1    3    3  502    0  0.14440752589E+04 -0.10126800483E+03  0.47912229507E+03  0.15248497454E+04  0.10100000352E+00 0. -1.
       -3    1    3    3    0  502 -0.14440752589E+04  0.10126800483E+03 -0.14762934640E+04  0.20676196373E+04  0.10100000352E+00 0.  1.
</event>
<event>
 5   0  0.1685793E-06  0.3236407E+04  0.7818609E-02  0.8179268E-01
       -2   -1    0    0    0  501  0.00000000000E+00  0.00000000000E+00  0.10414414719E+04  0.10414414719E+04  0.25500000920E-02 0. -1.
        2   -1    0    0  501    0  0.00000000000E+00  0.00000000000E+00 -0.25143828604E+04  0.25143828604E+04  0.25500000920E-02 0.  1.
    10030    2    1    2    0    0  0.00000000000E+00  0.00000000000E+00 -0.14729413884E+04  0.35558243323E+04  0.32364070122E+04 0.  0.
        3    1    3    3  502    0  0.65811840493E+03 -0.14204487977E+04 -0.28642402202E+03  0.15914877795E+04  0.10100000352E+00 0. -1.
       -3    1    3    3    0  502 -0.65811840493E+03  0.14204487977E+04 -0.11865173664E+04  0.19643365528E+04  0.10100000352E+00 0.  1.
</event>
<event>
 5   0  0.1184684E-06  0.3508602E+04  0.7818609E-02  0.8111755E-01
       -2   -1    0    0    0  501  0.00000000000E+00  0.00000000000E+00  0.13714243532E+04  0.13714243532E+04  0.25500000920E-02 0. -1.
        2   -1    0    0  501    0  0.00000000000E+00  0.00000000000E+00 -0.22440692353E+04  0.22440692353E+04  0.25500000920E-02 0.  1.
    10030    2    1    2    0    0  0.00000000000E+00  0.00000000000E+00 -0.87264488213E+03  0.36154935885E+04  0.35086015445E+04 0.  0.
        4    1    3    3  502    0 -0.15977674230E+04  0.22485971997E+03 -0.11458839170E+04  0.19790083870E+04  0.12699999809E+01 0.  1.
       -4    1    3    3    0  502  0.15977674230E+04 -0.22485971997E+03  0.27323903485E+03  0.16364852015E+04  0.12699999809E+01 0. -1.
</event>
<event>
 5   0  0.1184684E-06  0.3652599E+04  0.7818609E-02  0.8078548E-01
       -2   -1    0    0    0  501  0.00000000000E+00  0.00000000000E+00  0.16446885867E+04  0.16446885867E+04  0.25500000920E-02 0.  1.
        2   -1    0    0  501    0  0.00000000000E+00  0.00000000000E+00 -0.20279646119E+04  0.20279646119E+04  0.25500000920E-02 0. -1.
    10030    2    1    2    0    0  0.00000000000E+00  0.00000000000E+00 -0.38327602522E+03  0.36726531986E+04  0.36525992123E+04 0.  0.
        4    1    3    3  502    0  0.14833256963E+04 -0.57177255581E+03 -0.10955674813E+04  0.19306601710E+04  0.12699999809E+01 0. -1.
       -4    1    3    3    0  502 -0.14833256963E+04  0.57177255581E+03  0.71229145609E+03  0.17419930276E+04  0.12699999809E+01 0.  1.
</event>
<event>
 5   0  0.5875011E-07  0.3649308E+04  0.7818609E-02  0.8079290E-01
       -1   -1    0    0    0  501  0.00000000000E+00  0.00000000000E+00  0.15089258712E+04  0.15089258712E+04  0.50400001928E-02 0. -1.
        1   -1    0    0  501    0  0.00000000000E+00  0.00000000000E+00 -0.22064448628E+04  0.22064448629E+04  0.50400001928E-02 0.  1.
    10030    2    1    2    0    0  0.00000000000E+00  0.00000000000E+00 -0.69751899165E+03  0.37153707341E+04  0.36493077354E+04 0.  0.
        2    1    3    3  502    0  0.89192739299E+03  0.15722722392E+04 -0.60182978787E+03  0.19051964628E+04  0.25500000920E-02 0.  1.
       -2    1    3    3    0  502 -0.89192739299E+03 -0.15722722392E+04 -0.95689203780E+02  0.18101742712E+04  0.25500000920E-02 0. -1.
</event>
<event>
 5   0  0.1724503E-06  0.1866590E+04  0.7818609E-02  0.8671668E-01
        2   -1    0    0  501    0  0.00000000000E+00  0.00000000000E+00  0.57723400518E+03  0.57723400519E+03  0.25500000920E-02 0. -1.
       -2   -1    0    0    0  501  0.00000000000E+00  0.00000000000E+00 -0.15089879188E+04  0.15089879188E+04  0.25500000920E-02 0.  1.
    10030    2    1    2    0    0  0.00000000000E+00  0.00000000000E+00 -0.93175391364E+03  0.20862219240E+04  0.18665895533E+04 0.  0.
        1    1    3    3  502    0 -0.41835231210E+03 -0.47962857990E+03  0.29706916893E+03  0.70236196000E+03  0.50400001928E-02 0. -1.
       -1    1    3    3    0  502  0.41835231210E+03  0.47962857990E+03 -0.12288230826E+04  0.13838599640E+04  0.50400001928E-02 0.  1.
</event>
<event>
 5   0  0.1685793E-06  0.3702867E+04  0.7818609E-02  0.8067327E-01
        2   -1    0    0  501    0  0.00000000000E+00  0.00000000000E+00  0.13149523427E+04  0.13149523427E+04  0.25500000920E-02 0. -1.
       -2   -1    0    0    0  501  0.00000000000E+00  0.00000000000E+00 -0.26067908437E+04  0.26067908437E+04  0.25500000920E-02 0.  1.
    10030    2    1    2    0    0  0.00000000000E+00  0.00000000000E+00 -0.12918385010E+04  0.39217431864E+04  0.37028668498E+04 0.  0.
        3    1    3    3  502    0  0.12281728591E+04  0.56746803039E+03 -0.19845006714E+04  0.24018058752E+04  0.10100000352E+00 0.  1.
       -3    1    3    3    0  502 -0.12281728591E+04 -0.56746803039E+03  0.69266217038E+03  0.15199373111E+04  0.10100000352E+00 0. -1.
</event>
<event>
 5   0  0.6261598E-07  0.3547606E+04  0.7818609E-02  0.8102600E-01
       -1   -1    0    0    0  501  0.00000000000E+00  0.00000000000E+00  0.21642251566E+04  0.21642251566E+04  0.50400001928E-02 0. -1.
        1   -1    0    0  501    0  0.00000000000E+00  0.00000000000E+00 -0.14538125161E+04  0.14538125161E+04  0.50400001928E-02 0.  1.
    10030    2    1    2    0    0  0.00000000000E+00  0.00000000000E+00  0.71041264045E+03  0.36180376727E+04  0.35476063031E+04 0.  0.
        1    1    3    3  502    0  0.14395933838E+04 -0.88118263980E+03 -0.20102583193E+03  0.16998009709E+04  0.50400001928E-02 0.  1.
       -1    1    3    3    0  502 -0.14395933838E+04  0.88118263980E+03  0.91143847237E+03  0.19182367019E+04  0.50400001928E-02 0. -1.
</event>
<event>
 5   0  0.6287345E-07  0.3715774E+04  0.7818609E-02  0.8064475E-01
        1   -1    0    0  501    0  0.00000000000E+00  0.00000000000E+00  0.24192801362E+04  0.24192801362E+04  0.50400001928E-02 0. -1.
       -1   -1    0    0    0  501  0.00000000000E+00  0.00000000000E+00 -0.14267653294E+04  0.14267653294E+04  0.50400001928E-02 0.  1.
    10030    2    1    2    0    0  0.00000000000E+00  0.00000000000E+00  0.99251480676E+03  0.38460454656E+04  0.37157744928E+04 0.  0.
        5    1    3    3  502    0  0.14878029159E+04  0.10484826732E+04  0.11056843121E+03  0.18234914040E+04  0.46999998093E+01 0. -1.
       -5    1    3    3    0  502 -0.14878029159E+04 -0.10484826732E+04  0.88194637556E+03  0.20225540616E+04  0.46999998093E+01 0.  1.
</event>
<event>
 5   0  0.5875011E-07  0.3688906E+04  0.7818609E-02  0.8070425E-01
        1   -1    0    0  501    0  0.00000000000E+00  0.00000000000E+00  0.25111501467E+04  0.25111501467E+04  0.50400001928E-02 0. -1.
       -1   -1    0    0    0  501  0.00000000000E+00  0.00000000000E+00 -0.13547606480E+04  0.13547606480E+04  0.50400001928E-02 0.  1.
    10030    2    1    2    0    0  0.00000000000E+00  0.00000000000E+00  0.11563894987E+04  0.38659107947E+04  0.36889062878E+04 0.  0.
        2    1    3    3  502    0  0.83317576567E+03 -0.15831552419E+04  0.10485570193E+04  0.20736523815E+04  0.25500000920E-02 0.  1.
       -2    1    3    3    0  502 -0.83317576567E+03  0.15831552419E+04  0.10783247942E+03  0.17922584133E+04  0.25500000920E-02 0. -1.
</event>
<event>
 5   0  0.1184684E-06  0.3123720E+04  0.7818609E-02  0.8209258E-01
       -2   -1    0    0    0  501  0.00000000000E+00  0.00000000000E+00  0.13176844379E+04  0.13176844379E+04  0.25500000920E-02 0.  1.
        2   -1    0    0  501    0  0.00000000000E+00  0.00000000000E+00 -0.18512825025E+04  0.18512825025E+04  0.25500000920E-02 0. -1.
    10030    2    1    2    0    0  0.00000000000E+00  0.00000000000E+00 -0.53359806457E+03  0.31689669404E+04  0.31237196697E+04 0.  0.
        4    1    3    3  502    0 -0.11923514507E+04  0.72579637782E+03 -0.97760649277E+03  0.17041708927E+04  0.12699999809E+01 0. -1.
       -4    1    3    3    0  502  0.11923514507E+04 -0.72579637782E+03  0.44400842820E+03  0.14647960476E+04  0.12699999809E+01 0.  1.
</event>
<event>
 5   0  0.6261598E-07  0.3595743E+04  0.7818609E-02  0.8091468E-01
        1   -1    0    0  501    0  0.00000000000E+00  0.00000000000E+00  0.25176981254E+04  0.25176981254E+04  0.50400001928E-02 0.  1.
       -1   -1    0    0    0  501  0.00000000000E+00  0.00000000000E+00 -0.12838480019E+04  0.12838480020E+04  0.50400001928E-02 0. -1.
    10030    2    1    2    0    0  0.00000000000E+00  0.00000000000E+00  0.12338501235E+04  0.38015461274E+04  0.35957428762E+04 0.  0.
        1    1    3    3  502    0 -0.14310760787E+04 -0.36332406832E+03 -0.46763475636E+03  0.15487625341E+04  0.50400001928E-02 0. -1.
       -1    1    3    3    0  502  0.14310760787E+04  0.36332406832E+03  0.17014848799E+04  0.22527835933E+04  0.50400001928E-02 0.  1.
</event>
<event>
 5   0  0.1151180E-06  0.3679224E+04  0.7818609E-02  0.8072582E-01
       -2   -1    0    0    0  501  0.00000000000E+00  0.00000000000E+00  0.26125227930E+04  0.26125227930E+04  0.25500000920E-02 0.  1.
        2   -1    0    0  501    0  0.00000000000E+00  0.00000000000E+00 -0.12953660066E+04  0.12953660066E+04  0.25500000920E-02 0. -1.
    10030    2    1    2    0    0  0.00000000000E+00  0.00000000000E+00  0.13171567864E+04  0.39078887996E+04  0.36792244930E+04 0.  0.
        5    1    3    3  502    0  0.26516590320E+03  0.38289444150E+03  0.25488565329E+04  0.25910640334E+04  0.46999998093E+01 0.  1.
       -5    1    3    3    0  502 -0.26516590320E+03 -0.38289444150E+03 -0.12316997465E+04  0.13168247662E+04  0.46999998093E+01 0. -1.
</event>
<event>
 5   0  0.1680194E-06  0.4325132E+04  0.7818609E-02  0.7941987E-01
        2   -1    0    0  501    0  0.00000000000E+00  0.00000000000E+00  0.27400786208E+04  0.27400786208E+04  0.25500000920E-02 0. -1.
       -2   -1    0    0    0  501  0.00000000000E+00  0.00000000000E+00 -0.17067728871E+04  0.17067728871E+04  0.25500000920E-02 0.  1.
    10030    2    1    2    0    0  0.00000000000E+00  0.00000000000E+00  0.10333057337E+04  0.44468515079E+04  0.43251320898E+04 0.  0.
        2    1    3    3  502    0  0.20267353504E+04 -0.67429474076E+03  0.86434489333E+03  0.23042182346E+04  0.25500000920E-02 0. -1.
       -2    1    3    3    0  502 -0.20267353504E+04  0.67429474076E+03  0.16896084040E+03  0.21426332733E+04  0.25500000920E-02 0.  1.
</event>
<event>
 5   0  0.1685793E-06  0.3614161E+04  0.7818609E-02  0.8087256E-01
       -2   -1    0    0    0  501  0.00000000000E+00  0.00000000000E+00  0.17223225740E+04  0.17223225740E+04  0.25500000920E-02 0.  1.
        2   -1    0    0  501    0  0.00000000000E+00  0.00000000000E+00 -0.18960092348E+04  0.18960092348E+04  0.25500000920E-02 0. -1.
    10030    2    1    2    0    0  0.00000000000E+00  0.00000000000E+00 -0.17368666077E+03  0.36183318088E+04  0.36141607632E+04 0.  0.
        3    1    3    3  502    0 -0.25050782551E+03  0.64451114207E+03 -0.17583181856E+04  0.18893998082E+04  0.10100000352E+00 0. -1.
       -3    1    3    3    0  502  0.25050782551E+03 -0.64451114207E+03  0.15846315249E+04  0.17289320006E+04  0.10100000352E+00 0.  1.
</event>
<event>
 5   0  0.6186440E-07  0.3794515E+04  0.7818609E-02  0.8047333E-01
        1   -1    0    0  501    0  0.00000000000E+00  0.00000000000E+00  0.12781419464E+04  0.12781419464E+04  0.50400001928E-02 0. -1.
       -1   -1    0    0    0  501  0.00000000000E+00  0.00000000000E+00 -0.28162650515E+04  0.28162650515E+04  0.50400001928E-02 0.  1.
    10030    2    1    2    0    0  0.00000000000E+00  0.00000000000E+00 -0.15381231051E+04  0.40944069979E+04  0.37945152494E+04 0.  0.
        3    1    3    3  502    0 -0.64132286824E+03  0.15780230900E+04  0.13251848365E+03  0.17085119411E+04  0.10100000352E+00 0. -1.
       -3    1    3    3    0  502  0.64132286824E+03 -0.15780230900E+04 -0.16706415888E+04  0.23858950569E+04  0.10100000352E+00 0.  1.
</event>
<event>
 5   0  0.5875011E-07  0.2033647E+04  0.7818609E-02  0.8591049E-01
       -1   -1    0    0    0  501  0.00000000000E+00  0.00000000000E+00  0.74038044515E+03  0.74038044517E+03  0.50400001928E-02 0. -1.
        1   -1    0    0  501    0  0.00000000000E+00  0.00000000000E+00 -0.13964848699E+04  0.13964848699E+04  0.50400001928E-02 0.  1.
    10030    2    1    2    0    0  0.00000000000E+00  0.00000000000E+00 -0.65610442471E+03  0.21368653150E+04  0.20336470585E+04 0.  0.
        2    1    3    3  502    0  0.54443098138E+03 -0.85746901724E+03 -0.37813567175E+03  0.10838103133E+04  0.25500000920E-02 0. -1.
       -2    1    3    3    0  502 -0.54443098138E+03  0.85746901724E+03 -0.27796875296E+03  0.10530550017E+04  0.25500000920E-02 0.  1.
</event>
<event>
 5   0  0.1685793E-06  0.2465190E+04  0.7818609E-02  0.8415493E-01
       -2   -1    0    0    0  501  0.00000000000E+00  0.00000000000E+00  0.11221061655E+04  0.11221061655E+04  0.25500000920E-02 0.  1.
        2   -1    0    0  501    0  0.00000000000E+00  0.00000000000E+00 -0.13539635022E+04  0.13539635022E+04  0.25500000920E-02 0. -1.
    10030    2    1    2    0    0  0.00000000000E+00  0.00000000000E+00 -0.23185733669E+03  0.24760696678E+04  0.24651902919E+04 0.  0.
        3    1    3    3  502    0 -0.46388922028E+03  0.31859164746E+03 -0.12173981228E+04  0.13411756209E+04  0.10100000352E+00 0. -1.
       -3    1    3    3    0  502  0.46388922028E+03 -0.31859164746E+03  0.98554078606E+03  0.11348940469E+04  0.10100000352E+00 0.  1.
</event>
<event>
 5   0  0.1406296E-06  0.1897452E+04  0.7818609E-02  0.8656126E-01
        2   -1    0    0  501    0  0.00000000000E+00  0.00000000000E+00  0.13091568960E+04  0.13091568960E+04  0.25500000920E-02 0.  1.
       -2   -1    0    0    0  501  0.00000000000E+00  0.00000000000E+00 -0.68752704003E+03  0.68752704004E+03  0.25500000920E-02 0. -1.
    10030    2    1    2    0    0  0.00000000000E+00  0.00000000000E+00  0.62162985595E+03  0.19966839360E+04  0.18974517287E+04 0.  0.
        5    1    3    3  502    0 -0.39064096335E+03 -0.13463882219E+03  0.12094861517E+04  0.12781262911E+04  0.46999998093E+01 0.  1.
       -5    1    3    3    0  502  0.39064096335E+03  0.13463882219E+03 -0.58785629576E+03  0.71855764498E+03  0.46999998093E+01 0. -1.
</event>
<event>
 5   0  0.1184684E-06  0.3919705E+04  0.7818609E-02  0.8020943E-01
       -2   -1    0    0    0  501  0.00000000000E+00  0.00000000000E+00  0.15557882128E+04  0.15557882128E+04  0.25500000920E-02 0.  1.
        2   -1    0    0  501    0  0.00000000000E+00  0.00000000000E+00 -0.24688596834E+04  0.24688596834E+04  0.25500000920E-02 0. -1.
    10030    2    1    2    0    0  0.00000000000E+00  0.00000000000E+00 -0.91307147065E+03  0.40246478962E+04  0.39197054963E+04 0.  0.
        4    1    3    3  502    0 -0.95773321937E+03 -0.93592660954E+03  0.10127939245E+04  0.16789772733E+04  0.12699999809E+01 0.  1.
       -4    1    3    3    0  502  0.95773321937E+03  0.93592660954E+03 -0.19258653951E+04  0.23456706229E+04  0.12699999809E+01 0. -1.
</event>
<event>
 5   0  0.6287345E-07  0.1827841E+04  0.7818609E-02  0.8691632E-01
        1   -1    0    0  501    0  0.00000000000E+00  0.00000000000E+00  0.15027501166E+04  0.15027501166E+04  0.50400001928E-02 0. -1.
       -1   -1    0    0    0  501  0.00000000000E+00  0.00000000000E+00 -0.55581485234E+03  0.55581485236E+03  0.50400001928E-02 0.  1.
    10030    2    1    2    0    0  0.00000000000E+00  0.00000000000E+00  0.94693526431E+03  0.20585649690E+04  0.18278411684E+04 0.  0.
        5    1    3    3  502    0  0.12797979103E+03 -0.53634863848E+03 -0.34735061653E+03  0.65170793283E+03  0.46999998093E+01 0.  1.
       -5    1    3    3    0  502 -0.12797979103E+03  0.53634863848E+03  0.12942858808E+04  0.14068570362E+04  0.46999998093E+01 0. -1.
</event>
<event>
 5   0  0.5875011E-07  0.3738913E+04  0.7818609E-02  0.8059393E-01
        1   -1    0    0  501    0  0.00000000000E+00  0.00000000000E+00  0.18549436976E+04  0.18549436976E+04  0.50400001928E-02 0.  1.
       -1   -1    0    0    0  501  0.00000000000E+00  0.00000000000E+00 -0.18840825722E+04  0.18840825722E+04  0.50400001928E-02 0. -1.
    10030    2    1    2    0    0  0.00000000000E+00  0.00000000000E+00 -0.29138874585E+02  0.37390262699E+04  0.37389127260E+04 0.  0.
        2    1    3    3  502    0  0.24188049357E+03 -0.18529257695E+04  0.40450527865E+02  0.18690843549E+04  0.25500000920E-02 0.  1.
       -2    1    3    3    0  502 -0.24188049357E+03  0.18529257695E+04 -0.69589402450E+02  0.18699419150E+04  0.25500000920E-02 0. -1.
</event>
<event>
 5   0  0.5679750E-07  0.2061999E+04  0.7818609E-02  0.8578171E-01
        1   -1    0    0  501    0  0.00000000000E+00  0.00000000000E+00  0.71722773620E+03  0.71722773622E+03  0.50400001928E-02 0.  1.
       -1   -1    0    0    0  501  0.00000000000E+00  0.00000000000E+00 -0.14820390742E+04  0.14820390742E+04  0.50400001928E-02 0. -1.
    10030    2    1    2    0    0  0.00000000000E+00  0.00000000000E+00 -0.76481133800E+03  0.21992668104E+04  0.20619985744E+04 0.  0.
        4    1    3    3  502    0 -0.46337045321E+03  0.15276786017E+03  0.58630089805E+03  0.76275851484E+03  0.12699999809E+01 0.  1.
       -4    1    3    3    0  502  0.46337045321E+03 -0.15276786017E+03 -0.13511122361E+04  0.14365082956E+04  0.12699999809E+01 0. -1.
</event>
<event>
 5   0  0.6186440E-07  0.3794030E+04  0.7818609E-02  0.8047437E-01
        1   -1    0    0  501    0  0.00000000000E+00  0.00000000000E+00  0.13153762872E+04  0.13153762873E+04  0.50400001928E-02 0. -1.
       -1   -1    0    0    0  501  0.00000000000E+00  0.00000000000E+00 -0.27358446928E+04  0.27358446928E+04  0.50400001928E-02 0.  1.
    10030    2    1    2    0    0  0.00000000000E+00  0.00000000000E+00 -0.14204684055E+04  0.40512209800E+04  0.37940296438E+04 0.  0.
        3    1    3    3  502    0 -0.18319922385E+04  0.35240781638E+03 -0.10774640071E+04  0.21543712605E+04  0.10100000352E+00 0. -1.
       -3    1    3    3    0  502  0.18319922385E+04 -0.35240781638E+03 -0.34300439842E+03  0.18968497196E+04  0.10100000352E+00 0.  1.
</event>
<event>
 5   0  0.6261598E-07  0.3862208E+04  0.7818609E-02  0.8032935E-01
        1   -1    0    0  501    0  0.00000000000E+00  0.00000000000E+00  0.17447865166E+04  0.17447865167E+04  0.50400001928E-02 0.  1.
       -1   -1    0    0    0  501  0.00000000000E+00  0.00000000000E+00 -0.21373175468E+04  0.21373175468E+04  0.50400001928E-02 0. -1.
    10030    2    1    2    0    0  0.00000000000E+00  0.00000000000E+00 -0.39253103016E+03  0.38821040635E+04  0.38622080925E+04 0.  0.
        1    1    3    3  502    0 -0.85959456388E+03  0.17264049371E+04 -0.29569941419E+03  0.19511060875E+04  0.50400001928E-02 0. -1.
       -1    1    3    3    0  502  0.85959456388E+03 -0.17264049371E+04 -0.96831615962E+02  0.19309979759E+04  0.50400001928E-02 0.  1.
</event>
<event>
 5   0  0.1680194E-06  0.2207618E+04  0.7818609E-02  0.8515264E-01
       -2   -1    0    0    0  501  0.00000000000E+00  0.00000000000E+00  0.61323352444E+03  0.61323352444E+03  0.25500000920E-02 0. -1.
        2   -1    0    0  501    0  0.00000000000E+00  0.00000000000E+00 -0.19868352182E+04  0.19868352182E+04  0.25500000920E-02 0.  1.
    10030    2    1    2    0    0  0.00000000000E+00  0.00000000000E+00 -0.13736016937E+04  0.26000687426E+04  0.22076176873E+04 0.  0.
        2    1    3    3  502    0 -0.88318650159E+03 -0.18325866399E+03  0.62535560784E+02  0.90416416147E+03  0.25500000920E-02 0. -1.
       -2    1    3    3    0  502  0.88318650159E+03  0.18325866399E+03 -0.14361372545E+04  0.16959045811E+04  0.25500000920E-02 0.  1.
</event>
<event>
 5   0  0.5875011E-07  0.3583981E+04  0.7818609E-02  0.8094171E-01
       -1   -1    0    0    0  501  0.00000000000E+00  0.00000000000E+00  0.12981004599E+04  0.12981004599E+04  0.50400001928E-02 0. -1.
        1   -1    0    0  501    0  0.00000000000E+00  0.00000000000E+00 -0.24737916400E+04  0.24737916400E+04  0.50400001928E-02 0.  1.
    10030    2    1    2    0    0  0.00000000000E+00  0.00000000000E+00 -0.11756911802E+04  0.37718920999E+04  0.35839810633E+04 0.  0.
        2    1    3    3  502    0 -0.10861402350E+03  0.14371399773E+04 -0.17086037376E+04  0.22352841101E+04  0.25500000920E-02 0.  1.
       -2    1    3    3    0  502  0.10861402350E+03 -0.14371399773E+04  0.53291255746E+03  0.15366079898E+04  0.25500000920E-02 0. -1.
</event>
<event>
 5   0  0.1685793E-06  0.2330613E+04  0.7818609E-02  0.8465948E-01
        2   -1    0    0  501    0  0.00000000000E+00  0.00000000000E+00  0.23499933969E+04  0.23499933969E+04  0.25500000920E-02 0. -1.
       -2   -1    0    0    0  501  0.00000000000E+00  0.00000000000E+00 -0.57784807863E+03  0.57784807864E+03  0.25500000920E-02 0.  1.
    10030    2    1    2    0    0  0.00000000000E+00  0.00000000000E+00  0.17721453182E+04  0.29278414755E+04  0.23306129401E+04 0.  0.
        3    1    3    3  502    0 -0.20464496842E+03  0.66992985426E+03  0.20559772829E+04  0.21720331882E+04  0.10100000352E+00 0. -1.
       -3    1    3    3    0  502  0.20464496842E+03 -0.66992985426E+03 -0.28383196467E+03  0.75580828727E+03  0.10100000352E+00 0.  1.
</event>
<event>
 5   0  0.6287345E-07  0.3898734E+04  0.7818609E-02  0.8025293E-01
       -1   -1    0    0    0  501  0.00000000000E+00  0.00000000000E+00  0.19825031073E+04  0.19825031073E+04  0.50400001928E-02 0. -1.
        1   -1    0    0  501    0  0.00000000000E+00  0.00000000000E+00 -0.19167843715E+04  0.19167843715E+04  0.50400001928E-02 0.  1.
    10030    2    1    2    0    0  0.00000000000E+00  0.00000000000E+00  0.65718735773E+02  0.38992874789E+04  0.38987336265E+04 0.  0.
        5    1    3    3  502    0 -0.10931964752E+04 -0.14636115345E+04  0.71322920622E+03  0.19611107179E+04  0.46999998093E+01 0. -1.
       -5    1    3    3    0  502  0.10931964752E+04  0.14636115345E+04 -0.64751047044E+03  0.19381767609E+04  0.46999998093E+01 0.  1.
</event>
<event>
 5   0  0.1184684E-06  0.2915400E+04  0.7818609E-02  0.8268310E-01
       -2   -1    0    0    0  501  0.00000000000E+00  0.00000000000E+00  0.22245678992E+04  0.22245678992E+04  0.25500000920E-02 0.  1.
        2   -1    0    0  501    0  0.00000000000E+00  0.00000000000E+00 -0.95519183913E+03  0.95519183913E+03  0.25500000920E-02 0. -1.
    10030    2    1    2    0    0  0.00000000000E+00  0.00000000000E+00  0.12693760601E+04  0.31797597384E+04  0.29153998717E+04 0.  0.
        4    1    3    3  502    0 -0.13365187319E+03 -0.76504416350E+03  0.19801309446E+04  0.21269874391E+04  0.12699999809E+01 0.  1.
       -4    1    3    3    0  502  0.13365187319E+03  0.76504416350E+03 -0.71075488453E+03  0.10527722993E+04  0.12699999809E+01 0. -1.
</event>
<event>
 5   0  0.5679750E-07  0.3361495E+04  0.7818609E-02  0.8147422E-01
        1   -1    0    0  501    0  0.00000000000E+00  0.00000000000E+00  0.18808689967E+04  0.18808689967E+04  0.50400001928E-02 0. -1.
       -1   -1    0    0    0  501  0.00000000000E+00  0.00000000000E+00 -0.15019185219E+04  0.15019185219E+04  0.50400001928E-02 0.  1.
    10030    2    1    2    0    0  0.00000000000E+00  0.00000000000E+00  0.37895047478E+03  0.33827875187E+04  0.33614948957E+04 0.  0.
        4    1    3    3  502    0 -0.11580124667E+04 -0.90321128947E+03  0.10120430862E+04  0.17835403914E+04  0.12699999809E+01 0. -1.
       -4    1    3    3    0  502  0.11580124667E+04  0.90321128947E+03 -0.63309261139E+03  0.15992471273E+04  0.12699999809E+01 0.  1.
</event>
<event>
 5   0  0.1685793E-06  0.3504703E+04  0.7818609E-02  0.8112676E-01
       -2   -1    0    0    0  501  0.00000000000E+00  0.00000000000E+00  0.14274036989E+04  0.14274036990E+04  0.25500000920E-02 0. -1.
        2   -1    0    0  501    0  0.00000000000E+00  0.00000000000E+00 -0.21512739285E+04  0.21512739285E+04  0.25500000920E-02 0.  1.
    10030    2    1    2    0    0  0.00000000000E+00  0.00000000000E+00 -0.72387022960E+03  0.35786776275E+04  0.35047033330E+04 0.  0.
        3    1    3    3  502    0 -0.46127792431E+03 -0.73449162291E+03 -0.19167299714E+04  0.21038319945E+04  0.10100000352E+00 0.  1.
       -3    1    3    3    0  502  0.46127792431E+03  0.73449162291E+03  0.11928597418E+04  0.14748456330E+04  0.10100000352E+00 0. -1.
</event>
<event>
 5   0  0.6287345E-07  0.1959360E+04  0.7818609E-02  0.8625861E-01
        1   -1    0    0  501    0  0.00000000000E+00  0.00000000000E+00  0.14963348359E+04  0.14963348359E+04  0.50400001928E-02 0. -1.
       -1   -1    0    0    0  501  0.00000000000E+00  0.00000000000E+00 -0.64141564254E+03  0.64141564256E+03  0.50400001928E-02 0.  1.
    10030    2    1    2    0    0  0.00000000000E+00  0.00000000000E+00  0.85491919332E+03  0.21377504784E+04  0.19593596609E+04 0.  0.
        5    1    3    3  502    0  0.40324326481E+03  0.21457769817E+03 -0.51810725696E+03  0.69072855658E+03  0.46999998093E+01 0.  1.
       -5    1    3    3    0  502 -0.40324326481E+03 -0.21457769817E+03  0.13730264503E+04  0.14470219218E+04  0.46999998093E+01 0. -1.
</event>
<event>
 5   0  0.1724503E-06  0.3698087E+04  0.7818609E-02  0.8068386E-01
        2   -1    0    0  501    0  0.00000000000E+00  0.00000000000E+00  0.18143908365E+04  0.18143908365E+04  0.25500000920E-02 0. -1.
       -2   -1    0    0    0  501  0.00000000000E+00  0.00000000000E+00 -0.18843575657E+04  0.18843575657E+04  0.25500000920E-02 0.  1.
    10030    2    1    2    0    0  0.00000000000E+00  0.00000000000E+00 -0.69966729129E+02  0.36987484022E+04  0.36980865863E+04 0.  0.
        1    1    3    3  502    0  0.99819896531E+03 -0.82541979178E+03  0.12848141123E+04  0.18244084823E+04  0.50400001928E-02 0. -1.
       -1    1    3    3    0  502 -0.99819896531E+03  0.82541979178E+03 -0.13547808415E+04  0.18743399199E+04  0.50400001928E-02 0.  1.
</event>
<event>
 5   0  0.1685793E-06  0.2434589E+04  0.7818609E-02  0.8426666E-01
        2   -1    0    0  501    0  0.00000000000E+00  0.00000000000E+00  0.11502669534E+04  0.11502669534E+04  0.25500000920E-02 0.  1.
       -2   -1    0    0    0  501  0.00000000000E+00  0.00000000000E+00 -0.12882282114E+04  0.12882282114E+04  0.25500000920E-02 0. -1.
    10030    2    1    2    0    0  0.00000000000E+00  0.00000000000E+00 -0.13796125799E+03  0.24384951648E+04  0.24345893617E+04 0.  0.
        3    1    3    3  502    0 -0.53009873891E+03  0.10306512960E+04 -0.44181370261E+03  0.12403411325E+04  0.10100000352E+00 0. -1.
       -3    1    3    3    0  502  0.53009873891E+03 -0.10306512960E+04  0.30385244462E+03  0.11981540323E+04  0.10100000352E+00 0.  1.
</event>
<event>
 5   0  0.5679750E-07  0.3648736E+04  0.7818609E-02  0.8079418E-01
       -1   -1    0    0    0  501  0.00000000000E+00  0.00000000000E+00  0.15921705672E+04  0.15921705673E+04  0.50400001928E-02 0.  1.
        1   -1    0    0  501    0  0.00000000000E+00  0.00000000000E+00 -0.20904284938E+04  0.20904284938E+04  0.50400001928E-02 0. -1.
    10030    2    1    2    0    0  0.00000000000E+00  0.00000000000E+00 -0.49825792658E+03  0.36825990611E+04  0.36487360666E+04 0.  0.
        4    1    3    3  502    0 -0.10439212418E+04 -0.88698090883E+03  0.96696446766E+03  0.16767613385E+04  0.12699999809E+01 0.  1.
       -4    1    3    3    0  502  0.10439212418E+04  0.88698090883E+03 -0.14652223942E+04  0.20058377226E+04  0.12699999809E+01 0. -1.
</event>
<event>
 5   0  0.1151180E-06  0.3669300E+04  0.7818609E-02  0.8074799E-01
        2   -1    0    0  501    0  0.00000000000E+00  0.00000000000E+00  0.17583930049E+04  0.17583930049E+04  0.25500000920E-02 0.  1.
       -2   -1    0    0    0  501  0.00000000000E+00  0.00000000000E+00 -0.19142145262E+04  0.19142145262E+04  0.25500000920E-02 0. -1.
    10030    2    1    2    0    0  0.00000000000E+00  0.00000000000E+00 -0.15582152132E+03  0.36726075311E+04  0.36693004417E+04 0.  0.
        5    1    3    3  502    0  0.43924143279E+03  0.15336271998E+04  0.82898198400E+03  0.17978260883E+04  0.46999998093E+01 0.  1.
       -5    1    3    3    0  502 -0.43924143279E+03 -0.15336271998E+04 -0.98480350533E+03  0.18747814428E+04  0.46999998093E+01 0. -1.
</event>
<event>
 5   0  0.1724503E-06  0.1862642E+04  0.7818609E-02  0.8673678E-01
       -2   -1    0    0    0  501  0.00000000000E+00  0.00000000000E+00  0.12045786897E+04  0.12045786897E+04  0.25500000920E-02 0.  1.
        2   -1    0    0  501    0  0.00000000000E+00  0.00000000000E+00 -0.72005192657E+03  0.72005192657E+03  0.25500000920E-02 0. -1.
    10030    2    1    2    0    0  0.00000000000E+00  0.00000000000E+00  0.48452676311E+03  0.19246306162E+04  0.18626424308E+04 0.  0.
        1    1    3    3  502    0 -0.16826951083E+02  0.60628268038E+03  0.97253513342E+03  0.11461616032E+04  0.50400001928E-02 0.  1.
       -1    1    3    3    0  502  0.16826951083E+02 -0.60628268038E+03 -0.48800837031E+03  0.77846901308E+03  0.50400001928E-02 0. -1.
</event>
<event>
 5   0  0.1724503E-06  0.3133584E+04  0.7818609E-02  0.8206581E-01
        2   -1    0    0  501    0  0.00000000000E+00  0.00000000000E+00  0.25085899746E+04  0.25085899746E+04  0.25500000920E-02 0. -1.
       -2   -1    0    0    0  501  0.00000000000E+00  0.00000000000E+00 -0.97857277891E+03  0.97857277891E+03  0.25500000920E-02 0.  1.
    10030    2    1    2    0    0  0.00000000000E+00  0.00000000000E+00  0.15300171957E+04  0.34871627535E+04  0.31335844412E+04 0.  0.
        1    1    3    3  502    0 -0.82260276911E+03 -0.12646709447E+04  0.12355285806E+04  0.19500253300E+04  0.50400001928E-02 0. -1.
       -1    1    3    3    0  502  0.82260276911E+03  0.12646709447E+04  0.29448861505E+03  0.15371374235E+04  0.50400001928E-02 0.  1.
</event>
<event>
 5   0  0.9908858E-07  0.1887476E+04  0.7818609E-02  0.8661115E-01
        1   -1    0    0  501    0  0.00000000000E+00  0.00000000000E+00  0.93847554976E+03  0.93847554977E+03  0.50400001928E-02 0.  1.
       -1   -1    0    0    0  501  0.00000000000E+00  0.00000000000E+00 -0.94903039791E+03  0.94903039793E+03  0.50400001928E-02 0. -1.
    10030    2    1    2    0    0  0.00000000000E+00  0.00000000000E+00 -0.10554848154E+02  0.18875059477E+04  0.18874764364E+04 0.  0.
        3    1    3    3  502    0  0.21703834309E+03  0.12662563629E+03  0.90440823420E+03  0.93866605267E+03  0.10100000352E+00 0.  1.
       -3    1    3    3    0  502 -0.21703834309E+03 -0.12662563629E+03 -0.91496308235E+03  0.94883989503E+03  0.10100000352E+00 0. -1.
</event>
<event>
 5   0  0.1685793E-06  0.2090352E+04  0.7818609E-02  0.8565505E-01
       -2   -1    0    0    0  501  0.00000000000E+00  0.00000000000E+00  0.73349151842E+03  0.73349151842E+03  0.25500000920E-02 0.  1.
        2   -1    0    0  501    0  0.00000000000E+00  0.00000000000E+00 -0.14893049339E+04  0.14893049339E+04  0.25500000920E-02 0. -1.
    10030    2    1    2    0    0  0.00000000000E+00  0.00000000000E+00 -0.75581341552E+03  0.22227964524E+04  0.20903516808E+04 0.  0.
        3    1    3    3  502    0 -0.92861688560E+03  0.17169528737E+03  0.98336078868E+02  0.94946226178E+03  0.10100000352E+00 0.  1.
       -3    1    3    3    0  502  0.92861688560E+03 -0.17169528737E+03 -0.85414949439E+03  0.12733341906E+04  0.10100000352E+00 0. -1.
</event>
<event>
 5   0  0.5875011E-07  0.2493886E+04  0.7818609E-02  0.8405167E-01
       -1   -1    0    0    0  501  0.00000000000E+00  0.00000000000E+00  0.59515863498E+03  0.59515863500E+03  0.50400001928E-02 0. -1.
        1   -1    0    0  501    0  0.00000000000E+00  0.00000000000E+00 -0.26125242715E+04  0.26125242715E+04  0.50400001928E-02 0.  1.
    10030    2    1    2    0    0  0.00000000000E+00  0.00000000000E+00 -0.20173656365E+04  0.32076829065E+04  0.24938856263E+04 0.  0.
        2    1    3    3  502    0  0.50090631973E+02  0.12441364646E+04 -0.10947900152E+04  0.16579957151E+04  0.25500000920E-02 0.  1.
       -2    1    3    3    0  502 -0.50090631973E+02 -0.12441364646E+04 -0.92257562131E+03  0.15496871914E+04  0.25500000920E-02 0. -1.
</event>
<event>
 5   0  0.5875011E-07  0.3659365E+04  0.7818609E-02  0.8077027E-01
       -1   -1    0    0    0  501  0.00000000000E+00  0.00000000000E+00  0.17397899249E+04  0.17397899250E+04  0.50400001928E-02 0.  1.
        1   -1    0    0  501    0  0.00000000000E+00  0.00000000000E+00 -0.19242201013E+04  0.19242201014E+04  0.50400001928E-02 0. -1.
    10030    2    1    2    0    0  0.00000000000E+00  0.00000000000E+00 -0.18443017640E+03  0.36640100263E+04  0.36593653798E+04 0.  0.
        2    1    3    3  502    0  0.46693180906E+03 -0.36406171080E+03  0.16412166665E+04  0.17447516700E+04  0.25500000920E-02 0.  1.
       -2    1    3    3    0  502 -0.46693180906E+03  0.36406171080E+03 -0.18256468429E+04  0.19192583563E+04  0.25500000920E-02 0. -1.
</event>
<event>
 5   0  0.1724503E-06  0.3485416E+04  0.7818609E-02  0.8117255E-01
        2   -1    0    0  501    0  0.00000000000E+00  0.00000000000E+00  0.18378412077E+04  0.18378412077E+04  0.25500000920E-02 0. -1.
       -2   -1    0    0    0  501  0.00000000000E+00  0.00000000000E+00 -0.16524988103E+04  0.16524988103E+04  0.25500000920E-02 0.  1.
    10030    2    1    2    0    0  0.00000000000E+00  0.00000000000E+00  0.18534239740E+03  0.34903400180E+04  0.34854155616E+04 0.  0.
        1    1    3    3  502    0  0.32697088080E+03  0.12618802001E+04  0.12509292493E+04  0.18066752843E+04  0.50400001928E-02 0. -1.
       -1    1    3    3    0  502 -0.32697088080E+03 -0.12618802001E+04 -0.10655868519E+04  0.16836647336E+04  0.50400001928E-02 0.  1.
</event>
<event>
 5   0  0.6261598E-07  0.2337841E+04  0.7818609E-02  0.8463148E-01
       -1   -1    0    0    0  501  0.00000000000E+00  0.00000000000E+00  0.15326317567E+04  0.15326317567E+04  0.50400001928E-02 0.  1.
        1   -1    0    0  501    0  0.00000000000E+00  0.00000000000E+00 -0.89152248190E+03  0.89152248191E+03  0.50400001928E-02 0. -1.
    10030    2    1    2    0    0  0.00000000000E+00  0.00000000000E+00  0.64110927478E+03  0.24241542386E+04  0.23378414553E+04 0.  0.
        1    1    3    3  502    0  0.44044004876E+03 -0.85573722201E+03 -0.36733993537E+03  0.10301515703E+04  0.50400001928E-02 0. -1.
       -1    1    3    3    0  502 -0.44044004876E+03  0.85573722201E+03  0.10084492102E+04  0.13940026683E+04  0.50400001928E-02 0.  1.
</event>
<event>
 5   0  0.5679750E-07  0.2966946E+04  0.7818609E-02  0.8253233E-01
        1   -1    0    0  501    0  0.00000000000E+00  0.00000000000E+00  0.16750396198E+04  0.16750396198E+04  0.50400001928E-02 0. -1.
       -1   -1    0    0    0  501  0.00000000000E+00  0.00000000000E+00 -0.13138152529E+04  0.13138152529E+04  0.50400001928E-02 0.  1.
    10030    2    1    2    0    0  0.00000000000E+00  0.00000000000E+00  0.36122436688E+03  0.29888548727E+04  0.29669463101E+04 0.  0.
        4    1    3    3  502    0 -0.15342318928E+03  0.81164408790E+03  0.14219393579E+04  0.16444506532E+04  0.12699999809E+01 0. -1.
       -4    1    3    3    0  502  0.15342318928E+03 -0.81164408790E+03 -0.10607149910E+04  0.13444042195E+04  0.12699999809E+01 0.  1.
</event>
<event>
 5   0  0.5875011E-07  0.3842197E+04  0.7818609E-02  0.8037160E-01
        1   -1    0    0  501    0  0.00000000000E+00  0.00000000000E+00  0.25705762348E+04  0.25705762348E+04  0.50400001928E-02 0.  1.
       -1   -1    0    0    0  501  0.00000000000E+00  0.00000000000E+00 -0.14357169586E+04  0.14357169586E+04  0.50400001928E-02 0. -1.
    10030    2    1    2    0    0  0.00000000000E+00  0.00000000000E+00  0.11348592762E+04  0.40062931934E+04  0.38421972326E+04 0.  0.
        2    1    3    3  502    0 -0.51821550557E+03 -0.72714565906E+03 -0.12061969579E+04  0.15007328946E+04  0.25500000920E-02 0. -1.
       -2    1    3    3    0  502  0.51821550557E+03  0.72714565906E+03  0.23410562341E+04  0.25055602988E+04  0.25500000920E-02 0.  1.
</event>
<event>
 5   0  0.1680194E-06  0.3157233E+04  0.7818609E-02  0.8200204E-01
       -2   -1    0    0    0  501  0.00000000000E+00  0.00000000000E+00  0.25800477982E+04  0.25800477982E+04  0.25500000920E-02 0.  1.
        2   -1    0    0  501    0  0.00000000000E+00  0.00000000000E+00 -0.96588510560E+03  0.96588510560E+03  0.25500000920E-02 0. -1.
    10030    2    1    2    0    0  0.00000000000E+00  0.00000000000E+00  0.16141626926E+04  0.35459329038E+04  0.31572328010E+04 0.  0.
        2    1    3    3  502    0 -0.39046293417E+03  0.79113214471E+03  0.22773224649E+04  0.24422426134E+04  0.25500000920E-02 0.  1.
       -2    1    3    3    0  502  0.39046293417E+03 -0.79113214471E+03 -0.66315977238E+03  0.11036902904E+04  0.25500000920E-02 0. -1.
</event>
<event>
 5   0  0.1680194E-06  0.3480495E+04  0.7818609E-02  0.8118428E-01
        2   -1    0    0  501    0  0.00000000000E+00  0.00000000000E+00  0.19000050322E+04  0.19000050322E+04  0.25500000920E-02 0. -1.
       -2   -1    0    0    0  501  0.00000000000E+00  0.00000000000E+00 -0.15939224627E+04  0.15939224627E+04  0.25500000920E-02 0.  1.
    10030    2    1    2    0    0  0.00000000000E+00  0.00000000000E+00  0.30608256957E+03  0.34939274949E+04  0.34804946201E+04 0.  0.
        2    1    3    3  502    0 -0.11444190588E+04  0.30041367916E+03  0.14341002351E+04  0.18591898357E+04  0.25500000920E-02 0. -1.
       -2    1    3    3    0  502  0.11444190588E+04 -0.30041367916E+03 -0.11280176655E+04  0.16347376592E+04  0.25500000920E-02 0.  1.
</event>
<event>
 5   0  0.1680194E-06  0.3778214E+04  0.7818609E-02  0.8050846E-01
       -2   -1    0    0    0  501  0.00000000000E+00  0.00000000000E+00  0.22568817889E+04  0.22568817889E+04  0.25500000920E-02 0.  1.
        2   -1    0    0  501    0  0.00000000000E+00  0.00000000000E+00 -0.15812633131E+04  0.15812633131E+04  0.25500000920E-02 0. -1.
    10030    2    1    2    0    0  0.00000000000E+00  0.00000000000E+00  0.67561847575E+03  0.38381451020E+04  0.37782135328E+04 0.  0.
        2    1    3    3  502    0 -0.15912726468E+04 -0.77048491531E+03 -0.33827656688E+03  0.18000629647E+04  0.25500000920E-02 0. -1.
       -2    1    3    3    0  502  0.15912726468E+04  0.77048491531E+03  0.10138950426E+04  0.20380821373E+04  0.25500000920E-02 0.  1.
</event>
<event>
 5   0  0.1151180E-06  0.3728734E+04  0.7818609E-02  0.8061624E-01
        2   -1    0    0  501    0  0.00000000000E+00  0.00000000000E+00  0.24629123666E+04  0.24629123666E+04  0.25500000920E-02 0.  1.
       -2   -1    0    0    0  501  0.00000000000E+00  0.00000000000E+00 -0.14112823016E+04  0.14112823016E+04  0.25500000920E-02 0. -1.
    10030    2    1    2    0    0  0.00000000000E+00  0.00000000000E+00  0.10516300651E+04  0.38741946682E+04  0.37287341731E+04 0.  0.
        5    1    3    3  502    0 -0.60123407469E+03 -0.14388677880E+04 -0.53581781199E+03  0.16489226003E+04  0.46999998093E+01 0. -1.
       -5    1    3    3    0  502  0.60123407469E+03  0.14388677880E+04  0.15874478770E+04  0.22252720679E+04  0.46999998093E+01 0.  1.
</event>
<event>
 5   0  0.5875011E-07  0.3627324E+04  0.7818609E-02  0.8084261E-01
       -1   -1    0    0    0  501  0.00000000000E+00  0.00000000000E+00  0.18312066580E+04  0.18312066580E+04  0.50400001928E-02 0.  1.
        1   -1    0    0  501    0  0.00000000000E+00  0.00000000000E+00 -0.17962853971E+04  0.17962853971E+04  0.50400001928E-02 0. -1.
    10030    2    1    2    0    0  0.00000000000E+00  0.00000000000E+00  0.34921260911E+02  0.36274920551E+04  0.36273239606E+04 0.  0.
        2    1    3    3  502    0 -0.13359617415E+04  0.82667593359E+03 -0.88877279194E+03  0.18050218696E+04  0.25500000920E-02 0. -1.
       -2    1    3    3    0  502  0.13359617415E+04 -0.82667593359E+03  0.92369405285E+03  0.18224701855E+04  0.25500000920E-02 0.  1.
</event>
<event>
 5   0  0.6261598E-07  0.3556202E+04  0.7818609E-02  0.8100599E-01
       -1   -1    0    0    0  501  0.00000000000E+00  0.00000000000E+00  0.19893155829E+04  0.19893155829E+04  0.50400001928E-02 0.  1.
        1   -1    0    0  501    0  0.00000000000E+00  0.00000000000E+00 -0.15893117698E+04  0.15893117698E+04  0.50400001928E-02 0. -1.
    10030    2    1    2    0    0  0.00000000000E+00  0.00000000000E+00  0.40000381315E+03  0.35786273527E+04  0.35562017208E+04 0.  0.
        1    1    3    3  502    0  0.85437089057E+03 -0.39078250416E+03  0.17191515113E+04  0.19591177869E+04  0.50400001928E-02 0.  1.
       -1    1    3    3    0  502 -0.85437089057E+03  0.39078250416E+03 -0.13191476981E+04  0.16195095658E+04  0.50400001928E-02 0. -1.
</event>
<event>
 5   0  0.1685793E-06  0.3602115E+04  0.7818609E-02  0.8090007E-01
       -2   -1    0    0    0  501  0.00000000000E+00  0.00000000000E+00  0.28890554845E+04  0.28890554845E+04  0.25500000920E-02 0.  1.
        2   -1    0    0  501    0  0.00000000000E+00  0.00000000000E+00 -0.11227917019E+04  0.11227917019E+04  0.25500000920E-02 0. -1.
    10030    2    1    2    0    0  0.00000000000E+00  0.00000000000E+00  0.17662637826E+04  0.40118471864E+04  0.36021146702E+04 0.  0.
        3    1    3    3  502    0 -0.77157744565E+03  0.15050499458E+04  0.15726671777E+04  0.23094997631E+04  0.10100000352E+00 0.  1.
       -3    1    3    3    0  502  0.77157744565E+03 -0.15050499458E+04  0.19359660498E+03  0.17023474233E+04  0.10100000352E+00 0. -1.
</event>
<event>
 5   0  0.5875011E-07  0.3393892E+04  0.7818609E-02  0.8139407E-01
       -1   -1    0    0    0  501  0.00000000000E+00  0.00000000000E+00  0.15179083609E+04  0.15179083609E+04  0.50400001928E-02 0.  1.
        1   -1    0    0  501    0  0.00000000000E+00  0.00000000000E+00 -0.18971011198E+04  0.18971011198E+04  0.50400001928E-02 0. -1.
    10030    2    1    2    0    0  0.00000000000E+00  0.00000000000E+00 -0.37919275894E+03  0.34150094807E+04  0.33938919554E+04 0.  0.
        2    1    3    3  502    0  0.14943188329E+02  0.80321989685E+03 -0.16936344426E+04  0.18745087695E+04  0.25500000920E-02 0. -1.
       -2    1    3    3    0  502 -0.14943188329E+02 -0.80321989685E+03  0.13144416837E+04  0.15405007112E+04  0.25500000920E-02 0.  1.
</event>
<event>
 5   0  0.1685793E-06  0.3655843E+04  0.7818609E-02  0.8077819E-01
        2   -1    0    0  501    0  0.00000000000E+00  0.00000000000E+00  0.20635651451E+04  0.20635651451E+04  0.25500000920E-02 0.  1.
       -2   -1    0    0    0  501  0.00000000000E+00  0.00000000000E+00 -0.16191862982E+04  0.16191862982E+04  0.25500000920E-02 0. -1.
    10030    2    1    2    0    0  0.00000000000E+00  0.00000000000E+00  0.44437884687E+03  0.36827514433E+04  0.36558426708E+04 0.  0.
        3    1    3    3  502    0 -0.11096778499E+04 -0.12295223073E+04 -0.55692844559E+03  0.17473635393E+04  0.10100000352E+00 0. -1.
       -3    1    3    3    0  502  0.11096778499E+04  0.12295223073E+04  0.10013072925E+04  0.19353879040E+04  0.10100000352E+00 0.  1.
</event>
<event>
 5   0  0.5875011E-07  0.3733715E+04  0.7818609E-02  0.8060531E-01
        1   -1    0    0  501    0  0.00000000000E+00  0.00000000000E+00  0.22172266813E+04  0.22172266813E+04  0.50400001928E-02 0.  1.
       -1   -1    0    0    0  501  0.00000000000E+00  0.00000000000E+00 -0.15718544587E+04  0.15718544587E+04  0.50400001928E-02 0. -1.
    10030    2    1    2    0    0  0.00000000000E+00  0.00000000000E+00  0.64537222260E+03  0.37890811400E+04  0.37337153855E+04 0.  0.
        2    1    3    3  502    0  0.89029961282E+03 -0.10789206575E+04 -0.93195336369E+03  0.16808451023E+04  0.25500000920E-02 0. -1.
       -2    1    3    3    0  502 -0.89029961282E+03  0.10789206575E+04  0.15773255863E+04  0.21082360378E+04  0.25500000920E-02 0.  1.
</event>
<event>
 5   0  0.6186440E-07  0.1872805E+04  0.7818609E-02  0.8668513E-01
        1   -1    0    0  501    0  0.00000000000E+00  0.00000000000E+00  0.15565287751E+04  0.15565287751E+04  0.50400001928E-02 0. -1.
       -1   -1    0    0    0  501  0.00000000000E+00  0.00000000000E+00 -0.56333673852E+03  0.56333673854E+03  0.50400001928E-02 0.  1.
    10030    2    1    2    0    0  0.00000000000E+00  0.00000000000E+00  0.99319203656E+03  0.21198655136E+04  0.18728052153E+04 0.  0.
        3    1    3    3  502    0 -0.40183953864E+03  0.78748833216E+03  0.84591197786E+03  0.12235930584E+04  0.10100000352E+00 0. -1.
       -3    1    3    3    0  502  0.40183953864E+03 -0.78748833216E+03  0.14728005869E+03  0.89627245522E+03  0.10100000352E+00 0.  1.
</event>
<event>
 5   0  0.6261598E-07  0.3638794E+04  0.7818609E-02  0.8081663E-01
        1   -1    0    0  501    0  0.00000000000E+00  0.00000000000E+00  0.21226711608E+04  0.21226711608E+04  0.50400001928E-02 0. -1.
       -1   -1    0    0    0  501  0.00000000000E+00  0.00000000000E+00 -0.15594530633E+04  0.15594530633E+04  0.50400001928E-02 0.  1.
    10030    2    1    2    0    0  0.00000000000E+00  0.00000000000E+00  0.56321809753E+03  0.36821242241E+04  0.36387943300E+04 0.  0.
        1    1    3    3  502    0 -0.10252760167E+04 -0.14837711292E+04  0.39092164906E+02  0.18039667047E+04  0.50400001928E-02 0.  1.
       -1    1    3    3    0  502  0.10252760167E+04  0.14837711292E+04  0.52412593263E+03  0.18781575194E+04  0.50400001928E-02 0. -1.
</event>
<event>
 5   0  0.5679750E-07  0.3761595E+04  0.7818609E-02  0.8054447E-01
        1   -1    0    0  501    0  0.00000000000E+00  0.00000000000E+00  0.20483186691E+04  0.20483186691E+04  0.50400001928E-02 0. -1.
       -1   -1    0    0    0  501  0.00000000000E+00  0.00000000000E+00 -0.17269770822E+04  0.17269770822E+04  0.50400001928E-02 0.  1.
    10030    2    1    2    0    0  0.00000000000E+00  0.00000000000E+00  0.32134158689E+03  0.37752957513E+04  0.37615950864E+04 0.  0.
        4    1    3    3  502    0  0.11475002129E+04  0.77188308486E+02  0.16542722278E+04  0.20147786455E+04  0.12699999809E+01 0. -1.
       -4    1    3    3    0  502 -0.11475002129E+04 -0.77188308486E+02 -0.13329306410E+04  0.17605171058E+04  0.12699999809E+01 0.  1.
</event>
<event>
 5   0  0.1184684E-06  0.3776959E+04  0.7818609E-02  0.8051118E-01
        2   -1    0    0  501    0  0.00000000000E+00  0.00000000000E+00  0.11999116077E+04  0.11999116077E+04  0.25500000920E-02 0. -1.
       -2   -1    0    0    0  501  0.00000000000E+00  0.00000000000E+00 -0.29721816939E+04  0.29721816939E+04  0.25500000920E-02 0.  1.
    10030    2    1    2    0    0  0.00000000000E+00  0.00000000000E+00 -0.17722700862E+04  0.41720933016E+04  0.37769592609E+04 0.  0.
        4    1    3    3  502    0 -0.63090908490E+03  0.13044979099E+03 -0.28470371656E+04  0.29190213526E+04  0.12699999809E+01 0.  1.
       -4    1    3    3    0  502  0.63090908490E+03 -0.13044979099E+03  0.10747670794E+04  0.12530719490E+04  0.12699999809E+01 0. -1.
</event>
<event>
 5   0  0.1680194E-06  0.3454299E+04  0.7818609E-02  0.8124707E-01
        2   -1    0    0  501    0  0.00000000000E+00  0.00000000000E+00  0.24921770964E+04  0.24921770964E+04  0.25500000920E-02 0.  1.
       -2   -1    0    0    0  501  0.00000000000E+00  0.00000000000E+00 -0.11969636327E+04  0.11969636327E+04  0.25500000920E-02 0. -1.
    10030    2    1    2    0    0  0.00000000000E+00  0.00000000000E+00  0.12952134637E+04  0.36891407292E+04  0.34542989742E+04 0.  0.
        2    1    3    3  502    0  0.71258341592E+03  0.20758727777E+03  0.23131769793E+04  0.24293322828E+04  0.25500000920E-02 0.  1.
       -2    1    3    3    0  502 -0.71258341592E+03 -0.20758727777E+03 -0.10179635156E+04  0.12598084464E+04  0.25500000920E-02 0. -1.
</event>
<event>
 5   0  0.6261598E-07  0.2904188E+04  0.7818609E-02  0.8271632E-01
        1   -1    0    0  501    0  0.00000000000E+00  0.00000000000E+00  0.14442758868E+04  0.14442758868E+04  0.50400001928E-02 0. -1.
       -1   -1    0    0    0  501  0.00000000000E+00  0.00000000000E+00 -0.14599548657E+04  0.14599548657E+04  0.50400001928E-02 0.  1.
    10030    2    1    2    0    0  0.00000000000E+00  0.00000000000E+00 -0.15678978933E+02  0.29042307525E+04  0.29041884294E+04 0.  0.
        1    1    3    3  502    0 -0.73221165813E+03 -0.12323372122E+04 -0.23976676096E+03  0.14533674747E+04  0.50400001928E-02 0. -1.
       -1    1    3    3    0  502  0.73221165813E+03  0.12323372122E+04  0.22408778202E+03  0.14508632778E+04  0.50400001928E-02 0.  1.
</event>
<event>
 5   0  0.1724503E-06  0.3530091E+04  0.7818609E-02  0.8106696E-01
        2   -1    0    0  501    0  0.00000000000E+00  0.00000000000E+00  0.27554934838E+04  0.27554934838E+04  0.25500000920E-02 0. -1.
       -2   -1    0    0    0  501  0.00000000000E+00  0.00000000000E+00 -0.11306090554E+04  0.11306090554E+04  0.25500000920E-02 0.  1.
    10030    2    1    2    0    0  0.00000000000E+00  0.00000000000E+00  0.16248844284E+04  0.38861025392E+04  0.35300911518E+04 0.  0.
        1    1    3    3  502    0  0.17144934673E+04 -0.75636944569E+02  0.35831358629E+03  0.17531678251E+04  0.50400001928E-02 0.  1.
       -1    1    3    3    0  502 -0.17144934673E+04  0.75636944569E+02  0.12665708421E+04  0.21329347141E+04  0.50400001928E-02 0. -1.
</event>
<event>
 5   0  0.5679750E-07  0.3640059E+04  0.7818609E-02  0.8081377E-01
       -1   -1    0    0    0  501  0.00000000000E+00  0.00000000000E+00  0.15835406281E+04  0.15835406281E+04  0.50400001928E-02 0.  1.
        1   -1    0    0  501    0  0.00000000000E+00  0.00000000000E+00 -0.20918361625E+04  0.20918361625E+04  0.50400001928E-02 0. -1.
    10030    2    1    2    0    0  0.00000000000E+00  0.00000000000E+00 -0.50829553438E+03  0.36753767906E+04  0.36400590933E+04 0.  0.
        4    1    3    3  502    0  0.11547366404E+04  0.13556186545E+03 -0.16679880816E+04  0.20332190195E+04  0.12699999809E+01 0. -1.
       -4    1    3    3    0  502 -0.11547366404E+04 -0.13556186545E+03  0.11596925472E+04  0.16421577711E+04  0.12699999809E+01 0.  1.
</event>
<event>
 5   0  0.5875011E-07  0.3470719E+04  0.7818609E-02  0.8120764E-01
       -1   -1    0    0    0  501  0.00000000000E+00  0.00000000000E+00  0.15003311858E+04  0.15003311858E+04  0.50400001928E-02 0. -1.
        1   -1    0    0  501    0  0.00000000000E+00  0.00000000000E+00 -0.20072052065E+04  0.20072052065E+04  0.50400001928E-02 0.  1.
    10030    2    1    2    0    0  0.00000000000E+00  0.00000000000E+00 -0.50687402068E+03  0.35075363923E+04  0.34707189846E+04 0.  0.
        2    1    3    3  502    0 -0.55685715213E+03  0.35993438698E+03 -0.18741415788E+04  0.19879761841E+04  0.25500000920E-02 0.  1.
       -2    1    3    3    0  502  0.55685715213E+03 -0.35993438698E+03  0.13672675582E+04  0.15195602082E+04  0.25500000920E-02 0. -1.
</event>
<event>
 5   0  0.6186440E-07  0.3563822E+04  0.7818609E-02  0.8098829E-01
        1   -1    0    0  501    0  0.00000000000E+00  0.00000000000E+00  0.25167757122E+04  0.25167757122E+04  0.50400001928E-02 0. -1.
       -1   -1    0    0    0  501  0.00000000000E+00  0.00000000000E+00 -0.12616166493E+04  0.12616166493E+04  0.50400001928E-02 0.  1.
    10030    2    1    2    0    0  0.00000000000E+00  0.00000000000E+00  0.12551590630E+04  0.37783923615E+04  0.35638216235E+04 0.  0.
        3    1    3    3  502    0 -0.13285711103E+04 -0.10377476269E+04  0.15604525302E+02  0.16859017894E+04  0.10100000352E+00 0.  1.
       -3    1    3    3    0  502  0.13285711103E+04  0.10377476269E+04  0.12395545377E+04  0.20924905721E+04  0.10100000352E+00 0. -1.
</event>
<event>
 5   0  0.1685793E-06  0.3593681E+04  0.7818609E-02  0.8091941E-01
       -2   -1    0    0    0  501  0.00000000000E+00  0.00000000000E+00  0.12150046767E+04  0.12150046767E+04  0.25500000920E-02 0.  1.
        2   -1    0    0  501    0  0.00000000000E+00  0.00000000000E+00 -0.26573036692E+04  0.26573036692E+04  0.25500000920E-02 0. -1.
    10030    2    1    2    0    0  0.00000000000E+00  0.00000000000E+00 -0.14422989925E+04  0.38723083459E+04  0.35936813357E+04 0.  0.
        3    1    3    3  502    0 -0.12243380816E+04  0.27653487256E+03 -0.21065902453E+04  0.24521822415E+04  0.10100000352E+00 0. -1.
       -3    1    3    3    0  502  0.12243380816E+04 -0.27653487256E+03  0.66429125274E+03  0.14201261044E+04  0.10100000352E+00 0.  1.
</event>
<event>
 5   0  0.5679750E-07  0.2192615E+04  0.7818609E-02  0.8521508E-01
        1   -1    0    0  501    0  0.00000000000E+00  0.00000000000E+00  0.11451214005E+04  0.11451214005E+04  0.50400001928E-02 0.  1.
       -1   -1    0    0    0  501  0.00000000000E+00  0.00000000000E+00 -0.10495739511E+04  0.10495739511E+04  0.50400001928E-02 0. -1.
    10030    2    1    2    0    0  0.00000000000E+00  0.00000000000E+00  0.95547449382E+02  0.21946953516E+04  0.21926145058E+04 0.  0.
        4    1    3    3  502    0  0.92912153535E+03 -0.39065005232E+03 -0.38392862630E+03  0.10785532411E+04  0.12699999809E+01 0.  1.
       -4    1    3    3    0  502 -0.92912153535E+03  0.39065005232E+03  0.47947607568E+03  0.11161421105E+04  0.12699999809E+01 0. -1.
</event>
<event>
 5   0  0.1724503E-06  0.2186182E+04  0.7818609E-02  0.8524202E-01
        2   -1    0    0  501    0  0.00000000000E+00  0.00000000000E+00  0.14045226860E+04  0.14045226860E+04  0.25500000920E-02 0. -1.
       -2   -1    0    0    0  501  0.00000000000E+00  0.00000000000E+00 -0.85071453519E+03  0.85071453519E+03  0.25500000920E-02 0.  1.
    10030    2    1    2    0    0  0.00000000000E+00  0.00000000000E+00  0.55380815084E+03  0.22552372212E+04  0.21861819357E+04 0.  0.
        1    1    3    3  502    0  0.85645110135E+03  0.13450406041E+03  0.96370257483E+03  0.12962725346E+04  0.50400001928E-02 0. -1.
       -1    1    3    3    0  502 -0.85645110135E+03 -0.13450406041E+03 -0.40989442400E+03  0.95896468659E+03  0.50400001928E-02 0.  1.
</event>
<event>
 5   0  0.5875011E-07  0.3323100E+04  0.7818609E-02  0.8157042E-01
       -1   -1    0    0    0  501  0.00000000000E+00  0.00000000000E+00  0.19841562730E+04  0.19841562730E+04  0.50400001928E-02 0.  1.
        1   -1    0    0  501    0  0.00000000000E+00  0.00000000000E+00 -0.13913969245E+04  0.13913969245E+04  0.50400001928E-02 0. -1.
    10030    2    1    2    0    0  0.00000000000E+00  0.00000000000E+00  0.59275934846E+03  0.33755531976E+04  0.33231003211E+04 0.  0.
        2    1    3    3  502    0  0.19807259342E+03 -0.15905331763E+04 -0.14839051013E+03  0.16096733460E+04  0.25500000920E-02 0. -1.
       -2    1    3    3    0  502 -0.19807259342E+03  0.15905331763E+04  0.74114985859E+03  0.17658798516E+04  0.25500000920E-02 0.  1.
</event>
<event>
 5   0  0.6186440E-07  0.3943037E+04  0.7818609E-02  0.8016137E-01
        1   -1    0    0  501    0  0.00000000000E+00  0.00000000000E+00  0.11433402102E+04  0.11433402102E+04  0.50400001928E-02 0.  1.
       -1   -1    0    0    0  501  0.00000000000E+00  0.00000000000E+00 -0.33995882115E+04  0.33995882115E+04  0.50400001928E-02 0. -1.
    10030    2    1    2    0    0  0.00000000000E+00  0.00000000000E+00 -0.22562480013E+04  0.45429284217E+04  0.39430373573E+04 0.  0.
        3    1    3    3  502    0 -0.13788946034E+04  0.13568308618E+04 -0.69009042223E+03  0.20539145834E+04  0.10100000352E+00 0. -1.
       -3    1    3    3    0  502  0.13788946034E+04 -0.13568308618E+04 -0.15661575791E+04  0.24890138383E+04  0.10100000352E+00 0.  1.
</event>
<event>
 5   0  0.5679750E-07  0.2053883E+04  0.7818609E-02  0.8581835E-01
        3   -1    0    0  501    0  0.00000000000E+00  0.00000000000E+00  0.77096734294E+03  0.77096734956E+03  0.10100000352E+00 0.  1.
       -3   -1    0    0    0  501  0.00000000000E+00  0.00000000000E+00 -0.13679039479E+04  0.13679039517E+04  0.10100000352E+00 0. -1.
    10030    2    1    2    0    0  0.00000000000E+00  0.00000000000E+00 -0.59693660498E+03  0.21388713012E+04  0.20538834273E+04 0.  0.
        1    1    3    3  502    0  0.67150833154E+03 -0.67799146599E+03  0.96725694006E+02  0.95914114039E+03  0.50400001928E-02 0.  1.
       -1    1    3    3    0  502 -0.67150833154E+03  0.67799146599E+03 -0.69366229899E+03  0.11797301608E+04  0.50400001928E-02 0. -1.
</event>
<event>
 5   0  0.6287345E-07  0.2389076E+04  0.7818609E-02  0.8443605E-01
        1   -1    0    0  501    0  0.00000000000E+00  0.00000000000E+00  0.15042270181E+04  0.15042270181E+04  0.50400001928E-02 0. -1.
       -1   -1    0    0    0  501  0.00000000000E+00  0.00000000000E+00 -0.94860748175E+03  0.94860748176E+03  0.50400001928E-02 0.  1.
    10030    2    1    2    0    0  0.00000000000E+00  0.00000000000E+00  0.55561953630E+03  0.24528344998E+04  0.23890759750E+04 0.  0.
        5    1    3    3  502    0  0.55851970860E+02  0.50474175320E+03  0.13878746675E+04  0.14778707192E+04  0.46999998093E+01 0. -1.
       -5    1    3    3    0  502 -0.55851970860E+02 -0.50474175320E+03 -0.83225513119E+03  0.97496378060E+03  0.46999998093E+01 0.  1.
</event>
<event>
 5   0  0.6287345E-07  0.3568375E+04  0.7818609E-02  0.8097774E-01
       -1   -1    0    0    0  501  0.00000000000E+00  0.00000000000E+00  0.16191543513E+04  0.16191543514E+04  0.50400001928E-02 0. -1.
        1   -1    0    0  501    0  0.00000000000E+00  0.00000000000E+00 -0.19660413925E+04  0.19660413925E+04  0.50400001928E-02 0.  1.
    10030    2    1    2    0    0  0.00000000000E+00  0.00000000000E+00 -0.34688704116E+03  0.35851957439E+04  0.35683746864E+04 0.  0.
        5    1    3    3  502    0  0.10112546251E+04 -0.14534175675E+04  0.47236680743E+02  0.17712458712E+04  0.46999998093E+01 0.  1.
       -5    1    3    3    0  502 -0.10112546251E+04  0.14534175675E+04 -0.39412372191E+03  0.18139498727E+04  0.46999998093E+01 0. -1.
</event>
<event>
 5   0  0.1151180E-06  0.3653557E+04  0.7818609E-02  0.8078333E-01
        2   -1    0    0  501    0  0.00000000000E+00  0.00000000000E+00  0.22960948992E+04  0.22960948992E+04  0.25500000920E-02 0. -1.
       -2   -1    0    0    0  501  0.00000000000E+00  0.00000000000E+00 -0.14533894084E+04  0.14533894084E+04  0.25500000920E-02 0.  1.
    10030    2    1    2    0    0  0.00000000000E+00  0.00000000000E+00  0.84270549083E+03  0.37494843076E+04  0.36535571747E+04 0.  0.
        5    1    3    3  502    0  0.32001282298E+03 -0.41557568161E+03 -0.13744443822E+04  0.14711324902E+04  0.46999998093E+01 0.  1.
       -5    1    3    3    0  502 -0.32001282298E+03  0.41557568161E+03  0.22171498730E+04  0.22783518173E+04  0.46999998093E+01 0. -1.
</event>
<event>
 5   0  0.6287345E-07  0.3729258E+04  0.7818609E-02  0.8061509E-01
       -1   -1    0    0    0  501  0.00000000000E+00  0.00000000000E+00  0.11502710563E+04  0.11502710563E+04  0.50400001928E-02 0.  1.
        1   -1    0    0  501    0  0.00000000000E+00  0.00000000000E+00 -0.30226273040E+04  0.30226273040E+04  0.50400001928E-02 0. -1.
    10030    2    1    2    0    0  0.00000000000E+00  0.00000000000E+00 -0.18723562477E+04  0.41728983603E+04  0.37292576750E+04 0.  0.
        5    1    3    3  502    0 -0.11754813065E+04  0.13988782049E+04 -0.13521583633E+04  0.22730971962E+04  0.46999998093E+01 0. -1.
       -5    1    3    3    0  502  0.11754813065E+04 -0.13988782049E+04 -0.52019788441E+03  0.18998011641E+04  0.46999998093E+01 0.  1.
</event>
<event>
 5   0  0.5875011E-07  0.3662810E+04  0.7818609E-02  0.8076254E-01
        1   -1    0    0  501    0  0.00000000000E+00  0.00000000000E+00  0.12396485316E+04  0.12396485316E+04  0.50400001928E-02 0.  1.
       -1   -1    0    0    0  501  0.00000000000E+00  0.00000000000E+00 -0.27056412314E+04  0.27056412314E+04  0.50400001928E-02 0. -1.
    10030    2    1    2    0    0  0.00000000000E+00  0.00000000000E+00 -0.14659926998E+04  0.39452897630E+04  0.36628099484E+04 0.  0.
        2    1    3    3  502    0  0.69211047028E+02  0.15157767567E+04 -0.18375969159E+04  0.23830929001E+04  0.25500000920E-02 0. -1.
       -2    1    3    3    0  502 -0.69211047028E+02 -0.15157767567E+04  0.37160421601E+03  0.15621968630E+04  0.25500000920E-02 0.  1.
</event>
<event>
 5   0  0.6287345E-07  0.3678952E+04  0.7818609E-02  0.8072642E-01
        1   -1    0    0  501    0  0.00000000000E+00  0.00000000000E+00  0.21418251728E+04  0.21418251728E+04  0.50400001928E-02 0. -1.
       -1   -1    0    0    0  501  0.00000000000E+00  0.00000000000E+00 -0.15798080097E+04  0.15798080097E+04  0.50400001928E-02 0.  1.
    10030    2    1    2    0    0  0.00000000000E+00  0.00000000000E+00  0.56201716312E+03  0.37216331826E+04  0.36789523310E+04 0.  0.
        5    1    3    3  502    0 -0.41158092928E+02 -0.77331569463E+03 -0.14068625576E+04  0.16059251222E+04  0.46999998093E+01 0.  1.
       -5    1    3    3    0  502  0.41158092928E+02  0.77331569463E+03  0.19688797207E+04  0.21157080604E+04  0.46999998093E+01 0. -1.
</event>
<event>
 5   0  0.6186440E-07  0.3682689E+04  0.7818609E-02  0.8071809E-01
       -1   -1    0    0    0  501  0.00000000000E+00  0.00000000000E+00  0.24033570782E+04  0.24033570782E+04  0.50400001928E-02 0. -1.
        1   -1    0    0  501    0  0.00000000000E+00  0.00000000000E+00 -0.14107560178E+04  0.14107560178E+04  0.50400001928E-02 0.  1.
    10030    2    1    2    0    0  0.00000000000E+00  0.00000000000E+00  0.99260106039E+03  0.38141130960E+04  0.36826894851E+04 0.  0.
        3    1    3    3  502    0 -0.52024102628E+03  0.16418565540E+04  0.11708553788E+04  0.20826055790E+04  0.10100000352E+00 0. -1.
       -3    1    3    3    0  502  0.52024102628E+03 -0.16418565540E+04 -0.17825431841E+03  0.17315075170E+04  0.10100000352E+00 0.  1.
</event>
<event>
 5   0  0.6287345E-07  0.3699794E+04  0.7818609E-02  0.8068008E-01
       -1   -1    0    0    0  501  0.00000000000E+00  0.00000000000E+00  0.26704417917E+04  0.26704417917E+04  0.50400001928E-02 0.  1.
        1   -1    0    0  501    0  0.00000000000E+00  0.00000000000E+00 -0.12814803603E+04  0.12814803603E+04  0.50400001928E-02 0. -1.
    10030    2    1    2    0    0  0.00000000000E+00  0.00000000000E+00  0.13889614313E+04  0.39519221520E+04  0.36997938913E+04 0.  0.
        5    1    3    3  502    0 -0.61228552584E+03 -0.14601172334E+04  0.17163686275E+04  0.23351186814E+04  0.46999998093E+01 0.  1.
       -5    1    3    3    0  502  0.61228552584E+03  0.14601172334E+04 -0.32740719619E+03  0.16168034706E+04  0.46999998093E+01 0. -1.
</event>
<event>
 5   0  0.5679750E-07  0.3635637E+04  0.7818609E-02  0.8082377E-01
       -3   -1    0    0    0  501  0.00000000000E+00  0.00000000000E+00  0.17595137105E+04  0.17595137134E+04  0.10100000352E+00 0. -1.
        3   -1    0    0  501    0  0.00000000000E+00  0.00000000000E+00 -0.18780556245E+04  0.18780556272E+04  0.10100000352E+00 0.  1.
    10030    2    1    2    0    0  0.00000000000E+00  0.00000000000E+00 -0.11854191408E+03  0.36375693406E+04  0.36356372925E+04 0.  0.
        4    1    3    3  502    0 -0.12656536992E+04  0.11537126827E+04  0.55058620614E+03  0.17989105102E+04  0.12699999809E+01 0.  1.
       -4    1    3    3    0  502  0.12656536992E+04 -0.11537126827E+04 -0.66912812021E+03  0.18386588304E+04  0.12699999809E+01 0. -1.
</event>
<event>
 5   0  0.1680194E-06  0.3489610E+04  0.7818609E-02  0.8116257E-01
       -2   -1    0    0    0  501  0.00000000000E+00  0.00000000000E+00  0.16867839425E+04  0.16867839425E+04  0.25500000920E-02 0. -1.
        2   -1    0    0  501    0  0.00000000000E+00  0.00000000000E+00 -0.18048219374E+04  0.18048219374E+04  0.25500000920E-02 0.  1.
    10030    2    1    2    0    0  0.00000000000E+00  0.00000000000E+00 -0.11803799486E+03  0.34916058799E+04  0.34896101003E+04 0.  0.
        2    1    3    3  502    0  0.92020695230E+03 -0.11354454233E+04 -0.10126262530E+04  0.17780407962E+04  0.25500000920E-02 0.  1.
       -2    1    3    3    0  502 -0.92020695230E+03  0.11354454233E+04  0.89458825818E+03  0.17135650837E+04  0.25500000920E-02 0. -1.
</event>
<event>
 5   0  0.5875011E-07  0.3206282E+04  0.7818609E-02  0.8187160E-01
        1   -1    0    0  501    0  0.00000000000E+00  0.00000000000E+00  0.13867245789E+04  0.13867245790E+04  0.50400001928E-02 0. -1.
       -1   -1    0    0    0  501  0.00000000000E+00  0.00000000000E+00 -0.18533325357E+04  0.18533325357E+04  0.50400001928E-02 0.  1.
    10030    2    1    2    0    0  0.00000000000E+00  0.00000000000E+00 -0.46660795674E+03  0.32400571146E+04  0.32062824456E+04 0.  0.
        2    1    3    3  502    0  0.14374991660E+03 -0.49407644490E+03 -0.17676146815E+04  0.18409881135E+04  0.25500000920E-02 0.  1.
       -2    1    3    3    0  502 -0.14374991660E+03  0.49407644490E+03  0.13010067248E+04  0.13990690011E+04  0.25500000920E-02 0. -1.
</event>
<event>
 5   0  0.5679750E-07  0.3563896E+04  0.7818609E-02  0.8098812E-01
       -1   -1    0    0    0  501  0.00000000000E+00  0.00000000000E+00  0.16757331656E+04  0.16757331656E+04  0.50400001928E-02 0.  1.
        1   -1    0    0  501    0  0.00000000000E+00  0.00000000000E+00 -0.18948953676E+04  0.18948953676E+04  0.50400001928E-02 0. -1.
    10030    2    1    2    0    0  0.00000000000E+00  0.00000000000E+00 -0.21916220201E+03  0.35706285333E+04  0.35638961898E+04 0.  0.
        4    1    3    3  502    0  0.47164806194E+03  0.11480093495E+04 -0.13906520921E+04  0.18639453358E+04  0.12699999809E+01 0. -1.
       -4    1    3    3    0  502 -0.47164806194E+03 -0.11480093495E+04  0.11714898901E+04  0.17066831974E+04  0.12699999809E+01 0.  1.
</event>
<event>
 5   0  0.5679750E-07  0.3606459E+04  0.7818609E-02  0.8089014E-01
        1   -1    0    0  501    0  0.00000000000E+00  0.00000000000E+00  0.16726357183E+04  0.16726357183E+04  0.50400001928E-02 0.  1.
       -1   -1    0    0    0  501  0.00000000000E+00  0.00000000000E+00 -0.19440197632E+04  0.19440197632E+04  0.50400001928E-02 0. -1.
    10030    2    1    2    0    0  0.00000000000E+00  0.00000000000E+00 -0.27138404497E+03  0.36166554815E+04  0.36064591461E+04 0.  0.
        4    1    3    3  502    0 -0.24556344026E+03 -0.13352065397E+04  0.10544900222E+04  0.17190196993E+04  0.12699999809E+01 0.  1.
       -4    1    3    3    0  502  0.24556344026E+03  0.13352065397E+04 -0.13258740672E+04  0.18976357822E+04  0.12699999809E+01 0. -1.
</event>
<event>
 5   0  0.6287345E-07  0.2816050E+04  0.7818609E-02  0.8298303E-01
       -1   -1    0    0    0  501  0.00000000000E+00  0.00000000000E+00  0.13904559562E+04  0.13904559562E+04  0.50400001928E-02 0.  1.
        1   -1    0    0  501    0  0.00000000000E+00  0.00000000000E+00 -0.14258158264E+04  0.14258158264E+04  0.50400001928E-02 0. -1.
    10030    2    1    2    0    0  0.00000000000E+00  0.00000000000E+00 -0.35359870121E+02  0.28162717826E+04  0.28160497924E+04 0.  0.
        5    1    3    3  502    0 -0.92710413351E+03  0.31863660800E+03  0.99307310429E+03  0.13954453206E+04  0.46999998093E+01 0.  1.
       -5    1    3    3    0  502  0.92710413351E+03 -0.31863660800E+03 -0.10284329744E+04  0.14208264620E+04  0.46999998093E+01 0. -1.
</event>
<event>
 5   0  0.1184684E-06  0.3649292E+04  0.7818609E-02  0.8079293E-01
        2   -1    0    0  501    0  0.00000000000E+00  0.00000000000E+00  0.20166162111E+04  0.20166162111E+04  0.25500000920E-02 0. -1.
       -2   -1    0    0    0  501  0.00000000000E+00  0.00000000000E+00 -0.16509502311E+04  0.16509502311E+04  0.25500000920E-02 0.  1.
    10030    2    1    2    0    0  0.00000000000E+00  0.00000000000E+00  0.36566598005E+03  0.36675664422E+04  0.36492919860E+04 0.  0.
        4    1    3    3  502    0 -0.87160877537E+03  0.81652557510E+03  0.15692029212E+04  0.19720079343E+04  0.12699999809E+01 0. -1.
       -4    1    3    3    0  502  0.87160877537E+03 -0.81652557510E+03 -0.12035369412E+04  0.16955585079E+04  0.12699999809E+01 0.  1.
</event>
<event>
 5   0  0.5679750E-07  0.3646575E+04  0.7818609E-02  0.8079906E-01
        1   -1    0    0  501    0  0.00000000000E+00  0.00000000000E+00  0.15106709993E+04  0.15106709993E+04  0.50400001928E-02 0.  1.
       -1   -1    0    0    0  501  0.00000000000E+00  0.00000000000E+00 -0.22005962765E+04  0.22005962765E+04  0.50400001928E-02 0. -1.
    10030    2    1    2    0    0  0.00000000000E+00  0.00000000000E+00 -0.68992527715E+03  0.37112672758E+04  0.36465748181E+04 0.  0.
        4    1    3    3  502    0 -0.11755463507E+04  0.11776419472E+04 -0.11035895092E+04  0.19966625143E+04  0.12699999809E+01 0. -1.
       -4    1    3    3    0  502  0.11755463507E+04 -0.11776419472E+04  0.41366423203E+03  0.17146047615E+04  0.12699999809E+01 0.  1.
</event>
<event>
 5   0  0.1184684E-06  0.3087247E+04  0.7818609E-02  0.8219247E-01
        2   -1    0    0  501    0  0.00000000000E+00  0.00000000000E+00  0.78550726809E+03  0.78550726810E+03  0.25500000920E-02 0. -1.
       -2   -1    0    0    0  501  0.00000000000E+00  0.00000000000E+00 -0.30334196557E+04  0.30334196557E+04  0.25500000920E-02 0.  1.
    10030    2    1    2    0    0  0.00000000000E+00  0.00000000000E+00 -0.22479123876E+04  0.38189269238E+04  0.30872467908E+04 0.  0.
        4    1    3    3  502    0 -0.91636500365E+03  0.35327313384E+03 -0.25971015714E+04  0.27765923201E+04  0.12699999809E+01 0.  1.
       -4    1    3    3    0  502  0.91636500365E+03 -0.35327313384E+03  0.34918918383E+03  0.10423346037E+04  0.12699999809E+01 0. -1.
</event>
<event>
 5   0  0.1724503E-06  0.2169633E+04  0.7818609E-02  0.8531175E-01
        2   -1    0    0  501    0  0.00000000000E+00  0.00000000000E+00  0.10126447866E+04  0.10126447866E+04  0.25500000920E-02 0.  1.
       -2   -1    0    0    0  501  0.00000000000E+00  0.00000000000E+00 -0.11621322194E+04  0.11621322194E+04  0.25500000920E-02 0. -1.
    10030    2    1    2    0    0  0.00000000000E+00  0.00000000000E+00 -0.14948743278E+03  0.21747770060E+04  0.21696332716E+04 0.  0.
        1    1    3    3  502    0 -0.77496685544E+03 -0.64520711698E+03  0.32615608307E+03  0.10598318930E+04  0.50400001928E-02 0. -1.
       -1    1    3    3    0  502  0.77496685544E+03  0.64520711698E+03 -0.47564351585E+03  0.11149451130E+04  0.50400001928E-02 0.  1.
</event>
<event>
 5   0  0.1184684E-06  0.3308453E+04  0.7818609E-02  0.8160748E-01
       -2   -1    0    0    0  501  0.00000000000E+00  0.00000000000E+00  0.16546376264E+04  0.16546376264E+04  0.25500000920E-02 0. -1.
        2   -1    0    0  501    0  0.00000000000E+00  0.00000000000E+00 -0.16538155528E+04  0.16538155528E+04  0.25500000920E-02 0.  1.
    10030    2    1    2    0    0  0.00000000000E+00  0.00000000000E+00  0.82207359691E+00  0.33084531791E+04  0.33084530770E+04 0.  0.
        4    1    3    3  502    0 -0.87467602981E+03  0.47544614668E+03 -0.13207084658E+04  0.16538983221E+04  0.12699999809E+01 0.  1.
       -4    1    3    3    0  502  0.87467602981E+03 -0.47544614668E+03  0.13215305394E+04  0.16545548570E+04  0.12699999809E+01 0. -1.
</event>
<event>
 5   0  0.1184684E-06  0.2515932E+04  0.7818609E-02  0.8397332E-01
        2   -1    0    0  501    0  0.00000000000E+00  0.00000000000E+00  0.96492852283E+03  0.96492852283E+03  0.25500000920E-02 0.  1.
       -2   -1    0    0    0  501  0.00000000000E+00  0.00000000000E+00 -0.16399950819E+04  0.16399950819E+04  0.25500000920E-02 0. -1.
    10030    2    1    2    0    0  0.00000000000E+00  0.00000000000E+00 -0.67506655905E+03  0.26049236047E+04  0.25159316619E+04 0.  0.
        4    1    3    3  502    0 -0.60634381853E+03 -0.62910065138E+02  0.80178267204E+03  0.10072078081E+04  0.12699999809E+01 0.  1.
       -4    1    3    3    0  502  0.60634381853E+03  0.62910065138E+02 -0.14768492311E+04  0.15977157966E+04  0.12699999809E+01 0. -1.
</event>
<event>
 5   0  0.5679750E-07  0.2640384E+04  0.7818609E-02  0.8354612E-01
        1   -1    0    0  501    0  0.00000000000E+00  0.00000000000E+00  0.17063786105E+04  0.17063786105E+04  0.50400001928E-02 0. -1.
       -1   -1    0    0    0  501  0.00000000000E+00  0.00000000000E+00 -0.10214069272E+04  0.10214069272E+04  0.50400001928E-02 0.  1.
    10030    2    1    2    0    0  0.00000000000E+00  0.00000000000E+00  0.68497168332E+03  0.27277855377E+04  0.26403840124E+04 0.  0.
        4    1    3    3  502    0  0.42247956083E+03  0.11300788869E+04 -0.21129725871E+03  0.12248328108E+04  0.12699999809E+01 0.  1.
       -4    1    3    3    0  502 -0.42247956083E+03 -0.11300788869E+04  0.89626894202E+03  0.15029527269E+04  0.12699999809E+01 0. -1.
</event>
<event>
 5   0  0.1724503E-06  0.3792932E+04  0.7818609E-02  0.8047673E-01
       -2   -1    0    0    0  501  0.00000000000E+00  0.00000000000E+00  0.16840557989E+04  0.16840557989E+04  0.25500000920E-02 0.  1.
        2   -1    0    0  501    0  0.00000000000E+00  0.00000000000E+00 -0.21356675984E+04  0.21356675984E+04  0.25500000920E-02 0. -1.
    10030    2    1    2    0    0  0.00000000000E+00  0.00000000000E+00 -0.45161179947E+03  0.38197233973E+04  0.37929320603E+04 0.  0.
        1    1    3    3  502    0  0.14279328578E+04  0.16181505676E+03 -0.14720472917E+04  0.20572067441E+04  0.50400001928E-02 0. -1.
       -1    1    3    3    0  502 -0.14279328578E+04 -0.16181505676E+03  0.10204354923E+04  0.17625166532E+04  0.50400001928E-02 0.  1.
</event>
<event>
 5   0  0.5679750E-07  0.3652736E+04  0.7818609E-02  0.8078518E-01
        1   -1    0    0  501    0  0.00000000000E+00  0.00000000000E+00  0.28443232470E+04  0.28443232470E+04  0.50400001928E-02 0.  1.
       -1   -1    0    0    0  501  0.00000000000E+00  0.00000000000E+00 -0.11727290317E+04  0.11727290317E+04  0.50400001928E-02 0. -1.
    10030    2    1    2    0    0  0.00000000000E+00  0.00000000000E+00  0.16715942153E+04  0.40170522788E+04  0.36527362059E+04 0.  0.
        4    1    3    3  502    0 -0.12624744789E+04 -0.10506022946E+04 -0.42625581117E+02  0.16429928619E+04  0.12699999809E+01 0. -1.
       -4    1    3    3    0  502  0.12624744789E+04  0.10506022946E+04  0.17142197964E+04  0.23740594168E+04  0.12699999809E+01 0.  1.
</event>
<event>
 5   0  0.5679750E-07  0.3055147E+04  0.7818609E-02  0.8228156E-01
       -3   -1    0    0    0  501  0.00000000000E+00  0.00000000000E+00  0.11119450164E+04  0.11119450210E+04  0.10100000352E+00 0. -1.
        3   -1    0    0  501    0  0.00000000000E+00  0.00000000000E+00 -0.20985572792E+04  0.20985572816E+04  0.10100000352E+00 0.  1.
    10030    2    1    2    0    0  0.00000000000E+00  0.00000000000E+00 -0.98661226280E+03  0.32105023026E+04  0.30551466868E+04 0.  0.
        5    1    3    3  502    0 -0.60361201219E+02 -0.79364662124E+03  0.87681097687E+03  0.11842035354E+04  0.46999998093E+01 0. -1.
       -5    1    3    3    0  502  0.60361201219E+02  0.79364662124E+03 -0.18634232397E+04  0.20262987672E+04  0.46999998093E+01 0.  1.
</event>
<event>
 5   0  0.6287345E-07  0.3651239E+04  0.7818609E-02  0.8078855E-01
       -1   -1    0    0    0  501  0.00000000000E+00  0.00000000000E+00  0.13786554377E+04  0.13786554377E+04  0.50400001928E-02 0.  1.
        1   -1    0    0  501    0  0.00000000000E+00  0.00000000000E+00 -0.24174908344E+04  0.24174908344E+04  0.50400001928E-02 0. -1.
    10030    2    1    2    0    0  0.00000000000E+00  0.00000000000E+00 -0.10388353967E+04  0.37961462721E+04  0.36512391784E+04 0.  0.
        5    1    3    3  502    0  0.11150696380E+04 -0.12278727531E+04  0.27362097289E+03  0.16810539320E+04  0.46999998093E+01 0.  1.
       -5    1    3    3    0  502 -0.11150696380E+04  0.12278727531E+04 -0.13124563696E+04  0.21150923402E+04  0.46999998093E+01 0. -1.
</event>
<event>
 5   0  0.1184684E-06  0.3386624E+04  0.7818609E-02  0.8141197E-01
        2   -1    0    0  501    0  0.00000000000E+00  0.00000000000E+00  0.29674494035E+04  0.29674494035E+04  0.25500000920E-02 0.  1.
       -2   -1    0    0    0  501  0.00000000000E+00  0.00000000000E+00 -0.96625229471E+03  0.96625229471E+03  0.25500000920E-02 0. -1.
    10030    2    1    2    0    0  0.00000000000E+00  0.00000000000E+00  0.20011971088E+04  0.39337016982E+04  0.33866235666E+04 0.  0.
        4    1    3    3  502    0  0.56976893137E+03  0.78302367137E+02 -0.84932997994E+03  0.10257343338E+04  0.12699999809E+01 0. -1.
       -4    1    3    3    0  502 -0.56976893137E+03 -0.78302367137E+02  0.28505270887E+04  0.29079673644E+04  0.12699999809E+01 0.  1.
</event>
<event>
 5   0  0.1680194E-06  0.3630223E+04  0.7818609E-02  0.8083604E-01
        2   -1    0    0  501    0  0.00000000000E+00  0.00000000000E+00  0.25014380295E+04  0.25014380295E+04  0.25500000920E-02 0. -1.
       -2   -1    0    0    0  501  0.00000000000E+00  0.00000000000E+00 -0.13170943112E+04  0.13170943112E+04  0.25500000920E-02 0.  1.
    10030    2    1    2    0    0  0.00000000000E+00  0.00000000000E+00  0.11843437183E+04  0.38185323408E+04  0.36302230227E+04 0.  0.
        2    1    3    3  502    0 -0.14131782926E+04 -0.97421548779E+03 -0.28754812422E+02  0.17166815496E+04  0.25500000920E-02 0. -1.
       -2    1    3    3    0  502  0.14131782926E+04  0.97421548779E+03  0.12130985307E+04  0.21018507912E+04  0.25500000920E-02 0.  1.
</event>
<event>
 5   0  0.1184684E-06  0.2713619E+04  0.7818609E-02  0.8330599E-01
        2   -1    0    0  501    0  0.00000000000E+00  0.00000000000E+00  0.14529422446E+04  0.14529422446E+04  0.25500000920E-02 0. -1.
       -2   -1    0    0    0  501  0.00000000000E+00  0.00000000000E+00 -0.12670376341E+04  0.12670376341E+04  0.25500000920E-02 0.  1.
    10030    2    1    2    0    0  0.00000000000E+00  0.00000000000E+00  0.18590461053E+03  0.27199798787E+04  0.27136193573E+04 0.  0.
        4    1    3    3  502    0  0.81538364001E+03  0.10536469159E+04 -0.16437612142E+03  0.13424021104E+04  0.12699999809E+01 0.  1.
       -4    1    3    3    0  502 -0.81538364001E+03 -0.10536469159E+04  0.35028073195E+03  0.13775777683E+04  0.12699999809E+01 0. -1.
</event>
<event>
 5   0  0.1724503E-06  0.3623144E+04  0.7818609E-02  0.8085211E-01
        2   -1    0    0  501    0  0.00000000000E+00  0.00000000000E+00  0.14831728577E+04  0.14831728577E+04  0.25500000920E-02 0.  1.
       -2   -1    0    0    0  501  0.00000000000E+00  0.00000000000E+00 -0.22126844579E+04  0.22126844579E+04  0.25500000920E-02 0. -1.
    10030    2    1    2    0    0  0.00000000000E+00  0.00000000000E+00 -0.72951160021E+03  0.36958573156E+04  0.36231442315E+04 0.  0.
        1    1    3    3  502    0 -0.65322410453E+03 -0.91897223563E+03  0.10816509837E+04  0.15624277747E+04  0.50400001928E-02 0.  1.
       -1    1    3    3    0  502  0.65322410453E+03  0.91897223563E+03 -0.18111625839E+04  0.21334295409E+04  0.50400001928E-02 0. -1.
</event>
<event>
 5   0  0.6287345E-07  0.2011947E+04  0.7818609E-02  0.8601055E-01
       -1   -1    0    0    0  501  0.00000000000E+00  0.00000000000E+00  0.76190660262E+03  0.76190660264E+03  0.50400001928E-02 0. -1.
        1   -1    0    0  501    0  0.00000000000E+00  0.00000000000E+00 -0.13282246365E+04  0.13282246365E+04  0.50400001928E-02 0.  1.
    10030    2    1    2    0    0  0.00000000000E+00  0.00000000000E+00 -0.56631803390E+03  0.20901312392E+04  0.20119474351E+04 0.  0.
        5    1    3    3  502    0 -0.55933097422E+03 -0.82696969092E+03 -0.41136888347E+03  0.10798038973E+04  0.46999998093E+01 0.  1.
       -5    1    3    3    0  502  0.55933097422E+03  0.82696969092E+03 -0.15494915043E+03  0.10103273418E+04  0.46999998093E+01 0. -1.
</event>
<event>
 5   0  0.1680194E-06  0.2214087E+04  0.7818609E-02  0.8512588E-01
        2   -1    0    0  501    0  0.00000000000E+00  0.00000000000E+00  0.10038833399E+04  0.10038833399E+04  0.25500000920E-02 0.  1.
       -2   -1    0    0    0  501  0.00000000000E+00  0.00000000000E+00 -0.12208040575E+04  0.12208040575E+04  0.25500000920E-02 0. -1.
    10030    2    1    2    0    0  0.00000000000E+00  0.00000000000E+00 -0.21692071753E+03  0.22246873974E+04  0.22140865879E+04 0.  0.
        2    1    3    3  502    0 -0.69198948775E+03  0.29430889661E+03  0.70788121860E+03  0.10327453691E+04  0.25500000920E-02 0.  1.
       -2    1    3    3    0  502  0.69198948775E+03 -0.29430889661E+03 -0.92480193613E+03  0.11919420283E+04  0.25500000920E-02 0. -1.
</event>
<event>
 5   0  0.1509208E-06  0.1925374E+04  0.7818609E-02  0.8642328E-01
        2   -1    0    0  501    0  0.00000000000E+00  0.00000000000E+00  0.98221781308E+03  0.98221781308E+03  0.25500000920E-02 0.  1.
       -2   -1    0    0    0  501  0.00000000000E+00  0.00000000000E+00 -0.94354441151E+03  0.94354441151E+03  0.25500000920E-02 0. -1.
    10030    2    1    2    0    0  0.00000000000E+00  0.00000000000E+00  0.38673401568E+02  0.19257622246E+04  0.19253738634E+04 0.  0.
        5    1    3    3  502    0  0.14411186186E+03  0.34291229877E+03 -0.86875397215E+03  0.94504636262E+03  0.46999998093E+01 0. -1.
       -5    1    3    3    0  502 -0.14411186186E+03 -0.34291229877E+03  0.90742737371E+03  0.98071586198E+03  0.46999998093E+01 0.  1.
</event>
<event>
 5   0  0.1151180E-06  0.3512186E+04  0.7818609E-02  0.8110908E-01
       -2   -1    0    0    0  501  0.00000000000E+00  0.00000000000E+00  0.14183050905E+04  0.14183050905E+04  0.25500000920E-02 0. -1.
        2   -1    0    0  501    0  0.00000000000E+00  0.00000000000E+00 -0.21743297425E+04  0.21743297425E+04  0.25500000920E-02 0.  1.
    10030    2    1    2    0    0  0.00000000000E+00  0.00000000000E+00 -0.75602465191E+03  0.35926348330E+04  0.35121861809E+04 0.  0.
        5    1    3    3  502    0  0.12098845345E+03  0.16142536348E+04  0.31830606738E+03  0.16497860000E+04  0.46999998093E+01 0. -1.
       -5    1    3    3    0  502 -0.12098845345E+03 -0.16142536348E+04 -0.10743307193E+04  0.19428488330E+04  0.46999998093E+01 0.  1.
</event>
<event>
 5   0  0.5875011E-07  0.3740565E+04  0.7818609E-02  0.8059031E-01
        1   -1    0    0  501    0  0.00000000000E+00  0.00000000000E+00  0.18409904320E+04  0.18409904320E+04  0.50400001928E-02 0. -1.
       -1   -1    0    0    0  501  0.00000000000E+00  0.00000000000E+00 -0.19000401899E+04  0.19000401899E+04  0.50400001928E-02 0.  1.
    10030    2    1    2    0    0  0.00000000000E+00  0.00000000000E+00 -0.59049757943E+02  0.37410306219E+04  0.37405645617E+04 0.  0.
        2    1    3    3  502    0  0.54500792378E+03  0.16502478199E+04 -0.72070020314E+03  0.18814250681E+04  0.25500000920E-02 0.  1.
       -2    1    3    3    0  502 -0.54500792378E+03 -0.16502478199E+04  0.66165044520E+03  0.18596055538E+04  0.25500000920E-02 0. -1.
</event>
<event>
 5   0  0.6186440E-07  0.2113840E+04  0.7818609E-02  0.8555171E-01
        1   -1    0    0  501    0  0.00000000000E+00  0.00000000000E+00  0.13912074386E+04  0.13912074386E+04  0.50400001928E-02 0. -1.
       -1   -1    0    0    0  501  0.00000000000E+00  0.00000000000E+00 -0.80295745331E+03  0.80295745333E+03  0.50400001928E-02 0.  1.
    10030    2    1    2    0    0  0.00000000000E+00  0.00000000000E+00  0.58824998524E+03  0.21941648919E+04  0.21138404688E+04 0.  0.
        3    1    3    3  502    0 -0.21705476820E+03 -0.64442729812E+02  0.13657378446E+04  0.13843791057E+04  0.10100000352E+00 0. -1.
       -3    1    3    3    0  502  0.21705476820E+03  0.64442729812E+02 -0.77748785939E+03  0.80978578620E+03  0.10100000352E+00 0.  1.
</event>
<event>
 5   0  0.6186440E-07  0.3789133E+04  0.7818609E-02  0.8048491E-01
       -1   -1    0    0    0  501  0.00000000000E+00  0.00000000000E+00  0.22288208826E+04  0.22288208826E+04  0.50400001928E-02 0. -1.
        1   -1    0    0  501    0  0.00000000000E+00  0.00000000000E+00 -0.16104401589E+04  0.16104401589E+04  0.50400001928E-02 0.  1.
    10030    2    1    2    0    0  0.00000000000E+00  0.00000000000E+00  0.61838072374E+03  0.38392610415E+04  0.37891332287E+04 0.  0.
        3    1    3    3  502    0 -0.11275722404E+04  0.41885640357E+03  0.17922905589E+04  0.21585099726E+04  0.10100000352E+00 0. -1.
       -3    1    3    3    0  502  0.11275722404E+04 -0.41885640357E+03 -0.11739098351E+04  0.16807510689E+04  0.10100000352E+00 0.  1.
</event>
<event>
 5   0  0.6287345E-07  0.3152597E+04  0.7818609E-02  0.8201450E-01
       -1   -1    0    0    0  501  0.00000000000E+00  0.00000000000E+00  0.14690856045E+04  0.14690856045E+04  0.50400001928E-02 0.  1.
        1   -1    0    0  501    0  0.00000000000E+00  0.00000000000E+00 -0.16913359259E+04  0.16913359259E+04  0.50400001928E-02 0. -1.
    10030    2    1    2    0    0  0.00000000000E+00  0.00000000000E+00 -0.22225032133E+03  0.31604215304E+04  0.31525971903E+04 0.  0.
        5    1    3    3  502    0  0.10001108743E+04  0.98711846600E+03  0.60483960449E+03  0.15298619755E+04  0.46999998093E+01 0.  1.
       -5    1    3    3    0  502 -0.10001108743E+04 -0.98711846600E+03 -0.82708992582E+03  0.16305595549E+04  0.46999998093E+01 0. -1.
</event>
<event>
 5   0  0.1685793E-06  0.3699376E+04  0.7818609E-02  0.8068100E-01
        2   -1    0    0  501    0  0.00000000000E+00  0.00000000000E+00  0.28027642737E+04  0.28027642737E+04  0.25500000920E-02 0.  1.
       -2   -1    0    0    0  501  0.00000000000E+00  0.00000000000E+00 -0.12207038220E+04  0.12207038220E+04  0.25500000920E-02 0. -1.
    10030    2    1    2    0    0  0.00000000000E+00  0.00000000000E+00  0.15820604516E+04  0.40234680957E+04  0.36993756560E+04 0.  0.
        3    1    3    3  502    0  0.15654177934E+04 -0.95477608592E+03  0.10556896072E+04  0.21158002739E+04  0.10100000352E+00 0. -1.
       -3    1    3    3    0  502 -0.15654177934E+04  0.95477608592E+03  0.52637084441E+03  0.19076678218E+04  0.10100000352E+00 0.  1.
</event>
<event>
 5   0  0.1724503E-06  0.3740282E+04  0.7818609E-02  0.8059093E-01
       -2   -1    0    0    0  501  0.00000000000E+00  0.00000000000E+00  0.16362033556E+04  0.16362033556E+04  0.25500000920E-02 0. -1.
        2   -1    0    0  501    0  0.00000000000E+00  0.00000000000E+00 -0.21375256560E+04  0.21375256560E+04  0.25500000920E-02 0.  1.
    10030    2    1    2    0    0  0.00000000000E+00  0.00000000000E+00 -0.50132230038E+03  0.37737290116E+04  0.37402816210E+04 0.  0.
        1    1    3    3  502    0 -0.40520744259E+03  0.16035561432E+04 -0.11313016543E+04  0.20038534899E+04  0.50400001928E-02 0.  1.
       -1    1    3    3    0  502  0.40520744259E+03 -0.16035561432E+04  0.62997935390E+03  0.17698755217E+04  0.50400001928E-02 0. -1.
</event>
<event>
 5   0  0.6186440E-07  0.2996552E+04  0.7818609E-02  0.8244716E-01
        1   -1    0    0  501    0  0.00000000000E+00  0.00000000000E+00  0.22352135216E+04  0.22352135216E+04  0.50400001928E-02 0. -1.
       -1   -1    0    0    0  501  0.00000000000E+00  0.00000000000E+00 -0.10043029549E+04  0.10043029549E+04  0.50400001928E-02 0.  1.
    10030    2    1    2    0    0  0.00000000000E+00  0.00000000000E+00  0.12309105667E+04  0.32395164766E+04  0.29965523821E+04 0.  0.
        3    1    3    3  502    0 -0.11885354195E+04  0.39943558104E+03 -0.27120684079E+03  0.12828555599E+04  0.10100000352E+00 0.  1.
       -3    1    3    3    0  502  0.11885354195E+04 -0.39943558104E+03  0.15021174075E+04  0.19566609167E+04  0.10100000352E+00 0. -1.
</event>
<event>
 5   0  0.1724503E-06  0.3637530E+04  0.7818609E-02  0.8081949E-01
       -2   -1    0    0    0  501  0.00000000000E+00  0.00000000000E+00  0.95897052418E+03  0.95897052418E+03  0.25500000920E-02 0. -1.
        2   -1    0    0  501    0  0.00000000000E+00  0.00000000000E+00 -0.34494352861E+04  0.34494352861E+04  0.25500000920E-02 0.  1.
    10030    2    1    2    0    0  0.00000000000E+00  0.00000000000E+00 -0.24904647619E+04  0.44084058103E+04  0.36375303514E+04 0.  0.
        1    1    3    3  502    0  0.29937279959E+03 -0.15523418994E+04 -0.15550063262E+03  0.15885747992E+04  0.50400001928E-02 0. -1.
       -1    1    3    3    0  502 -0.29937279959E+03  0.15523418994E+04 -0.23349641293E+04  0.28198310111E+04  0.50400001928E-02 0.  1.
</event>
<event>
 5   0  0.1151180E-06  0.2087602E+04  0.7818609E-02  0.8566725E-01
       -2   -1    0    0    0  501  0.00000000000E+00  0.00000000000E+00  0.99252593116E+03  0.99252593117E+03  0.25500000920E-02 0.  1.
        2   -1    0    0  501    0  0.00000000000E+00  0.00000000000E+00 -0.10977249691E+04  0.10977249691E+04  0.25500000920E-02 0. -1.
    10030    2    1    2    0    0  0.00000000000E+00  0.00000000000E+00 -0.10519903793E+03  0.20902509003E+04  0.20876019708E+04 0.  0.
        5    1    3    3  502    0  0.35498900532E+03  0.92610748979E+03  0.27309176556E+03  0.10287339204E+04  0.46999998093E+01 0.  1.
       -5    1    3    3    0  502 -0.35498900532E+03 -0.92610748979E+03 -0.37829080349E+03  0.10615169799E+04  0.46999998093E+01 0. -1.
</event>
<event>
 5   0  0.1724503E-06  0.2379335E+04  0.7818609E-02  0.8447281E-01
       -2   -1    0    0    0  501  0.00000000000E+00  0.00000000000E+00  0.82744259340E+03  0.82744259341E+03  0.25500000920E-02 0.  1.
        2   -1    0    0  501    0  0.00000000000E+00  0.00000000000E+00 -0.17104615191E+04  0.17104615191E+04  0.25500000920E-02 0. -1.
    10030    2    1    2    0    0  0.00000000000E+00  0.00000000000E+00 -0.88301892566E+03  0.25379041125E+04  0.23793349619E+04 0.  0.
        1    1    3    3  502    0  0.19043749627E+03  0.52354750533E+03  0.67970586745E+03  0.87884497870E+03  0.50400001928E-02 0.  1.
       -1    1    3    3    0  502 -0.19043749627E+03 -0.52354750533E+03 -0.15627247931E+04  0.16590591338E+04  0.50400001928E-02 0. -1.
</event>
<event>
 5   0  0.1184684E-06  0.2697980E+04  0.7818609E-02  0.8335661E-01
       -2   -1    0    0    0  501  0.00000000000E+00  0.00000000000E+00  0.88866408170E+03  0.88866408170E+03  0.25500000920E-02 0.  1.
        2   -1    0    0  501    0  0.00000000000E+00  0.00000000000E+00 -0.20477630653E+04  0.20477630653E+04  0.25500000920E-02 0. -1.
    10030    2    1    2    0    0  0.00000000000E+00  0.00000000000E+00 -0.11590989836E+04  0.29364271470E+04  0.26979796026E+04 0.  0.
        4    1    3    3  502    0 -0.82625533836E+03  0.42158738588E+02 -0.17392216814E+04  0.19259721995E+04  0.12699999809E+01 0. -1.
       -4    1    3    3    0  502  0.82625533836E+03 -0.42158738588E+02  0.58012269782E+03  0.10104549475E+04  0.12699999809E+01 0.  1.
</event>
<event>
 5   0  0.1685793E-06  0.3629548E+04  0.7818609E-02  0.8083757E-01
        2   -1    0    0  501    0  0.00000000000E+00  0.00000000000E+00  0.21299685026E+04  0.21299685026E+04  0.25500000920E-02 0.  1.
       -2   -1    0    0    0  501  0.00000000000E+00  0.00000000000E+00 -0.15462224243E+04  0.15462224243E+04  0.25500000920E-02 0. -1.
    10030    2    1    2    0    0  0.00000000000E+00  0.00000000000E+00  0.58374607824E+03  0.36761909269E+04  0.36295482153E+04 0.  0.
        3    1    3    3  502    0 -0.76463373483E+03 -0.14096111927E+02 -0.13750411530E+04  0.15734044717E+04  0.10100000352E+00 0.  1.
       -3    1    3    3    0  502  0.76463373483E+03  0.14096111927E+02  0.19587872313E+04  0.21027864552E+04  0.10100000352E+00 0. -1.
</event>
<event>
 5   0  0.5679750E-07  0.3881710E+04  0.7818609E-02  0.8028844E-01
       -3   -1    0    0    0  501  0.00000000000E+00  0.00000000000E+00  0.16477735006E+04  0.16477735037E+04  0.10100000352E+00 0.  1.
        3   -1    0    0  501    0  0.00000000000E+00  0.00000000000E+00 -0.22860659454E+04  0.22860659476E+04  0.10100000352E+00 0. -1.
    10030    2    1    2    0    0  0.00000000000E+00  0.00000000000E+00 -0.63829244478E+03  0.39338394513E+04  0.38817103941E+04 0.  0.
        2    1    3    3  502    0  0.59396711905E+03  0.16334830250E+04 -0.11943733124E+04  0.21089313268E+04  0.25500000920E-02 0. -1.
       -2    1    3    3    0  502 -0.59396711905E+03 -0.16334830250E+04  0.55608086762E+03  0.18249081245E+04  0.25500000920E-02 0.  1.
</event>
<event>
 5   0  0.5679750E-07  0.3526153E+04  0.7818609E-02  0.8107620E-01
        1   -1    0    0  501    0  0.00000000000E+00  0.00000000000E+00  0.22676737255E+04  0.22676737255E+04  0.50400001928E-02 0.  1.
       -1   -1    0    0    0  501  0.00000000000E+00  0.00000000000E+00 -0.13707613284E+04  0.13707613284E+04  0.50400001928E-02 0. -1.
    10030    2    1    2    0    0  0.00000000000E+00  0.00000000000E+00  0.89691239712E+03  0.36384350539E+04  0.35261533990E+04 0.  0.
        4    1    3    3  502    0  0.15428591398E+04 -0.85175095567E+03  0.50049851048E+03  0.18320465026E+04  0.12699999809E+01 0.  1.
       -4    1    3    3    0  502 -0.15428591398E+04  0.85175095567E+03  0.39641388664E+03  0.18063885513E+04  0.12699999809E+01 0. -1.
</event>
<event>
 5   0  0.6287345E-07  0.1968498E+04  0.7818609E-02  0.8621492E-01
        1   -1    0    0  501    0  0.00000000000E+00  0.00000000000E+00  0.15066132417E+04  0.15066132417E+04  0.50400001928E-02 0. -1.
       -1   -1    0    0    0  501  0.00000000000E+00  0.00000000000E+00 -0.64299594992E+03  0.64299594994E+03  0.50400001928E-02 0.  1.
    10030    2    1    2    0    0  0.00000000000E+00  0.00000000000E+00  0.86361729175E+03  0.21496091916E+04  0.19684981204E+04 0.  0.
        5    1    3    3  502    0  0.61788927934E+03 -0.22574008757E+03  0.12312712233E+04  0.13959930745E+04  0.46999998093E+01 0. -1.
       -5    1    3    3    0  502 -0.61788927934E+03  0.22574008757E+03 -0.36765393154E+03  0.75361611715E+03  0.46999998093E+01 0.  1.
</event>
<event>
 5   0  0.6287345E-07  0.3700730E+04  0.7818609E-02  0.8067800E-01
        1   -1    0    0  501    0  0.00000000000E+00  0.00000000000E+00  0.20917312493E+04  0.20917312493E+04  0.50400001928E-02 0.  1.
       -1   -1    0    0    0  501  0.00000000000E+00  0.00000000000E+00 -0.16368498482E+04  0.16368498482E+04  0.50400001928E-02 0. -1.
    10030    2    1    2    0    0  0.00000000000E+00  0.00000000000E+00  0.45488140112E+03  0.37285810975E+04  0.37007296458E+04 0.  0.
        5    1    3    3  502    0 -0.18103254324E+04 -0.38259761845E+03  0.21435142380E+03  0.18626936762E+04  0.46999998093E+01 0. -1.
       -5    1    3    3    0  502  0.18103254324E+04  0.38259761845E+03  0.24052997732E+03  0.18658874212E+04  0.46999998093E+01 0.  1.
</event>
<event>
 5   0  0.6261598E-07  0.3722123E+04  0.7818609E-02  0.8063077E-01
        1   -1    0    0  501    0  0.00000000000E+00  0.00000000000E+00  0.18969371428E+04  0.18969371428E+04  0.50400001928E-02 0. -1.
       -1   -1    0    0    0  501  0.00000000000E+00  0.00000000000E+00 -0.18258647306E+04  0.18258647306E+04  0.50400001928E-02 0.  1.
    10030    2    1    2    0    0  0.00000000000E+00  0.00000000000E+00  0.71072412202E+02  0.37228018734E+04  0.37221233860E+04 0.  0.
        1    1    3    3  502    0  0.11761789368E+04  0.37795180605E+03  0.14276613852E+04  0.18879781487E+04  0.50400001928E-02 0. -1.
       -1    1    3    3    0  502 -0.11761789368E+04 -0.37795180605E+03 -0.13565889730E+04  0.18348237247E+04  0.50400001928E-02 0.  1.
</event>
<event>
 5   0  0.6287345E-07  0.3670572E+04  0.7818609E-02  0.8074515E-01
       -1   -1    0    0    0  501  0.00000000000E+00  0.00000000000E+00  0.26334744314E+04  0.26334744314E+04  0.50400001928E-02 0. -1.
        1   -1    0    0  501    0  0.00000000000E+00  0.00000000000E+00 -0.12790229577E+04  0.12790229577E+04  0.50400001928E-02 0.  1.
    10030    2    1    2    0    0  0.00000000000E+00  0.00000000000E+00  0.13544514737E+04  0.39124973891E+04  0.36705717573E+04 0.  0.
        5    1    3    3  502    0 -0.14731784378E+03 -0.12013233194E+04 -0.79333229988E+03  0.14471622207E+04  0.46999998093E+01 0.  1.
       -5    1    3    3    0  502  0.14731784378E+03  0.12013233194E+04  0.21477837736E+04  0.24653351685E+04  0.46999998093E+01 0. -1.
</event>
<event>
 5   0  0.5875011E-07  0.3717193E+04  0.7818609E-02  0.8064162E-01
        1   -1    0    0  501    0  0.00000000000E+00  0.00000000000E+00  0.13498235038E+04  0.13498235038E+04  0.50400001928E-02 0.  1.
       -1   -1    0    0    0  501  0.00000000000E+00  0.00000000000E+00 -0.25591358331E+04  0.25591358331E+04  0.50400001928E-02 0. -1.
    10030    2    1    2    0    0  0.00000000000E+00  0.00000000000E+00 -0.12093123293E+04  0.39089593370E+04  0.37171934020E+04 0.  0.
        2    1    3    3  502    0 -0.26820867477E+03 -0.18225363580E+04 -0.34534400470E+03  0.18742564261E+04  0.25500000920E-02 0.  1.
       -2    1    3    3    0  502  0.26820867477E+03  0.18225363580E+04 -0.86396832460E+03  0.20347029108E+04  0.25500000920E-02 0. -1.
</event>
<event>
 5   0  0.6186440E-07  0.3678023E+04  0.7818609E-02  0.8072850E-01
       -1   -1    0    0    0  501  0.00000000000E+00  0.00000000000E+00  0.16692696682E+04  0.16692696682E+04  0.50400001928E-02 0.  1.
        1   -1    0    0  501    0  0.00000000000E+00  0.00000000000E+00 -0.20260136011E+04  0.20260136011E+04  0.50400001928E-02 0. -1.
    10030    2    1    2    0    0  0.00000000000E+00  0.00000000000E+00 -0.35674393293E+03  0.36952832694E+04  0.36780228666E+04 0.  0.
        3    1    3    3  502    0  0.12384120992E+03 -0.31443571022E+03  0.16378049843E+04  0.16723072798E+04  0.10100000352E+00 0.  1.
       -3    1    3    3    0  502 -0.12384120992E+03  0.31443571022E+03 -0.19945489172E+04  0.20229759896E+04  0.10100000352E+00 0. -1.
</event>
<event>
 5   0  0.1724503E-06  0.3745890E+04  0.7818609E-02  0.8057868E-01
       -2   -1    0    0    0  501  0.00000000000E+00  0.00000000000E+00  0.12290590398E+04  0.12290590398E+04  0.25500000920E-02 0. -1.
        2   -1    0    0  501    0  0.00000000000E+00  0.00000000000E+00 -0.28541527572E+04  0.28541527572E+04  0.25500000920E-02 0.  1.
    10030    2    1    2    0    0  0.00000000000E+00  0.00000000000E+00 -0.16250937174E+04  0.40832117970E+04  0.37458896124E+04 0.  0.
        1    1    3    3  502    0  0.12940783115E+04 -0.70101396169E+02 -0.22864837888E+04  0.26282239247E+04  0.50400001928E-02 0.  1.
       -1    1    3    3    0  502 -0.12940783115E+04  0.70101396169E+02  0.66139007133E+03  0.14549878723E+04  0.50400001928E-02 0. -1.
</event>
<event>
 5   0  0.1151180E-06  0.3740530E+04  0.7818609E-02  0.8059039E-01
       -2   -1    0    0    0  501  0.00000000000E+00  0.00000000000E+00  0.20259976410E+04  0.20259976410E+04  0.25500000920E-02 0. -1.
        2   -1    0    0  501    0  0.00000000000E+00  0.00000000000E+00 -0.17265030519E+04  0.17265030519E+04  0.25500000920E-02 0.  1.
    10030    2    1    2    0    0  0.00000000000E+00  0.00000000000E+00  0.29949458914E+03  0.37525006929E+04  0.37405299680E+04 0.  0.
        5    1    3    3  502    0  0.20565367885E+03 -0.73561461591E+03 -0.15628912059E+04  0.17395612407E+04  0.46999998093E+01 0.  1.
       -5    1    3    3    0  502 -0.20565367885E+03  0.73561461591E+03  0.18623857950E+04  0.20129394522E+04  0.46999998093E+01 0. -1.
</event>
<event>
 5   0  0.5875011E-07  0.3690519E+04  0.7818609E-02  0.8070066E-01
        1   -1    0    0  501    0  0.00000000000E+00  0.00000000000E+00  0.26091583305E+04  0.26091583305E+04  0.50400001928E-02 0. -1.
       -1   -1    0    0    0  501  0.00000000000E+00  0.00000000000E+00 -0.13050119028E+04  0.13050119028E+04  0.50400001928E-02 0.  1.
    10030    2    1    2    0    0  0.00000000000E+00  0.00000000000E+00  0.13041464277E+04  0.39141702333E+04  0.36905190299E+04 0.  0.
        2    1    3    3  502    0  0.31924409719E+03  0.16170299079E+04 -0.22782996472E+03  0.16639137626E+04  0.25500000920E-02 0.  1.
       -2    1    3    3    0  502 -0.31924409719E+03 -0.16170299079E+04  0.15319763924E+04  0.22502564706E+04  0.25500000920E-02 0. -1.
</event>
<event>
 5   0  0.6261598E-07  0.3521427E+04  0.7818609E-02  0.8108731E-01
        1   -1    0    0  501    0  0.00000000000E+00  0.00000000000E+00  0.13053527488E+04  0.13053527488E+04  0.50400001928E-02 0. -1.
       -1   -1    0    0    0  501  0.00000000000E+00  0.00000000000E+00 -0.23749233563E+04  0.23749233563E+04  0.50400001928E-02 0.  1.
    10030    2    1    2    0    0  0.00000000000E+00  0.00000000000E+00 -0.10695706075E+04  0.36802761051E+04  0.35214273989E+04 0.  0.
        1    1    3    3  502    0  0.13411378643E+04 -0.45147993041E+03 -0.16297225225E+04  0.21583513151E+04  0.50400001928E-02 0.  1.
       -1    1    3    3    0  502 -0.13411378643E+04  0.45147993041E+03  0.56015191497E+03  0.15219247901E+04  0.50400001928E-02 0. -1.
</event>
<event>
 5   0  0.5875011E-07  0.2353881E+04  0.7818609E-02  0.8456975E-01
       -1   -1    0    0    0  501  0.00000000000E+00  0.00000000000E+00  0.11579746850E+04  0.11579746850E+04  0.50400001928E-02 0.  1.
        1   -1    0    0  501    0  0.00000000000E+00  0.00000000000E+00 -0.11962165180E+04  0.11962165181E+04  0.50400001928E-02 0. -1.
    10030    2    1    2    0    0  0.00000000000E+00  0.00000000000E+00 -0.38241833044E+02  0.23541912031E+04  0.23538805796E+04 0.  0.
        2    1    3    3  502    0 -0.11651537441E+04  0.73728063480E+02 -0.16803438916E+03  0.11795145742E+04  0.25500000920E-02 0.  1.
       -2    1    3    3    0  502  0.11651537441E+04 -0.73728063480E+02  0.12979255612E+03  0.11746766289E+04  0.25500000920E-02 0. -1.
</event>
<event>
 5   0  0.1680194E-06  0.3595414E+04  0.7818609E-02  0.8091543E-01
       -2   -1    0    0    0  501  0.00000000000E+00  0.00000000000E+00  0.13303129075E+04  0.13303129075E+04  0.25500000920E-02 0. -1.
        2   -1    0    0  501    0  0.00000000000E+00  0.00000000000E+00 -0.24293154998E+04  0.24293154998E+04  0.25500000920E-02 0.  1.
    10030    2    1    2    0    0  0.00000000000E+00  0.00000000000E+00 -0.10990025923E+04  0.37596284073E+04  0.35954136151E+04 0.  0.
        2    1    3    3  502    0  0.13873703528E+04  0.92092805350E+03 -0.12578204182E+04  0.20868677917E+04  0.25500000920E-02 0.  1.
       -2    1    3    3    0  502 -0.13873703528E+04 -0.92092805350E+03  0.15881782594E+03  0.16727606157E+04  0.25500000920E-02 0. -1.
</event>
<event>
 5   0  0.1685793E-06  0.4142176E+04  0.7818609E-02  0.7976464E-01
       -2   -1    0    0    0  501  0.00000000000E+00  0.00000000000E+00  0.18708854220E+04  0.18708854220E+04  0.25500000920E-02 0.  1.
        2   -1    0    0  501    0  0.00000000000E+00  0.00000000000E+00 -0.22927140283E+04  0.22927140283E+04  0.25500000920E-02 0. -1.
    10030    2    1    2    0    0  0.00000000000E+00  0.00000000000E+00 -0.42182860632E+03  0.41635994503E+04  0.41421758786E+04 0.  0.
        3    1    3    3  502    0 -0.77310200578E+03  0.16896293225E+04  0.70862382147E+03  0.19886381494E+04  0.10100000352E+00 0.  1.
       -3    1    3    3    0  502  0.77310200578E+03 -0.16896293225E+04 -0.11304524278E+04  0.21749613009E+04  0.10100000352E+00 0. -1.
</event>
<event>
 5   0  0.1724503E-06  0.3693814E+04  0.7818609E-02  0.8069334E-01
        2   -1    0    0  501    0  0.00000000000E+00  0.00000000000E+00  0.23168825048E+04  0.23168825048E+04  0.25500000920E-02 0.  1.
       -2   -1    0    0    0  501  0.00000000000E+00  0.00000000000E+00 -0.14722653812E+04  0.14722653812E+04  0.25500000920E-02 0. -1.
    10030    2    1    2    0    0  0.00000000000E+00  0.00000000000E+00  0.84461712357E+03  0.37891478860E+04  0.36938142369E+04 0.  0.
        1    1    3    3  502    0  0.76386181432E+03  0.16312567555E+04  0.36296355299E+01  0.18012486358E+04  0.50400001928E-02 0. -1.
       -1    1    3    3    0  502 -0.76386181432E+03 -0.16312567555E+04  0.84098748804E+03  0.19878992502E+04  0.50400001928E-02 0.  1.
</event>
<event>
 5   0  0.1151180E-06  0.3875295E+04  0.7818609E-02  0.8030187E-01
        2   -1    0    0  501    0  0.00000000000E+00  0.00000000000E+00  0.26020464177E+04  0.26020464177E+04  0.25500000920E-02 0. -1.
       -2   -1    0    0    0  501  0.00000000000E+00  0.00000000000E+00 -0.14428940456E+04  0.14428940456E+04  0.25500000920E-02 0.  1.
    10030    2    1    2    0    0  0.00000000000E+00  0.00000000000E+00  0.11591523720E+04  0.40449404633E+04  0.38752947153E+04 0.  0.
        5    1    3    3  502    0 -0.10565371260E+04 -0.89248740152E+03  0.19960580964E+04  0.24283892758E+04  0.46999998093E+01 0. -1.
       -5    1    3    3    0  502  0.10565371260E+04  0.89248740152E+03 -0.83690572440E+03  0.16165511875E+04  0.46999998093E+01 0.  1.
</event>
<event>
 5   0  0.5875011E-07  0.1939981E+04  0.7818609E-02  0.8635207E-01
       -1   -1    0    0    0  501  0.00000000000E+00  0.00000000000E+00  0.83120303994E+03  0.83120303995E+03  0.50400001928E-02 0.  1.
        1   -1    0    0  501    0  0.00000000000E+00  0.00000000000E+00 -0.11319512384E+04  0.11319512384E+04  0.50400001928E-02 0. -1.
    10030    2    1    2    0    0  0.00000000000E+00  0.00000000000E+00 -0.30074819843E+03  0.19631542783E+04  0.19399807323E+04 0.  0.
        2    1    3    3  502    0  0.27375477396E+03 -0.91804106389E+03  0.35621625430E+01  0.95799465566E+03  0.25500000920E-02 0.  1.
       -2    1    3    3    0  502 -0.27375477396E+03  0.91804106389E+03 -0.30431036097E+03  0.10051596227E+04  0.25500000920E-02 0. -1.
</event>
<event>
 5   0  0.6261598E-07  0.3778458E+04  0.7818609E-02  0.8050794E-01
        1   -1    0    0  501    0  0.00000000000E+00  0.00000000000E+00  0.11711051563E+04  0.11711051563E+04  0.50400001928E-02 0. -1.
       -1   -1    0    0    0  501  0.00000000000E+00  0.00000000000E+00 -0.30477074092E+04  0.30477074092E+04  0.50400001928E-02 0.  1.
    10030    2    1    2    0    0  0.00000000000E+00  0.00000000000E+00 -0.18766022529E+04  0.42188125655E+04  0.37784578134E+04 0.  0.
        1    1    3    3  502    0  0.55354186838E+03 -0.17838219882E+04 -0.12555967372E+04  0.22505449678E+04  0.50400001928E-02 0. -1.
       -1    1    3    3    0  502 -0.55354186838E+03  0.17838219882E+04 -0.62100551576E+03  0.19682675977E+04  0.50400001928E-02 0.  1.
</event>
<event>
 5   0  0.6261598E-07  0.3278055E+04  0.7818609E-02  0.8168502E-01
        1   -1    0    0  501    0  0.00000000000E+00  0.00000000000E+00  0.13602711629E+04  0.13602711629E+04  0.50400001928E-02 0.  1.
       -1   -1    0    0    0  501  0.00000000000E+00  0.00000000000E+00 -0.19749083305E+04  0.19749083305E+04  0.50400001928E-02 0. -1.
    10030    2    1    2    0    0  0.00000000000E+00  0.00000000000E+00 -0.61463716757E+03  0.33351794934E+04  0.32780548204E+04 0.  0.
        1    1    3    3  502    0 -0.14526110219E+04  0.92181789638E+02 -0.10739982077E+04  0.18088804309E+04  0.50400001928E-02 0. -1.
       -1    1    3    3    0  502  0.14526110219E+04 -0.92181789638E+02  0.45936104009E+03  0.15262990625E+04  0.50400001928E-02 0.  1.
</event>
<event>
 5   0  0.6186440E-07  0.3346563E+04  0.7818609E-02  0.8151147E-01
       -1   -1    0    0    0  501  0.00000000000E+00  0.00000000000E+00  0.11368004864E+04  0.11368004864E+04  0.50400001928E-02 0.  1.
        1   -1    0    0  501    0  0.00000000000E+00  0.00000000000E+00 -0.24629403016E+04  0.24629403016E+04  0.50400001928E-02 0. -1.
    10030    2    1    2    0    0  0.00000000000E+00  0.00000000000E+00 -0.13261398152E+04  0.35997407880E+04  0.33465634510E+04 0.  0.
        3    1    3    3  502    0  0.11467191225E+04  0.27684168890E+03 -0.19395512148E+04  0.22701244441E+04  0.10100000352E+00 0. -1.
       -3    1    3    3    0  502 -0.11467191225E+04 -0.27684168890E+03  0.61341139960E+03  0.13296163439E+04  0.10100000352E+00 0.  1.
</event>
<event>
 5   0  0.1680194E-06  0.3728600E+04  0.7818609E-02  0.8061653E-01
        2   -1    0    0  501    0  0.00000000000E+00  0.00000000000E+00  0.24069593026E+04  0.24069593026E+04  0.25500000920E-02 0. -1.
       -2   -1    0    0    0  501  0.00000000000E+00  0.00000000000E+00 -0.14439859370E+04  0.14439859370E+04  0.25500000920E-02 0.  1.
    10030    2    1    2    0    0  0.00000000000E+00  0.00000000000E+00  0.96297336556E+03  0.38509452396E+04  0.37286004794E+04 0.  0.
        2    1    3    3  502    0  0.88299049659E+03  0.23877028785E+03 -0.11962955258E+04  0.15059237871E+04  0.25500000920E-02 0.  1.
       -2    1    3    3    0  502 -0.88299049659E+03 -0.23877028785E+03  0.21592688914E+04  0.23450214525E+04  0.25500000920E-02 0. -1.
</event>
<event>
 5   0  0.1685793E-06  0.3844371E+04  0.7818609E-02  0.8036699E-01
       -2   -1    0    0    0  501  0.00000000000E+00  0.00000000000E+00  0.15800729651E+04  0.15800729651E+04  0.25500000920E-02 0.  1.
        2   -1    0    0  501    0  0.00000000000E+00  0.00000000000E+00 -0.23383712472E+04  0.23383712472E+04  0.25500000920E-02 0. -1.
    10030    2    1    2    0    0  0.00000000000E+00  0.00000000000E+00 -0.75829828202E+03  0.39184442123E+04  0.38443710487E+04 0.  0.
        3    1    3    3  502    0  0.86393575899E+03  0.82171206040E+03 -0.19159136939E+04  0.22566171582E+04  0.10100000352E+00 0. -1.
       -3    1    3    3    0  502 -0.86393575899E+03 -0.82171206040E+03  0.11576154119E+04  0.16618270541E+04  0.10100000352E+00 0.  1.
</event>
<event>
 5   0  0.1685793E-06  0.3708953E+04  0.7818609E-02  0.8065981E-01
        2   -1    0    0  501    0  0.00000000000E+00  0.00000000000E+00  0.16019852202E+04  0.16019852202E+04  0.25500000920E-02 0.  1.
       -2   -1    0    0    0  501  0.00000000000E+00  0.00000000000E+00 -0.21467636997E+04  0.21467636997E+04  0.25500000920E-02 0. -1.
    10030    2    1    2    0    0  0.00000000000E+00  0.00000000000E+00 -0.54477847956E+03  0.37487489199E+04  0.37089533392E+04 0.  0.
        3    1    3    3  502    0 -0.96537142896E+03 -0.13687430708E+04 -0.10769732461E+04  0.19912988155E+04  0.10100000352E+00 0. -1.
       -3    1    3    3    0  502  0.96537142896E+03  0.13687430708E+04  0.53219476651E+03  0.17574501044E+04  0.10100000352E+00 0.  1.
</event>
<event>
 5   0  0.1151180E-06  0.3682244E+04  0.7818609E-02  0.8071908E-01
       -2   -1    0    0    0  501  0.00000000000E+00  0.00000000000E+00  0.15550683028E+04  0.15550683028E+04  0.25500000920E-02 0.  1.
        2   -1    0    0  501    0  0.00000000000E+00  0.00000000000E+00 -0.21797945526E+04  0.21797945526E+04  0.25500000920E-02 0. -1.
    10030    2    1    2    0    0  0.00000000000E+00  0.00000000000E+00 -0.62472624973E+03  0.37348628554E+04  0.36822435636E+04 0.  0.
        5    1    3    3  502    0  0.17047656373E+04  0.28389590600E+03 -0.95616533067E+03  0.19751194883E+04  0.46999998093E+01 0. -1.
       -5    1    3    3    0  502 -0.17047656373E+04 -0.28389590600E+03  0.33143908094E+03  0.17597433671E+04  0.46999998093E+01 0.  1.
</event>
<event>
 5   0  0.1184684E-06  0.3363858E+04  0.7818609E-02  0.8146834E-01
        2   -1    0    0  501    0  0.00000000000E+00  0.00000000000E+00  0.26118581813E+04  0.26118581813E+04  0.25500000920E-02 0. -1.
       -2   -1    0    0    0  501  0.00000000000E+00  0.00000000000E+00 -0.10830931468E+04  0.10830931468E+04  0.25500000920E-02 0.  1.
    10030    2    1    2    0    0  0.00000000000E+00  0.00000000000E+00  0.15287650345E+04  0.36949513281E+04  0.33638583184E+04 0.  0.
        4    1    3    3  502    0  0.14373477298E+04  0.61062306174E+03  0.78366925050E+02  0.15636406261E+04  0.12699999809E+01 0.  1.
       -4    1    3    3    0  502 -0.14373477298E+04 -0.61062306174E+03  0.14503981094E+04  0.21313107020E+04  0.12699999809E+01 0. -1.
</event>
<event>
 5   0  0.1724503E-06  0.3735715E+04  0.7818609E-02  0.8060093E-01
       -2   -1    0    0    0  501  0.00000000000E+00  0.00000000000E+00  0.18719805276E+04  0.18719805276E+04  0.25500000920E-02 0.  1.
        2   -1    0    0  501    0  0.00000000000E+00  0.00000000000E+00 -0.18637435087E+04  0.18637435087E+04  0.25500000920E-02 0. -1.
    10030    2    1    2    0    0  0.00000000000E+00  0.00000000000E+00  0.82370189334E+01  0.37357240363E+04  0.37357149553E+04 0.  0.
        1    1    3    3  502    0 -0.10866871322E+04  0.10400144986E+04 -0.11033012116E+04  0.18654202326E+04  0.50400001928E-02 0. -1.
       -1    1    3    3    0  502  0.10866871322E+04 -0.10400144986E+04  0.11115382305E+04  0.18703038038E+04  0.50400001928E-02 0.  1.
</event>
<event>
 5   0  0.1685793E-06  0.3662788E+04  0.7818609E-02  0.8076259E-01
       -2   -1    0    0    0  501  0.00000000000E+00  0.00000000000E+00  0.22172645899E+04  0.22172645899E+04  0.25500000920E-02 0.  1.
        2   -1    0    0  501    0  0.00000000000E+00  0.00000000000E+00 -0.15126763767E+04  0.15126763767E+04  0.25500000920E-02 0. -1.
    10030    2    1    2    0    0  0.00000000000E+00  0.00000000000E+00  0.70458821315E+03  0.37299409666E+04  0.36627878814E+04 0.  0.
        3    1    3    3  502    0  0.95940072644E+03 -0.15015028915E+04  0.78318661778E+03  0.19463663518E+04  0.10100000352E+00 0.  1.
       -3    1    3    3    0  502 -0.95940072644E+03  0.15015028915E+04 -0.78598404624E+02  0.17835746148E+04  0.10100000352E+00 0. -1.
</event>
<event>
 5   0  0.6287345E-07  0.1836410E+04  0.7818609E-02  0.8687173E-01
       -1   -1    0    0    0  501  0.00000000000E+00  0.00000000000E+00  0.18925424812E+04  0.18925424812E+04  0.50400001928E-02 0.  1.
        1   -1    0    0  501    0  0.00000000000E+00  0.00000000000E+00 -0.44548547747E+03  0.44548547750E+03  0.50400001928E-02 0. -1.
    10030    2    1    2    0    0  0.00000000000E+00  0.00000000000E+00  0.14470570037E+04  0.23380279587E+04  0.18364097483E+04 0.  0.
        5    1    3    3  502    0 -0.16992011410E+03 -0.13602710592E+03 -0.41214973506E+03  0.46611770277E+03  0.46999998093E+01 0. -1.
       -5    1    3    3    0  502  0.16992011410E+03  0.13602710592E+03  0.18592067388E+04  0.18719102559E+04  0.46999998093E+01 0.  1.
</event>
<event>
 5   0  0.1724503E-06  0.3601449E+04  0.7818609E-02  0.8090160E-01
        2   -1    0    0  501    0  0.00000000000E+00  0.00000000000E+00  0.25685949139E+04  0.25685949139E+04  0.25500000920E-02 0.  1.
       -2   -1    0    0    0  501  0.00000000000E+00  0.00000000000E+00 -0.12624058573E+04  0.12624058573E+04  0.25500000920E-02 0. -1.
    10030    2    1    2    0    0  0.00000000000E+00  0.00000000000E+00  0.13061890566E+04  0.38310007712E+04  0.36014492995E+04 0.  0.
        1    1    3    3  502    0 -0.47850354026E+03 -0.12041381254E+04  0.19832761957E+04  0.23690290694E+04  0.50400001928E-02 0.  1.
       -1    1    3    3    0  502  0.47850354026E+03  0.12041381254E+04 -0.67708713906E+03  0.14619717018E+04  0.50400001928E-02 0. -1.
</event>
<event>
 5   0  0.1151180E-06  0.2627540E+04  0.7818609E-02  0.8358906E-01
        2   -1    0    0  501    0  0.00000000000E+00  0.00000000000E+00  0.19411986539E+04  0.19411986539E+04  0.25500000920E-02 0.  1.
       -2   -1    0    0    0  501  0.00000000000E+00  0.00000000000E+00 -0.88913682870E+03  0.88913682871E+03  0.25500000920E-02 0. -1.
    10030    2    1    2    0    0  0.00000000000E+00  0.00000000000E+00  0.10520618252E+04  0.28303354827E+04  0.26275396972E+04 0.  0.
        5    1    3    3  502    0  0.10398871364E+04 -0.66133662397E+03  0.10163999630E+04  0.15974424439E+04  0.46999998093E+01 0.  1.
       -5    1    3    3    0  502 -0.10398871364E+04  0.66133662397E+03  0.35661862229E+02  0.12328930388E+04  0.46999998093E+01 0. -1.
</event>
<event>
 5   0  0.6261598E-07  0.2333525E+04  0.7818609E-02  0.8464819E-01
        1   -1    0    0  501    0  0.00000000000E+00  0.00000000000E+00  0.14173525006E+04  0.14173525006E+04  0.50400001928E-02 0. -1.
       -1   -1    0    0    0  501  0.00000000000E+00  0.00000000000E+00 -0.96047734749E+03  0.96047734750E+03  0.50400001928E-02 0.  1.
    10030    2    1    2    0    0  0.00000000000E+00  0.00000000000E+00  0.45687515307E+03  0.23778298481E+04  0.23335252047E+04 0.  0.
        1    1    3    3  502    0  0.15707354030E+03  0.24608610842E+03 -0.92265803531E+03  0.96774393306E+03  0.50400001928E-02 0.  1.
       -1    1    3    3    0  502 -0.15707354030E+03 -0.24608610842E+03  0.13795331884E+04  0.14100859150E+04  0.50400001928E-02 0. -1.
</event>
<event>
 5   0  0.6287345E-07  0.2125577E+04  0.7818609E-02  0.8550059E-01
       -1   -1    0    0    0  501  0.00000000000E+00  0.00000000000E+00  0.57636363797E+03  0.57636363799E+03  0.50400001928E-02 0.  1.
        1   -1    0    0  501    0  0.00000000000E+00  0.00000000000E+00 -0.19597344326E+04  0.19597344326E+04  0.50400001928E-02 0. -1.
    10030    2    1    2    0    0  0.00000000000E+00  0.00000000000E+00 -0.13833707947E+04  0.25360980706E+04  0.21255772553E+04 0.  0.
        5    1    3    3  502    0  0.84140288073E+03  0.27390286616E+03 -0.13940308726E+04  0.16511589117E+04  0.46999998093E+01 0. -1.
       -5    1    3    3    0  502 -0.84140288073E+03 -0.27390286616E+03  0.10660077952E+02  0.88493915895E+03  0.46999998093E+01 0.  1.
</event>
<event>
 5   0  0.1151180E-06  0.3176023E+04  0.7818609E-02  0.8195178E-01
        2   -1    0    0  501    0  0.00000000000E+00  0.00000000000E+00  0.17737748537E+04  0.17737748537E+04  0.25500000920E-02 0.  1.
       -2   -1    0    0    0  501  0.00000000000E+00  0.00000000000E+00 -0.14217030039E+04  0.14217030039E+04  0.25500000920E-02 0. -1.
    10030    2    1    2    0    0  0.00000000000E+00  0.00000000000E+00  0.35207184985E+03  0.31954778576E+04  0.31760233235E+04 0.  0.
        5    1    3    3  502    0 -0.31357979415E+03  0.13841388905E+04  0.89285083348E+03  0.16767162718E+04  0.46999998093E+01 0.  1.
       -5    1    3    3    0  502  0.31357979415E+03 -0.13841388905E+04 -0.54077898363E+03  0.15187615858E+04  0.46999998093E+01 0. -1.
</event>
<event>
 5   0  0.5875011E-07  0.3654962E+04  0.7818609E-02  0.8078017E-01
       -1   -1    0    0    0  501  0.00000000000E+00  0.00000000000E+00  0.17291961566E+04  0.17291961566E+04  0.50400001928E-02 0.  1.
        1   -1    0    0  501    0  0.00000000000E+00  0.00000000000E+00 -0.19313524203E+04  0.19313524204E+04  0.50400001928E-02 0. -1.
    10030    2    1    2    0    0  0.00000000000E+00  0.00000000000E+00 -0.20215626373E+03  0.36605485770E+04  0.36549622063E+04 0.  0.
        2    1    3    3  502    0  0.12765193774E+03  0.35751420576E+03  0.16892714653E+04  0.17314010246E+04  0.25500000920E-02 0.  1.
       -2    1    3    3    0  502 -0.12765193774E+03 -0.35751420576E+03 -0.18914277290E+04  0.19291475523E+04  0.25500000920E-02 0. -1.
</event>
<event>
 5   0  0.1724503E-06  0.3312571E+04  0.7818609E-02  0.8159704E-01
       -2   -1    0    0    0  501  0.00000000000E+00  0.00000000000E+00  0.12940069622E+04  0.12940069622E+04  0.25500000920E-02 0. -1.
        2   -1    0    0  501    0  0.00000000000E+00  0.00000000000E+00 -0.21199899726E+04  0.21199899726E+04  0.25500000920E-02 0.  1.
    10030    2    1    2    0    0  0.00000000000E+00  0.00000000000E+00 -0.82598301041E+03  0.34139969347E+04  0.33125710765E+04 0.  0.
        1    1    3    3  502    0 -0.14913959100E+04 -0.51574116720E+03 -0.93141520772E+03  0.18324259879E+04  0.50400001928E-02 0.  1.
       -1    1    3    3    0  502  0.14913959100E+04  0.51574116720E+03  0.10543219731E+03  0.15815709469E+04  0.50400001928E-02 0. -1.
</event>
<event>
 5   0  0.1724503E-06  0.3725877E+04  0.7818609E-02  0.8062251E-01
        2   -1    0    0  501    0  0.00000000000E+00  0.00000000000E+00  0.23838339870E+04  0.23838339870E+04  0.25500000920E-02 0. -1.
       -2   -1    0    0    0  501  0.00000000000E+00  0.00000000000E+00 -0.14558644620E+04  0.14558644620E+04  0.25500000920E-02 0.  1.
    10030    2    1    2    0    0  0.00000000000E+00  0.00000000000E+00  0.92796952508E+03  0.38396984490E+04  0.37258766404E+04 0.  0.
        1    1    3    3  502    0  0.68753670814E+03  0.25979559967E+03  0.22281024624E+04  0.23461971489E+04  0.50400001928E-02 0. -1.
       -1    1    3    3    0  502 -0.68753670814E+03 -0.25979559967E+03 -0.13001329373E+04  0.14935013001E+04  0.50400001928E-02 0.  1.
</event>
<event>
 5   0  0.1184684E-06  0.2023756E+04  0.7818609E-02  0.8595594E-01
       -2   -1    0    0    0  501  0.00000000000E+00  0.00000000000E+00  0.48817541632E+03  0.48817541633E+03  0.25500000920E-02 0.  1.
        2   -1    0    0  501    0  0.00000000000E+00  0.00000000000E+00 -0.20973965304E+04  0.20973965304E+04  0.25500000920E-02 0. -1.
    10030    2    1    2    0    0  0.00000000000E+00  0.00000000000E+00 -0.16092211141E+04  0.25855719468E+04  0.20237563336E+04 0.  0.
        4    1    3    3  502    0  0.44251568558E+03 -0.88538587081E+03 -0.53610702170E+03  0.11256734090E+04  0.12699999809E+01 0.  1.
       -4    1    3    3    0  502 -0.44251568558E+03  0.88538587081E+03 -0.10731140924E+04  0.14598985377E+04  0.12699999809E+01 0. -1.
</event>
<event>
 5   0  0.5679750E-07  0.3815491E+04  0.7818609E-02  0.8042839E-01
       -1   -1    0    0    0  501  0.00000000000E+00  0.00000000000E+00  0.16287614302E+04  0.16287614302E+04  0.50400001928E-02 0. -1.
        1   -1    0    0  501    0  0.00000000000E+00  0.00000000000E+00 -0.22345161260E+04  0.22345161260E+04  0.50400001928E-02 0.  1.
    10030    2    1    2    0    0  0.00000000000E+00  0.00000000000E+00 -0.60575469582E+03  0.38632775563E+04  0.38154914134E+04 0.  0.
        4    1    3    3  502    0  0.94185696426E+03  0.86599583493E+03 -0.17356792007E+04  0.21562994291E+04  0.12699999809E+01 0.  1.
       -4    1    3    3    0  502 -0.94185696426E+03 -0.86599583493E+03  0.11299245049E+04  0.17069781272E+04  0.12699999809E+01 0. -1.
</event>
<event>
 5   0  0.1680194E-06  0.1848307E+04  0.7818609E-02  0.8681024E-01
        2   -1    0    0  501    0  0.00000000000E+00  0.00000000000E+00  0.59417309331E+03  0.59417309331E+03  0.25500000920E-02 0. -1.
       -2   -1    0    0    0  501  0.00000000000E+00  0.00000000000E+00 -0.14373928140E+04  0.14373928140E+04  0.25500000920E-02 0.  1.
    10030    2    1    2    0    0  0.00000000000E+00  0.00000000000E+00 -0.84321972069E+03  0.20315659073E+04  0.18483074794E+04 0.  0.
        2    1    3    3  502    0  0.22036761458E+03  0.85248564485E+03 -0.73009013470E+03  0.11438204689E+04  0.25500000920E-02 0.  1.
       -2    1    3    3    0  502 -0.22036761458E+03 -0.85248564485E+03 -0.11312958599E+03  0.88774543844E+03  0.25500000920E-02 0. -1.
</event>
<event>
 5   0  0.1685793E-06  0.2483950E+04  0.7818609E-02  0.8408726E-01
       -2   -1    0    0    0  501  0.00000000000E+00  0.00000000000E+00  0.13219751984E+04  0.13219751984E+04  0.25500000920E-02 0.  1.
        2   -1    0    0  501    0  0.00000000000E+00  0.00000000000E+00 -0.11668156876E+04  0.11668156876E+04  0.25500000920E-02 0. -1.
    10030    2    1    2    0    0  0.00000000000E+00  0.00000000000E+00  0.15515951085E+03  0.24887908860E+04  0.24839495970E+04 0.  0.
        3    1    3    3  502    0 -0.21119808543E+03 -0.96343588324E+03  0.83382766339E+03  0.12915424557E+04  0.10100000352E+00 0.  1.
       -3    1    3    3    0  502  0.21119808543E+03  0.96343588324E+03 -0.67866815255E+03  0.11972484303E+04  0.10100000352E+00 0. -1.
</event>
<event>
 5   0  0.5679750E-07  0.3667109E+04  0.7818609E-02  0.8075290E-01
        1   -1    0    0  501    0  0.00000000000E+00  0.00000000000E+00  0.19660968566E+04  0.19660968567E+04  0.50400001928E-02 0.  1.
       -1   -1    0    0    0  501  0.00000000000E+00  0.00000000000E+00 -0.17099472307E+04  0.17099472307E+04  0.50400001928E-02 0. -1.
    10030    2    1    2    0    0  0.00000000000E+00  0.00000000000E+00  0.25614962597E+03  0.36760440873E+04  0.36671088750E+04 0.  0.
        4    1    3    3  502    0  0.68978635516E+03  0.13333723900E+04 -0.92721675714E+03  0.17644885020E+04  0.12699999809E+01 0. -1.
       -4    1    3    3    0  502 -0.68978635516E+03 -0.13333723900E+04  0.11833663831E+04  0.19115555853E+04  0.12699999809E+01 0.  1.
</event>
<event>
 5   0  0.1184684E-06  0.1995139E+04  0.7818609E-02  0.8608897E-01
       -2   -1    0    0    0  501  0.00000000000E+00  0.00000000000E+00  0.46426985288E+03  0.46426985288E+03  0.25500000920E-02 0.  1.
        2   -1    0    0  501    0  0.00000000000E+00  0.00000000000E+00 -0.21434631444E+04  0.21434631444E+04  0.25500000920E-02 0. -1.
    10030    2    1    2    0    0  0.00000000000E+00  0.00000000000E+00 -0.16791932915E+04  0.26077329973E+04  0.19951394124E+04 0.  0.
        4    1    3    3  502    0 -0.15920972296E+03 -0.62443722297E+03  0.15570962321E+03  0.66296054255E+03  0.12699999809E+01 0.  1.
       -4    1    3    3    0  502  0.15920972296E+03  0.62443722297E+03 -0.18349029148E+04  0.19447724548E+04  0.12699999809E+01 0. -1.
</event>
<event>
 5   0  0.6186440E-07  0.3064431E+04  0.7818609E-02  0.8225568E-01
       -1   -1    0    0    0  501  0.00000000000E+00  0.00000000000E+00  0.17485521291E+04  0.17485521291E+04  0.50400001928E-02 0. -1.
        1   -1    0    0  501    0  0.00000000000E+00  0.00000000000E+00 -0.13426446536E+04  0.13426446536E+04  0.50400001928E-02 0.  1.
    10030    2    1    2    0    0  0.00000000000E+00  0.00000000000E+00  0.40590747547E+03  0.30911967828E+04  0.30644308886E+04 0.  0.
        3    1    3    3  502    0 -0.34906202487E+02  0.15136262327E+04 -0.34477012528E+02  0.15144211732E+04  0.10100000352E+00 0.  1.
       -3    1    3    3    0  502  0.34906202487E+02 -0.15136262327E+04  0.44038448800E+03  0.15767756095E+04  0.10100000352E+00 0. -1.
</event>
<event>
 5   0  0.6287345E-07  0.3487564E+04  0.7818609E-02  0.8116743E-01
       -1   -1    0    0    0  501  0.00000000000E+00  0.00000000000E+00  0.14080963073E+04  0.14080963073E+04  0.50400001928E-02 0. -1.
        1   -1    0    0  501    0  0.00000000000E+00  0.00000000000E+00 -0.21594944444E+04  0.21594944444E+04  0.50400001928E-02 0.  1.
    10030    2    1    2    0    0  0.00000000000E+00  0.00000000000E+00 -0.75139813712E+03  0.35675907517E+04  0.34875642806E+04 0.  0.
        5    1    3    3  502    0 -0.56944356018E+03  0.98842948534E+03 -0.17248620973E+04  0.20679531330E+04  0.46999998093E+01 0.  1.
       -5    1    3    3    0  502  0.56944356018E+03 -0.98842948534E+03  0.97346396015E+03  0.14996376187E+04  0.46999998093E+01 0. -1.
</event>
<event>
 5   0  0.1685793E-06  0.2619252E+04  0.7818609E-02  0.8361691E-01
        2   -1    0    0  501    0  0.00000000000E+00  0.00000000000E+00  0.24353051713E+04  0.24353051713E+04  0.25500000920E-02 0.  1.
       -2   -1    0    0    0  501  0.00000000000E+00  0.00000000000E+00 -0.70427323919E+03  0.70427323920E+03  0.25500000920E-02 0. -1.
    10030    2    1    2    0    0  0.00000000000E+00  0.00000000000E+00  0.17310319321E+04  0.31395784105E+04  0.26192520012E+04 0.  0.
        3    1    3    3  502    0 -0.36350562517E+03  0.22230701205E+03  0.23498954113E+04  0.23882138098E+04  0.10100000352E+00 0.  1.
       -3    1    3    3    0  502  0.36350562517E+03 -0.22230701205E+03 -0.61886347917E+03  0.75136460070E+03  0.10100000352E+00 0. -1.
</event>
<event>
 5   0  0.1184684E-06  0.3693559E+04  0.7818609E-02  0.8069391E-01
       -2   -1    0    0    0  501  0.00000000000E+00  0.00000000000E+00  0.12377136263E+04  0.12377136263E+04  0.25500000920E-02 0.  1.
        2   -1    0    0  501    0  0.00000000000E+00  0.00000000000E+00 -0.27555596881E+04  0.27555596881E+04  0.25500000920E-02 0. -1.
    10030    2    1    2    0    0  0.00000000000E+00  0.00000000000E+00 -0.15178460618E+04  0.39932733145E+04  0.36935585953E+04 0.  0.
        4    1    3    3  502    0  0.66516452610E+03 -0.14498721459E+04  0.24719231182E+03  0.16142114911E+04  0.12699999809E+01 0.  1.
       -4    1    3    3    0  502 -0.66516452610E+03  0.14498721459E+04 -0.17650383736E+04  0.23790618233E+04  0.12699999809E+01 0. -1.
</event>
<event>
 5   0  0.1685793E-06  0.3697376E+04  0.7818609E-02  0.8068544E-01
       -2   -1    0    0    0  501  0.00000000000E+00  0.00000000000E+00  0.26754763228E+04  0.26754763228E+04  0.25500000920E-02 0.  1.
        2   -1    0    0  501    0  0.00000000000E+00  0.00000000000E+00 -0.12773976709E+04  0.12773976709E+04  0.25500000920E-02 0. -1.
    10030    2    1    2    0    0  0.00000000000E+00  0.00000000000E+00  0.13980786520E+04  0.39528739937E+04  0.36973759470E+04 0.  0.
        3    1    3    3  502    0  0.17038560273E+04 -0.54609370472E+03  0.11962622571E+04  0.21522980960E+04  0.10100000352E+00 0. -1.
       -3    1    3    3    0  502 -0.17038560273E+04  0.54609370472E+03  0.20181639484E+03  0.18005758977E+04  0.10100000352E+00 0.  1.
</event>
<event>
 5   0  0.1685793E-06  0.3401176E+04  0.7818609E-02  0.8137618E-01
       -2   -1    0    0    0  501  0.00000000000E+00  0.00000000000E+00  0.12984896116E+04  0.12984896116E+04  0.25500000920E-02 0.  1.
        2   -1    0    0  501    0  0.00000000000E+00  0.00000000000E+00 -0.22272031927E+04  0.22272031927E+04  0.25500000920E-02 0. -1.
    10030    2    1    2    0    0  0.00000000000E+00  0.00000000000E+00 -0.92871358117E+03  0.35256928043E+04  0.34011763898E+04 0.  0.
        3    1    3    3  502    0  0.74789489864E+03  0.85590923290E+03  0.84689225621E+03  0.14174462594E+04  0.10100000352E+00 0.  1.
       -3    1    3    3    0  502 -0.74789489864E+03 -0.85590923290E+03 -0.17756058374E+04  0.21082465450E+04  0.10100000352E+00 0. -1.
</event>
<event>
 5   0  0.6287345E-07  0.1985331E+04  0.7818609E-02  0.8613510E-01
       -1   -1    0    0    0  501  0.00000000000E+00  0.00000000000E+00  0.58610658771E+03  0.58610658773E+03  0.50400001928E-02 0. -1.
        1   -1    0    0  501    0  0.00000000000E+00  0.00000000000E+00 -0.16812390387E+04  0.16812390387E+04  0.50400001928E-02 0.  1.
    10030    2    1    2    0    0  0.00000000000E+00  0.00000000000E+00 -0.10951324510E+04  0.22673456265E+04  0.19853314848E+04 0.  0.
        5    1    3    3  502    0  0.47964267792E+03  0.42313668974E+03 -0.14145170694E+04  0.15524117966E+04  0.46999998093E+01 0.  1.
       -5    1    3    3    0  502 -0.47964267792E+03 -0.42313668974E+03  0.31938461834E+03  0.71493382988E+03  0.46999998093E+01 0. -1.
</event>
<event>
 5   0  0.1680194E-06  0.2762407E+04  0.7818609E-02  0.8315035E-01
        2   -1    0    0  501    0  0.00000000000E+00  0.00000000000E+00  0.13585729965E+04  0.13585729965E+04  0.25500000920E-02 0. -1.
       -2   -1    0    0    0  501  0.00000000000E+00  0.00000000000E+00 -0.14042114557E+04  0.14042114557E+04  0.25500000920E-02 0.  1.
    10030    2    1    2    0    0  0.00000000000E+00  0.00000000000E+00 -0.45638459125E+02  0.27627844522E+04  0.27624074755E+04 0.  0.
        2    1    3    3  502    0  0.63540085541E+03 -0.11246567725E+04  0.46626351902E+03  0.13733130642E+04  0.25500000920E-02 0. -1.
       -2    1    3    3    0  502 -0.63540085541E+03  0.11246567725E+04 -0.51190197815E+03  0.13894713881E+04  0.25500000920E-02 0.  1.
</event>
<event>
 5   0  0.1724503E-06  0.2507485E+04  0.7818609E-02  0.8400324E-01
       -2   -1    0    0    0  501  0.00000000000E+00  0.00000000000E+00  0.81877000192E+03  0.81877000192E+03  0.25500000920E-02 0.  1.
        2   -1    0    0  501    0  0.00000000000E+00  0.00000000000E+00 -0.19197946207E+04  0.19197946207E+04  0.25500000920E-02 0. -1.
    10030    2    1    2    0    0  0.00000000000E+00  0.00000000000E+00 -0.11010246188E+04  0.27385646226E+04  0.25074849912E+04 0.  0.
        1    1    3    3  502    0  0.69550587969E+03  0.44848824344E+03  0.47808761652E+03  0.95573945314E+03  0.50400001928E-02 0.  1.
       -1    1    3    3    0  502 -0.69550587969E+03 -0.44848824344E+03 -0.15791122353E+04  0.17828251695E+04  0.50400001928E-02 0. -1.
</event>
<event>
 5   0  0.6287345E-07  0.3656078E+04  0.7818609E-02  0.8077766E-01
       -1   -1    0    0    0  501  0.00000000000E+00  0.00000000000E+00  0.12061658443E+04  0.12061658444E+04  0.50400001928E-02 0.  1.
        1   -1    0    0  501    0  0.00000000000E+00  0.00000000000E+00 -0.27705367043E+04  0.27705367043E+04  0.50400001928E-02 0. -1.
    10030    2    1    2    0    0  0.00000000000E+00  0.00000000000E+00 -0.15643708600E+04  0.39767025487E+04  0.36560780863E+04 0.  0.
        5    1    3    3  502    0  0.70225312863E+03 -0.16657647663E+04 -0.10776165159E+04  0.21045691147E+04  0.46999998093E+01 0.  1.
       -5    1    3    3    0  502 -0.70225312863E+03  0.16657647663E+04 -0.48675434413E+03  0.18721334340E+04  0.46999998093E+01 0. -1.
</event>
<event>
 5   0  0.6186440E-07  0.2563427E+04  0.7818609E-02  0.8380732E-01
       -1   -1    0    0    0  501  0.00000000000E+00  0.00000000000E+00  0.10043689085E+04  0.10043689085E+04  0.50400001928E-02 0.  1.
        1   -1    0    0  501    0  0.00000000000E+00  0.00000000000E+00 -0.16356429374E+04  0.16356429374E+04  0.50400001928E-02 0. -1.
    10030    2    1    2    0    0  0.00000000000E+00  0.00000000000E+00 -0.63127402889E+03  0.26400118460E+04  0.25634265441E+04 0.  0.
        3    1    3    3  502    0  0.32205083601E+03 -0.24905712259E+03  0.93600901294E+03  0.10207149817E+04  0.10100000352E+00 0.  1.
       -3    1    3    3    0  502 -0.32205083601E+03  0.24905712259E+03 -0.15672830418E+04  0.16192968643E+04  0.10100000352E+00 0. -1.
</event>
<event>
 5   0  0.1724503E-06  0.3618266E+04  0.7818609E-02  0.8086320E-01
       -2   -1    0    0    0  501  0.00000000000E+00  0.00000000000E+00  0.27864265988E+04  0.27864265988E+04  0.25500000920E-02 0.  1.
        2   -1    0    0  501    0  0.00000000000E+00  0.00000000000E+00 -0.11746089510E+04  0.11746089510E+04  0.25500000920E-02 0. -1.
    10030    2    1    2    0    0  0.00000000000E+00  0.00000000000E+00  0.16118176478E+04  0.39610355499E+04  0.36182656753E+04 0.  0.
        1    1    3    3  502    0  0.31634328116E+03 -0.44168311024E+03  0.26950150740E+04  0.27492295813E+04  0.50400001928E-02 0.  1.
       -1    1    3    3    0  502 -0.31634328116E+03  0.44168311024E+03 -0.10831974262E+04  0.12118059686E+04  0.50400001928E-02 0. -1.
</event>
<event>
 5   0  0.5679750E-07  0.3746797E+04  0.7818609E-02  0.8057670E-01
        1   -1    0    0  501    0  0.00000000000E+00  0.00000000000E+00  0.20785794194E+04  0.20785794194E+04  0.50400001928E-02 0. -1.
       -1   -1    0    0    0  501  0.00000000000E+00  0.00000000000E+00 -0.16884711879E+04  0.16884711879E+04  0.50400001928E-02 0.  1.
    10030    2    1    2    0    0  0.00000000000E+00  0.00000000000E+00  0.39010823149E+03  0.37670506073E+04  0.37467967447E+04 0.  0.
        4    1    3    3  502    0 -0.27957755311E+03  0.17519875230E+03  0.20491381616E+04  0.20755305416E+04  0.12699999809E+01 0. -1.
       -4    1    3    3    0  502  0.27957755311E+03 -0.17519875230E+03 -0.16590299301E+04  0.16915200657E+04  0.12699999809E+01 0.  1.
</event>
<event>
 5   0  0.1184684E-06  0.3672781E+04  0.7818609E-02  0.8074021E-01
        2   -1    0    0  501    0  0.00000000000E+00  0.00000000000E+00  0.23303324610E+04  0.23303324610E+04  0.25500000920E-02 0.  1.
       -2   -1    0    0    0  501  0.00000000000E+00  0.00000000000E+00 -0.14471458166E+04  0.14471458166E+04  0.25500000920E-02 0. -1.
    10030    2    1    2    0    0  0.00000000000E+00  0.00000000000E+00  0.88318664444E+03  0.37774782776E+04  0.36727814377E+04 0.  0.
        4    1    3    3  502    0  0.45289945520E+03  0.49670381010E+02 -0.13880911264E+04  0.14609529942E+04  0.12699999809E+01 0. -1.
       -4    1    3    3    0  502 -0.45289945520E+03 -0.49670381010E+02  0.22712777709E+04  0.23165252834E+04  0.12699999809E+01 0.  1.
</event>
<event>
 5   0  0.1184684E-06  0.3756914E+04  0.7818609E-02  0.8055465E-01
       -2   -1    0    0    0  501  0.00000000000E+00  0.00000000000E+00  0.26907436376E+04  0.26907436376E+04  0.25500000920E-02 0.  1.
        2   -1    0    0  501    0  0.00000000000E+00  0.00000000000E+00 -0.13113847141E+04  0.13113847141E+04  0.25500000920E-02 0. -1.
    10030    2    1    2    0    0  0.00000000000E+00  0.00000000000E+00  0.13793589236E+04  0.40021283517E+04  0.37569136673E+04 0.  0.
        4    1    3    3  502    0  0.12925913506E+04 -0.12012090177E+04  0.35073490947E+01  0.17645706046E+04  0.12699999809E+01 0. -1.
       -4    1    3    3    0  502 -0.12925913506E+04  0.12012090177E+04  0.13758515745E+04  0.22375577472E+04  0.12699999809E+01 0.  1.
</event>
<event>
 5   0  0.6287345E-07  0.3580136E+04  0.7818609E-02  0.8095057E-01
       -1   -1    0    0    0  501  0.00000000000E+00  0.00000000000E+00  0.10692424674E+04  0.10692424674E+04  0.50400001928E-02 0.  1.
        1   -1    0    0  501    0  0.00000000000E+00  0.00000000000E+00 -0.29968349938E+04  0.29968349938E+04  0.50400001928E-02 0. -1.
    10030    2    1    2    0    0  0.00000000000E+00  0.00000000000E+00 -0.19275925263E+04  0.40660774612E+04  0.35801358875E+04 0.  0.
        5    1    3    3  502    0 -0.82162726898E+03 -0.12023137823E+04  0.21850714344E+03  0.14725478811E+04  0.46999998093E+01 0.  1.
       -5    1    3    3    0  502  0.82162726898E+03  0.12023137823E+04 -0.21460996698E+04  0.25935295801E+04  0.46999998093E+01 0. -1.
</event>
<event>
 5   0  0.1184684E-06  0.3676596E+04  0.7818609E-02  0.8073168E-01
       -2   -1    0    0    0  501  0.00000000000E+00  0.00000000000E+00  0.15598134486E+04  0.15598134486E+04  0.25500000920E-02 0. -1.
        2   -1    0    0  501    0  0.00000000000E+00  0.00000000000E+00 -0.21665021719E+04  0.21665021719E+04  0.25500000920E-02 0.  1.
    10030    2    1    2    0    0  0.00000000000E+00  0.00000000000E+00 -0.60668872328E+03  0.37263156206E+04  0.36765958300E+04 0.  0.
        4    1    3    3  502    0 -0.16124351666E+04  0.80907166462E+03  0.54694119001E+02  0.18048648660E+04  0.12699999809E+01 0. -1.
       -4    1    3    3    0  502  0.16124351666E+04 -0.80907166462E+03 -0.66138284229E+03  0.19214507545E+04  0.12699999809E+01 0.  1.
</event>
<event>
 5   0  0.1724503E-06  0.3815483E+04  0.7818609E-02  0.8042840E-01
       -2   -1    0    0    0  501  0.00000000000E+00  0.00000000000E+00  0.18420474068E+04  0.18420474068E+04  0.25500000920E-02 0.  1.
        2   -1    0    0  501    0  0.00000000000E+00  0.00000000000E+00 -0.19757787037E+04  0.19757787037E+04  0.25500000920E-02 0. -1.
    10030    2    1    2    0    0  0.00000000000E+00  0.00000000000E+00 -0.13373129685E+03  0.38178261105E+04  0.38154832132E+04 0.  0.
        1    1    3    3  502    0 -0.14660314704E+04 -0.27020951428E+03 -0.12580657163E+04  0.19506385622E+04  0.50400001928E-02 0. -1.
       -1    1    3    3    0  502  0.14660314704E+04  0.27020951428E+03  0.11243344194E+04  0.18671875483E+04  0.50400001928E-02 0.  1.
</event>
<event>
 5   0  0.5875011E-07  0.3413110E+04  0.7818609E-02  0.8134696E-01
       -1   -1    0    0    0  501  0.00000000000E+00  0.00000000000E+00  0.15268398523E+04  0.15268398523E+04  0.50400001928E-02 0. -1.
        1   -1    0    0  501    0  0.00000000000E+00  0.00000000000E+00 -0.19074232061E+04  0.19074232061E+04  0.50400001928E-02 0.  1.
    10030    2    1    2    0    0  0.00000000000E+00  0.00000000000E+00 -0.38058335379E+03  0.34342630584E+04  0.34131098818E+04 0.  0.
        2    1    3    3  502    0  0.43203708156E+03  0.15859248685E+04 -0.65195554047E+03  0.17682928929E+04  0.25500000920E-02 0.  1.
       -2    1    3    3    0  502 -0.43203708156E+03 -0.15859248685E+04  0.27137218668E+03  0.16659701654E+04  0.25500000920E-02 0. -1.
</event>
<event>
 5   0  0.6287345E-07  0.3699539E+04  0.7818609E-02  0.8068064E-01
       -1   -1    0    0    0  501  0.00000000000E+00  0.00000000000E+00  0.13571416942E+04  0.13571416942E+04  0.50400001928E-02 0. -1.
        1   -1    0    0  501    0  0.00000000000E+00  0.00000000000E+00 -0.25212164955E+04  0.25212164955E+04  0.50400001928E-02 0.  1.
    10030    2    1    2    0    0  0.00000000000E+00  0.00000000000E+00 -0.11640748013E+04  0.38783581897E+04  0.36995394449E+04 0.  0.
        5    1    3    3  502    0 -0.94557211093E+03  0.93476486094E+03 -0.19301714522E+04  0.23438165217E+04  0.46999998093E+01 0.  1.
       -5    1    3    3    0  502  0.94557211093E+03 -0.93476486094E+03  0.76609665094E+03  0.15345416680E+04  0.46999998093E+01 0. -1.
</event>
<event>
 5   0  0.6186440E-07  0.3423698E+04  0.7818609E-02  0.8132114E-01
        1   -1    0    0  501    0  0.00000000000E+00  0.00000000000E+00  0.16895651422E+04  0.16895651422E+04  0.50400001928E-02 0. -1.
       -1   -1    0    0    0  501  0.00000000000E+00  0.00000000000E+00 -0.17344271611E+04  0.17344271611E+04  0.50400001928E-02 0.  1.
    10030    2    1    2    0    0  0.00000000000E+00  0.00000000000E+00 -0.44862018920E+02  0.34239923033E+04  0.34236983939E+04 0.  0.
        3    1    3    3  502    0  0.11659942906E+04  0.31833372356E+03 -0.12347844798E+04  0.17278807155E+04  0.10100000352E+00 0.  1.
       -3    1    3    3    0  502 -0.11659942906E+04 -0.31833372356E+03  0.11899224608E+04  0.16961115878E+04  0.10100000352E+00 0. -1.
</event>
<event>
 5   0  0.1184684E-06  0.3656335E+04  0.7818609E-02  0.8077708E-01
       -2   -1    0    0    0  501  0.00000000000E+00  0.00000000000E+00  0.15632880188E+04  0.15632880188E+04  0.25500000920E-02 0.  1.
        2   -1    0    0  501    0  0.00000000000E+00  0.00000000000E+00 -0.21379273180E+04  0.21379273180E+04  0.25500000920E-02 0. -1.
    10030    2    1    2    0    0  0.00000000000E+00  0.00000000000E+00 -0.57463929922E+03  0.37012153369E+04  0.36563348651E+04 0.  0.
        4    1    3    3  502    0 -0.14823908495E+04  0.83562815167E+03  0.38904161568E+03  0.17455979005E+04  0.12699999809E+01 0.  1.
       -4    1    3    3    0  502  0.14823908495E+04 -0.83562815167E+03 -0.96368091490E+03  0.19556174363E+04  0.12699999809E+01 0. -1.
</event>
<event>
 5   0  0.1724503E-06  0.2172673E+04  0.7818609E-02  0.8529889E-01
        2   -1    0    0  501    0  0.00000000000E+00  0.00000000000E+00  0.91190504508E+03  0.91190504509E+03  0.25500000920E-02 0. -1.
       -2   -1    0    0    0  501  0.00000000000E+00  0.00000000000E+00 -0.12941335220E+04  0.12941335220E+04  0.25500000920E-02 0.  1.
    10030    2    1    2    0    0  0.00000000000E+00  0.00000000000E+00 -0.38222847687E+03  0.22060385670E+04  0.21726729047E+04 0.  0.
        1    1    3    3  502    0  0.93639470903E+03  0.22918165917E+03 -0.69957151545E+03  0.11911169503E+04  0.50400001928E-02 0.  1.
       -1    1    3    3    0  502 -0.93639470903E+03 -0.22918165917E+03  0.31734303858E+03  0.10149216168E+04  0.50400001928E-02 0. -1.
</event>
<event>
 5   0  0.1680194E-06  0.2265866E+04  0.7818609E-02  0.8491502E-01
       -2   -1    0    0    0  501  0.00000000000E+00  0.00000000000E+00  0.11701887799E+04  0.11701887799E+04  0.25500000920E-02 0.  1.
        2   -1    0    0  501    0  0.00000000000E+00  0.00000000000E+00 -0.10968638227E+04  0.10968638227E+04  0.25500000920E-02 0. -1.
    10030    2    1    2    0    0  0.00000000000E+00  0.00000000000E+00  0.73324957242E+02  0.22670526026E+04  0.22658664907E+04 0.  0.
        2    1    3    3  502    0  0.89329410722E+03  0.25944997485E+03  0.68372281801E+03  0.11544546519E+04  0.25500000920E-02 0.  1.
       -2    1    3    3    0  502 -0.89329410722E+03 -0.25944997485E+03 -0.61039786077E+03  0.11125979507E+04  0.25500000920E-02 0. -1.
</event>
<event>
 5   0  0.1685793E-06  0.2513132E+04  0.7818609E-02  0.8398322E-01
        2   -1    0    0  501    0  0.00000000000E+00  0.00000000000E+00  0.19523322238E+04  0.19523322238E+04  0.25500000920E-02 0.  1.
       -2   -1    0    0    0  501  0.00000000000E+00  0.00000000000E+00 -0.80875510123E+03  0.80875510123E+03  0.25500000920E-02 0. -1.
    10030    2    1    2    0    0  0.00000000000E+00  0.00000000000E+00  0.11435771225E+04  0.27610873250E+04  0.25131324241E+04 0.  0.
        3    1    3    3  502    0  0.12745828669E+02  0.32652743160E+02  0.19517949836E+04  0.19521097116E+04  0.10100000352E+00 0.  1.
       -3    1    3    3    0  502 -0.12745828669E+02 -0.32652743160E+02 -0.80821786110E+03  0.80897761340E+03  0.10100000352E+00 0. -1.
</event>
<event>
 5   0  0.1680194E-06  0.3553156E+04  0.7818609E-02  0.8101307E-01
       -2   -1    0    0    0  501  0.00000000000E+00  0.00000000000E+00  0.17136442748E+04  0.17136442748E+04  0.25500000920E-02 0. -1.
        2   -1    0    0  501    0  0.00000000000E+00  0.00000000000E+00 -0.18418228085E+04  0.18418228085E+04  0.25500000920E-02 0.  1.
    10030    2    1    2    0    0  0.00000000000E+00  0.00000000000E+00 -0.12817853370E+03  0.35554670833E+04  0.35531558429E+04 0.  0.
        2    1    3    3  502    0 -0.16561227674E+04  0.34222488165E+03  0.48066233435E+03  0.17580946419E+04  0.25500000920E-02 0. -1.
       -2    1    3    3    0  502  0.16561227674E+04 -0.34222488165E+03 -0.60884086804E+03  0.17973724414E+04  0.25500000920E-02 0.  1.
</event>
<event>
 5   0  0.6261598E-07  0.3495858E+04  0.7818609E-02  0.8114772E-01
        1   -1    0    0  501    0  0.00000000000E+00  0.00000000000E+00  0.24822432254E+04  0.24822432254E+04  0.50400001928E-02 0.  1.
       -1   -1    0    0    0  501  0.00000000000E+00  0.00000000000E+00 -0.12308443958E+04  0.12308443958E+04  0.50400001928E-02 0. -1.
    10030    2    1    2    0    0  0.00000000000E+00  0.00000000000E+00  0.12513988296E+04  0.37130876212E+04  0.34958576419E+04 0.  0.
        1    1    3    3  502    0 -0.63454430114E+03 -0.14739908684E+04 -0.11014128618E+03  0.16085479953E+04  0.50400001928E-02 0. -1.
       -1    1    3    3    0  502  0.63454430114E+03  0.14739908684E+04  0.13615401158E+04  0.21045396259E+04  0.50400001928E-02 0.  1.
</event>
<event>
 5   0  0.1184684E-06  0.2084596E+04  0.7818609E-02  0.8568059E-01
       -2   -1    0    0    0  501  0.00000000000E+00  0.00000000000E+00  0.13165326007E+04  0.13165326007E+04  0.25500000920E-02 0.  1.
        2   -1    0    0  501    0  0.00000000000E+00  0.00000000000E+00 -0.82518700603E+03  0.82518700603E+03  0.25500000920E-02 0. -1.
    10030    2    1    2    0    0  0.00000000000E+00  0.00000000000E+00  0.49134559466E+03  0.21417196067E+04  0.20845964551E+04 0.  0.
        4    1    3    3  502    0 -0.72017113344E+03  0.24166710061E+03 -0.48756050031E+03  0.90264406236E+03  0.12699999809E+01 0. -1.
       -4    1    3    3    0  502  0.72017113344E+03 -0.24166710061E+03  0.97890609496E+03  0.12390755444E+04  0.12699999809E+01 0.  1.
</event>
<event>
 5   0  0.1151180E-06  0.3766243E+04  0.7818609E-02  0.8053438E-01
        2   -1    0    0  501    0  0.00000000000E+00  0.00000000000E+00  0.21606931763E+04  0.21606931763E+04  0.25500000920E-02 0. -1.
       -2   -1    0    0    0  501  0.00000000000E+00  0.00000000000E+00 -0.16412076967E+04  0.16412076967E+04  0.25500000920E-02 0.  1.
    10030    2    1    2    0    0  0.00000000000E+00  0.00000000000E+00  0.51948547955E+03  0.38019008730E+04  0.37662428340E+04 0.  0.
        5    1    3    3  502    0  0.12314620886E+04  0.59908881629E+03  0.15645429957E+04  0.20792361965E+04  0.46999998093E+01 0. -1.
       -5    1    3    3    0  502 -0.12314620886E+04 -0.59908881629E+03 -0.10450575162E+04  0.17226646765E+04  0.46999998093E+01 0.  1.
</event>
<event>
 5   0  0.5875011E-07  0.3779197E+04  0.7818609E-02  0.8050634E-01
        1   -1    0    0  501    0  0.00000000000E+00  0.00000000000E+00  0.14111827775E+04  0.14111827775E+04  0.50400001928E-02 0.  1.
       -1   -1    0    0    0  501  0.00000000000E+00  0.00000000000E+00 -0.25302053621E+04  0.25302053621E+04  0.50400001928E-02 0. -1.
    10030    2    1    2    0    0  0.00000000000E+00  0.00000000000E+00 -0.11190225846E+04  0.39413881396E+04  0.37791968621E+04 0.  0.
        2    1    3    3  502    0  0.18013002542E+04 -0.49838156397E+03 -0.84987598237E+03  0.20531332091E+04  0.25500000920E-02 0.  1.
       -2    1    3    3    0  502 -0.18013002542E+04  0.49838156397E+03 -0.26914660219E+03  0.18882549305E+04  0.25500000920E-02 0. -1.
</event>
<event>
 5   0  0.1685793E-06  0.1983155E+04  0.7818609E-02  0.8614537E-01
       -2   -1    0    0    0  501  0.00000000000E+00  0.00000000000E+00  0.62265011746E+03  0.62265011746E+03  0.25500000920E-02 0. -1.
        2   -1    0    0  501    0  0.00000000000E+00  0.00000000000E+00 -0.15790991047E+04  0.15790991047E+04  0.25500000920E-02 0.  1.
    10030    2    1    2    0    0  0.00000000000E+00  0.00000000000E+00 -0.95644898722E+03  0.22017492221E+04  0.19831553071E+04 0.  0.
        3    1    3    3  502    0 -0.79969175802E+03  0.37611151062E+03  0.21080078713E+02  0.88397463549E+03  0.10100000352E+00 0. -1.
       -3    1    3    3    0  502  0.79969175802E+03 -0.37611151062E+03 -0.97752906593E+03  0.13177745866E+04  0.10100000352E+00 0.  1.
</event>
<event>
 5   0  0.1685793E-06  0.3678493E+04  0.7818609E-02  0.8072745E-01
       -2   -1    0    0    0  501  0.00000000000E+00  0.00000000000E+00  0.11969373963E+04  0.11969373963E+04  0.25500000920E-02 0.  1.
        2   -1    0    0  501    0  0.00000000000E+00  0.00000000000E+00 -0.28262357313E+04  0.28262357313E+04  0.25500000920E-02 0. -1.
    10030    2    1    2    0    0  0.00000000000E+00  0.00000000000E+00 -0.16292983350E+04  0.40231731275E+04  0.36784927552E+04 0.  0.
        3    1    3    3  502    0  0.15932881394E+04  0.52967493394E+03  0.65048173595E+01  0.16790369126E+04  0.10100000352E+00 0.  1.
       -3    1    3    3    0  502 -0.15932881394E+04 -0.52967493394E+03 -0.16358031523E+04  0.23441362150E+04  0.10100000352E+00 0. -1.
</event>
<event>
 5   0  0.6287345E-07  0.3622719E+04  0.7818609E-02  0.8085307E-01
       -1   -1    0    0    0  501  0.00000000000E+00  0.00000000000E+00  0.15139091541E+04  0.15139091541E+04  0.50400001928E-02 0. -1.
        1   -1    0    0  501    0  0.00000000000E+00  0.00000000000E+00 -0.21672527880E+04  0.21672527880E+04  0.50400001928E-02 0.  1.
    10030    2    1    2    0    0  0.00000000000E+00  0.00000000000E+00 -0.65334363389E+03  0.36811619422E+04  0.36227193295E+04 0.  0.
        5    1    3    3  502    0  0.76709275375E+03 -0.10165844632E+04  0.98217850048E+03  0.16082823012E+04  0.46999998093E+01 0. -1.
       -5    1    3    3    0  502 -0.76709275375E+03  0.10165844632E+04 -0.16355221344E+04  0.20728796409E+04  0.46999998093E+01 0.  1.
</event>
<event>
 5   0  0.6287345E-07  0.2220808E+04  0.7818609E-02  0.8509817E-01
       -1   -1    0    0    0  501  0.00000000000E+00  0.00000000000E+00  0.12433673847E+04  0.12433673847E+04  0.50400001928E-02 0.  1.
        1   -1    0    0  501    0  0.00000000000E+00  0.00000000000E+00 -0.99165983044E+03  0.99165983046E+03  0.50400001928E-02 0. -1.
    10030    2    1    2    0    0  0.00000000000E+00  0.00000000000E+00  0.25170755428E+03  0.22350272152E+04  0.22208084023E+04 0.  0.
        5    1    3    3  502    0 -0.69804692304E+03 -0.85650772480E+03  0.15147619805E+02  0.11050459401E+04  0.46999998093E+01 0. -1.
       -5    1    3    3    0  502  0.69804692304E+03  0.85650772480E+03  0.23655993447E+03  0.11299812751E+04  0.46999998093E+01 0.  1.
</event>
<event>
 5   0  0.1685793E-06  0.3666008E+04  0.7818609E-02  0.8075537E-01
       -2   -1    0    0    0  501  0.00000000000E+00  0.00000000000E+00  0.11217780674E+04  0.11217780674E+04  0.25500000920E-02 0. -1.
        2   -1    0    0  501    0  0.00000000000E+00  0.00000000000E+00 -0.29951591550E+04  0.29951591550E+04  0.25500000920E-02 0.  1.
    10030    2    1    2    0    0  0.00000000000E+00  0.00000000000E+00 -0.18733810875E+04  0.41169372224E+04  0.36660081006E+04 0.  0.
        3    1    3    3  502    0 -0.13180152829E+03  0.86673706139E+02  0.11141412276E+04  0.11252531535E+04  0.10100000352E+00 0. -1.
       -3    1    3    3    0  502  0.13180152829E+03 -0.86673706139E+02 -0.29875223152E+04  0.29916840689E+04  0.10100000352E+00 0.  1.
</event>
<event>
 5   0  0.1724503E-06  0.3728868E+04  0.7818609E-02  0.8061594E-01
       -2   -1    0    0    0  501  0.00000000000E+00  0.00000000000E+00  0.17596823350E+04  0.17596823350E+04  0.25500000920E-02 0.  1.
        2   -1    0    0  501    0  0.00000000000E+00  0.00000000000E+00 -0.19754216782E+04  0.19754216782E+04  0.25500000920E-02 0. -1.
    10030    2    1    2    0    0  0.00000000000E+00  0.00000000000E+00 -0.21573934327E+03  0.37351040132E+04  0.37288682633E+04 0.  0.
        1    1    3    3  502    0  0.16786716844E+04  0.53156070601E+03 -0.72177240196E+03  0.19030109848E+04  0.50400001928E-02 0. -1.
       -1    1    3    3    0  502 -0.16786716844E+04 -0.53156070601E+03  0.50603305869E+03  0.18320930284E+04  0.50400001928E-02 0.  1.
</event>
<event>
 5   0  0.6204381E-07  0.1980823E+04  0.7818609E-02  0.8615639E-01
        1   -1    0    0  501    0  0.00000000000E+00  0.00000000000E+00  0.15893479968E+04  0.15893479968E+04  0.50400001928E-02 0. -1.
       -1   -1    0    0    0  501  0.00000000000E+00  0.00000000000E+00 -0.61718096456E+03  0.61718096458E+03  0.50400001928E-02 0.  1.
    10030    2    1    2    0    0  0.00000000000E+00  0.00000000000E+00  0.97216703221E+03  0.22065289614E+04  0.19808233941E+04 0.  0.
        2    1    3    3  502    0 -0.42322672455E+02  0.78697204413E+02  0.15848486438E+04  0.15873656423E+04  0.25500000920E-02 0. -1.
       -2    1    3    3    0  502  0.42322672455E+02 -0.78697204413E+02 -0.61268161155E+03  0.61916331910E+03  0.25500000920E-02 0.  1.
</event>
<event>
 5   0  0.6287345E-07  0.3741384E+04  0.7818609E-02  0.8058852E-01
       -1   -1    0    0    0  501  0.00000000000E+00  0.00000000000E+00  0.18400882507E+04  0.18400882507E+04  0.50400001928E-02 0. -1.
        1   -1    0    0  501    0  0.00000000000E+00  0.00000000000E+00 -0.19018046175E+04  0.19018046175E+04  0.50400001928E-02 0.  1.
    10030    2    1    2    0    0  0.00000000000E+00  0.00000000000E+00 -0.61716366842E+02  0.37418928682E+04  0.37413838786E+04 0.  0.
        5    1    3    3  502    0 -0.13304321686E+04  0.13103157461E+04 -0.14262817308E+03  0.18727898962E+04  0.46999998093E+01 0. -1.
       -5    1    3    3    0  502  0.13304321686E+04 -0.13103157461E+04  0.80911806238E+02  0.18691029720E+04  0.46999998093E+01 0.  1.
</event>
<event>
 5   0  0.6186440E-07  0.2171117E+04  0.7818609E-02  0.8530547E-01
        1   -1    0    0  501    0  0.00000000000E+00  0.00000000000E+00  0.20483857055E+04  0.20483857055E+04  0.50400001928E-02 0.  1.
       -1   -1    0    0    0  501  0.00000000000E+00  0.00000000000E+00 -0.57530071365E+03  0.57530071367E+03  0.50400001928E-02 0. -1.
    10030    2    1    2    0    0  0.00000000000E+00  0.00000000000E+00  0.14730849919E+04  0.26236864192E+04  0.21711174618E+04 0.  0.
        3    1    3    3  502    0 -0.70730565421E+03 -0.77343872576E+03  0.39485025501E+03  0.11199979844E+04  0.10100000352E+00 0. -1.
       -3    1    3    3    0  502  0.70730565421E+03  0.77343872576E+03  0.10782347369E+04  0.15036884348E+04  0.10100000352E+00 0.  1.
</event>
<event>
 5   0  0.1685793E-06  0.3735353E+04  0.7818609E-02  0.8060172E-01
        2   -1    0    0  501    0  0.00000000000E+00  0.00000000000E+00  0.25741865717E+04  0.25741865717E+04  0.25500000920E-02 0.  1.
       -2   -1    0    0    0  501  0.00000000000E+00  0.00000000000E+00 -0.13550749565E+04  0.13550749565E+04  0.25500000920E-02 0. -1.
    10030    2    1    2    0    0  0.00000000000E+00  0.00000000000E+00  0.12191116153E+04  0.39292615282E+04  0.37353531328E+04 0.  0.
        3    1    3    3  502    0  0.61874161419E+03  0.19181372233E+03 -0.12331166362E+04  0.13929143326E+04  0.10100000352E+00 0. -1.
       -3    1    3    3    0  502 -0.61874161419E+03 -0.19181372233E+03  0.24522282515E+04  0.25363471956E+04  0.10100000352E+00 0.  1.
</event>
<event>
 5   0  0.1680194E-06  0.3320198E+04  0.7818609E-02  0.8157775E-01
        2   -1    0    0  501    0  0.00000000000E+00  0.00000000000E+00  0.13822677265E+04  0.13822677265E+04  0.25500000920E-02 0. -1.
       -2   -1    0    0    0  501  0.00000000000E+00  0.00000000000E+00 -0.19937737751E+04  0.19937737751E+04  0.25500000920E-02 0.  1.
    10030    2    1    2    0    0  0.00000000000E+00  0.00000000000E+00 -0.61150604857E+03  0.33760415016E+04  0.33201982732E+04 0.  0.
        2    1    3    3  502    0  0.10084186527E+04 -0.23541420178E+02  0.10349326035E+04  0.14451809130E+04  0.25500000920E-02 0. -1.
       -2    1    3    3    0  502 -0.10084186527E+04  0.23541420178E+02 -0.16464386521E+04  0.19308605886E+04  0.25500000920E-02 0.  1.
</event>
<event>
 5   0  0.1724503E-06  0.2394087E+04  0.7818609E-02  0.8441721E-01
       -2   -1    0    0    0  501  0.00000000000E+00  0.00000000000E+00  0.23437705749E+04  0.23437705750E+04  0.25500000920E-02 0.  1.
        2   -1    0    0  501    0  0.00000000000E+00  0.00000000000E+00 -0.61137070877E+03  0.61137070878E+03  0.25500000920E-02 0. -1.
    10030    2    1    2    0    0  0.00000000000E+00  0.00000000000E+00  0.17323998662E+04  0.29551412837E+04  0.23940866130E+04 0.  0.
        1    1    3    3  502    0 -0.50518779715E+03 -0.65273783396E+00  0.22057386637E+04  0.22628517824E+04  0.50400001928E-02 0.  1.
       -1    1    3    3    0  502  0.50518779715E+03  0.65273783396E+00 -0.47333879751E+03  0.69228950137E+03  0.50400001928E-02 0. -1.
</event>
<event>
 5   0  0.5679750E-07  0.3774673E+04  0.7818609E-02  0.8051612E-01
        1   -1    0    0  501    0  0.00000000000E+00  0.00000000000E+00  0.22786884390E+04  0.22786884390E+04  0.50400001928E-02 0. -1.
       -1   -1    0    0    0  501  0.00000000000E+00  0.00000000000E+00 -0.15631967435E+04  0.15631967435E+04  0.50400001928E-02 0.  1.
    10030    2    1    2    0    0  0.00000000000E+00  0.00000000000E+00  0.71549169550E+03  0.38418851826E+04  0.37746726202E+04 0.  0.
        4    1    3    3  502    0  0.42704860400E+03  0.65907540210E+03 -0.13889963627E+04  0.15956388702E+04  0.12699999809E+01 0.  1.
       -4    1    3    3    0  502 -0.42704860400E+03 -0.65907540210E+03  0.21044880582E+04  0.22462463123E+04  0.12699999809E+01 0. -1.
</event>
<event>
 5   0  0.1685793E-06  0.3688837E+04  0.7818609E-02  0.8070440E-01
       -2   -1    0    0    0  501  0.00000000000E+00  0.00000000000E+00  0.15777243335E+04  0.15777243335E+04  0.25500000920E-02 0.  1.
        2   -1    0    0  501    0  0.00000000000E+00  0.00000000000E+00 -0.21561936106E+04  0.21561936106E+04  0.25500000920E-02 0. -1.
    10030    2    1    2    0    0  0.00000000000E+00  0.00000000000E+00 -0.57846927707E+03  0.37339179441E+04  0.36888367420E+04 0.  0.
        3    1    3    3  502    0 -0.21261949554E+03 -0.21097510475E+03  0.15529412423E+04  0.15815638011E+04  0.10100000352E+00 0.  1.
       -3    1    3    3    0  502  0.21261949554E+03  0.21097510475E+03 -0.21314105194E+04  0.21523541430E+04  0.10100000352E+00 0. -1.
</event>
<event>
 5   0  0.1151180E-06  0.3724298E+04  0.7818609E-02  0.8062598E-01
        2   -1    0    0  501    0  0.00000000000E+00  0.00000000000E+00  0.21998542293E+04  0.21998542293E+04  0.25500000920E-02 0.  1.
       -2   -1    0    0    0  501  0.00000000000E+00  0.00000000000E+00 -0.15762856645E+04  0.15762856645E+04  0.25500000920E-02 0. -1.
    10030    2    1    2    0    0  0.00000000000E+00  0.00000000000E+00  0.62356856484E+03  0.37761398938E+04  0.37242978859E+04 0.  0.
        5    1    3    3  502    0 -0.17559329908E+04  0.61891760427E+03  0.34715434747E+03  0.18939107424E+04  0.46999998093E+01 0. -1.
       -5    1    3    3    0  502  0.17559329908E+04 -0.61891760427E+03  0.27641421737E+03  0.18822291515E+04  0.46999998093E+01 0.  1.
</event>
<event>
 5   0  0.5679750E-07  0.3672615E+04  0.7818609E-02  0.8074058E-01
       -1   -1    0    0    0  501  0.00000000000E+00  0.00000000000E+00  0.19861608740E+04  0.19861608740E+04  0.50400001928E-02 0. -1.
        1   -1    0    0  501    0  0.00000000000E+00  0.00000000000E+00 -0.16977603191E+04  0.16977603191E+04  0.50400001928E-02 0.  1.
    10030    2    1    2    0    0  0.00000000000E+00  0.00000000000E+00  0.28840055489E+03  0.36839211932E+04  0.36726149373E+04 0.  0.
        4    1    3    3  502    0 -0.31204756085E+03 -0.39836572226E+03  0.19148411865E+04  0.19805775197E+04  0.12699999809E+01 0. -1.
       -4    1    3    3    0  502  0.31204756085E+03  0.39836572226E+03 -0.16264406316E+04  0.17033436735E+04  0.12699999809E+01 0.  1.
</event>
<event>
 5   0  0.5679750E-07  0.3666440E+04  0.7818609E-02  0.8075440E-01
       -3   -1    0    0    0  501  0.00000000000E+00  0.00000000000E+00  0.17017676469E+04  0.17017676499E+04  0.10100000352E+00 0.  1.
        3   -1    0    0  501    0  0.00000000000E+00  0.00000000000E+00 -0.19748263554E+04  0.19748263580E+04  0.10100000352E+00 0. -1.
    10030    2    1    2    0    0  0.00000000000E+00  0.00000000000E+00 -0.27305870851E+03  0.36765940079E+04  0.36664400228E+04 0.  0.
        1    1    3    3  502    0  0.68011022403E+03  0.12553518098E+04  0.10165410612E+04  0.17526590690E+04  0.50400001928E-02 0.  1.
       -1    1    3    3    0  502 -0.68011022403E+03 -0.12553518098E+04 -0.12895997697E+04  0.19239349389E+04  0.50400001928E-02 0. -1.
</event>
<event>
 5   0  0.1151180E-06  0.3697764E+04  0.7818609E-02  0.8068458E-01
        2   -1    0    0  501    0  0.00000000000E+00  0.00000000000E+00  0.31863289338E+04  0.31863289338E+04  0.25500000920E-02 0.  1.
       -2   -1    0    0    0  501  0.00000000000E+00  0.00000000000E+00 -0.10728221911E+04  0.10728221911E+04  0.25500000920E-02 0. -1.
    10030    2    1    2    0    0  0.00000000000E+00  0.00000000000E+00  0.21135067427E+04  0.42591511249E+04  0.36977638585E+04 0.  0.
        5    1    3    3  502    0 -0.88481218963E+03 -0.95548728634E+03 -0.45493649580E+03  0.13794338949E+04  0.46999998093E+01 0. -1.
       -5    1    3    3    0  502  0.88481218963E+03  0.95548728634E+03  0.25684432385E+04  0.28797172300E+04  0.46999998093E+01 0.  1.
</event>
<event>
 5   0  0.1184684E-06  0.3572914E+04  0.7818609E-02  0.8096724E-01
       -2   -1    0    0    0  501  0.00000000000E+00  0.00000000000E+00  0.12309721718E+04  0.12309721718E+04  0.25500000920E-02 0.  1.
        2   -1    0    0  501    0  0.00000000000E+00  0.00000000000E+00 -0.25926078570E+04  0.25926078570E+04  0.25500000920E-02 0. -1.
    10030    2    1    2    0    0  0.00000000000E+00  0.00000000000E+00 -0.13616356851E+04  0.38235800288E+04  0.35729137266E+04 0.  0.
        4    1    3    3  502    0  0.14777621791E+04 -0.93404435619E+03 -0.10743195231E+04  0.20519220180E+04  0.12699999809E+01 0.  1.
       -4    1    3    3    0  502 -0.14777621791E+04  0.93404435619E+03 -0.28731616201E+03  0.17716580108E+04  0.12699999809E+01 0. -1.
</event>
<event>
 5   0  0.1184684E-06  0.3668272E+04  0.7818609E-02  0.8075030E-01
       -2   -1    0    0    0  501  0.00000000000E+00  0.00000000000E+00  0.17012912738E+04  0.17012912738E+04  0.25500000920E-02 0. -1.
        2   -1    0    0  501    0  0.00000000000E+00  0.00000000000E+00 -0.19773540223E+04  0.19773540223E+04  0.25500000920E-02 0.  1.
    10030    2    1    2    0    0  0.00000000000E+00  0.00000000000E+00 -0.27606274849E+03  0.36786452961E+04  0.36682721510E+04 0.  0.
        4    1    3    3  502    0 -0.94893128017E+03 -0.31457957638E+03 -0.16801127344E+04  0.19550476458E+04  0.12699999809E+01 0.  1.
       -4    1    3    3    0  502  0.94893128017E+03  0.31457957638E+03  0.14040499859E+04  0.17235976503E+04  0.12699999809E+01 0. -1.
</event>
<event>
 5   0  0.1680194E-06  0.3731907E+04  0.7818609E-02  0.8060927E-01
        2   -1    0    0  501    0  0.00000000000E+00  0.00000000000E+00  0.18069857110E+04  0.18069857110E+04  0.25500000920E-02 0.  1.
       -2   -1    0    0    0  501  0.00000000000E+00  0.00000000000E+00 -0.19268457068E+04  0.19268457068E+04  0.25500000920E-02 0. -1.
    10030    2    1    2    0    0  0.00000000000E+00  0.00000000000E+00 -0.11985999585E+03  0.37338314178E+04  0.37319071047E+04 0.  0.
        2    1    3    3  502    0  0.13917504407E+04  0.18555774732E+03  0.11696795803E+04  0.18274439218E+04  0.25500000920E-02 0.  1.
       -2    1    3    3    0  502 -0.13917504407E+04 -0.18555774732E+03 -0.12895395761E+04  0.19063874960E+04  0.25500000920E-02 0. -1.
</event>
<event>
 5   0  0.5679750E-07  0.3605277E+04  0.7818609E-02  0.8089284E-01
        3   -1    0    0  501    0  0.00000000000E+00  0.00000000000E+00  0.25970454312E+04  0.25970454331E+04  0.10100000352E+00 0.  1.
       -3   -1    0    0    0  501  0.00000000000E+00  0.00000000000E+00 -0.12512316976E+04  0.12512317017E+04  0.10100000352E+00 0. -1.
    10030    2    1    2    0    0  0.00000000000E+00  0.00000000000E+00  0.13458137335E+04  0.38482771349E+04  0.36052770076E+04 0.  0.
        5    1    3    3  502    0 -0.87473685639E+03 -0.80408655931E+03 -0.77410648560E+03  0.14180912184E+04  0.46999998093E+01 0. -1.
       -5    1    3    3    0  502  0.87473685639E+03  0.80408655931E+03  0.21199202191E+04  0.24301859164E+04  0.46999998093E+01 0.  1.
</event>
<event>
 5   0  0.1724503E-06  0.3034153E+04  0.7818609E-02  0.8234045E-01
        2   -1    0    0  501    0  0.00000000000E+00  0.00000000000E+00  0.15095839847E+04  0.15095839847E+04  0.25500000920E-02 0. -1.
       -2   -1    0    0    0  501  0.00000000000E+00  0.00000000000E+00 -0.15246061248E+04  0.15246061248E+04  0.25500000920E-02 0.  1.
    10030    2    1    2    0    0  0.00000000000E+00  0.00000000000E+00 -0.15022140092E+02  0.30341901095E+04  0.30341529223E+04 0.  0.
        1    1    3    3  502    0  0.17194544956E+03 -0.22513559944E+03  0.14828996660E+04  0.15097160976E+04  0.50400001928E-02 0. -1.
       -1    1    3    3    0  502 -0.17194544956E+03  0.22513559944E+03 -0.14979218061E+04  0.15244740119E+04  0.50400001928E-02 0.  1.
</event>
<event>
 5   0  0.1184684E-06  0.1911555E+04  0.7818609E-02  0.8649126E-01
       -2   -1    0    0    0  501  0.00000000000E+00  0.00000000000E+00  0.11104542308E+04  0.11104542308E+04  0.25500000920E-02 0. -1.
        2   -1    0    0  501    0  0.00000000000E+00  0.00000000000E+00 -0.82264559251E+03  0.82264559251E+03  0.25500000920E-02 0.  1.
    10030    2    1    2    0    0  0.00000000000E+00  0.00000000000E+00  0.28780863833E+03  0.19330998233E+04  0.19115546329E+04 0.  0.
        4    1    3    3  502    0 -0.83256586127E+03 -0.29653547646E+03  0.51188674620E+03  0.10213367985E+04  0.12699999809E+01 0.  1.
       -4    1    3    3    0  502  0.83256586127E+03  0.29653547646E+03 -0.22407810788E+03  0.91176302484E+03  0.12699999809E+01 0. -1.
</event>
<event>
 5   0  0.6287345E-07  0.3706071E+04  0.7818609E-02  0.8066618E-01
       -1   -1    0    0    0  501  0.00000000000E+00  0.00000000000E+00  0.20054766420E+04  0.20054766420E+04  0.50400001928E-02 0. -1.
        1   -1    0    0  501    0  0.00000000000E+00  0.00000000000E+00 -0.17121820143E+04  0.17121820144E+04  0.50400001928E-02 0.  1.
    10030    2    1    2    0    0  0.00000000000E+00  0.00000000000E+00  0.29329462769E+03  0.37176586564E+04  0.37060712550E+04 0.  0.
        5    1    3    3  502    0 -0.20348047493E+03 -0.18332321087E+04  0.32489553956E+03  0.18728917400E+04  0.46999998093E+01 0.  1.
       -5    1    3    3    0  502  0.20348047493E+03  0.18332321087E+04 -0.31600911863E+02  0.18447669164E+04  0.46999998093E+01 0. -1.
</event>
<event>
 5   0  0.1685793E-06  0.3797053E+04  0.7818609E-02  0.8046788E-01
        2   -1    0    0  501    0  0.00000000000E+00  0.00000000000E+00  0.12762878528E+04  0.12762878528E+04  0.25500000920E-02 0. -1.
       -2   -1    0    0    0  501  0.00000000000E+00  0.00000000000E+00 -0.28241298774E+04  0.28241298774E+04  0.25500000920E-02 0.  1.
    10030    2    1    2    0    0  0.00000000000E+00  0.00000000000E+00 -0.15478420246E+04  0.41004177302E+04  0.37970528873E+04 0.  0.
        3    1    3    3  502    0 -0.15473155137E+04 -0.13113416450E+03 -0.19534416207E+04  0.24954590046E+04  0.10100000352E+00 0.  1.
       -3    1    3    3    0  502  0.15473155137E+04  0.13113416450E+03  0.40559959609E+03  0.16049587255E+04  0.10100000352E+00 0. -1.
</event>
<event>
 5   0  0.6287345E-07  0.3729733E+04  0.7818609E-02  0.8061404E-01
       -1   -1    0    0    0  501  0.00000000000E+00  0.00000000000E+00  0.14543269305E+04  0.14543269305E+04  0.50400001928E-02 0.  1.
        1   -1    0    0  501    0  0.00000000000E+00  0.00000000000E+00 -0.23912971332E+04  0.23912971332E+04  0.50400001928E-02 0. -1.
    10030    2    1    2    0    0  0.00000000000E+00  0.00000000000E+00 -0.93697020275E+03  0.38456240637E+04  0.37297334058E+04 0.  0.
        5    1    3    3  502    0  0.92518795074E+03  0.47647952525E+03 -0.20640505228E+04  0.23115648667E+04  0.46999998093E+01 0. -1.
       -5    1    3    3    0  502 -0.92518795074E+03 -0.47647952525E+03  0.11270803201E+04  0.15340591970E+04  0.46999998093E+01 0.  1.
</event>
<event>
 5   0  0.5679750E-07  0.3203530E+04  0.7818609E-02  0.8187886E-01
        1   -1    0    0  501    0  0.00000000000E+00  0.00000000000E+00  0.20308254450E+04  0.20308254451E+04  0.50400001928E-02 0.  1.
       -1   -1    0    0    0  501  0.00000000000E+00  0.00000000000E+00 -0.12633537977E+04  0.12633537977E+04  0.50400001928E-02 0. -1.
    10030    2    1    2    0    0  0.00000000000E+00  0.00000000000E+00  0.76747164736E+03  0.32941792427E+04  0.32035299521E+04 0.  0.
        4    1    3    3  502    0  0.13104900459E+04  0.47077543467E+03  0.11977388570E+04  0.18367345080E+04  0.12699999809E+01 0. -1.
       -4    1    3    3    0  502 -0.13104900459E+04 -0.47077543467E+03 -0.43026720966E+03  0.14574447348E+04  0.12699999809E+01 0.  1.
</event>
<event>
 5   0  0.5679750E-07  0.3641677E+04  0.7818609E-02  0.8081011E-01
       -1   -1    0    0    0  501  0.00000000000E+00  0.00000000000E+00  0.14864791738E+04  0.14864791738E+04  0.50400001928E-02 0. -1.
        1   -1    0    0  501    0  0.00000000000E+00  0.00000000000E+00 -0.22304062881E+04  0.22304062881E+04  0.50400001928E-02 0.  1.
    10030    2    1    2    0    0  0.00000000000E+00  0.00000000000E+00 -0.74392711437E+03  0.37168854619E+04  0.36416768096E+04 0.  0.
        4    1    3    3  502    0 -0.16782077101E+04 -0.15061631625E+03  0.33249684216E+03  0.17174464056E+04  0.12699999809E+01 0. -1.
       -4    1    3    3    0  502  0.16782077101E+04  0.15061631625E+03 -0.10764239565E+04  0.19994390564E+04  0.12699999809E+01 0.  1.
</event>
<event>
 5   0  0.5875011E-07  0.2554107E+04  0.7818609E-02  0.8383959E-01
        1   -1    0    0  501    0  0.00000000000E+00  0.00000000000E+00  0.99493118416E+03  0.99493118418E+03  0.50400001928E-02 0. -1.
       -1   -1    0    0    0  501  0.00000000000E+00  0.00000000000E+00 -0.16391745696E+04  0.16391745696E+04  0.50400001928E-02 0.  1.
    10030    2    1    2    0    0  0.00000000000E+00  0.00000000000E+00 -0.64424338546E+03  0.26341057538E+04  0.25541071987E+04 0.  0.
        2    1    3    3  502    0 -0.12304637857E+04 -0.34176489396E+03 -0.32690651185E+03  0.13182231367E+04  0.25500000920E-02 0. -1.
       -2    1    3    3    0  502  0.12304637857E+04  0.34176489396E+03 -0.31733687361E+03  0.13158826171E+04  0.25500000920E-02 0.  1.
</event>
<event>
 5   0  0.5679750E-07  0.3681322E+04  0.7818609E-02  0.8072114E-01
        1   -1    0    0  501    0  0.00000000000E+00  0.00000000000E+00  0.15984056108E+04  0.15984056108E+04  0.50400001928E-02 0.  1.
       -1   -1    0    0    0  501  0.00000000000E+00  0.00000000000E+00 -0.21196325460E+04  0.21196325460E+04  0.50400001928E-02 0. -1.
    10030    2    1    2    0    0  0.00000000000E+00  0.00000000000E+00 -0.52122693527E+03  0.37180381568E+04  0.36813218030E+04 0.  0.
        4    1    3    3  502    0  0.13120780984E+04  0.74021657232E+03  0.80755555656E+03  0.17092738517E+04  0.12699999809E+01 0.  1.
       -4    1    3    3    0  502 -0.13120780984E+04 -0.74021657232E+03 -0.13287824918E+04  0.20087643051E+04  0.12699999809E+01 0. -1.
</event>
<event>
 5   0  0.1184684E-06  0.3195028E+04  0.7818609E-02  0.8190131E-01
       -2   -1    0    0    0  501  0.00000000000E+00  0.00000000000E+00  0.12841650386E+04  0.12841650386E+04  0.25500000920E-02 0. -1.
        2   -1    0    0  501    0  0.00000000000E+00  0.00000000000E+00 -0.19873232864E+04  0.19873232864E+04  0.25500000920E-02 0.  1.
    10030    2    1    2    0    0  0.00000000000E+00  0.00000000000E+00 -0.70315824787E+03  0.32714883250E+04  0.31950280655E+04 0.  0.
        4    1    3    3  502    0  0.11792984403E+04  0.83102044697E+03 -0.10540806321E+04  0.17867365184E+04  0.12699999809E+01 0.  1.
       -4    1    3    3    0  502 -0.11792984403E+04 -0.83102044697E+03  0.35092238420E+03  0.14847518066E+04  0.12699999809E+01 0. -1.
</event>
<event>
 5   0  0.1184684E-06  0.3751184E+04  0.7818609E-02  0.8056712E-01
       -2   -1    0    0    0  501  0.00000000000E+00  0.00000000000E+00  0.15637683129E+04  0.15637683129E+04  0.25500000920E-02 0.  1.
        2   -1    0    0  501    0  0.00000000000E+00  0.00000000000E+00 -0.22495955049E+04  0.22495955049E+04  0.25500000920E-02 0. -1.
    10030    2    1    2    0    0  0.00000000000E+00  0.00000000000E+00 -0.68582719200E+03  0.38133638177E+04  0.37511844355E+04 0.  0.
        4    1    3    3  502    0  0.26682316895E+03 -0.35745130028E+03  0.15090630333E+04  0.15736069671E+04  0.12699999809E+01 0.  1.
       -4    1    3    3    0  502 -0.26682316895E+03  0.35745130028E+03 -0.21948902253E+04  0.22397568506E+04  0.12699999809E+01 0. -1.
</event>
<event>
 5   0  0.1680194E-06  0.2150363E+04  0.7818609E-02  0.8539377E-01
       -2   -1    0    0    0  501  0.00000000000E+00  0.00000000000E+00  0.62431934624E+03  0.62431934624E+03  0.25500000920E-02 0. -1.
        2   -1    0    0  501    0  0.00000000000E+00  0.00000000000E+00 -0.18516411380E+04  0.18516411380E+04  0.25500000920E-02 0.  1.
    10030    2    1    2    0    0  0.00000000000E+00  0.00000000000E+00 -0.12273217918E+04  0.24759604843E+04  0.21503631180E+04 0.  0.
        2    1    3    3  502    0  0.10105658127E+03  0.78198903900E+03  0.22797239672E+03  0.82078663696E+03  0.25500000920E-02 0. -1.
       -2    1    3    3    0  502 -0.10105658127E+03 -0.78198903900E+03 -0.14552941885E+04  0.16551738473E+04  0.25500000920E-02 0.  1.
</event>
<event>
 5   0  0.6186440E-07  0.3664047E+04  0.7818609E-02  0.8075976E-01
        1   -1    0    0  501    0  0.00000000000E+00  0.00000000000E+00  0.17547258945E+04  0.17547258945E+04  0.50400001928E-02 0.  1.
       -1   -1    0    0    0  501  0.00000000000E+00  0.00000000000E+00 -0.19127260948E+04  0.19127260948E+04  0.50400001928E-02 0. -1.
    10030    2    1    2    0    0  0.00000000000E+00  0.00000000000E+00 -0.15800020024E+03  0.36674519893E+04  0.36640469471E+04 0.  0.
        3    1    3    3  502    0 -0.16104651934E+03 -0.65063088978E+03  0.16275927307E+04  0.17602030120E+04  0.10100000352E+00 0.  1.
       -3    1    3    3    0  502  0.16104651934E+03  0.65063088978E+03 -0.17855929310E+04  0.19072489773E+04  0.10100000352E+00 0. -1.
</event>
<event>
 5   0  0.6261598E-07  0.2912434E+04  0.7818609E-02  0.8269188E-01
       -1   -1    0    0    0  501  0.00000000000E+00  0.00000000000E+00  0.90474280451E+03  0.90474280452E+03  0.50400001928E-02 0.  1.
        1   -1    0    0  501    0  0.00000000000E+00  0.00000000000E+00 -0.23438355032E+04  0.23438355032E+04  0.50400001928E-02 0. -1.
    10030    2    1    2    0    0  0.00000000000E+00  0.00000000000E+00 -0.14390926987E+04  0.32485783077E+04  0.29124342441E+04 0.  0.
        1    1    3    3  502    0 -0.68729712759E+03  0.57744676284E+03  0.55941721853E+03  0.10577191167E+04  0.50400001928E-02 0.  1.
       -1    1    3    3    0  502  0.68729712759E+03 -0.57744676284E+03 -0.19985099172E+04  0.21908591910E+04  0.50400001928E-02 0. -1.
</event>
<event>
 5   0  0.1724503E-06  0.3775116E+04  0.7818609E-02  0.8051516E-01
        2   -1    0    0  501    0  0.00000000000E+00  0.00000000000E+00  0.18972793291E+04  0.18972793291E+04  0.25500000920E-02 0.  1.
       -2   -1    0    0    0  501  0.00000000000E+00  0.00000000000E+00 -0.18778860666E+04  0.18778860666E+04  0.25500000920E-02 0. -1.
    10030    2    1    2    0    0  0.00000000000E+00  0.00000000000E+00  0.19393262554E+02  0.37751653957E+04  0.37751155832E+04 0.  0.
        1    1    3    3  502    0 -0.12659448306E+04  0.27468802254E+02 -0.13901445307E+04  0.18803916256E+04  0.50400001928E-02 0. -1.
       -1    1    3    3    0  502  0.12659448306E+04 -0.27468802254E+02  0.14095377933E+04  0.18947737701E+04  0.50400001928E-02 0.  1.
</event>
<event>
 5   0  0.6287345E-07  0.2163613E+04  0.7818609E-02  0.8533728E-01
       -1   -1    0    0    0  501  0.00000000000E+00  0.00000000000E+00  0.95430406314E+03  0.95430406315E+03  0.50400001928E-02 0. -1.
        1   -1    0    0  501    0  0.00000000000E+00  0.00000000000E+00 -0.12263445259E+04  0.12263445259E+04  0.50400001928E-02 0.  1.
    10030    2    1    2    0    0  0.00000000000E+00  0.00000000000E+00 -0.27204046274E+03  0.21806485890E+04  0.21636132407E+04 0.  0.
        5    1    3    3  502    0  0.10340796858E+04  0.18792560619E+03 -0.39425357466E+03  0.11225394431E+04  0.46999998093E+01 0.  1.
       -5    1    3    3    0  502 -0.10340796858E+04 -0.18792560619E+03  0.12221311192E+03  0.10581091460E+04  0.46999998093E+01 0. -1.
</event>
<event>
 5   0  0.5875011E-07  0.3803093E+04  0.7818609E-02  0.8045492E-01
       -1   -1    0    0    0  501  0.00000000000E+00  0.00000000000E+00  0.15112930499E+04  0.15112930499E+04  0.50400001928E-02 0.  1.
        1   -1    0    0  501    0  0.00000000000E+00  0.00000000000E+00 -0.23925726035E+04  0.23925726035E+04  0.50400001928E-02 0. -1.
    10030    2    1    2    0    0  0.00000000000E+00  0.00000000000E+00 -0.88127955357E+03  0.39038656534E+04  0.38030926085E+04 0.  0.
        2    1    3    3  502    0 -0.11808173225E+04  0.49029812398E+03 -0.18854718029E+04  0.22780969512E+04  0.25500000920E-02 0. -1.
       -2    1    3    3    0  502  0.11808173225E+04 -0.49029812398E+03  0.10041922493E+04  0.16257687022E+04  0.25500000920E-02 0.  1.
</event>
<event>
 5   0  0.6261598E-07  0.2262733E+04  0.7818609E-02  0.8492761E-01
        1   -1    0    0  501    0  0.00000000000E+00  0.00000000000E+00  0.15410695278E+04  0.15410695278E+04  0.50400001928E-02 0. -1.
       -1   -1    0    0    0  501  0.00000000000E+00  0.00000000000E+00 -0.83058579572E+03  0.83058579573E+03  0.50400001928E-02 0.  1.
    10030    2    1    2    0    0  0.00000000000E+00  0.00000000000E+00  0.71048373207E+03  0.23716553235E+04  0.22627332676E+04 0.  0.
        1    1    3    3  502    0 -0.27210023609E+03  0.64379008076E+03 -0.57723893475E+03  0.90648165695E+03  0.50400001928E-02 0.  1.
       -1    1    3    3    0  502  0.27210023609E+03 -0.64379008076E+03  0.12877226668E+04  0.14651736666E+04  0.50400001928E-02 0. -1.
</event>
<event>
 5   0  0.5679750E-07  0.3571310E+04  0.7818609E-02  0.8097095E-01
        1   -1    0    0  501    0  0.00000000000E+00  0.00000000000E+00  0.16475658417E+04  0.16475658417E+04  0.50400001928E-02 0. -1.
       -1   -1    0    0    0  501  0.00000000000E+00  0.00000000000E+00 -0.19353180993E+04  0.19353180993E+04  0.50400001928E-02 0.  1.
    10030    2    1    2    0    0  0.00000000000E+00  0.00000000000E+00 -0.28775225757E+03  0.35828839410E+04  0.35713101200E+04 0.  0.
        4    1    3    3  502    0 -0.13925569148E+04 -0.26925235097E+03 -0.12322193531E+04  0.18788501102E+04  0.12699999809E+01 0.  1.
       -4    1    3    3    0  502  0.13925569148E+04  0.26925235097E+03  0.94446709554E+03  0.17040338309E+04  0.12699999809E+01 0. -1.
</event>
<event>
 5   0  0.6287345E-07  0.3726077E+04  0.7818609E-02  0.8062207E-01
        1   -1    0    0  501    0  0.00000000000E+00  0.00000000000E+00  0.99329376942E+03  0.99329376943E+03  0.50400001928E-02 0.  1.
       -1   -1    0    0    0  501  0.00000000000E+00  0.00000000000E+00 -0.34943457385E+04  0.34943457385E+04  0.50400001928E-02 0. -1.
    10030    2    1    2    0    0  0.00000000000E+00  0.00000000000E+00 -0.25010519691E+04  0.44876395079E+04  0.37260766768E+04 0.  0.
        5    1    3    3  502    0  0.11964086450E+04  0.11690422118E+04 -0.26260793276E+03  0.16932331072E+04  0.46999998093E+01 0.  1.
       -5    1    3    3    0  502 -0.11964086450E+04 -0.11690422118E+04 -0.22384440363E+04  0.27944064008E+04  0.46999998093E+01 0. -1.
</event>
<event>
 5   0  0.6186440E-07  0.3839032E+04  0.7818609E-02  0.8037830E-01
       -1   -1    0    0    0  501  0.00000000000E+00  0.00000000000E+00  0.17399426058E+04  0.17399426058E+04  0.50400001928E-02 0.  1.
        1   -1    0    0  501    0  0.00000000000E+00  0.00000000000E+00 -0.21176222975E+04  0.21176222975E+04  0.50400001928E-02 0. -1.
    10030    2    1    2    0    0  0.00000000000E+00  0.00000000000E+00 -0.37767969170E+03  0.38575649034E+04  0.38390317834E+04 0.  0.
        3    1    3    3  502    0 -0.27514819422E+03 -0.61057982862E+03  0.16187404640E+04  0.17518090523E+04  0.10100000352E+00 0.  1.
       -3    1    3    3    0  502  0.27514819422E+03  0.61057982862E+03 -0.19964201557E+04  0.21057558510E+04  0.10100000352E+00 0. -1.
</event>
<event>
 5   0  0.6428044E-07  0.1951228E+04  0.7818609E-02  0.8629769E-01
       -1   -1    0    0    0  501  0.00000000000E+00  0.00000000000E+00  0.10305750878E+04  0.10305750879E+04  0.50400001928E-02 0. -1.
        1   -1    0    0  501    0  0.00000000000E+00  0.00000000000E+00 -0.92358406498E+03  0.92358406500E+03  0.50400001928E-02 0.  1.
    10030    2    1    2    0    0  0.00000000000E+00  0.00000000000E+00  0.10699102287E+03  0.19541591529E+04  0.19512280532E+04 0.  0.
        1    1    3    3  502    0  0.34254477527E+03 -0.61918885968E+03  0.72613748249E+03  0.10139070029E+04  0.50400001928E-02 0. -1.
       -1    1    3    3    0  502 -0.34254477527E+03  0.61918885968E+03 -0.61914645962E+03  0.94025214996E+03  0.50400001928E-02 0.  1.
</event>
<event>
 5   0  0.1184684E-06  0.1851593E+04  0.7818609E-02  0.8679334E-01
       -2   -1    0    0    0  501  0.00000000000E+00  0.00000000000E+00  0.61700977775E+03  0.61700977776E+03  0.25500000920E-02 0. -1.
        2   -1    0    0  501    0  0.00000000000E+00  0.00000000000E+00 -0.13891175641E+04  0.13891175641E+04  0.25500000920E-02 0.  1.
    10030    2    1    2    0    0  0.00000000000E+00  0.00000000000E+00 -0.77210778637E+03  0.20061273419E+04  0.18515929569E+04 0.  0.
        4    1    3    3  502    0  0.78404870120E+03  0.43547802412E+03 -0.13727285183E+03  0.90731412647E+03  0.12699999809E+01 0. -1.
       -4    1    3    3    0  502 -0.78404870120E+03 -0.43547802412E+03 -0.63483493454E+03  0.10988132154E+04  0.12699999809E+01 0.  1.
</event>
<event>
 5   0  0.1184684E-06  0.3236678E+04  0.7818609E-02  0.8179197E-01
       -2   -1    0    0    0  501  0.00000000000E+00  0.00000000000E+00  0.11796045454E+04  0.11796045454E+04  0.25500000920E-02 0. -1.
        2   -1    0    0  501    0  0.00000000000E+00  0.00000000000E+00 -0.22202531089E+04  0.22202531089E+04  0.25500000920E-02 0.  1.
    10030    2    1    2    0    0  0.00000000000E+00  0.00000000000E+00 -0.10406485635E+04  0.33998576543E+04  0.32366777159E+04 0.  0.
        4    1    3    3  502    0 -0.11689425338E+03 -0.60409314671E+03  0.10519438173E+04  0.12186796970E+04  0.12699999809E+01 0. -1.
       -4    1    3    3    0  502  0.11689425338E+03  0.60409314671E+03 -0.20925923807E+04  0.21811779572E+04  0.12699999809E+01 0.  1.
</event>
<event>
 5   0  0.5875011E-07  0.2544751E+04  0.7818609E-02  0.8387214E-01
        1   -1    0    0  501    0  0.00000000000E+00  0.00000000000E+00  0.22069705869E+04  0.22069705869E+04  0.50400001928E-02 0.  1.
       -1   -1    0    0    0  501  0.00000000000E+00  0.00000000000E+00 -0.73355704315E+03  0.73355704317E+03  0.50400001928E-02 0. -1.
    10030    2    1    2    0    0  0.00000000000E+00  0.00000000000E+00  0.14734135438E+04  0.29405276301E+04  0.25447505324E+04 0.  0.
        2    1    3    3  502    0 -0.19637267680E+02  0.88772267538E+03  0.17897599417E+04  0.19979183716E+04  0.25500000920E-02 0.  1.
       -2    1    3    3    0  502  0.19637267680E+02 -0.88772267538E+03 -0.31634639794E+03  0.94260925848E+03  0.25500000920E-02 0. -1.
</event>
<event>
 5   0  0.1151180E-06  0.1983629E+04  0.7818609E-02  0.8614313E-01
        2   -1    0    0  501    0  0.00000000000E+00  0.00000000000E+00  0.28887486974E+04  0.28887486974E+04  0.25500000920E-02 0.  1.
       -2   -1    0    0    0  501  0.00000000000E+00  0.00000000000E+00 -0.34052659934E+03  0.34052659935E+03  0.25500000920E-02 0. -1.
    10030    2    1    2    0    0  0.00000000000E+00  0.00000000000E+00  0.25482220981E+04  0.32292752967E+04  0.19836287660E+04 0.  0.
        5    1    3    3  502    0  0.12740551506E+03 -0.30213691520E+03  0.27979360507E+04  0.28170884108E+04  0.46999998093E+01 0.  1.
       -5    1    3    3    0  502 -0.12740551506E+03  0.30213691520E+03 -0.24971395261E+03  0.41218688591E+03  0.46999998093E+01 0. -1.
</event>
<event>
 5   0  0.5875011E-07  0.3691273E+04  0.7818609E-02  0.8069899E-01
        1   -1    0    0  501    0  0.00000000000E+00  0.00000000000E+00  0.26005033090E+04  0.26005033090E+04  0.50400001928E-02 0. -1.
       -1   -1    0    0    0  501  0.00000000000E+00  0.00000000000E+00 -0.13098899808E+04  0.13098899808E+04  0.50400001928E-02 0.  1.
    10030    2    1    2    0    0  0.00000000000E+00  0.00000000000E+00  0.12906133283E+04  0.39103932898E+04  0.36912725337E+04 0.  0.
        2    1    3    3  502    0 -0.95948865232E+03  0.12578049868E+04 -0.36174555905E+03  0.16228221431E+04  0.25500000920E-02 0.  1.
       -2    1    3    3    0  502  0.95948865232E+03 -0.12578049868E+04  0.16523588873E+04  0.22875711467E+04  0.25500000920E-02 0. -1.
</event>
<event>
 5   0  0.5679750E-07  0.1838416E+04  0.7818609E-02  0.8686133E-01
       -1   -1    0    0    0  501  0.00000000000E+00  0.00000000000E+00  0.41472145290E+03  0.41472145293E+03  0.50400001928E-02 0.  1.
        1   -1    0    0  501    0  0.00000000000E+00  0.00000000000E+00 -0.20373747283E+04  0.20373747283E+04  0.50400001928E-02 0. -1.
    10030    2    1    2    0    0  0.00000000000E+00  0.00000000000E+00 -0.16226532754E+04  0.24520961812E+04  0.18384156303E+04 0.  0.
        4    1    3    3  502    0 -0.84742152130E+03  0.33694888383E+03 -0.96505423778E+03  0.13277759901E+04  0.12699999809E+01 0. -1.
       -4    1    3    3    0  502  0.84742152130E+03 -0.33694888383E+03 -0.65759903764E+03  0.11243201912E+04  0.12699999809E+01 0.  1.
</event>
<event>
 5   0  0.5679750E-07  0.3662775E+04  0.7818609E-02  0.8076262E-01
       -1   -1    0    0    0  501  0.00000000000E+00  0.00000000000E+00  0.16060590343E+04  0.16060590343E+04  0.50400001928E-02 0. -1.
        1   -1    0    0  501    0  0.00000000000E+00  0.00000000000E+00 -0.20883294825E+04  0.20883294825E+04  0.50400001928E-02 0.  1.
    10030    2    1    2    0    0  0.00000000000E+00  0.00000000000E+00 -0.48227044815E+03  0.36943885168E+04  0.36627751402E+04 0.  0.
        4    1    3    3  502    0  0.15963658993E+04 -0.75051334653E+03  0.25537812200E+03  0.17823787381E+04  0.12699999809E+01 0. -1.
       -4    1    3    3    0  502 -0.15963658993E+04  0.75051334653E+03 -0.73764857015E+03  0.19120097787E+04  0.12699999809E+01 0.  1.
</event>
<event>
 5   0  0.6261598E-07  0.3633769E+04  0.7818609E-02  0.8082800E-01
       -1   -1    0    0    0  501  0.00000000000E+00  0.00000000000E+00  0.16229497894E+04  0.16229497894E+04  0.50400001928E-02 0. -1.
        1   -1    0    0  501    0  0.00000000000E+00  0.00000000000E+00 -0.20339938727E+04  0.20339938728E+04  0.50400001928E-02 0.  1.
    10030    2    1    2    0    0  0.00000000000E+00  0.00000000000E+00 -0.41104408339E+03  0.36569436621E+04  0.36337693528E+04 0.  0.
        1    1    3    3  502    0 -0.40753521209E+03  0.10211518515E+04  0.12501583320E+04  0.16648519178E+04  0.50400001928E-02 0. -1.
       -1    1    3    3    0  502  0.40753521209E+03 -0.10211518515E+04 -0.16612024154E+04  0.19920917443E+04  0.50400001928E-02 0.  1.
</event>
<event>
 5   0  0.6287345E-07  0.3325294E+04  0.7818609E-02  0.8156489E-01
       -1   -1    0    0    0  501  0.00000000000E+00  0.00000000000E+00  0.15677665083E+04  0.15677665083E+04  0.50400001928E-02 0. -1.
        1   -1    0    0  501    0  0.00000000000E+00  0.00000000000E+00 -0.17632694094E+04  0.17632694094E+04  0.50400001928E-02 0.  1.
    10030    2    1    2    0    0  0.00000000000E+00  0.00000000000E+00 -0.19550290110E+03  0.33310359177E+04  0.33252938067E+04 0.  0.
        5    1    3    3  502    0  0.31765910738E+03 -0.16260559352E+04  0.41799635126E+02  0.16573275212E+04  0.46999998093E+01 0.  1.
       -5    1    3    3    0  502 -0.31765910738E+03  0.16260559352E+04 -0.23730253623E+03  0.16737083965E+04  0.46999998093E+01 0. -1.
</event>
<event>
 5   0  0.1685793E-06  0.3670149E+04  0.7818609E-02  0.8074610E-01
       -2   -1    0    0    0  501  0.00000000000E+00  0.00000000000E+00  0.18029407637E+04  0.18029407637E+04  0.25500000920E-02 0. -1.
        2   -1    0    0  501    0  0.00000000000E+00  0.00000000000E+00 -0.18677810530E+04  0.18677810530E+04  0.25500000920E-02 0.  1.
    10030    2    1    2    0    0  0.00000000000E+00  0.00000000000E+00 -0.64840289344E+02  0.36707218167E+04  0.36701490967E+04 0.  0.
        3    1    3    3  502    0 -0.41427433376E+03  0.10774736291E+04 -0.14591510532E+04  0.18605629393E+04  0.10100000352E+00 0.  1.
       -3    1    3    3    0  502  0.41427433376E+03 -0.10774736291E+04  0.13943107638E+04  0.18101588774E+04  0.10100000352E+00 0. -1.
</event>
<event>
 5   0  0.1724503E-06  0.2058320E+04  0.7818609E-02  0.8579829E-01
       -2   -1    0    0    0  501  0.00000000000E+00  0.00000000000E+00  0.12376382233E+04  0.12376382233E+04  0.25500000920E-02 0. -1.
        2   -1    0    0  501    0  0.00000000000E+00  0.00000000000E+00 -0.85579928197E+03  0.85579928197E+03  0.25500000920E-02 0.  1.
    10030    2    1    2    0    0  0.00000000000E+00  0.00000000000E+00  0.38183894129E+03  0.20934375052E+04  0.20583196086E+04 0.  0.
        1    1    3    3  502    0  0.33245374025E+03 -0.67235879923E+03 -0.52578638414E+03  0.91599299456E+03  0.50400001928E-02 0.  1.
       -1    1    3    3    0  502 -0.33245374025E+03  0.67235879923E+03  0.90762532543E+03  0.11774445107E+04  0.50400001928E-02 0. -1.
</event>
<event>
 5   0  0.5875011E-07  0.3623483E+04  0.7818609E-02  0.8085134E-01
        1   -1    0    0  501    0  0.00000000000E+00  0.00000000000E+00  0.17714775847E+04  0.17714775847E+04  0.50400001928E-02 0. -1.
       -1   -1    0    0    0  501  0.00000000000E+00  0.00000000000E+00 -0.18529203047E+04  0.18529203047E+04  0.50400001928E-02 0.  1.
    10030    2    1    2    0    0  0.00000000000E+00  0.00000000000E+00 -0.81442719994E+02  0.36243978893E+04  0.36234827367E+04 0.  0.
        2    1    3    3  502    0  0.13394409550E+03  0.31714571315E+03 -0.18199017092E+04  0.18521783540E+04  0.25500000920E-02 0.  1.
       -2    1    3    3    0  502 -0.13394409550E+03 -0.31714571315E+03  0.17384589892E+04  0.17722195353E+04  0.25500000920E-02 0. -1.
</event>
<event>
 5   0  0.6261598E-07  0.3784647E+04  0.7818609E-02  0.8049458E-01
        1   -1    0    0  501    0  0.00000000000E+00  0.00000000000E+00  0.15364427901E+04  0.15364427901E+04  0.50400001928E-02 0. -1.
       -1   -1    0    0    0  501  0.00000000000E+00  0.00000000000E+00 -0.23306352459E+04  0.23306352459E+04  0.50400001928E-02 0.  1.
    10030    2    1    2    0    0  0.00000000000E+00  0.00000000000E+00 -0.79419245578E+03  0.38670780359E+04  0.37846467311E+04 0.  0.
        1    1    3    3  502    0  0.64236805797E+03  0.11103794637E+04 -0.18185498167E+04  0.22254668524E+04  0.50400001928E-02 0.  1.
       -1    1    3    3    0  502 -0.64236805797E+03 -0.11103794637E+04  0.10243573609E+04  0.16416111836E+04  0.50400001928E-02 0. -1.
</event>
<event>
 5   0  0.5679750E-07  0.3436955E+04  0.7818609E-02  0.8128895E-01
        3   -1    0    0  501    0  0.00000000000E+00  0.00000000000E+00  0.24098303074E+04  0.24098303096E+04  0.10100000352E+00 0.  1.
       -3   -1    0    0    0  501  0.00000000000E+00  0.00000000000E+00 -0.12254661741E+04  0.12254661782E+04  0.10100000352E+00 0. -1.
    10030    2    1    2    0    0  0.00000000000E+00  0.00000000000E+00  0.11843641334E+04  0.36352964878E+04  0.34369553611E+04 0.  0.
        3    1    3    3  502    0 -0.54712625119E+03  0.34338573809E+03  0.22765323093E+04  0.23664023887E+04  0.10100000352E+00 0.  1.
       -3    1    3    3    0  502  0.54712625119E+03 -0.34338573809E+03 -0.10921681760E+04  0.12688940991E+04  0.10100000352E+00 0. -1.
</event>
<event>
 5   0  0.1685793E-06  0.3585909E+04  0.7818609E-02  0.8093727E-01
        2   -1    0    0  501    0  0.00000000000E+00  0.00000000000E+00  0.22743725553E+04  0.22743725553E+04  0.25500000920E-02 0.  1.
       -2   -1    0    0    0  501  0.00000000000E+00  0.00000000000E+00 -0.14134384556E+04  0.14134384556E+04  0.25500000920E-02 0. -1.
    10030    2    1    2    0    0  0.00000000000E+00  0.00000000000E+00  0.86093409964E+03  0.36878110109E+04  0.35859088845E+04 0.  0.
        3    1    3    3  502    0  0.10232590761E+04 -0.14598410412E+04  0.62692066434E+03  0.18897683805E+04  0.10100000352E+00 0.  1.
       -3    1    3    3    0  502 -0.10232590761E+04  0.14598410412E+04  0.23401343530E+03  0.17980426304E+04  0.10100000352E+00 0. -1.
</event>
<event>
 5   0  0.6261598E-07  0.2502934E+04  0.7818609E-02  0.8401941E-01
       -1   -1    0    0    0  501  0.00000000000E+00  0.00000000000E+00  0.52402019778E+03  0.52402019780E+03  0.50400001928E-02 0. -1.
        1   -1    0    0  501    0  0.00000000000E+00  0.00000000000E+00 -0.29887582794E+04  0.29887582794E+04  0.50400001928E-02 0.  1.
    10030    2    1    2    0    0  0.00000000000E+00  0.00000000000E+00 -0.24647380817E+04  0.35127784773E+04  0.25029340421E+04 0.  0.
        1    1    3    3  502    0 -0.39384690882E+03 -0.31295224837E+03 -0.28406161283E+04  0.28848144629E+04  0.50400001928E-02 0.  1.
       -1    1    3    3    0  502  0.39384690882E+03  0.31295224837E+03  0.37587804660E+03  0.62796401432E+03  0.50400001928E-02 0. -1.
</event>
<event>
 5   0  0.5679750E-07  0.3671934E+04  0.7818609E-02  0.8074210E-01
        1   -1    0    0  501    0  0.00000000000E+00  0.00000000000E+00  0.26975141971E+04  0.26975141971E+04  0.50400001928E-02 0.  1.
       -1   -1    0    0    0  501  0.00000000000E+00  0.00000000000E+00 -0.12495853216E+04  0.12495853216E+04  0.50400001928E-02 0. -1.
    10030    2    1    2    0    0  0.00000000000E+00  0.00000000000E+00  0.14479288756E+04  0.39470995187E+04  0.36719336298E+04 0.  0.
        4    1    3    3  502    0 -0.35534035970E+03  0.11047454332E+04 -0.80533719458E+03  0.14125504781E+04  0.12699999809E+01 0. -1.
       -4    1    3    3    0  502  0.35534035970E+03 -0.11047454332E+04  0.22532660701E+04  0.25345490406E+04  0.12699999809E+01 0.  1.
</event>
<event>
 5   0  0.1184684E-06  0.3693285E+04  0.7818609E-02  0.8069452E-01
        2   -1    0    0  501    0  0.00000000000E+00  0.00000000000E+00  0.11894019129E+04  0.11894019129E+04  0.25500000920E-02 0.  1.
       -2   -1    0    0    0  501  0.00000000000E+00  0.00000000000E+00 -0.28670618333E+04  0.28670618333E+04  0.25500000920E-02 0. -1.
    10030    2    1    2    0    0  0.00000000000E+00  0.00000000000E+00 -0.16776599204E+04  0.40564637462E+04  0.36932851658E+04 0.  0.
        4    1    3    3  502    0 -0.16600980731E+03  0.16146166042E+04  0.12841658938E+03  0.16282009913E+04  0.12699999809E+01 0.  1.
       -4    1    3    3    0  502  0.16600980731E+03 -0.16146166042E+04 -0.18060765098E+04  0.24282627549E+04  0.12699999809E+01 0. -1.
</event>
<event>
 5   0  0.1680194E-06  0.3693425E+04  0.7818609E-02  0.8069421E-01
        2   -1    0    0  501    0  0.00000000000E+00  0.00000000000E+00  0.19563535965E+04  0.19563535965E+04  0.25500000920E-02 0.  1.
       -2   -1    0    0    0  501  0.00000000000E+00  0.00000000000E+00 -0.17432157786E+04  0.17432157786E+04  0.25500000920E-02 0. -1.
    10030    2    1    2    0    0  0.00000000000E+00  0.00000000000E+00  0.21313781791E+03  0.36995693751E+04  0.36934246753E+04 0.  0.
        2    1    3    3  502    0  0.48897203552E+03 -0.17173763711E+04  0.57838462368E+03  0.18769667084E+04  0.25500000920E-02 0.  1.
       -2    1    3    3    0  502 -0.48897203552E+03  0.17173763711E+04 -0.36524680578E+03  0.18226026667E+04  0.25500000920E-02 0. -1.
</event>
<event>
 5   0  0.1151180E-06  0.3594270E+04  0.7818609E-02  0.8091805E-01
        2   -1    0    0  501    0  0.00000000000E+00  0.00000000000E+00  0.21887036027E+04  0.21887036027E+04  0.25500000920E-02 0. -1.
       -2   -1    0    0    0  501  0.00000000000E+00  0.00000000000E+00 -0.14756196727E+04  0.14756196727E+04  0.25500000920E-02 0.  1.
    10030    2    1    2    0    0  0.00000000000E+00  0.00000000000E+00  0.71308392994E+03  0.36643232754E+04  0.35942699363E+04 0.  0.
        5    1    3    3  502    0  0.10289843754E+04  0.59908273328E+03  0.17288694389E+04  0.20992190436E+04  0.46999998093E+01 0. -1.
       -5    1    3    3    0  502 -0.10289843754E+04 -0.59908273328E+03 -0.10157855090E+04  0.15651042318E+04  0.46999998093E+01 0.  1.
</event>
<event>
 5   0  0.1680194E-06  0.3657446E+04  0.7818609E-02  0.8077458E-01
        2   -1    0    0  501    0  0.00000000000E+00  0.00000000000E+00  0.22565681365E+04  0.22565681365E+04  0.25500000920E-02 0. -1.
       -2   -1    0    0    0  501  0.00000000000E+00  0.00000000000E+00 -0.14819969960E+04  0.14819969960E+04  0.25500000920E-02 0.  1.
    10030    2    1    2    0    0  0.00000000000E+00  0.00000000000E+00  0.77457114054E+03  0.37385651325E+04  0.36574456658E+04 0.  0.
        2    1    3    3  502    0 -0.16139905255E+04 -0.63454717802E+03 -0.20576488985E+03  0.17464119581E+04  0.25500000920E-02 0.  1.
       -2    1    3    3    0  502  0.16139905255E+04  0.63454717802E+03  0.98033603039E+03  0.19921531744E+04  0.25500000920E-02 0. -1.
</event>
<event>
 5   0  0.1151180E-06  0.3814593E+04  0.7818609E-02  0.8043030E-01
        2   -1    0    0  501    0  0.00000000000E+00  0.00000000000E+00  0.23629696690E+04  0.23629696690E+04  0.25500000920E-02 0. -1.
       -2   -1    0    0    0  501  0.00000000000E+00  0.00000000000E+00 -0.15394951261E+04  0.15394951261E+04  0.25500000920E-02 0.  1.
    10030    2    1    2    0    0  0.00000000000E+00  0.00000000000E+00  0.82347454292E+03  0.39024647951E+04  0.38145931833E+04 0.  0.
        5    1    3    3  502    0 -0.61916485873E+03 -0.12729820334E+04  0.17194272841E+04  0.22271732432E+04  0.46999998093E+01 0. -1.
       -5    1    3    3    0  502  0.61916485873E+03  0.12729820334E+04 -0.89595274122E+03  0.16752915520E+04  0.46999998093E+01 0.  1.
</event>
<event>
 5   0  0.6287345E-07  0.2086972E+04  0.7818609E-02  0.8567004E-01
       -1   -1    0    0    0  501  0.00000000000E+00  0.00000000000E+00  0.47775895990E+03  0.47775895993E+03  0.50400001928E-02 0. -1.
        1   -1    0    0  501    0  0.00000000000E+00  0.00000000000E+00 -0.22791062777E+04  0.22791062777E+04  0.50400001928E-02 0.  1.
    10030    2    1    2    0    0  0.00000000000E+00  0.00000000000E+00 -0.18013473178E+04  0.27568652376E+04  0.20869723954E+04 0.  0.
        5    1    3    3  502    0  0.47153165624E+03 -0.86531263912E+03 -0.44741253633E+03  0.10822698988E+04  0.46999998093E+01 0. -1.
       -5    1    3    3    0  502 -0.47153165624E+03  0.86531263912E+03 -0.13539347815E+04  0.16745953388E+04  0.46999998093E+01 0.  1.
</event>
<event>
 5   0  0.5679750E-07  0.3865759E+04  0.7818609E-02  0.8032189E-01
       -1   -1    0    0    0  501  0.00000000000E+00  0.00000000000E+00  0.19223236468E+04  0.19223236468E+04  0.50400001928E-02 0.  1.
        1   -1    0    0  501    0  0.00000000000E+00  0.00000000000E+00 -0.19434936812E+04  0.19434936812E+04  0.50400001928E-02 0. -1.
    10030    2    1    2    0    0  0.00000000000E+00  0.00000000000E+00 -0.21170034368E+02  0.38658173280E+04  0.38657593618E+04 0.  0.
        4    1    3    3  502    0 -0.92105957574E+03 -0.16991394176E+04  0.13843724972E+02  0.19327748870E+04  0.12699999809E+01 0.  1.
       -4    1    3    3    0  502  0.92105957574E+03  0.16991394176E+04 -0.35013759340E+02  0.19330424410E+04  0.12699999809E+01 0. -1.
</event>
<event>
 5   0  0.1680194E-06  0.2875382E+04  0.7818609E-02  0.8280240E-01
        2   -1    0    0  501    0  0.00000000000E+00  0.00000000000E+00  0.23501401416E+04  0.23501401416E+04  0.25500000920E-02 0.  1.
       -2   -1    0    0    0  501  0.00000000000E+00  0.00000000000E+00 -0.87950299117E+03  0.87950299117E+03  0.25500000920E-02 0. -1.
    10030    2    1    2    0    0  0.00000000000E+00  0.00000000000E+00  0.14706371504E+04  0.32296431328E+04  0.28753819115E+04 0.  0.
        2    1    3    3  502    0 -0.12048461527E+04 -0.53214444938E+03  0.13826231612E+04  0.19095755478E+04  0.25500000920E-02 0.  1.
       -2    1    3    3    0  502  0.12048461527E+04  0.53214444938E+03  0.88013989202E+02  0.13200675850E+04  0.25500000920E-02 0. -1.
</event>
<event>
 5   0  0.1184684E-06  0.3616154E+04  0.7818609E-02  0.8086801E-01
       -2   -1    0    0    0  501  0.00000000000E+00  0.00000000000E+00  0.19967522616E+04  0.19967522616E+04  0.25500000920E-02 0. -1.
        2   -1    0    0  501    0  0.00000000000E+00  0.00000000000E+00 -0.16372300142E+04  0.16372300142E+04  0.25500000920E-02 0.  1.
    10030    2    1    2    0    0  0.00000000000E+00  0.00000000000E+00  0.35952224749E+03  0.36339822758E+04  0.36161541635E+04 0.  0.
        4    1    3    3  502    0 -0.26838824263E+03 -0.13226196974E+03  0.19716999532E+04  0.19942737514E+04  0.12699999809E+01 0. -1.
       -4    1    3    3    0  502  0.26838824263E+03  0.13226196974E+03 -0.16121777057E+04  0.16397085244E+04  0.12699999809E+01 0.  1.
</event>
<event>
 5   0  0.1184684E-06  0.3597607E+04  0.7818609E-02  0.8091040E-01
        2   -1    0    0  501    0  0.00000000000E+00  0.00000000000E+00  0.18339145224E+04  0.18339145224E+04  0.25500000920E-02 0. -1.
       -2   -1    0    0    0  501  0.00000000000E+00  0.00000000000E+00 -0.17643645869E+04  0.17643645869E+04  0.25500000920E-02 0.  1.
    10030    2    1    2    0    0  0.00000000000E+00  0.00000000000E+00  0.69549935522E+02  0.35982791092E+04  0.35976068927E+04 0.  0.
        4    1    3    3  502    0 -0.13009650942E+04 -0.34617277045E+03  0.12280387355E+04  0.18222037516E+04  0.12699999809E+01 0. -1.
       -4    1    3    3    0  502  0.13009650942E+04  0.34617277045E+03 -0.11584888000E+04  0.17760753577E+04  0.12699999809E+01 0.  1.
</event>
<event>
 5   0  0.1184684E-06  0.3773273E+04  0.7818609E-02  0.8051915E-01
        2   -1    0    0  501    0  0.00000000000E+00  0.00000000000E+00  0.21811728286E+04  0.21811728286E+04  0.25500000920E-02 0. -1.
       -2   -1    0    0    0  501  0.00000000000E+00  0.00000000000E+00 -0.16318731990E+04  0.16318731990E+04  0.25500000920E-02 0.  1.
    10030    2    1    2    0    0  0.00000000000E+00  0.00000000000E+00  0.54929962963E+03  0.38130460276E+04  0.37732731051E+04 0.  0.
        4    1    3    3  502    0  0.10597595948E+04  0.24317156298E+03 -0.12834102912E+04  0.16820720544E+04  0.12699999809E+01 0.  1.
       -4    1    3    3    0  502 -0.10597595948E+04 -0.24317156298E+03  0.18327099208E+04  0.21309739732E+04  0.12699999809E+01 0. -1.
</event>
<event>
 5   0  0.1151180E-06  0.3659157E+04  0.7818609E-02  0.8077074E-01
       -2   -1    0    0    0  501  0.00000000000E+00  0.00000000000E+00  0.19935635468E+04  0.19935635468E+04  0.25500000920E-02 0. -1.
        2   -1    0    0  501    0  0.00000000000E+00  0.00000000000E+00 -0.16790820213E+04  0.16790820213E+04  0.25500000920E-02 0.  1.
    10030    2    1    2    0    0  0.00000000000E+00  0.00000000000E+00  0.31448152546E+03  0.36726455681E+04  0.36591565748E+04 0.  0.
        5    1    3    3  502    0 -0.12159617605E+04  0.16735108734E+03 -0.12045087431E+04  0.17197188118E+04  0.46999998093E+01 0.  1.
       -5    1    3    3    0  502  0.12159617605E+04 -0.16735108734E+03  0.15189902686E+04  0.19529267563E+04  0.46999998093E+01 0. -1.
</event>
<event>
 5   0  0.1151180E-06  0.2844654E+04  0.7818609E-02  0.8289538E-01
       -2   -1    0    0    0  501  0.00000000000E+00  0.00000000000E+00  0.17353233180E+04  0.17353233180E+04  0.25500000920E-02 0.  1.
        2   -1    0    0  501    0  0.00000000000E+00  0.00000000000E+00 -0.11657853865E+04  0.11657853865E+04  0.25500000920E-02 0. -1.
    10030    2    1    2    0    0  0.00000000000E+00  0.00000000000E+00  0.56953793150E+03  0.29011087046E+04  0.28446543305E+04 0.  0.
        5    1    3    3  502    0 -0.87366019711E+03 -0.71373155316E+03 -0.59861859956E+03  0.12771300591E+04  0.46999998093E+01 0. -1.
       -5    1    3    3    0  502  0.87366019711E+03  0.71373155316E+03  0.11681565311E+04  0.16239786455E+04  0.46999998093E+01 0.  1.
</event>
<event>
 5   0  0.1184684E-06  0.3701359E+04  0.7818609E-02  0.8067661E-01
       -2   -1    0    0    0  501  0.00000000000E+00  0.00000000000E+00  0.16660544728E+04  0.16660544728E+04  0.25500000920E-02 0.  1.
        2   -1    0    0  501    0  0.00000000000E+00  0.00000000000E+00 -0.20557640300E+04  0.20557640300E+04  0.25500000920E-02 0. -1.
    10030    2    1    2    0    0  0.00000000000E+00  0.00000000000E+00 -0.38970955728E+03  0.37218185028E+04  0.37013591327E+04 0.  0.
        4    1    3    3  502    0  0.61033811603E+03  0.12521183073E+04 -0.14200727938E+04  0.19892011522E+04  0.12699999809E+01 0. -1.
       -4    1    3    3    0  502 -0.61033811603E+03 -0.12521183073E+04  0.10303632365E+04  0.17326173506E+04  0.12699999809E+01 0.  1.
</event>
<event>
 5   0  0.1685793E-06  0.3708457E+04  0.7818609E-02  0.8066090E-01
        2   -1    0    0  501    0  0.00000000000E+00  0.00000000000E+00  0.32061509943E+04  0.32061509943E+04  0.25500000920E-02 0.  1.
       -2   -1    0    0    0  501  0.00000000000E+00  0.00000000000E+00 -0.10723646432E+04  0.10723646432E+04  0.25500000920E-02 0. -1.
    10030    2    1    2    0    0  0.00000000000E+00  0.00000000000E+00  0.21337863511E+04  0.42785156375E+04  0.37084568042E+04 0.  0.
        3    1    3    3  502    0  0.68401512625E+03  0.17022788735E+04  0.75617445343E+03  0.19842958122E+04  0.10100000352E+00 0. -1.
       -3    1    3    3    0  502 -0.68401512625E+03 -0.17022788735E+04  0.13776118976E+04  0.22942198253E+04  0.10100000352E+00 0.  1.
</event>
<event>
 5   0  0.1184684E-06  0.3401931E+04  0.7818609E-02  0.8137433E-01
        2   -1    0    0  501    0  0.00000000000E+00  0.00000000000E+00  0.20772500261E+04  0.20772500261E+04  0.25500000920E-02 0.  1.
       -2   -1    0    0    0  501  0.00000000000E+00  0.00000000000E+00 -0.13928432824E+04  0.13928432824E+04  0.25500000920E-02 0. -1.
    10030    2    1    2    0    0  0.00000000000E+00  0.00000000000E+00  0.68440674378E+03  0.34700933085E+04  0.34019310661E+04 0.  0.
        4    1    3    3  502    0 -0.30731027186E+02  0.51399415856E+03  0.19958417057E+04  0.20611938574E+04  0.12699999809E+01 0.  1.
       -4    1    3    3    0  502  0.30731027186E+02 -0.51399415856E+03 -0.13114349619E+04  0.14088994511E+04  0.12699999809E+01 0. -1.
</event>
<event>
 5   0  0.5679750E-07  0.3757020E+04  0.7818609E-02  0.8055442E-01
        1   -1    0    0  501    0  0.00000000000E+00  0.00000000000E+00  0.24726485425E+04  0.24726485425E+04  0.50400001928E-02 0.  1.
       -1   -1    0    0    0  501  0.00000000000E+00  0.00000000000E+00 -0.14271334036E+04  0.14271334036E+04  0.50400001928E-02 0. -1.
    10030    2    1    2    0    0  0.00000000000E+00  0.00000000000E+00  0.10455151389E+04  0.38997819461E+04  0.37570197393E+04 0.  0.
        4    1    3    3  502    0 -0.95528500924E+03 -0.12513360836E+04 -0.54107030765E+03  0.16646831932E+04  0.12699999809E+01 0. -1.
       -4    1    3    3    0  502  0.95528500924E+03  0.12513360836E+04  0.15865854466E+04  0.22350987529E+04  0.12699999809E+01 0.  1.
</event>
<event>
 5   0  0.1685793E-06  0.3620734E+04  0.7818609E-02  0.8085759E-01
       -2   -1    0    0    0  501  0.00000000000E+00  0.00000000000E+00  0.21673306144E+04  0.21673306144E+04  0.25500000920E-02 0.  1.
        2   -1    0    0  501    0  0.00000000000E+00  0.00000000000E+00 -0.15121956665E+04  0.15121956665E+04  0.25500000920E-02 0. -1.
    10030    2    1    2    0    0  0.00000000000E+00  0.00000000000E+00  0.65513494784E+03  0.36795262809E+04  0.36207336069E+04 0.  0.
        3    1    3    3  502    0 -0.17991650947E+04  0.53163708935E+02  0.13049453427E+03  0.18046745556E+04  0.10100000352E+00 0. -1.
       -3    1    3    3    0  502  0.17991650947E+04 -0.53163708935E+02  0.52464041358E+03  0.18748517253E+04  0.10100000352E+00 0.  1.
</event>
<event>
 5   0  0.1184684E-06  0.3680401E+04  0.7818609E-02  0.8072319E-01
        2   -1    0    0  501    0  0.00000000000E+00  0.00000000000E+00  0.27520061667E+04  0.27520061667E+04  0.25500000920E-02 0.  1.
       -2   -1    0    0    0  501  0.00000000000E+00  0.00000000000E+00 -0.12304981519E+04  0.12304981519E+04  0.25500000920E-02 0. -1.
    10030    2    1    2    0    0  0.00000000000E+00  0.00000000000E+00  0.15215080148E+04  0.39825043186E+04  0.36804013380E+04 0.  0.
        4    1    3    3  502    0 -0.97604229184E+03  0.13306639103E+04 -0.12033895914E+03  0.16546323083E+04  0.12699999809E+01 0. -1.
       -4    1    3    3    0  502  0.97604229184E+03 -0.13306639103E+04  0.16418469740E+04  0.23278720103E+04  0.12699999809E+01 0.  1.
</event>
<event>
 5   0  0.5875011E-07  0.3726768E+04  0.7818609E-02  0.8062056E-01
       -1   -1    0    0    0  501  0.00000000000E+00  0.00000000000E+00  0.14837200710E+04  0.14837200710E+04  0.50400001928E-02 0. -1.
        1   -1    0    0  501    0  0.00000000000E+00  0.00000000000E+00 -0.23401985606E+04  0.23401985606E+04  0.50400001928E-02 0.  1.
    10030    2    1    2    0    0  0.00000000000E+00  0.00000000000E+00 -0.85647848957E+03  0.38239186316E+04  0.37267678085E+04 0.  0.
        2    1    3    3  502    0 -0.73673598796E+03 -0.15517714359E+04 -0.11691608532E+04  0.20779103941E+04  0.25500000920E-02 0.  1.
       -2    1    3    3    0  502  0.73673598796E+03  0.15517714359E+04  0.31268236367E+03  0.17460082376E+04  0.25500000920E-02 0. -1.
</event>
<event>
 5   0  0.1685793E-06  0.3715771E+04  0.7818609E-02  0.8064476E-01
        2   -1    0    0  501    0  0.00000000000E+00  0.00000000000E+00  0.15851866066E+04  0.15851866066E+04  0.25500000920E-02 0. -1.
       -2   -1    0    0    0  501  0.00000000000E+00  0.00000000000E+00 -0.21774962380E+04  0.21774962380E+04  0.25500000920E-02 0.  1.
    10030    2    1    2    0    0  0.00000000000E+00  0.00000000000E+00 -0.59230963145E+03  0.37626828446E+04  0.37157706455E+04 0.  0.
        3    1    3    3  502    0 -0.29988252336E+03  0.58772238731E+03  0.14625482172E+04  0.16044919539E+04  0.10100000352E+00 0. -1.
       -3    1    3    3    0  502  0.29988252336E+03 -0.58772238731E+03 -0.20548578486E+04  0.21581908907E+04  0.10100000352E+00 0.  1.
</event>
<event>
 5   0  0.1724503E-06  0.3644968E+04  0.7818609E-02  0.8080268E-01
        2   -1    0    0  501    0  0.00000000000E+00  0.00000000000E+00  0.24022670952E+04  0.24022670952E+04  0.25500000920E-02 0. -1.
       -2   -1    0    0    0  501  0.00000000000E+00  0.00000000000E+00 -0.13826302058E+04  0.13826302058E+04  0.25500000920E-02 0.  1.
    10030    2    1    2    0    0  0.00000000000E+00  0.00000000000E+00  0.10196368894E+04  0.37848973011E+04  0.36449675161E+04 0.  0.
        1    1    3    3  502    0 -0.14320210469E+04  0.49324117564E+03 -0.54274010256E+03  0.16088933946E+04  0.50400001928E-02 0.  1.
       -1    1    3    3    0  502  0.14320210469E+04 -0.49324117564E+03  0.15623769920E+04  0.21760039065E+04  0.50400001928E-02 0. -1.
</event>
<event>
 5   0  0.1279006E-06  0.1915465E+04  0.7818609E-02  0.8647197E-01
       -2   -1    0    0    0  501  0.00000000000E+00  0.00000000000E+00  0.87650647996E+03  0.87650647997E+03  0.25500000920E-02 0. -1.
        2   -1    0    0  501    0  0.00000000000E+00  0.00000000000E+00 -0.10464856920E+04  0.10464856920E+04  0.25500000920E-02 0.  1.
    10030    2    1    2    0    0  0.00000000000E+00  0.00000000000E+00 -0.16997921205E+03  0.19229921720E+04  0.19154649464E+04 0.  0.
        5    1    3    3  502    0  0.23910218281E+03 -0.81923067272E+03  0.35136847655E+03  0.92292504856E+03  0.46999998093E+01 0. -1.
       -5    1    3    3    0  502 -0.23910218281E+03  0.81923067272E+03 -0.52134768860E+03  0.10000671234E+04  0.46999998093E+01 0.  1.
</event>
<event>
 5   0  0.1685793E-06  0.2044806E+04  0.7818609E-02  0.8585954E-01
       -2   -1    0    0    0  501  0.00000000000E+00  0.00000000000E+00  0.39558889208E+03  0.39558889208E+03  0.25500000920E-02 0.  1.
        2   -1    0    0  501    0  0.00000000000E+00  0.00000000000E+00 -0.26424089575E+04  0.26424089575E+04  0.25500000920E-02 0. -1.
    10030    2    1    2    0    0  0.00000000000E+00  0.00000000000E+00 -0.22468200654E+04  0.30379978496E+04  0.20448057433E+04 0.  0.
        3    1    3    3  502    0  0.61106061834E+03 -0.68664958299E+03 -0.17885472293E+04  0.20109161919E+04  0.10100000352E+00 0. -1.
       -3    1    3    3    0  502 -0.61106061834E+03  0.68664958299E+03 -0.45827283615E+03  0.10270816577E+04  0.10100000352E+00 0.  1.
</event>
<event>
 5   0  0.5679750E-07  0.3770978E+04  0.7818609E-02  0.8052412E-01
       -1   -1    0    0    0  501  0.00000000000E+00  0.00000000000E+00  0.19269149370E+04  0.19269149370E+04  0.50400001928E-02 0. -1.
        1   -1    0    0  501    0  0.00000000000E+00  0.00000000000E+00 -0.18449537113E+04  0.18449537113E+04  0.50400001928E-02 0.  1.
    10030    2    1    2    0    0  0.00000000000E+00  0.00000000000E+00  0.81961225728E+02  0.37718686483E+04  0.37709780505E+04 0.  0.
        4    1    3    3  502    0 -0.18600088987E+04  0.25560353409E+03 -0.13255670606E+03  0.18821634263E+04  0.12699999809E+01 0.  1.
       -4    1    3    3    0  502  0.18600088987E+04 -0.25560353409E+03  0.21451793179E+03  0.18897052220E+04  0.12699999809E+01 0. -1.
</event>
<event>
 5   0  0.1724503E-06  0.1838023E+04  0.7818609E-02  0.8686337E-01
       -2   -1    0    0    0  501  0.00000000000E+00  0.00000000000E+00  0.74749047939E+03  0.74749047939E+03  0.25500000920E-02 0. -1.
        2   -1    0    0  501    0  0.00000000000E+00  0.00000000000E+00 -0.11298897912E+04  0.11298897912E+04  0.25500000920E-02 0.  1.
    10030    2    1    2    0    0  0.00000000000E+00  0.00000000000E+00 -0.38239931178E+03  0.18773802706E+04  0.18380227002E+04 0.  0.
        1    1    3    3  502    0 -0.87065463032E+03 -0.35007992608E+02 -0.48954461234E+03  0.99945934001E+03  0.50400001928E-02 0.  1.
       -1    1    3    3    0  502  0.87065463032E+03  0.35007992608E+02  0.10714530056E+03  0.87792093055E+03  0.50400001928E-02 0. -1.
</event>
<event>
 5   0  0.1680194E-06  0.3710749E+04  0.7818609E-02  0.8065584E-01
        2   -1    0    0  501    0  0.00000000000E+00  0.00000000000E+00  0.12725483139E+04  0.12725483139E+04  0.25500000920E-02 0.  1.
       -2   -1    0    0    0  501  0.00000000000E+00  0.00000000000E+00 -0.27051350800E+04  0.27051350800E+04  0.25500000920E-02 0. -1.
    10030    2    1    2    0    0  0.00000000000E+00  0.00000000000E+00 -0.14325867660E+04  0.39776833939E+04  0.37107492963E+04 0.  0.
        2    1    3    3  502    0 -0.97376018585E+03  0.79287304534E+03 -0.21804011239E+04  0.25161489675E+04  0.25500000920E-02 0. -1.
       -2    1    3    3    0  502  0.97376018585E+03 -0.79287304534E+03  0.74781435791E+03  0.14615344264E+04  0.25500000920E-02 0.  1.
</event>
<event>
 5   0  0.6186440E-07  0.2660722E+04  0.7818609E-02  0.8347863E-01
       -1   -1    0    0    0  501  0.00000000000E+00  0.00000000000E+00  0.13132583086E+04  0.13132583086E+04  0.50400001928E-02 0.  1.
        1   -1    0    0  501    0  0.00000000000E+00  0.00000000000E+00 -0.13476859968E+04  0.13476859968E+04  0.50400001928E-02 0. -1.
    10030    2    1    2    0    0  0.00000000000E+00  0.00000000000E+00 -0.34427688227E+02  0.26609443054E+04  0.26607215808E+04 0.  0.
        3    1    3    3  502    0 -0.54572650220E+03 -0.12131276500E+04  0.18589883651E+01  0.13302253856E+04  0.10100000352E+00 0. -1.
       -3    1    3    3    0  502  0.54572650220E+03  0.12131276500E+04 -0.36286676592E+02  0.13307189198E+04  0.10100000352E+00 0.  1.
</event>
<event>
 5   0  0.6261598E-07  0.3697764E+04  0.7818609E-02  0.8068457E-01
        1   -1    0    0  501    0  0.00000000000E+00  0.00000000000E+00  0.20788375360E+04  0.20788375360E+04  0.50400001928E-02 0. -1.
       -1   -1    0    0    0  501  0.00000000000E+00  0.00000000000E+00 -0.16443639206E+04  0.16443639206E+04  0.50400001928E-02 0.  1.
    10030    2    1    2    0    0  0.00000000000E+00  0.00000000000E+00  0.43447361547E+03  0.37232014566E+04  0.36977644278E+04 0.  0.
        1    1    3    3  502    0 -0.45028689795E+03  0.14378142283E+04  0.12961946735E+04  0.19875081578E+04  0.50400001928E-02 0. -1.
       -1    1    3    3    0  502  0.45028689795E+03 -0.14378142283E+04 -0.86172105802E+03  0.17356932988E+04  0.50400001928E-02 0.  1.
</event>
<event>
 5   0  0.1724503E-06  0.3698965E+04  0.7818609E-02  0.8068191E-01
        2   -1    0    0  501    0  0.00000000000E+00  0.00000000000E+00  0.25222927076E+04  0.25222927076E+04  0.25500000920E-02 0.  1.
       -2   -1    0    0    0  501  0.00000000000E+00  0.00000000000E+00 -0.13561414239E+04  0.13561414239E+04  0.25500000920E-02 0. -1.
    10030    2    1    2    0    0  0.00000000000E+00  0.00000000000E+00  0.11661512837E+04  0.38784341314E+04  0.36989650573E+04 0.  0.
        1    1    3    3  502    0  0.95114827951E+03  0.12542819011E+04 -0.43494883414E+03  0.16331217424E+04  0.50400001928E-02 0. -1.
       -1    1    3    3    0  502 -0.95114827951E+03 -0.12542819011E+04  0.16011001179E+04  0.22453123891E+04  0.50400001928E-02 0.  1.
</event>
<event>
 5   0  0.1151180E-06  0.3533116E+04  0.7818609E-02  0.8105986E-01
       -2   -1    0    0    0  501  0.00000000000E+00  0.00000000000E+00  0.16621180939E+04  0.16621180939E+04  0.25500000920E-02 0.  1.
        2   -1    0    0  501    0  0.00000000000E+00  0.00000000000E+00 -0.18775602639E+04  0.18775602639E+04  0.25500000920E-02 0. -1.
    10030    2    1    2    0    0  0.00000000000E+00  0.00000000000E+00 -0.21544216993E+03  0.35396783578E+04  0.35331158413E+04 0.  0.
        5    1    3    3  502    0  0.76208335598E+03 -0.85300583033E+03  0.12410018512E+04  0.16877492920E+04  0.46999998093E+01 0.  1.
       -5    1    3    3    0  502 -0.76208335598E+03  0.85300583033E+03 -0.14564440211E+04  0.18519290658E+04  0.46999998093E+01 0. -1.
</event>
<event>
 5   0  0.6186440E-07  0.3346322E+04  0.7818609E-02  0.8151208E-01
       -1   -1    0    0    0  501  0.00000000000E+00  0.00000000000E+00  0.25983793740E+04  0.25983793740E+04  0.50400001928E-02 0.  1.
        1   -1    0    0  501    0  0.00000000000E+00  0.00000000000E+00 -0.10773896663E+04  0.10773896664E+04  0.50400001928E-02 0. -1.
    10030    2    1    2    0    0  0.00000000000E+00  0.00000000000E+00  0.15209897077E+04  0.36757690404E+04  0.33463216145E+04 0.  0.
        3    1    3    3  502    0 -0.71099507159E+03  0.77739740300E+03 -0.66732463360E+03  0.12470697217E+04  0.10100000352E+00 0. -1.
       -3    1    3    3    0  502  0.71099507159E+03 -0.77739740300E+03  0.21883143413E+04  0.24286993187E+04  0.10100000352E+00 0.  1.
</event>
<event>
 5   0  0.1184684E-06  0.3430034E+04  0.7818609E-02  0.8130574E-01
       -2   -1    0    0    0  501  0.00000000000E+00  0.00000000000E+00  0.13908511063E+04  0.13908511063E+04  0.25500000920E-02 0. -1.
        2   -1    0    0  501    0  0.00000000000E+00  0.00000000000E+00 -0.21147361276E+04  0.21147361276E+04  0.25500000920E-02 0.  1.
    10030    2    1    2    0    0  0.00000000000E+00  0.00000000000E+00 -0.72388502133E+03  0.35055872339E+04  0.34300338672E+04 0.  0.
        4    1    3    3  502    0 -0.15134443971E+04  0.76616617473E+03 -0.10387933770E+03  0.16995049514E+04  0.12699999809E+01 0. -1.
       -4    1    3    3    0  502  0.15134443971E+04 -0.76616617473E+03 -0.62000568363E+03  0.18060822824E+04  0.12699999809E+01 0.  1.
</event>
<event>
 5   0  0.5679750E-07  0.3166218E+04  0.7818609E-02  0.8197796E-01
       -1   -1    0    0    0  501  0.00000000000E+00  0.00000000000E+00  0.96866659712E+03  0.96866659713E+03  0.50400001928E-02 0.  1.
        1   -1    0    0  501    0  0.00000000000E+00  0.00000000000E+00 -0.25873034711E+04  0.25873034711E+04  0.50400001928E-02 0. -1.
    10030    2    1    2    0    0  0.00000000000E+00  0.00000000000E+00 -0.16186368740E+04  0.35559700683E+04  0.31662182168E+04 0.  0.
        4    1    3    3  502    0 -0.22071609605E+03  0.13194673377E+04  0.14135722893E+03  0.13452483523E+04  0.12699999809E+01 0.  1.
       -4    1    3    3    0  502  0.22071609605E+03 -0.13194673377E+04 -0.17599941030E+04  0.22107217160E+04  0.12699999809E+01 0. -1.
</event>
<event>
 5   0  0.1724503E-06  0.3452620E+04  0.7818609E-02  0.8125111E-01
       -2   -1    0    0    0  501  0.00000000000E+00  0.00000000000E+00  0.14609698132E+04  0.14609698132E+04  0.25500000920E-02 0. -1.
        2   -1    0    0  501    0  0.00000000000E+00  0.00000000000E+00 -0.20398413088E+04  0.20398413088E+04  0.25500000920E-02 0.  1.
    10030    2    1    2    0    0  0.00000000000E+00  0.00000000000E+00 -0.57887149561E+03  0.35008111221E+04  0.34526202085E+04 0.  0.
        1    1    3    3  502    0 -0.97479685295E+03  0.25724696866E+03  0.11314594604E+04  0.15154555150E+04  0.50400001928E-02 0. -1.
       -1    1    3    3    0  502  0.97479685295E+03 -0.25724696866E+03 -0.17103309560E+04  0.19853556071E+04  0.50400001928E-02 0.  1.
</event>
<event>
 5   0  0.6287345E-07  0.2042304E+04  0.7818609E-02  0.8587094E-01
        1   -1    0    0  501    0  0.00000000000E+00  0.00000000000E+00  0.83167825846E+03  0.83167825847E+03  0.50400001928E-02 0. -1.
       -1   -1    0    0    0  501  0.00000000000E+00  0.00000000000E+00 -0.12537920163E+04  0.12537920164E+04  0.50400001928E-02 0.  1.
    10030    2    1    2    0    0  0.00000000000E+00  0.00000000000E+00 -0.42211375788E+03  0.20854702748E+04  0.20423041504E+04 0.  0.
        5    1    3    3  502    0 -0.67143954384E+03 -0.69656017582E+03  0.12250048866E+03  0.97522079515E+03  0.46999998093E+01 0. -1.
       -5    1    3    3    0  502  0.67143954384E+03  0.69656017582E+03 -0.54461424655E+03  0.11102494797E+04  0.46999998093E+01 0.  1.
</event>
<event>
 5   0  0.1184684E-06  0.2382762E+04  0.7818609E-02  0.8445985E-01
       -2   -1    0    0    0  501  0.00000000000E+00  0.00000000000E+00  0.79443256889E+03  0.79443256890E+03  0.25500000920E-02 0.  1.
        2   -1    0    0  501    0  0.00000000000E+00  0.00000000000E+00 -0.17866703493E+04  0.17866703493E+04  0.25500000920E-02 0. -1.
    10030    2    1    2    0    0  0.00000000000E+00  0.00000000000E+00 -0.99223778040E+03  0.25811029182E+04  0.23827623594E+04 0.  0.
        4    1    3    3  502    0  0.58194364056E+03  0.97135098617E+03 -0.94871964743E+02  0.11363025309E+04  0.12699999809E+01 0. -1.
       -4    1    3    3    0  502 -0.58194364056E+03 -0.97135098617E+03 -0.89736581566E+03  0.14448003873E+04  0.12699999809E+01 0.  1.
</event>
<event>
 5   0  0.1680194E-06  0.3339147E+04  0.7818609E-02  0.8153005E-01
        2   -1    0    0  501    0  0.00000000000E+00  0.00000000000E+00  0.12075023857E+04  0.12075023857E+04  0.25500000920E-02 0. -1.
       -2   -1    0    0    0  501  0.00000000000E+00  0.00000000000E+00 -0.23084638604E+04  0.23084638604E+04  0.25500000920E-02 0.  1.
    10030    2    1    2    0    0  0.00000000000E+00  0.00000000000E+00 -0.11009614748E+04  0.35159662461E+04  0.33391469682E+04 0.  0.
        2    1    3    3  502    0  0.14066364378E+04 -0.31112398386E+03  0.33803441888E+03  0.14797606123E+04  0.25500000920E-02 0. -1.
       -2    1    3    3    0  502 -0.14066364378E+04  0.31112398386E+03 -0.14389958936E+04  0.20362056338E+04  0.25500000920E-02 0.  1.
</event>
<event>
 5   0  0.1680194E-06  0.3618949E+04  0.7818609E-02  0.8086165E-01
        2   -1    0    0  501    0  0.00000000000E+00  0.00000000000E+00  0.17645186587E+04  0.17645186587E+04  0.25500000920E-02 0. -1.
       -2   -1    0    0    0  501  0.00000000000E+00  0.00000000000E+00 -0.18555754928E+04  0.18555754928E+04  0.25500000920E-02 0.  1.
    10030    2    1    2    0    0  0.00000000000E+00  0.00000000000E+00 -0.91056834100E+02  0.36200941516E+04  0.36189487865E+04 0.  0.
        2    1    3    3  502    0  0.45315065215E+03 -0.12346871647E+03  0.17024820885E+04  0.17660790750E+04  0.25500000920E-02 0. -1.
       -2    1    3    3    0  502 -0.45315065215E+03  0.12346871647E+03 -0.17935389226E+04  0.18540150766E+04  0.25500000920E-02 0.  1.
</event>
<event>
 5   0  0.1724503E-06  0.3757180E+04  0.7818609E-02  0.8055407E-01
        2   -1    0    0  501    0  0.00000000000E+00  0.00000000000E+00  0.29716245810E+04  0.29716245810E+04  0.25500000920E-02 0.  1.
       -2   -1    0    0    0  501  0.00000000000E+00  0.00000000000E+00 -0.11875994192E+04  0.11875994192E+04  0.25500000920E-02 0. -1.
    10030    2    1    2    0    0  0.00000000000E+00  0.00000000000E+00  0.17840251618E+04  0.41592240002E+04  0.37571795946E+04 0.  0.
        1    1    3    3  502    0  0.17607865973E+04 -0.18286362938E+03  0.15880119753E+04  0.23781485618E+04  0.50400001928E-02 0.  1.
       -1    1    3    3    0  502 -0.17607865973E+04  0.18286362938E+03  0.19601318645E+03  0.17810754384E+04  0.50400001928E-02 0. -1.
</event>
<event>
 5   0  0.6186440E-07  0.2223541E+04  0.7818609E-02  0.8508693E-01
        1   -1    0    0  501    0  0.00000000000E+00  0.00000000000E+00  0.20361904486E+04  0.20361904486E+04  0.50400001928E-02 0. -1.
       -1   -1    0    0    0  501  0.00000000000E+00  0.00000000000E+00 -0.60703232982E+03  0.60703232984E+03  0.50400001928E-02 0.  1.
    10030    2    1    2    0    0  0.00000000000E+00  0.00000000000E+00  0.14291581188E+04  0.26432227784E+04  0.22235408087E+04 0.  0.
        3    1    3    3  502    0  0.83392464759E+03  0.35404532343E+03 -0.51451518302E+02  0.90742805657E+03  0.10100000352E+00 0. -1.
       -3    1    3    3    0  502 -0.83392464759E+03 -0.35404532343E+03  0.14806096371E+04  0.17357947219E+04  0.10100000352E+00 0.  1.
</event>
<event>
 5   0  0.5679750E-07  0.3743499E+04  0.7818609E-02  0.8058390E-01
        1   -1    0    0  501    0  0.00000000000E+00  0.00000000000E+00  0.16763662292E+04  0.16763662292E+04  0.50400001928E-02 0.  1.
       -1   -1    0    0    0  501  0.00000000000E+00  0.00000000000E+00 -0.20899050379E+04  0.20899050379E+04  0.50400001928E-02 0. -1.
    10030    2    1    2    0    0  0.00000000000E+00  0.00000000000E+00 -0.41353880867E+03  0.37662712671E+04  0.37434990198E+04 0.  0.
        4    1    3    3  502    0 -0.10209137900E+04  0.13397146046E+04  0.61449548821E+03  0.17929602635E+04  0.12699999809E+01 0.  1.
       -4    1    3    3    0  502  0.10209137900E+04 -0.13397146046E+04 -0.10280342969E+04  0.19733110036E+04  0.12699999809E+01 0. -1.
</event>
<event>
 5   0  0.1724503E-06  0.2167894E+04  0.7818609E-02  0.8531912E-01
        2   -1    0    0  501    0  0.00000000000E+00  0.00000000000E+00  0.17202459548E+04  0.17202459548E+04  0.25500000920E-02 0.  1.
       -2   -1    0    0    0  501  0.00000000000E+00  0.00000000000E+00 -0.68300736130E+03  0.68300736130E+03  0.25500000920E-02 0. -1.
    10030    2    1    2    0    0  0.00000000000E+00  0.00000000000E+00  0.10372385935E+04  0.24032533161E+04  0.21678935863E+04 0.  0.
        1    1    3    3  502    0  0.18902083218E+03 -0.42953601219E+03 -0.56455278963E+03  0.73413208149E+03  0.50400001928E-02 0. -1.
       -1    1    3    3    0  502 -0.18902083218E+03  0.42953601219E+03  0.16017913832E+04  0.16691212347E+04  0.50400001928E-02 0.  1.
</event>
<event>
 5   0  0.1151180E-06  0.2561159E+04  0.7818609E-02  0.8381515E-01
        2   -1    0    0  501    0  0.00000000000E+00  0.00000000000E+00  0.16592384167E+04  0.16592384167E+04  0.25500000920E-02 0. -1.
       -2   -1    0    0    0  501  0.00000000000E+00  0.00000000000E+00 -0.98833557387E+03  0.98833557387E+03  0.25500000920E-02 0.  1.
    10030    2    1    2    0    0  0.00000000000E+00  0.00000000000E+00  0.67090284283E+03  0.26475739906E+04  0.25611593881E+04 0.  0.
        5    1    3    3  502    0 -0.86434205731E+03  0.70849038631E+03  0.98169748883E+03  0.14875476023E+04  0.46999998093E+01 0. -1.
       -5    1    3    3    0  502  0.86434205731E+03 -0.70849038631E+03 -0.31079464600E+03  0.11600263883E+04  0.46999998093E+01 0.  1.
</event>
<event>
 5   0  0.6261598E-07  0.3718032E+04  0.7818609E-02  0.8063977E-01
        1   -1    0    0  501    0  0.00000000000E+00  0.00000000000E+00  0.22467012508E+04  0.22467012508E+04  0.50400001928E-02 0. -1.
       -1   -1    0    0    0  501  0.00000000000E+00  0.00000000000E+00 -0.15382287203E+04  0.15382287203E+04  0.50400001928E-02 0.  1.
    10030    2    1    2    0    0  0.00000000000E+00  0.00000000000E+00  0.70847253051E+03  0.37849299712E+04  0.37180319472E+04 0.  0.
        1    1    3    3  502    0 -0.14299055346E+04  0.61965550844E+03  0.13860500455E+04  0.20856024348E+04  0.50400001928E-02 0. -1.
       -1    1    3    3    0  502  0.14299055346E+04 -0.61965550844E+03 -0.67757751502E+03  0.16993275364E+04  0.50400001928E-02 0.  1.
</event>
<event>
 5   0  0.5875011E-07  0.2254771E+04  0.7818609E-02  0.8495971E-01
       -1   -1    0    0    0  501  0.00000000000E+00  0.00000000000E+00  0.12624606873E+04  0.12624606873E+04  0.50400001928E-02 0.  1.
        1   -1    0    0  501    0  0.00000000000E+00  0.00000000000E+00 -0.10067629087E+04  0.10067629087E+04  0.50400001928E-02 0. -1.
    10030    2    1    2    0    0  0.00000000000E+00  0.00000000000E+00  0.25569777859E+03  0.22692235959E+04  0.22547714683E+04 0.  0.
        2    1    3    3  502    0  0.10711107244E+04  0.22039708347E+03  0.40373278604E+03  0.11656985977E+04  0.25500000920E-02 0.  1.
       -2    1    3    3    0  502 -0.10711107244E+04 -0.22039708347E+03 -0.14803500745E+03  0.11035249982E+04  0.25500000920E-02 0. -1.
</event>
<event>
 5   0  0.1184684E-06  0.2936787E+04  0.7818609E-02  0.8262016E-01
        2   -1    0    0  501    0  0.00000000000E+00  0.00000000000E+00  0.26230095230E+04  0.26230095230E+04  0.25500000920E-02 0.  1.
       -2   -1    0    0    0  501  0.00000000000E+00  0.00000000000E+00 -0.82202506056E+03  0.82202506056E+03  0.25500000920E-02 0. -1.
    10030    2    1    2    0    0  0.00000000000E+00  0.00000000000E+00  0.18009844625E+04  0.34450345836E+04  0.29367870621E+04 0.  0.
        4    1    3    3  502    0 -0.12367535962E+04 -0.74818176115E+03  0.59720954937E+03  0.15639681148E+04  0.12699999809E+01 0. -1.
       -4    1    3    3    0  502  0.12367535962E+04  0.74818176115E+03  0.12037749131E+04  0.18810664687E+04  0.12699999809E+01 0.  1.
</event>
<event>
 5   0  0.1151180E-06  0.3640141E+04  0.7818609E-02  0.8081358E-01
       -2   -1    0    0    0  501  0.00000000000E+00  0.00000000000E+00  0.16268952042E+04  0.16268952042E+04  0.25500000920E-02 0. -1.
        2   -1    0    0  501    0  0.00000000000E+00  0.00000000000E+00 -0.20361828821E+04  0.20361828821E+04  0.25500000920E-02 0.  1.
    10030    2    1    2    0    0  0.00000000000E+00  0.00000000000E+00 -0.40928767792E+03  0.36630780862E+04  0.36401407476E+04 0.  0.
        5    1    3    3  502    0 -0.63230772187E+03 -0.20935997448E+03 -0.19091260537E+04  0.20219864077E+04  0.46999998093E+01 0.  1.
       -5    1    3    3    0  502  0.63230772187E+03  0.20935997448E+03  0.14998383758E+04  0.16410916786E+04  0.46999998093E+01 0. -1.
</event>
<event>
 5   0  0.6261598E-07  0.3715347E+04  0.7818609E-02  0.8064569E-01
       -1   -1    0    0    0  501  0.00000000000E+00  0.00000000000E+00  0.17145341455E+04  0.17145341455E+04  0.50400001928E-02 0. -1.
        1   -1    0    0  501    0  0.00000000000E+00  0.00000000000E+00 -0.20127625256E+04  0.20127625256E+04  0.50400001928E-02 0.  1.
    10030    2    1    2    0    0  0.00000000000E+00  0.00000000000E+00 -0.29822838008E+03  0.37272966712E+04  0.37153465933E+04 0.  0.
        1    1    3    3  502    0 -0.40729130492E+03  0.20888404957E+03  0.16570741726E+04  0.17191316316E+04  0.50400001928E-02 0. -1.
       -1    1    3    3    0  502  0.40729130492E+03 -0.20888404957E+03 -0.19553025527E+04  0.20081650395E+04  0.50400001928E-02 0.  1.
</event>
<event>
 5   0  0.6186440E-07  0.3733186E+04  0.7818609E-02  0.8060647E-01
        1   -1    0    0  501    0  0.00000000000E+00  0.00000000000E+00  0.10807236268E+04  0.10807236268E+04  0.50400001928E-02 0.  1.
       -1   -1    0    0    0  501  0.00000000000E+00  0.00000000000E+00 -0.32239221656E+04  0.32239221656E+04  0.50400001928E-02 0. -1.
    10030    2    1    2    0    0  0.00000000000E+00  0.00000000000E+00 -0.21431985388E+04  0.43046457924E+04  0.37331856933E+04 0.  0.
        3    1    3    3  502    0 -0.29906115856E+03 -0.94225585951E+03 -0.28972809115E+04  0.30612939048E+04  0.10100000352E+00 0. -1.
       -3    1    3    3    0  502  0.29906115856E+03  0.94225585951E+03  0.75408237267E+03  0.12433518876E+04  0.10100000352E+00 0.  1.
</event>
<event>
 5   0  0.1724503E-06  0.3520438E+04  0.7818609E-02  0.8108963E-01
        2   -1    0    0  501    0  0.00000000000E+00  0.00000000000E+00  0.13221154481E+04  0.13221154481E+04  0.25500000920E-02 0. -1.
       -2   -1    0    0    0  501  0.00000000000E+00  0.00000000000E+00 -0.23434954036E+04  0.23434954036E+04  0.25500000920E-02 0.  1.
    10030    2    1    2    0    0  0.00000000000E+00  0.00000000000E+00 -0.10213799554E+04  0.36656108517E+04  0.35204383112E+04 0.  0.
        1    1    3    3  502    0 -0.10054092498E+04  0.10843219198E+04 -0.15049321821E+04  0.21098394863E+04  0.50400001928E-02 0.  1.
       -1    1    3    3    0  502  0.10054092498E+04 -0.10843219198E+04  0.48355222670E+03  0.15557713654E+04  0.50400001928E-02 0. -1.
</event>
<event>
 5   0  0.6287345E-07  0.3746929E+04  0.7818609E-02  0.8057641E-01
       -1   -1    0    0    0  501  0.00000000000E+00  0.00000000000E+00  0.10973200254E+04  0.10973200254E+04  0.50400001928E-02 0. -1.
        1   -1    0    0  501    0  0.00000000000E+00  0.00000000000E+00 -0.31985833126E+04  0.31985833126E+04  0.50400001928E-02 0.  1.
    10030    2    1    2    0    0  0.00000000000E+00  0.00000000000E+00 -0.21012632872E+04  0.42959033380E+04  0.37469291542E+04 0.  0.
        5    1    3    3  502    0  0.10884259558E+04  0.73307751520E+03  0.48234414020E+03  0.13981243378E+04  0.46999998093E+01 0. -1.
       -5    1    3    3    0  502 -0.10884259558E+04 -0.73307751520E+03 -0.25836074274E+04  0.28977790001E+04  0.46999998093E+01 0.  1.
</event>
<event>
 5   0  0.6186440E-07  0.3666585E+04  0.7818609E-02  0.8075408E-01
       -1   -1    0    0    0  501  0.00000000000E+00  0.00000000000E+00  0.19374260965E+04  0.19374260965E+04  0.50400001928E-02 0.  1.
        1   -1    0    0  501    0  0.00000000000E+00  0.00000000000E+00 -0.17347557371E+04  0.17347557371E+04  0.50400001928E-02 0. -1.
    10030    2    1    2    0    0  0.00000000000E+00  0.00000000000E+00  0.20267035943E+03  0.36721818336E+04  0.36665848067E+04 0.  0.
        3    1    3    3  502    0  0.40173256956E+03  0.89270658793E+03 -0.14510783530E+04  0.17504120962E+04  0.10100000352E+00 0. -1.
       -3    1    3    3    0  502 -0.40173256956E+03 -0.89270658793E+03  0.16537487125E+04  0.19217697374E+04  0.10100000352E+00 0.  1.
</event>
<event>
 5   0  0.6287345E-07  0.1824641E+04  0.7818609E-02  0.8693305E-01
       -1   -1    0    0    0  501  0.00000000000E+00  0.00000000000E+00  0.41956194465E+03  0.41956194468E+03  0.50400001928E-02 0. -1.
        1   -1    0    0  501    0  0.00000000000E+00  0.00000000000E+00 -0.19838030095E+04  0.19838030095E+04  0.50400001928E-02 0.  1.
    10030    2    1    2    0    0  0.00000000000E+00  0.00000000000E+00 -0.15642410649E+04  0.24033649542E+04  0.18246405109E+04 0.  0.
        5    1    3    3  502    0 -0.28845291359E+03  0.74757628257E+03 -0.13566109670E+04  0.15755922021E+04  0.46999998093E+01 0.  1.
       -5    1    3    3    0  502  0.28845291359E+03 -0.74757628257E+03 -0.20763009795E+03  0.82777275214E+03  0.46999998093E+01 0. -1.
</event>
<event>
 5   0  0.1680194E-06  0.3705201E+04  0.7818609E-02  0.8066810E-01
        2   -1    0    0  501    0  0.00000000000E+00  0.00000000000E+00  0.16808335953E+04  0.16808335953E+04  0.25500000920E-02 0. -1.
       -2   -1    0    0    0  501  0.00000000000E+00  0.00000000000E+00 -0.20419206974E+04  0.20419206975E+04  0.25500000920E-02 0.  1.
    10030    2    1    2    0    0  0.00000000000E+00  0.00000000000E+00 -0.36108710212E+03  0.37227542928E+04  0.37052011591E+04 0.  0.
        2    1    3    3  502    0 -0.58606745234E+03 -0.80292745165E+03 -0.17512670791E+04  0.20137288630E+04  0.25500000920E-02 0.  1.
       -2    1    3    3    0  502  0.58606745234E+03  0.80292745165E+03  0.13901799770E+04  0.17090254298E+04  0.25500000920E-02 0. -1.
</event>
<event>
 5   0  0.1151180E-06  0.2671757E+04  0.7818609E-02  0.8344227E-01
        2   -1    0    0  501    0  0.00000000000E+00  0.00000000000E+00  0.20467928144E+04  0.20467928144E+04  0.25500000920E-02 0. -1.
       -2   -1    0    0    0  501  0.00000000000E+00  0.00000000000E+00 -0.87188654671E+03  0.87188654672E+03  0.25500000920E-02 0.  1.
    10030    2    1    2    0    0  0.00000000000E+00  0.00000000000E+00  0.11749062677E+04  0.29186793611E+04  0.26717568144E+04 0.  0.
        5    1    3    3  502    0  0.38190312169E+03  0.53703003517E+03 -0.68196365400E+03  0.94833947951E+03  0.46999998093E+01 0.  1.
       -5    1    3    3    0  502 -0.38190312169E+03 -0.53703003517E+03  0.18568699217E+04  0.19703398816E+04  0.46999998093E+01 0. -1.
</event>
<event>
 5   0  0.1151180E-06  0.3107832E+04  0.7818609E-02  0.8213592E-01
       -2   -1    0    0    0  501  0.00000000000E+00  0.00000000000E+00  0.15254412426E+04  0.15254412426E+04  0.25500000920E-02 0. -1.
        2   -1    0    0  501    0  0.00000000000E+00  0.00000000000E+00 -0.15829222541E+04  0.15829222541E+04  0.25500000920E-02 0.  1.
    10030    2    1    2    0    0  0.00000000000E+00  0.00000000000E+00 -0.57481011504E+02  0.31083634967E+04  0.31078319712E+04 0.  0.
        5    1    3    3  502    0  0.84680032289E+03  0.10200792774E+04 -0.83943467188E+03  0.15691734058E+04  0.46999998093E+01 0.  1.
       -5    1    3    3    0  502 -0.84680032289E+03 -0.10200792774E+04  0.78195366037E+03  0.15391900909E+04  0.46999998093E+01 0. -1.
</event>
<event>
 5   0  0.1184684E-06  0.3714961E+04  0.7818609E-02  0.8064654E-01
        2   -1    0    0  501    0  0.00000000000E+00  0.00000000000E+00  0.34911678873E+04  0.34911678873E+04  0.25500000920E-02 0. -1.
       -2   -1    0    0    0  501  0.00000000000E+00  0.00000000000E+00 -0.98827519343E+03  0.98827519344E+03  0.25500000920E-02 0.  1.
    10030    2    1    2    0    0  0.00000000000E+00  0.00000000000E+00  0.25028926939E+04  0.44794430808E+04  0.37149614368E+04 0.  0.
        4    1    3    3  502    0 -0.38807149995E+03  0.17724083327E+04  0.17310428397E+04  0.25076964953E+04  0.12699999809E+01 0. -1.
       -4    1    3    3    0  502  0.38807149995E+03 -0.17724083327E+04  0.77184985415E+03  0.19717465854E+04  0.12699999809E+01 0.  1.
</event>
<event>
 5   0  0.1184684E-06  0.3716142E+04  0.7818609E-02  0.8064394E-01
       -2   -1    0    0    0  501  0.00000000000E+00  0.00000000000E+00  0.17304404238E+04  0.17304404238E+04  0.25500000920E-02 0.  1.
        2   -1    0    0  501    0  0.00000000000E+00  0.00000000000E+00 -0.19951153566E+04  0.19951153566E+04  0.25500000920E-02 0. -1.
    10030    2    1    2    0    0  0.00000000000E+00  0.00000000000E+00 -0.26467493281E+03  0.37255557805E+04  0.37161422273E+04 0.  0.
        4    1    3    3  502    0  0.18026201507E+04 -0.44341301762E+03 -0.21236535247E+03  0.18684633172E+04  0.12699999809E+01 0.  1.
       -4    1    3    3    0  502 -0.18026201507E+04  0.44341301762E+03 -0.52309580341E+02  0.18570924632E+04  0.12699999809E+01 0. -1.
</event>
<event>
 5   0  0.6186440E-07  0.3582165E+04  0.7818609E-02  0.8094589E-01
       -1   -1    0    0    0  501  0.00000000000E+00  0.00000000000E+00  0.16980731013E+04  0.16980731013E+04  0.50400001928E-02 0.  1.
        1   -1    0    0  501    0  0.00000000000E+00  0.00000000000E+00 -0.18891862781E+04  0.18891862781E+04  0.50400001928E-02 0. -1.
    10030    2    1    2    0    0  0.00000000000E+00  0.00000000000E+00 -0.19111317685E+03  0.35872593794E+04  0.35821649332E+04 0.  0.
        3    1    3    3  502    0  0.12993948365E+04  0.53205525617E+03 -0.12091032138E+04  0.18529544863E+04  0.10100000352E+00 0. -1.
       -3    1    3    3    0  502 -0.12993948365E+04 -0.53205525617E+03  0.10179900369E+04  0.17343048931E+04  0.10100000352E+00 0.  1.
</event>
<event>
 5   0  0.6186440E-07  0.2471828E+04  0.7818609E-02  0.8413091E-01
       -1   -1    0    0    0  501  0.00000000000E+00  0.00000000000E+00  0.80345339095E+03  0.80345339096E+03  0.50400001928E-02 0.  1.
        1   -1    0    0  501    0  0.00000000000E+00  0.00000000000E+00 -0.19011469922E+04  0.19011469922E+04  0.50400001928E-02 0. -1.
    10030    2    1    2    0    0  0.00000000000E+00  0.00000000000E+00 -0.10976936013E+04  0.27046003832E+04  0.24718276620E+04 0.  0.
        3    1    3    3  502    0  0.67695219708E+03 -0.88564779782E+03 -0.11328167573E+04  0.15893112076E+04  0.10100000352E+00 0. -1.
       -3    1    3    3    0  502 -0.67695219708E+03  0.88564779782E+03  0.35123155966E+02  0.11152891756E+04  0.10100000352E+00 0.  1.
</event>
<event>
 5   0  0.6186440E-07  0.3461366E+04  0.7818609E-02  0.8123007E-01
       -1   -1    0    0    0  501  0.00000000000E+00  0.00000000000E+00  0.12545905754E+04  0.12545905755E+04  0.50400001928E-02 0.  1.
        1   -1    0    0  501    0  0.00000000000E+00  0.00000000000E+00 -0.23874431468E+04  0.23874431468E+04  0.50400001928E-02 0. -1.
    10030    2    1    2    0    0  0.00000000000E+00  0.00000000000E+00 -0.11328525714E+04  0.36420337223E+04  0.34613660144E+04 0.  0.
        3    1    3    3  502    0 -0.20969004165E+03  0.45586306529E+03  0.11763736835E+04  0.12789198964E+04  0.10100000352E+00 0.  1.
       -3    1    3    3    0  502  0.20969004165E+03 -0.45586306529E+03 -0.23092262549E+04  0.23631138259E+04  0.10100000352E+00 0. -1.
</event>
<event>
 5   0  0.1184684E-06  0.2138843E+04  0.7818609E-02  0.8544323E-01
        2   -1    0    0  501    0  0.00000000000E+00  0.00000000000E+00  0.15131828266E+04  0.15131828266E+04  0.25500000920E-02 0. -1.
       -2   -1    0    0    0  501  0.00000000000E+00  0.00000000000E+00 -0.75579883995E+03  0.75579883995E+03  0.25500000920E-02 0.  1.
    10030    2    1    2    0    0  0.00000000000E+00  0.00000000000E+00  0.75738398661E+03  0.22689816665E+04  0.21388425140E+04 0.  0.
        4    1    3    3  502    0  0.25993240322E+03 -0.14114260247E+03 -0.71154255507E+03  0.77057154701E+03  0.12699999809E+01 0.  1.
       -4    1    3    3    0  502 -0.25993240322E+03  0.14114260247E+03  0.14689265417E+04  0.14984101195E+04  0.12699999809E+01 0. -1.
</event>
<event>
 5   0  0.1685793E-06  0.2358679E+04  0.7818609E-02  0.8455138E-01
        2   -1    0    0  501    0  0.00000000000E+00  0.00000000000E+00  0.99115186254E+03  0.99115186254E+03  0.25500000920E-02 0. -1.
       -2   -1    0    0    0  501  0.00000000000E+00  0.00000000000E+00 -0.14032573811E+04  0.14032573811E+04  0.25500000920E-02 0.  1.
    10030    2    1    2    0    0  0.00000000000E+00  0.00000000000E+00 -0.41210551856E+03  0.23944092436E+04  0.23586785851E+04 0.  0.
        3    1    3    3  502    0  0.21380203834E+03  0.82415589269E+03 -0.10344394565E+04  0.13397795515E+04  0.10100000352E+00 0.  1.
       -3    1    3    3    0  502 -0.21380203834E+03 -0.82415589269E+03  0.62233393799E+03  0.10546296922E+04  0.10100000352E+00 0. -1.
</event>
<event>
 5   0  0.6261598E-07  0.3746952E+04  0.7818609E-02  0.8057636E-01
        1   -1    0    0  501    0  0.00000000000E+00  0.00000000000E+00  0.15809818630E+04  0.15809818630E+04  0.50400001928E-02 0.  1.
       -1   -1    0    0    0  501  0.00000000000E+00  0.00000000000E+00 -0.22200835574E+04  0.22200835574E+04  0.50400001928E-02 0. -1.
    10030    2    1    2    0    0  0.00000000000E+00  0.00000000000E+00 -0.63910169431E+03  0.38010654204E+04  0.37469517417E+04 0.  0.
        1    1    3    3  502    0 -0.60799288005E+03  0.80207661078E+03  0.12834376064E+04  0.16310102150E+04  0.50400001928E-02 0.  1.
       -1    1    3    3    0  502  0.60799288005E+03 -0.80207661078E+03 -0.19225393007E+04  0.21700552054E+04  0.50400001928E-02 0. -1.
</event>
<event>
 5   0  0.1184684E-06  0.3805977E+04  0.7818609E-02  0.8044874E-01
        2   -1    0    0  501    0  0.00000000000E+00  0.00000000000E+00  0.26803980875E+04  0.26803980875E+04  0.25500000920E-02 0. -1.
       -2   -1    0    0    0  501  0.00000000000E+00  0.00000000000E+00 -0.13510547655E+04  0.13510547655E+04  0.25500000920E-02 0.  1.
    10030    2    1    2    0    0  0.00000000000E+00  0.00000000000E+00  0.13293433220E+04  0.40314528529E+04  0.38059766733E+04 0.  0.
        4    1    3    3  502    0  0.10369260283E+03  0.12022303648E+04 -0.89398258355E+03  0.15017711139E+04  0.12699999809E+01 0.  1.
       -4    1    3    3    0  502 -0.10369260283E+03 -0.12022303648E+04  0.22233259056E+04  0.25296817391E+04  0.12699999809E+01 0. -1.
</event>
<event>
 5   0  0.1724503E-06  0.3707301E+04  0.7818609E-02  0.8066346E-01
       -2   -1    0    0    0  501  0.00000000000E+00  0.00000000000E+00  0.13822351794E+04  0.13822351794E+04  0.25500000920E-02 0. -1.
        2   -1    0    0  501    0  0.00000000000E+00  0.00000000000E+00 -0.24858430860E+04  0.24858430860E+04  0.25500000920E-02 0.  1.
    10030    2    1    2    0    0  0.00000000000E+00  0.00000000000E+00 -0.11036079065E+04  0.38680782654E+04  0.37073007776E+04 0.  0.
        1    1    3    3  502    0 -0.12929612486E+04  0.11648816800E+04 -0.12176995992E+04  0.21240269378E+04  0.50400001928E-02 0. -1.
       -1    1    3    3    0  502  0.12929612486E+04 -0.11648816800E+04  0.11409169264E+03  0.17440513276E+04  0.50400001928E-02 0.  1.
</event>
<event>
 5   0  0.6287345E-07  0.3564829E+04  0.7818609E-02  0.8098596E-01
       -1   -1    0    0    0  501  0.00000000000E+00  0.00000000000E+00  0.15492925783E+04  0.15492925783E+04  0.50400001928E-02 0. -1.
        1   -1    0    0  501    0  0.00000000000E+00  0.00000000000E+00 -0.20506148294E+04  0.20506148294E+04  0.50400001928E-02 0.  1.
    10030    2    1    2    0    0  0.00000000000E+00  0.00000000000E+00 -0.50132225114E+03  0.35999074077E+04  0.35648294972E+04 0.  0.
        5    1    3    3  502    0  0.12488939402E+04 -0.90934710630E+03 -0.11484151373E+04  0.19249747144E+04  0.46999998093E+01 0.  1.
       -5    1    3    3    0  502 -0.12488939402E+04  0.90934710630E+03  0.64709288616E+03  0.16749326933E+04  0.46999998093E+01 0. -1.
</event>
<event>
 5   0  0.5679750E-07  0.1944172E+04  0.7818609E-02  0.8633176E-01
       -1   -1    0    0    0  501  0.00000000000E+00  0.00000000000E+00  0.21468361972E+04  0.21468361972E+04  0.50400001928E-02 0.  1.
        1   -1    0    0  501    0  0.00000000000E+00  0.00000000000E+00 -0.44016002382E+03  0.44016002385E+03  0.50400001928E-02 0. -1.
    10030    2    1    2    0    0  0.00000000000E+00  0.00000000000E+00  0.17066761734E+04  0.25869962210E+04  0.19441722884E+04 0.  0.
        4    1    3    3  502    0  0.47265960018E+03  0.68562571529E+03  0.18607727097E+03  0.85329718316E+03  0.12699999809E+01 0. -1.
       -4    1    3    3    0  502 -0.47265960018E+03 -0.68562571529E+03  0.15205989024E+04  0.17336990379E+04  0.12699999809E+01 0.  1.
</event>
<event>
 5   0  0.1685793E-06  0.3352567E+04  0.7818609E-02  0.8149647E-01
        2   -1    0    0  501    0  0.00000000000E+00  0.00000000000E+00  0.13788124311E+04  0.13788124311E+04  0.25500000920E-02 0.  1.
       -2   -1    0    0    0  501  0.00000000000E+00  0.00000000000E+00 -0.20379321549E+04  0.20379321549E+04  0.25500000920E-02 0. -1.
    10030    2    1    2    0    0  0.00000000000E+00  0.00000000000E+00 -0.65911972383E+03  0.34167445860E+04  0.33525668906E+04 0.  0.
        3    1    3    3  502    0 -0.16602682939E+03  0.77260561792E+03  0.11770634706E+04  0.14177315589E+04  0.10100000352E+00 0.  1.
       -3    1    3    3    0  502  0.16602682939E+03 -0.77260561792E+03 -0.18361831945E+04  0.19990130272E+04  0.10100000352E+00 0. -1.
</event>
<event>
 5   0  0.6261598E-07  0.2117312E+04  0.7818609E-02  0.8553656E-01
        1   -1    0    0  501    0  0.00000000000E+00  0.00000000000E+00  0.79711239624E+03  0.79711239626E+03  0.50400001928E-02 0.  1.
       -1   -1    0    0    0  501  0.00000000000E+00  0.00000000000E+00 -0.14060152548E+04  0.14060152548E+04  0.50400001928E-02 0. -1.
    10030    2    1    2    0    0  0.00000000000E+00  0.00000000000E+00 -0.60890285854E+03  0.22031276511E+04  0.21173116813E+04 0.  0.
        1    1    3    3  502    0  0.22503574163E+03 -0.58436217978E+03  0.58374489626E+03  0.85608314205E+03  0.50400001928E-02 0.  1.
       -1    1    3    3    0  502 -0.22503574163E+03  0.58436217978E+03 -0.11926477548E+04  0.13470445090E+04  0.50400001928E-02 0. -1.
</event>
<event>
 5   0  0.6186440E-07  0.3728656E+04  0.7818609E-02  0.8061641E-01
        1   -1    0    0  501    0  0.00000000000E+00  0.00000000000E+00  0.16524266808E+04  0.16524266808E+04  0.50400001928E-02 0. -1.
       -1   -1    0    0    0  501  0.00000000000E+00  0.00000000000E+00 -0.21034032088E+04  0.21034032088E+04  0.50400001928E-02 0.  1.
    10030    2    1    2    0    0  0.00000000000E+00  0.00000000000E+00 -0.45097652794E+03  0.37558298896E+04  0.37286563707E+04 0.  0.
        3    1    3    3  502    0 -0.12995713853E+04 -0.12558258393E+04 -0.68679443607E+03  0.19333057005E+04  0.10100000352E+00 0. -1.
       -3    1    3    3    0  502  0.12995713853E+04  0.12558258393E+04  0.23581790812E+03  0.18225241891E+04  0.10100000352E+00 0.  1.
</event>
<event>
 5   0  0.6287345E-07  0.3639838E+04  0.7818609E-02  0.8081427E-01
        1   -1    0    0  501    0  0.00000000000E+00  0.00000000000E+00  0.25010821474E+04  0.25010821474E+04  0.50400001928E-02 0. -1.
       -1   -1    0    0    0  501  0.00000000000E+00  0.00000000000E+00 -0.13242687126E+04  0.13242687126E+04  0.50400001928E-02 0.  1.
    10030    2    1    2    0    0  0.00000000000E+00  0.00000000000E+00  0.11768134348E+04  0.38253508600E+04  0.36398378181E+04 0.  0.
        5    1    3    3  502    0  0.62278316079E+03 -0.74891069240E+02 -0.12070612534E+04  0.13603258790E+04  0.46999998093E+01 0.  1.
       -5    1    3    3    0  502 -0.62278316079E+03  0.74891069240E+02  0.23838746883E+04  0.24650249810E+04  0.46999998093E+01 0. -1.
</event>
<event>
 5   0  0.5679750E-07  0.2009401E+04  0.7818609E-02  0.8602238E-01
       -1   -1    0    0    0  501  0.00000000000E+00  0.00000000000E+00  0.11824026932E+04  0.11824026932E+04  0.50400001928E-02 0.  1.
        1   -1    0    0  501    0  0.00000000000E+00  0.00000000000E+00 -0.85370538273E+03  0.85370538274E+03  0.50400001928E-02 0. -1.
    10030    2    1    2    0    0  0.00000000000E+00  0.00000000000E+00  0.32869731046E+03  0.20361080759E+04  0.20094014470E+04 0.  0.
        4    1    3    3  502    0 -0.19436133044E+03  0.65650149542E+03 -0.58071396948E+03  0.89777551064E+03  0.12699999809E+01 0. -1.
       -4    1    3    3    0  502  0.19436133044E+03 -0.65650149542E+03  0.90941127994E+03  0.11383325653E+04  0.12699999809E+01 0.  1.
</event>
<event>
 5   0  0.5679750E-07  0.2894921E+04  0.7818609E-02  0.8274390E-01
       -1   -1    0    0    0  501  0.00000000000E+00  0.00000000000E+00  0.73941543649E+03  0.73941543651E+03  0.50400001928E-02 0. -1.
        1   -1    0    0  501    0  0.00000000000E+00  0.00000000000E+00 -0.28335106052E+04  0.28335106052E+04  0.50400001928E-02 0.  1.
    10030    2    1    2    0    0  0.00000000000E+00  0.00000000000E+00 -0.20940951687E+04  0.35729260417E+04  0.28949207111E+04 0.  0.
        4    1    3    3  502    0 -0.11541868362E+04  0.80506145720E+02 -0.21205303704E+04  0.24156322479E+04  0.12699999809E+01 0.  1.
       -4    1    3    3    0  502  0.11541868362E+04 -0.80506145720E+02  0.26435201679E+02  0.11572937938E+04  0.12699999809E+01 0. -1.
</event>
<event>
 5   0  0.6287345E-07  0.3596247E+04  0.7818609E-02  0.8091352E-01
       -1   -1    0    0    0  501  0.00000000000E+00  0.00000000000E+00  0.15295315334E+04  0.15295315334E+04  0.50400001928E-02 0.  1.
        1   -1    0    0  501    0  0.00000000000E+00  0.00000000000E+00 -0.21138815462E+04  0.21138815462E+04  0.50400001928E-02 0. -1.
    10030    2    1    2    0    0  0.00000000000E+00  0.00000000000E+00 -0.58435001282E+03  0.36434130796E+04  0.35962472010E+04 0.  0.
        5    1    3    3  502    0  0.55466963287E+03  0.14493722932E+04  0.62797017267E+03  0.16741287507E+04  0.46999998093E+01 0.  1.
       -5    1    3    3    0  502 -0.55466963287E+03 -0.14493722932E+04 -0.12123201855E+04  0.19692843289E+04  0.46999998093E+01 0. -1.
</event>
<event>
 5   0  0.1685793E-06  0.3732739E+04  0.7818609E-02  0.8060745E-01
       -2   -1    0    0    0  501  0.00000000000E+00  0.00000000000E+00  0.15068510868E+04  0.15068510868E+04  0.25500000920E-02 0.  1.
        2   -1    0    0  501    0  0.00000000000E+00  0.00000000000E+00 -0.23116656587E+04  0.23116656587E+04  0.25500000920E-02 0. -1.
    10030    2    1    2    0    0  0.00000000000E+00  0.00000000000E+00 -0.80481457187E+03  0.38185167456E+04  0.37327394285E+04 0.  0.
        3    1    3    3  502    0  0.76324322130E+03  0.16629503189E+04 -0.77881923555E+03  0.19885933194E+04  0.10100000352E+00 0.  1.
       -3    1    3    3    0  502 -0.76324322130E+03 -0.16629503189E+04 -0.25995336321E+02  0.18299234262E+04  0.10100000352E+00 0. -1.
</event>
<event>
 5   0  0.6287345E-07  0.3516267E+04  0.7818609E-02  0.8109946E-01
       -1   -1    0    0    0  501  0.00000000000E+00  0.00000000000E+00  0.15421904910E+04  0.15421904910E+04  0.50400001928E-02 0.  1.
        1   -1    0    0  501    0  0.00000000000E+00  0.00000000000E+00 -0.20043136844E+04  0.20043136844E+04  0.50400001928E-02 0. -1.
    10030    2    1    2    0    0  0.00000000000E+00  0.00000000000E+00 -0.46212319341E+03  0.35465041755E+04  0.35162670577E+04 0.  0.
        5    1    3    3  502    0  0.14669057250E+04 -0.96907090582E+03 -0.22094595524E+03  0.17719339806E+04  0.46999998093E+01 0.  1.
       -5    1    3    3    0  502 -0.14669057250E+04  0.96907090582E+03 -0.24117723816E+03  0.17745701949E+04  0.46999998093E+01 0. -1.
</event>
<event>
 5   0  0.5679750E-07  0.3351770E+04  0.7818609E-02  0.8149846E-01
        1   -1    0    0  501    0  0.00000000000E+00  0.00000000000E+00  0.10774905175E+04  0.10774905175E+04  0.50400001928E-02 0. -1.
       -1   -1    0    0    0  501  0.00000000000E+00  0.00000000000E+00 -0.26066038782E+04  0.26066038782E+04  0.50400001928E-02 0.  1.
    10030    2    1    2    0    0  0.00000000000E+00  0.00000000000E+00 -0.15291133606E+04  0.36840943957E+04  0.33517702557E+04 0.  0.
        4    1    3    3  502    0 -0.11567527319E+04 -0.81765318854E+03 -0.17488662422E+04  0.22505928919E+04  0.12699999809E+01 0. -1.
       -4    1    3    3    0  502  0.11567527319E+04  0.81765318854E+03  0.21975288150E+03  0.14335015038E+04  0.12699999809E+01 0.  1.
</event>
<event>
 5   0  0.1151180E-06  0.3209353E+04  0.7818609E-02  0.8186351E-01
       -2   -1    0    0    0  501  0.00000000000E+00  0.00000000000E+00  0.18610207475E+04  0.18610207475E+04  0.25500000920E-02 0.  1.
        2   -1    0    0  501    0  0.00000000000E+00  0.00000000000E+00 -0.13836420527E+04  0.13836420527E+04  0.25500000920E-02 0. -1.
    10030    2    1    2    0    0  0.00000000000E+00  0.00000000000E+00  0.47737869481E+03  0.32446628002E+04  0.32093529362E+04 0.  0.
        5    1    3    3  502    0 -0.31331424392E+03 -0.55391377559E+03 -0.12506023714E+04  0.14032158307E+04  0.46999998093E+01 0. -1.
       -5    1    3    3    0  502  0.31331424392E+03  0.55391377559E+03  0.17279810662E+04  0.18414469695E+04  0.46999998093E+01 0.  1.
</event>
<event>
 5   0  0.6186440E-07  0.2064090E+04  0.7818609E-02  0.8577229E-01
        1   -1    0    0  501    0  0.00000000000E+00  0.00000000000E+00  0.10829600665E+04  0.10829600665E+04  0.50400001928E-02 0. -1.
       -1   -1    0    0    0  501  0.00000000000E+00  0.00000000000E+00 -0.98352383879E+03  0.98352383880E+03  0.50400001928E-02 0.  1.
    10030    2    1    2    0    0  0.00000000000E+00  0.00000000000E+00  0.99436227708E+02  0.20664839053E+04  0.20640901549E+04 0.  0.
        3    1    3    3  502    0 -0.46764236491E+03  0.87334619750E+03  0.33935289103E+03  0.10471787608E+04  0.10100000352E+00 0. -1.
       -3    1    3    3    0  502  0.46764236491E+03 -0.87334619750E+03 -0.23991666332E+03  0.10193051445E+04  0.10100000352E+00 0.  1.
</event>
<event>
 5   0  0.1184684E-06  0.3753608E+04  0.7818609E-02  0.8056184E-01
        2   -1    0    0  501    0  0.00000000000E+00  0.00000000000E+00  0.15962667476E+04  0.15962667476E+04  0.25500000920E-02 0.  1.
       -2   -1    0    0    0  501  0.00000000000E+00  0.00000000000E+00 -0.22066448905E+04  0.22066448905E+04  0.25500000920E-02 0. -1.
    10030    2    1    2    0    0  0.00000000000E+00  0.00000000000E+00 -0.61037814288E+03  0.38029116381E+04  0.37536083240E+04 0.  0.
        4    1    3    3  502    0 -0.65550624321E+03 -0.16805741647E+04 -0.83004213514E+03  0.19856962298E+04  0.12699999809E+01 0. -1.
       -4    1    3    3    0  502  0.65550624321E+03  0.16805741647E+04  0.21966399226E+03  0.18172154083E+04  0.12699999809E+01 0.  1.
</event>
<event>
 5   0  0.1724503E-06  0.3710735E+04  0.7818609E-02  0.8065587E-01
       -2   -1    0    0    0  501  0.00000000000E+00  0.00000000000E+00  0.13883642760E+04  0.13883642760E+04  0.25500000920E-02 0.  1.
        2   -1    0    0  501    0  0.00000000000E+00  0.00000000000E+00 -0.24794558194E+04  0.24794558194E+04  0.25500000920E-02 0. -1.
    10030    2    1    2    0    0  0.00000000000E+00  0.00000000000E+00 -0.10910915434E+04  0.38678200954E+04  0.37107346354E+04 0.  0.
        1    1    3    3  502    0  0.60759780079E+03  0.15731544396E+03 -0.23654433581E+04  0.24472935085E+04  0.50400001928E-02 0. -1.
       -1    1    3    3    0  502 -0.60759780079E+03 -0.15731544396E+03  0.12743518147E+04  0.14205265869E+04  0.50400001928E-02 0.  1.
</event>
<event>
 5   0  0.6287345E-07  0.3684763E+04  0.7818609E-02  0.8071347E-01
       -1   -1    0    0    0  501  0.00000000000E+00  0.00000000000E+00  0.11789866211E+04  0.11789866211E+04  0.50400001928E-02 0. -1.
        1   -1    0    0  501    0  0.00000000000E+00  0.00000000000E+00 -0.28790569282E+04  0.28790569282E+04  0.50400001928E-02 0.  1.
    10030    2    1    2    0    0  0.00000000000E+00  0.00000000000E+00 -0.17000703071E+04  0.40580435493E+04  0.36847630044E+04 0.  0.
        5    1    3    3  502    0 -0.62884130240E+03 -0.13908214352E+04 -0.19863127278E+04  0.25050520935E+04  0.46999998093E+01 0.  1.
       -5    1    3    3    0  502  0.62884130240E+03  0.13908214352E+04  0.28624242075E+03  0.15529914558E+04  0.46999998093E+01 0. -1.
</event>
<event>
 5   0  0.5875011E-07  0.3283321E+04  0.7818609E-02  0.8167152E-01
        1   -1    0    0  501    0  0.00000000000E+00  0.00000000000E+00  0.16160461091E+04  0.16160461091E+04  0.50400001928E-02 0.  1.
       -1   -1    0    0    0  501  0.00000000000E+00  0.00000000000E+00 -0.16676807621E+04  0.16676807621E+04  0.50400001928E-02 0. -1.
    10030    2    1    2    0    0  0.00000000000E+00  0.00000000000E+00 -0.51634652969E+02  0.32837268712E+04  0.32833208840E+04 0.  0.
        2    1    3    3  502    0 -0.45741005014E+03  0.20874869489E+03  0.15371455801E+04  0.16172867730E+04  0.25500000920E-02 0.  1.
       -2    1    3    3    0  502  0.45741005014E+03 -0.20874869489E+03 -0.15887802331E+04  0.16664400982E+04  0.25500000920E-02 0. -1.
</event>
<event>
 5   0  0.1151180E-06  0.3710185E+04  0.7818609E-02  0.8065708E-01
       -2   -1    0    0    0  501  0.00000000000E+00  0.00000000000E+00  0.18735578536E+04  0.18735578536E+04  0.25500000920E-02 0.  1.
        2   -1    0    0  501    0  0.00000000000E+00  0.00000000000E+00 -0.18368091576E+04  0.18368091576E+04  0.25500000920E-02 0. -1.
    10030    2    1    2    0    0  0.00000000000E+00  0.00000000000E+00  0.36748696042E+02  0.37103670112E+04  0.37101850211E+04 0.  0.
        5    1    3    3  502    0 -0.34997080742E+03  0.42496442656E+03  0.17899780520E+04  0.18727300517E+04  0.46999998093E+01 0.  1.
       -5    1    3    3    0  502  0.34997080742E+03 -0.42496442656E+03 -0.17532293560E+04  0.18376369594E+04  0.46999998093E+01 0. -1.
</event>
<event>
 5   0  0.5875011E-07  0.3721935E+04  0.7818609E-02  0.8063118E-01
        1   -1    0    0  501    0  0.00000000000E+00  0.00000000000E+00  0.14934111175E+04  0.14934111175E+04  0.50400001928E-02 0. -1.
       -1   -1    0    0    0  501  0.00000000000E+00  0.00000000000E+00 -0.23189866868E+04  0.23189866868E+04  0.50400001928E-02 0.  1.
    10030    2    1    2    0    0  0.00000000000E+00  0.00000000000E+00 -0.82557556929E+03  0.38123978042E+04  0.37219352489E+04 0.  0.
        2    1    3    3  502    0 -0.86463073672E+03 -0.13786191182E+04  0.51194119288E+03  0.17059486420E+04  0.25500000920E-02 0. -1.
       -2    1    3    3    0  502  0.86463073672E+03  0.13786191182E+04 -0.13375167622E+04  0.21064491623E+04  0.25500000920E-02 0.  1.
</event>
<event>
 5   0  0.5679750E-07  0.3671307E+04  0.7818609E-02  0.8074351E-01
        1   -1    0    0  501    0  0.00000000000E+00  0.00000000000E+00  0.12119049191E+04  0.12119049191E+04  0.50400001928E-02 0.  1.
       -1   -1    0    0    0  501  0.00000000000E+00  0.00000000000E+00 -0.27804351394E+04  0.27804351394E+04  0.50400001928E-02 0. -1.
    10030    2    1    2    0    0  0.00000000000E+00  0.00000000000E+00 -0.15685302204E+04  0.39923400585E+04  0.36713065918E+04 0.  0.
        4    1    3    3  502    0 -0.89408635426E+03 -0.15040096168E+04 -0.18057595061E+03  0.17589896597E+04  0.12699999809E+01 0.  1.
       -4    1    3    3    0  502  0.89408635426E+03  0.15040096168E+04 -0.13879542697E+04  0.22333503988E+04  0.12699999809E+01 0. -1.
</event>
<event>
 5   0  0.6287345E-07  0.2888254E+04  0.7818609E-02  0.8276381E-01
        1   -1    0    0  501    0  0.00000000000E+00  0.00000000000E+00  0.15004176734E+04  0.15004176734E+04  0.50400001928E-02 0.  1.
       -1   -1    0    0    0  501  0.00000000000E+00  0.00000000000E+00 -0.13899478298E+04  0.13899478298E+04  0.50400001928E-02 0. -1.
    10030    2    1    2    0    0  0.00000000000E+00  0.00000000000E+00  0.11046984353E+03  0.28903655032E+04  0.28882536516E+04 0.  0.
        5    1    3    3  502    0  0.60691999142E+02 -0.10505741475E+04  0.10449427053E+04  0.14830094084E+04  0.46999998093E+01 0.  1.
       -5    1    3    3    0  502 -0.60691999142E+02  0.10505741475E+04 -0.93447286174E+03  0.14073560948E+04  0.46999998093E+01 0. -1.
</event>
<event>
 5   0  0.5679750E-07  0.3625213E+04  0.7818609E-02  0.8084741E-01
       -3   -1    0    0    0  501  0.00000000000E+00  0.00000000000E+00  0.21605793176E+04  0.21605793199E+04  0.10100000352E+00 0.  1.
        3   -1    0    0  501    0  0.00000000000E+00  0.00000000000E+00 -0.15206769509E+04  0.15206769543E+04  0.10100000352E+00 0. -1.
    10030    2    1    2    0    0  0.00000000000E+00  0.00000000000E+00  0.63990236666E+03  0.36812562742E+04  0.36252134720E+04 0.  0.
        4    1    3    3  502    0 -0.86342025366E+03 -0.12665021577E+04 -0.66248618419E+03  0.16698538281E+04  0.12699999809E+01 0. -1.
       -4    1    3    3    0  502  0.86342025366E+03  0.12665021577E+04  0.13023885509E+04  0.20114024461E+04  0.12699999809E+01 0.  1.
</event>
<event>
 5   0  0.5875011E-07  0.3729051E+04  0.7818609E-02  0.8061554E-01
        1   -1    0    0  501    0  0.00000000000E+00  0.00000000000E+00  0.27746906389E+04  0.27746906389E+04  0.50400001928E-02 0.  1.
       -1   -1    0    0    0  501  0.00000000000E+00  0.00000000000E+00 -0.12529165210E+04  0.12529165210E+04  0.50400001928E-02 0. -1.
    10030    2    1    2    0    0  0.00000000000E+00  0.00000000000E+00  0.15217741179E+04  0.40276071599E+04  0.37290512155E+04 0.  0.
        2    1    3    3  502    0 -0.98174211844E+03 -0.14379720571E+03 -0.94409312103E+03  0.13696010531E+04  0.25500000920E-02 0. -1.
       -2    1    3    3    0  502  0.98174211844E+03  0.14379720571E+03  0.24658672389E+04  0.26580061067E+04  0.25500000920E-02 0.  1.
</event>
<event>
 5   0  0.1184684E-06  0.3682891E+04  0.7818609E-02  0.8071764E-01
       -2   -1    0    0    0  501  0.00000000000E+00  0.00000000000E+00  0.17190155179E+04  0.17190155179E+04  0.25500000920E-02 0. -1.
        2   -1    0    0  501    0  0.00000000000E+00  0.00000000000E+00 -0.19725955359E+04  0.19725955359E+04  0.25500000920E-02 0.  1.
    10030    2    1    2    0    0  0.00000000000E+00  0.00000000000E+00 -0.25358001807E+03  0.36916110538E+04  0.36828914384E+04 0.  0.
        4    1    3    3  502    0 -0.11188457061E+04  0.11595697989E+04  0.76666926567E+03  0.17844330216E+04  0.12699999809E+01 0. -1.
       -4    1    3    3    0  502  0.11188457061E+04 -0.11595697989E+04 -0.10202492837E+04  0.19071780322E+04  0.12699999809E+01 0.  1.
</event>
<event>
 5   0  0.6287345E-07  0.3704714E+04  0.7818609E-02  0.8066918E-01
        1   -1    0    0  501    0  0.00000000000E+00  0.00000000000E+00  0.18420252394E+04  0.18420252395E+04  0.50400001928E-02 0.  1.
       -1   -1    0    0    0  501  0.00000000000E+00  0.00000000000E+00 -0.18627469527E+04  0.18627469527E+04  0.50400001928E-02 0. -1.
    10030    2    1    2    0    0  0.00000000000E+00  0.00000000000E+00 -0.20721713205E+02  0.37047721921E+04  0.37047142408E+04 0.  0.
        5    1    3    3  502    0  0.74636243114E+03 -0.99527011173E+03 -0.13828200605E+04  0.18600626021E+04  0.46999998093E+01 0. -1.
       -5    1    3    3    0  502 -0.74636243114E+03  0.99527011173E+03  0.13620983473E+04  0.18447095900E+04  0.46999998093E+01 0.  1.
</event>
<event>
 5   0  0.1184684E-06  0.2804178E+04  0.7818609E-02  0.8301972E-01
        2   -1    0    0  501    0  0.00000000000E+00  0.00000000000E+00  0.20700401021E+04  0.20700401021E+04  0.25500000920E-02 0.  1.
       -2   -1    0    0    0  501  0.00000000000E+00  0.00000000000E+00 -0.94966935479E+03  0.94966935480E+03  0.25500000920E-02 0. -1.
    10030    2    1    2    0    0  0.00000000000E+00  0.00000000000E+00  0.11203707473E+04  0.30197094569E+04  0.28041780601E+04 0.  0.
        4    1    3    3  502    0 -0.72540391732E+03  0.65159610403E+03  0.16451266260E+04  0.19123889653E+04  0.12699999809E+01 0.  1.
       -4    1    3    3    0  502  0.72540391732E+03 -0.65159610403E+03 -0.52475587869E+03  0.11073204916E+04  0.12699999809E+01 0. -1.
</event>
<event>
 5   0  0.5679750E-07  0.3675383E+04  0.7818609E-02  0.8073439E-01
       -1   -1    0    0    0  501  0.00000000000E+00  0.00000000000E+00  0.23214877793E+04  0.23214877793E+04  0.50400001928E-02 0. -1.
        1   -1    0    0  501    0  0.00000000000E+00  0.00000000000E+00 -0.14547180078E+04  0.14547180078E+04  0.50400001928E-02 0.  1.
    10030    2    1    2    0    0  0.00000000000E+00  0.00000000000E+00  0.86676977152E+03  0.37762057871E+04  0.36753830153E+04 0.  0.
        4    1    3    3  502    0  0.51147242310E+01 -0.82914187091E+02  0.23195572287E+04  0.23210446512E+04  0.12699999809E+01 0. -1.
       -4    1    3    3    0  502 -0.51147242310E+01  0.82914187091E+02 -0.14527874571E+04  0.14551611359E+04  0.12699999809E+01 0.  1.
</event>
<event>
 5   0  0.5875011E-07  0.2546842E+04  0.7818609E-02  0.8386485E-01
       -1   -1    0    0    0  501  0.00000000000E+00  0.00000000000E+00  0.14133415662E+04  0.14133415662E+04  0.50400001928E-02 0.  1.
        1   -1    0    0  501    0  0.00000000000E+00  0.00000000000E+00 -0.11473524549E+04  0.11473524549E+04  0.50400001928E-02 0. -1.
    10030    2    1    2    0    0  0.00000000000E+00  0.00000000000E+00  0.26598911127E+03  0.25606940211E+04  0.25468418998E+04 0.  0.
        2    1    3    3  502    0 -0.64133080447E+03 -0.10911006506E+04  0.27445479467E+03  0.12950410283E+04  0.25500000920E-02 0. -1.
       -2    1    3    3    0  502  0.64133080447E+03  0.10911006506E+04 -0.84656833997E+01  0.12656529929E+04  0.25500000920E-02 0.  1.
</event>
<event>
 5   0  0.1184684E-06  0.2627071E+04  0.7818609E-02  0.8359064E-01
        2   -1    0    0  501    0  0.00000000000E+00  0.00000000000E+00  0.19927451675E+04  0.19927451675E+04  0.25500000920E-02 0.  1.
       -2   -1    0    0    0  501  0.00000000000E+00  0.00000000000E+00 -0.86582825600E+03  0.86582825600E+03  0.25500000920E-02 0. -1.
    10030    2    1    2    0    0  0.00000000000E+00  0.00000000000E+00  0.11269169115E+04  0.28585734235E+04  0.26270706675E+04 0.  0.
        4    1    3    3  502    0  0.40734698244E+03  0.26031147898E+03 -0.76551224101E+03  0.90537518975E+03  0.12699999809E+01 0. -1.
       -4    1    3    3    0  502 -0.40734698244E+03 -0.26031147898E+03  0.18924291525E+04  0.19531982338E+04  0.12699999809E+01 0.  1.
</event>
<event>
 5   0  0.1184684E-06  0.3500096E+04  0.7818609E-02  0.8113767E-01
        2   -1    0    0  501    0  0.00000000000E+00  0.00000000000E+00  0.16557786511E+04  0.16557786511E+04  0.25500000920E-02 0.  1.
       -2   -1    0    0    0  501  0.00000000000E+00  0.00000000000E+00 -0.18496846996E+04  0.18496846996E+04  0.25500000920E-02 0. -1.
    10030    2    1    2    0    0  0.00000000000E+00  0.00000000000E+00 -0.19390604856E+03  0.35054633507E+04  0.35000962483E+04 0.  0.
        4    1    3    3  502    0  0.76881305543E+03  0.13482314182E+04 -0.90681238545E+03  0.17975293563E+04  0.12699999809E+01 0. -1.
       -4    1    3    3    0  502 -0.76881305543E+03 -0.13482314182E+04  0.71290633689E+03  0.17079339944E+04  0.12699999809E+01 0.  1.
</event>
<event>
 5   0  0.1685793E-06  0.2423166E+04  0.7818609E-02  0.8430881E-01
       -2   -1    0    0    0  501  0.00000000000E+00  0.00000000000E+00  0.74597522512E+03  0.74597522512E+03  0.25500000920E-02 0.  1.
        2   -1    0    0  501    0  0.00000000000E+00  0.00000000000E+00 -0.19678037541E+04  0.19678037541E+04  0.25500000920E-02 0. -1.
    10030    2    1    2    0    0  0.00000000000E+00  0.00000000000E+00 -0.12218285290E+04  0.27137789793E+04  0.24231655730E+04 0.  0.
        3    1    3    3  502    0  0.99869311494E+03 -0.12911532066E+03  0.14358548656E+03  0.10171900049E+04  0.10100000352E+00 0.  1.
       -3    1    3    3    0  502 -0.99869311494E+03  0.12911532066E+03 -0.13654140156E+04  0.16965889744E+04  0.10100000352E+00 0. -1.
</event>
<event>
 5   0  0.1724503E-06  0.3442476E+04  0.7818609E-02  0.8127559E-01
        2   -1    0    0  501    0  0.00000000000E+00  0.00000000000E+00  0.24684609770E+04  0.24684609770E+04  0.25500000920E-02 0.  1.
       -2   -1    0    0    0  501  0.00000000000E+00  0.00000000000E+00 -0.12002056050E+04  0.12002056050E+04  0.25500000920E-02 0. -1.
    10030    2    1    2    0    0  0.00000000000E+00  0.00000000000E+00  0.12682553720E+04  0.36686665820E+04  0.34424762601E+04 0.  0.
        1    1    3    3  502    0  0.22917825980E+03  0.92861989902E+03 -0.89091285434E+03  0.13071278842E+04  0.50400001928E-02 0. -1.
       -1    1    3    3    0  502 -0.22917825980E+03 -0.92861989902E+03  0.21591682263E+04  0.23615386978E+04  0.50400001928E-02 0.  1.
</event>
<event>
 5   0  0.6186440E-07  0.3688546E+04  0.7818609E-02  0.8070505E-01
       -1   -1    0    0    0  501  0.00000000000E+00  0.00000000000E+00  0.13489619904E+04  0.13489619904E+04  0.50400001928E-02 0. -1.
        1   -1    0    0  501    0  0.00000000000E+00  0.00000000000E+00 -0.25214526151E+04  0.25214526151E+04  0.50400001928E-02 0.  1.
    10030    2    1    2    0    0  0.00000000000E+00  0.00000000000E+00 -0.11724906248E+04  0.38704146055E+04  0.36885464553E+04 0.  0.
        3    1    3    3  502    0 -0.13296014760E+04 -0.44277747501E+01 -0.19273407339E+04  0.23414743229E+04  0.10100000352E+00 0.  1.
       -3    1    3    3    0  502  0.13296014760E+04  0.44277747501E+01  0.75485010914E+03  0.15289402826E+04  0.10100000352E+00 0. -1.
</event>
<event>
 5   0  0.1685793E-06  0.3339573E+04  0.7818609E-02  0.8152898E-01
       -2   -1    0    0    0  501  0.00000000000E+00  0.00000000000E+00  0.15059098547E+04  0.15059098547E+04  0.25500000920E-02 0.  1.
        2   -1    0    0  501    0  0.00000000000E+00  0.00000000000E+00 -0.18514967400E+04  0.18514967400E+04  0.25500000920E-02 0. -1.
    10030    2    1    2    0    0  0.00000000000E+00  0.00000000000E+00 -0.34558688529E+03  0.33574065947E+04  0.33395731385E+04 0.  0.
        3    1    3    3  502    0 -0.77855891842E+03 -0.33356430039E+03 -0.16194941946E+04  0.18276160944E+04  0.10100000352E+00 0. -1.
       -3    1    3    3    0  502  0.77855891842E+03  0.33356430039E+03  0.12739073093E+04  0.15297905003E+04  0.10100000352E+00 0.  1.
</event>
<event>
 5   0  0.1151180E-06  0.3741613E+04  0.7818609E-02  0.8058802E-01
        2   -1    0    0  501    0  0.00000000000E+00  0.00000000000E+00  0.13701517148E+04  0.13701517148E+04  0.25500000920E-02 0. -1.
       -2   -1    0    0    0  501  0.00000000000E+00  0.00000000000E+00 -0.25544005406E+04  0.25544005406E+04  0.25500000920E-02 0.  1.
    10030    2    1    2    0    0  0.00000000000E+00  0.00000000000E+00 -0.11842488258E+04  0.39245522554E+04  0.37416126368E+04 0.  0.
        5    1    3    3  502    0 -0.94542764829E+03  0.10480699866E+04 -0.18800056177E+04  0.23508992636E+04  0.46999998093E+01 0.  1.
       -5    1    3    3    0  502  0.94542764829E+03 -0.10480699866E+04  0.69575679196E+03  0.15736529918E+04  0.46999998093E+01 0. -1.
</event>
<event>
 5   0  0.1685793E-06  0.3682973E+04  0.7818609E-02  0.8071746E-01
        2   -1    0    0  501    0  0.00000000000E+00  0.00000000000E+00  0.20361049754E+04  0.20361049754E+04  0.25500000920E-02 0.  1.
       -2   -1    0    0    0  501  0.00000000000E+00  0.00000000000E+00 -0.16654699539E+04  0.16654699539E+04  0.25500000920E-02 0. -1.
    10030    2    1    2    0    0  0.00000000000E+00  0.00000000000E+00  0.37063502157E+03  0.37015749293E+04  0.36829725275E+04 0.  0.
        3    1    3    3  502    0  0.16849931100E+03  0.18276215750E+04  0.34630208784E+02  0.18356992948E+04  0.10100000352E+00 0. -1.
       -3    1    3    3    0  502 -0.16849931100E+03 -0.18276215750E+04  0.33600481278E+03  0.18658756346E+04  0.10100000352E+00 0.  1.
</event>
<event>
 5   0  0.6261598E-07  0.3923326E+04  0.7818609E-02  0.8020195E-01
       -1   -1    0    0    0  501  0.00000000000E+00  0.00000000000E+00  0.25164796884E+04  0.25164796885E+04  0.50400001928E-02 0.  1.
        1   -1    0    0  501    0  0.00000000000E+00  0.00000000000E+00 -0.15291687850E+04  0.15291687850E+04  0.50400001928E-02 0. -1.
    10030    2    1    2    0    0  0.00000000000E+00  0.00000000000E+00  0.98731090349E+03  0.40456484734E+04  0.39233262355E+04 0.  0.
        1    1    3    3  502    0  0.15168997537E+04 -0.15433342326E+03  0.17663643564E+04  0.23334195311E+04  0.50400001928E-02 0.  1.
       -1    1    3    3    0  502 -0.15168997537E+04  0.15433342326E+03 -0.77905345293E+03  0.17122289423E+04  0.50400001928E-02 0. -1.
</event>
<event>
 5   0  0.5875011E-07  0.3700900E+04  0.7818609E-02  0.8067762E-01
        1   -1    0    0  501    0  0.00000000000E+00  0.00000000000E+00  0.12547314010E+04  0.12547314010E+04  0.50400001928E-02 0.  1.
       -1   -1    0    0    0  501  0.00000000000E+00  0.00000000000E+00 -0.27290031382E+04  0.27290031383E+04  0.50400001928E-02 0. -1.
    10030    2    1    2    0    0  0.00000000000E+00  0.00000000000E+00 -0.14742717372E+04  0.39837345393E+04  0.37009003937E+04 0.  0.
        2    1    3    3  502    0  0.29057299217E+03 -0.15291414613E+04 -0.18143442507E+04  0.23905127761E+04  0.25500000920E-02 0. -1.
       -2    1    3    3    0  502 -0.29057299217E+03  0.15291414613E+04  0.34007251349E+03  0.15932217632E+04  0.25500000920E-02 0.  1.
</event>
<event>
 5   0  0.6261598E-07  0.3686168E+04  0.7818609E-02  0.8071034E-01
       -1   -1    0    0    0  501  0.00000000000E+00  0.00000000000E+00  0.15748720378E+04  0.15748720378E+04  0.50400001928E-02 0. -1.
        1   -1    0    0  501    0  0.00000000000E+00  0.00000000000E+00 -0.21569740217E+04  0.21569740217E+04  0.50400001928E-02 0.  1.
    10030    2    1    2    0    0  0.00000000000E+00  0.00000000000E+00 -0.58210198393E+03  0.37318460596E+04  0.36861676973E+04 0.  0.
        1    1    3    3  502    0 -0.35116298128E+03  0.71260129124E+03  0.13926397266E+04  0.16032970554E+04  0.50400001928E-02 0. -1.
       -1    1    3    3    0  502  0.35116298128E+03 -0.71260129124E+03 -0.19747417105E+04  0.21285490042E+04  0.50400001928E-02 0.  1.
</event>
<event>
 5   0  0.6287345E-07  0.3685011E+04  0.7818609E-02  0.8071292E-01
        1   -1    0    0  501    0  0.00000000000E+00  0.00000000000E+00  0.14911047895E+04  0.14911047895E+04  0.50400001928E-02 0.  1.
       -1   -1    0    0    0  501  0.00000000000E+00  0.00000000000E+00 -0.22767195351E+04  0.22767195351E+04  0.50400001928E-02 0. -1.
    10030    2    1    2    0    0  0.00000000000E+00  0.00000000000E+00 -0.78561474555E+03  0.37678243246E+04  0.36850114806E+04 0.  0.
        5    1    3    3  502    0  0.15303494474E+04 -0.39115370541E+03 -0.13627212188E+04  0.20861452161E+04  0.46999998093E+01 0. -1.
       -5    1    3    3    0  502 -0.15303494474E+04  0.39115370541E+03  0.57710647327E+03  0.16816791085E+04  0.46999998093E+01 0.  1.
</event>
<event>
 5   0  0.6261598E-07  0.3737159E+04  0.7818609E-02  0.8059776E-01
        1   -1    0    0  501    0  0.00000000000E+00  0.00000000000E+00  0.25845086191E+04  0.25845086191E+04  0.50400001928E-02 0.  1.
       -1   -1    0    0    0  501  0.00000000000E+00  0.00000000000E+00 -0.13509686215E+04  0.13509686215E+04  0.50400001928E-02 0. -1.
    10030    2    1    2    0    0  0.00000000000E+00  0.00000000000E+00  0.12335399976E+04  0.39354772406E+04  0.37371593738E+04 0.  0.
        1    1    3    3  502    0  0.30058126023E+03  0.21240682280E+03 -0.13124191230E+04  0.13630516156E+04  0.50400001928E-02 0. -1.
       -1    1    3    3    0  502 -0.30058126023E+03 -0.21240682280E+03  0.25459591206E+04  0.25724256250E+04  0.50400001928E-02 0.  1.
</event>
<event>
 5   0  0.1680194E-06  0.2137471E+04  0.7818609E-02  0.8544914E-01
        2   -1    0    0  501    0  0.00000000000E+00  0.00000000000E+00  0.14928205294E+04  0.14928205294E+04  0.25500000920E-02 0. -1.
       -2   -1    0    0    0  501  0.00000000000E+00  0.00000000000E+00 -0.76512587099E+03  0.76512587099E+03  0.25500000920E-02 0.  1.
    10030    2    1    2    0    0  0.00000000000E+00  0.00000000000E+00  0.72769465840E+03  0.22579464004E+04  0.21374710363E+04 0.  0.
        2    1    3    3  502    0 -0.34761379249E+03 -0.47067997836E+03 -0.58088697909E+03  0.82450268237E+03  0.25500000920E-02 0.  1.
       -2    1    3    3    0  502  0.34761379249E+03  0.47067997836E+03  0.13085816375E+04  0.14334437180E+04  0.25500000920E-02 0. -1.
</event>
<event>
 5   0  0.6186440E-07  0.3273572E+04  0.7818609E-02  0.8169653E-01
       -1   -1    0    0    0  501  0.00000000000E+00  0.00000000000E+00  0.21529857849E+04  0.21529857849E+04  0.50400001928E-02 0.  1.
        1   -1    0    0  501    0  0.00000000000E+00  0.00000000000E+00 -0.12443504066E+04  0.12443504066E+04  0.50400001928E-02 0. -1.
    10030    2    1    2    0    0  0.00000000000E+00  0.00000000000E+00  0.90863537825E+03  0.33973361915E+04  0.32735721998E+04 0.  0.
        3    1    3    3  502    0 -0.79333402660E+03  0.42076829228E+03  0.18745003339E+04  0.20785033908E+04  0.10100000352E+00 0.  1.
       -3    1    3    3    0  502  0.79333402660E+03 -0.42076829228E+03 -0.96586495561E+03  0.13188328007E+04  0.10100000352E+00 0. -1.
</event>
<event>
 5   0  0.1151180E-06  0.3549306E+04  0.7818609E-02  0.8102204E-01
        2   -1    0    0  501    0  0.00000000000E+00  0.00000000000E+00  0.20062138241E+04  0.20062138241E+04  0.25500000920E-02 0.  1.
       -2   -1    0    0    0  501  0.00000000000E+00  0.00000000000E+00 -0.15698189759E+04  0.15698189759E+04  0.25500000920E-02 0. -1.
    10030    2    1    2    0    0  0.00000000000E+00  0.00000000000E+00  0.43639484825E+03  0.35760328000E+04  0.35493055832E+04 0.  0.
        5    1    3    3  502    0  0.93773419535E+03 -0.14189922572E+04 -0.29206070018E+03  0.17257479508E+04  0.46999998093E+01 0. -1.
       -5    1    3    3    0  502 -0.93773419535E+03  0.14189922572E+04  0.72845554842E+03  0.18502848492E+04  0.46999998093E+01 0.  1.
</event>
<event>
 5   0  0.6261598E-07  0.2469366E+04  0.7818609E-02  0.8413981E-01
        1   -1    0    0  501    0  0.00000000000E+00  0.00000000000E+00  0.10646032034E+04  0.10646032034E+04  0.50400001928E-02 0. -1.
       -1   -1    0    0    0  501  0.00000000000E+00  0.00000000000E+00 -0.14319349141E+04  0.14319349141E+04  0.50400001928E-02 0.  1.
    10030    2    1    2    0    0  0.00000000000E+00  0.00000000000E+00 -0.36733171072E+03  0.24965381175E+04  0.24693663128E+04 0.  0.
        1    1    3    3  502    0  0.25226262865E+03 -0.18570961978E+03 -0.13910928011E+04  0.14259255513E+04  0.50400001928E-02 0.  1.
       -1    1    3    3    0  502 -0.25226262865E+03  0.18570961978E+03  0.10237610904E+04  0.10706125662E+04  0.50400001928E-02 0. -1.
</event>
<event>
 5   0  0.1184684E-06  0.3464215E+04  0.7818609E-02  0.8122323E-01
       -2   -1    0    0    0  501  0.00000000000E+00  0.00000000000E+00  0.13123603127E+04  0.13123603127E+04  0.25500000920E-02 0.  1.
        2   -1    0    0  501    0  0.00000000000E+00  0.00000000000E+00 -0.22861067995E+04  0.22861067995E+04  0.25500000920E-02 0. -1.
    10030    2    1    2    0    0  0.00000000000E+00  0.00000000000E+00 -0.97374648683E+03  0.35984671122E+04  0.34642146782E+04 0.  0.
        4    1    3    3  502    0  0.92352949403E+02  0.76951146777E+03 -0.20959422846E+04  0.22346482138E+04  0.12699999809E+01 0. -1.
       -4    1    3    3    0  502 -0.92352949403E+02 -0.76951146777E+03  0.11221957977E+04  0.13638188984E+04  0.12699999809E+01 0.  1.
</event>
<event>
 5   0  0.1680194E-06  0.1932228E+04  0.7818609E-02  0.8638979E-01
        2   -1    0    0  501    0  0.00000000000E+00  0.00000000000E+00  0.12119117216E+04  0.12119117216E+04  0.25500000920E-02 0.  1.
       -2   -1    0    0    0  501  0.00000000000E+00  0.00000000000E+00 -0.77016867890E+03  0.77016867890E+03  0.25500000920E-02 0. -1.
    10030    2    1    2    0    0  0.00000000000E+00  0.00000000000E+00  0.44174304267E+03  0.19820804005E+04  0.19322281952E+04 0.  0.
        2    1    3    3  502    0  0.75966050445E+03  0.46353821246E+03  0.60663887740E+03  0.10770155449E+04  0.25500000920E-02 0.  1.
       -2    1    3    3    0  502 -0.75966050445E+03 -0.46353821246E+03 -0.16489583473E+03  0.90506485555E+03  0.25500000920E-02 0. -1.
</event>
<event>
 5   0  0.6287345E-07  0.1869598E+04  0.7818609E-02  0.8670139E-01
       -1   -1    0    0    0  501  0.00000000000E+00  0.00000000000E+00  0.84917500990E+03  0.84917500992E+03  0.50400001928E-02 0.  1.
        1   -1    0    0  501    0  0.00000000000E+00  0.00000000000E+00 -0.10290568133E+04  0.10290568133E+04  0.50400001928E-02 0. -1.
    10030    2    1    2    0    0  0.00000000000E+00  0.00000000000E+00 -0.17988180336E+03  0.18782318232E+04  0.18695981703E+04 0.  0.
        5    1    3    3  502    0  0.12509362463E+03  0.18706769588E+03  0.82154407081E+03  0.85182127706E+03  0.46999998093E+01 0.  1.
       -5    1    3    3    0  502 -0.12509362463E+03 -0.18706769588E+03 -0.10014258742E+04  0.10264105461E+04  0.46999998093E+01 0. -1.
</event>
<event>
 5   0  0.6261598E-07  0.2238500E+04  0.7818609E-02  0.8502572E-01
        1   -1    0    0  501    0  0.00000000000E+00  0.00000000000E+00  0.18255897065E+04  0.18255897065E+04  0.50400001928E-02 0.  1.
       -1   -1    0    0    0  501  0.00000000000E+00  0.00000000000E+00 -0.68620046886E+03  0.68620046888E+03  0.50400001928E-02 0. -1.
    10030    2    1    2    0    0  0.00000000000E+00  0.00000000000E+00  0.11393892377E+04  0.25117901754E+04  0.22384999554E+04 0.  0.
        1    1    3    3  502    0  0.96796601807E+03 -0.48384361347E+03  0.24904943015E+03  0.11104451689E+04  0.50400001928E-02 0.  1.
       -1    1    3    3    0  502 -0.96796601807E+03  0.48384361347E+03  0.89033980752E+03  0.14013450065E+04  0.50400001928E-02 0. -1.
</event>
<event>
 5   0  0.1724503E-06  0.2941031E+04  0.7818609E-02  0.8260773E-01
        2   -1    0    0  501    0  0.00000000000E+00  0.00000000000E+00  0.26395194085E+04  0.26395194085E+04  0.25500000920E-02 0.  1.
       -2   -1    0    0    0  501  0.00000000000E+00  0.00000000000E+00 -0.81924581495E+03  0.81924581495E+03  0.25500000920E-02 0. -1.
    10030    2    1    2    0    0  0.00000000000E+00  0.00000000000E+00  0.18202735935E+04  0.34587652234E+04  0.29410305873E+04 0.  0.
        1    1    3    3  502    0  0.55303582285E+03  0.13090712784E+04  0.46557091415E+03  0.14954171690E+04  0.50400001928E-02 0. -1.
       -1    1    3    3    0  502 -0.55303582285E+03 -0.13090712784E+04  0.13547026794E+04  0.19633480544E+04  0.50400001928E-02 0.  1.
</event>
<event>
 5   0  0.5679750E-07  0.3610615E+04  0.7818609E-02  0.8088065E-01
       -1   -1    0    0    0  501  0.00000000000E+00  0.00000000000E+00  0.19124351966E+04  0.19124351966E+04  0.50400001928E-02 0. -1.
        1   -1    0    0  501    0  0.00000000000E+00  0.00000000000E+00 -0.17041807784E+04  0.17041807784E+04  0.50400001928E-02 0.  1.
    10030    2    1    2    0    0  0.00000000000E+00  0.00000000000E+00  0.20825441824E+03  0.36166159751E+04  0.36106150734E+04 0.  0.
        4    1    3    3  502    0 -0.53937082956E+03 -0.16631364190E+04  0.55453002229E+03  0.18342433858E+04  0.12699999809E+01 0. -1.
       -4    1    3    3    0  502  0.53937082956E+03  0.16631364190E+04 -0.34627560406E+03  0.17823725892E+04  0.12699999809E+01 0.  1.
</event>
<event>
 5   0  0.6261598E-07  0.3704199E+04  0.7818609E-02  0.8067032E-01
        1   -1    0    0  501    0  0.00000000000E+00  0.00000000000E+00  0.19014428192E+04  0.19014428192E+04  0.50400001928E-02 0.  1.
       -1   -1    0    0    0  501  0.00000000000E+00  0.00000000000E+00 -0.18040365669E+04  0.18040365669E+04  0.50400001928E-02 0. -1.
    10030    2    1    2    0    0  0.00000000000E+00  0.00000000000E+00  0.97406252310E+02  0.37054793861E+04  0.37041989017E+04 0.  0.
        1    1    3    3  502    0 -0.15857843761E+03 -0.68099876637E+03  0.17643370779E+04  0.18978387089E+04  0.50400001928E-02 0.  1.
       -1    1    3    3    0  502  0.15857843761E+03  0.68099876637E+03 -0.16669308256E+04  0.18076406772E+04  0.50400001928E-02 0. -1.
</event>
<event>
 5   0  0.1184684E-06  0.3542226E+04  0.7818609E-02  0.8103855E-01
       -2   -1    0    0    0  501  0.00000000000E+00  0.00000000000E+00  0.15853529788E+04  0.15853529788E+04  0.25500000920E-02 0. -1.
        2   -1    0    0  501    0  0.00000000000E+00  0.00000000000E+00 -0.19786390071E+04  0.19786390071E+04  0.25500000920E-02 0.  1.
    10030    2    1    2    0    0  0.00000000000E+00  0.00000000000E+00 -0.39328602830E+03  0.35639919860E+04  0.35422259917E+04 0.  0.
        4    1    3    3  502    0  0.74115123078E+03 -0.62867035903E+03 -0.16863856388E+04  0.19463888879E+04  0.12699999809E+01 0.  1.
       -4    1    3    3    0  502 -0.74115123078E+03  0.62867035903E+03  0.12930996105E+04  0.16176030981E+04  0.12699999809E+01 0. -1.
</event>
<event>
 5   0  0.1151180E-06  0.2321333E+04  0.7818609E-02  0.8469557E-01
        2   -1    0    0  501    0  0.00000000000E+00  0.00000000000E+00  0.75368445875E+03  0.75368445875E+03  0.25500000920E-02 0.  1.
       -2   -1    0    0    0  501  0.00000000000E+00  0.00000000000E+00 -0.17874140359E+04  0.17874140359E+04  0.25500000920E-02 0. -1.
    10030    2    1    2    0    0  0.00000000000E+00  0.00000000000E+00 -0.10337295772E+04  0.25410984946E+04  0.23213325313E+04 0.  0.
        5    1    3    3  502    0 -0.18832846126E+03 -0.48293538497E+03  0.61992483402E+03  0.80809843782E+03  0.46999998093E+01 0.  1.
       -5    1    3    3    0  502  0.18832846126E+03  0.48293538497E+03 -0.16536544112E+04  0.17330000568E+04  0.46999998093E+01 0. -1.
</event>
<event>
 5   0  0.6287345E-07  0.1870044E+04  0.7818609E-02  0.8669913E-01
       -1   -1    0    0    0  501  0.00000000000E+00  0.00000000000E+00  0.14815688026E+04  0.14815688026E+04  0.50400001928E-02 0.  1.
        1   -1    0    0  501    0  0.00000000000E+00  0.00000000000E+00 -0.59009488220E+03  0.59009488223E+03  0.50400001928E-02 0. -1.
    10030    2    1    2    0    0  0.00000000000E+00  0.00000000000E+00  0.89147392040E+03  0.20716636848E+04  0.18700440295E+04 0.  0.
        5    1    3    3  502    0 -0.61996203283E+03 -0.69990307934E+03  0.43999814809E+03  0.10333623290E+04  0.46999998093E+01 0. -1.
       -5    1    3    3    0  502  0.61996203283E+03  0.69990307934E+03  0.45147577231E+03  0.10383013559E+04  0.46999998093E+01 0.  1.
</event>
<event>
 5   0  0.1724503E-06  0.3706903E+04  0.7818609E-02  0.8066434E-01
       -2   -1    0    0    0  501  0.00000000000E+00  0.00000000000E+00  0.13680923807E+04  0.13680923807E+04  0.25500000920E-02 0.  1.
        2   -1    0    0  501    0  0.00000000000E+00  0.00000000000E+00 -0.25110015918E+04  0.25110015918E+04  0.25500000920E-02 0. -1.
    10030    2    1    2    0    0  0.00000000000E+00  0.00000000000E+00 -0.11429092112E+04  0.38790939725E+04  0.37069028289E+04 0.  0.
        1    1    3    3  502    0 -0.14030520927E+04 -0.88838220539E+03 -0.14327954459E+04  0.21933264480E+04  0.50400001928E-02 0.  1.
       -1    1    3    3    0  502  0.14030520927E+04  0.88838220539E+03  0.28988623475E+03  0.16857675245E+04  0.50400001928E-02 0. -1.
</event>
<event>
 5   0  0.1685793E-06  0.3686555E+04  0.7818609E-02  0.8070948E-01
       -2   -1    0    0    0  501  0.00000000000E+00  0.00000000000E+00  0.14461558470E+04  0.14461558470E+04  0.25500000920E-02 0.  1.
        2   -1    0    0  501    0  0.00000000000E+00  0.00000000000E+00 -0.23494507004E+04  0.23494507004E+04  0.25500000920E-02 0. -1.
    10030    2    1    2    0    0  0.00000000000E+00  0.00000000000E+00 -0.90329485345E+03  0.37956065474E+04  0.36865549597E+04 0.  0.
        3    1    3    3  502    0 -0.87816227574E+03 -0.60474637790E+03 -0.19997155797E+04  0.22662192246E+04  0.10100000352E+00 0. -1.
       -3    1    3    3    0  502  0.87816227574E+03  0.60474637790E+03  0.10964207262E+04  0.15293873228E+04  0.10100000352E+00 0.  1.
</event>
<event>
 5   0  0.1184684E-06  0.3758994E+04  0.7818609E-02  0.8055012E-01
        2   -1    0    0  501    0  0.00000000000E+00  0.00000000000E+00  0.21449631798E+04  0.21449631798E+04  0.25500000920E-02 0. -1.
       -2   -1    0    0    0  501  0.00000000000E+00  0.00000000000E+00 -0.16468852958E+04  0.16468852958E+04  0.25500000920E-02 0.  1.
    10030    2    1    2    0    0  0.00000000000E+00  0.00000000000E+00  0.49807788393E+03  0.37918484756E+04  0.37589936530E+04 0.  0.
        4    1    3    3  502    0 -0.14149842895E+04 -0.10035782360E+04 -0.48057875239E+03  0.18000853773E+04  0.12699999809E+01 0.  1.
       -4    1    3    3    0  502  0.14149842895E+04  0.10035782360E+04  0.97865663632E+03  0.19917630984E+04  0.12699999809E+01 0. -1.
</event>
<event>
 5   0  0.6261598E-07  0.3755586E+04  0.7818609E-02  0.8055754E-01
        1   -1    0    0  501    0  0.00000000000E+00  0.00000000000E+00  0.23261862412E+04  0.23261862412E+04  0.50400001928E-02 0. -1.
       -1   -1    0    0    0  501  0.00000000000E+00  0.00000000000E+00 -0.15158312226E+04  0.15158312226E+04  0.50400001928E-02 0.  1.
    10030    2    1    2    0    0  0.00000000000E+00  0.00000000000E+00  0.81035501866E+03  0.38420174638E+04  0.37555855650E+04 0.  0.
        1    1    3    3  502    0 -0.21656917026E+03 -0.33185869404E+03 -0.14725687510E+04  0.15249561059E+04  0.50400001928E-02 0.  1.
       -1    1    3    3    0  502  0.21656917026E+03  0.33185869404E+03  0.22829237697E+04  0.23170613579E+04  0.50400001928E-02 0. -1.
</event>
<event>
 5   0  0.6261598E-07  0.2440835E+04  0.7818609E-02  0.8424372E-01
        1   -1    0    0  501    0  0.00000000000E+00  0.00000000000E+00  0.11900305647E+04  0.11900305647E+04  0.50400001928E-02 0.  1.
       -1   -1    0    0    0  501  0.00000000000E+00  0.00000000000E+00 -0.12515800419E+04  0.12515800419E+04  0.50400001928E-02 0. -1.
    10030    2    1    2    0    0  0.00000000000E+00  0.00000000000E+00 -0.61549477204E+02  0.24416106066E+04  0.24408346966E+04 0.  0.
        1    1    3    3  502    0 -0.61264254485E+03 -0.76875460220E+03 -0.75426392770E+03  0.12390434209E+04  0.50400001928E-02 0. -1.
       -1    1    3    3    0  502  0.61264254485E+03  0.76875460220E+03  0.69271445049E+03  0.12025671857E+04  0.50400001928E-02 0.  1.
</event>
<event>
 5   0  0.1724503E-06  0.3719439E+04  0.7818609E-02  0.8063668E-01
        2   -1    0    0  501    0  0.00000000000E+00  0.00000000000E+00  0.17426196429E+04  0.17426196429E+04  0.25500000920E-02 0. -1.
       -2   -1    0    0    0  501  0.00000000000E+00  0.00000000000E+00 -0.19846881523E+04  0.19846881523E+04  0.25500000920E-02 0.  1.
    10030    2    1    2    0    0  0.00000000000E+00  0.00000000000E+00 -0.24206850945E+03  0.37273077952E+04  0.37194389680E+04 0.  0.
        1    1    3    3  502    0  0.78232734643E+03 -0.13076788199E+04  0.94728704822E+03  0.17942721992E+04  0.50400001928E-02 0. -1.
       -1    1    3    3    0  502 -0.78232734643E+03  0.13076788199E+04 -0.11893555577E+04  0.19330355960E+04  0.50400001928E-02 0.  1.
</event>
<event>
 5   0  0.1184684E-06  0.3385415E+04  0.7818609E-02  0.8141495E-01
        2   -1    0    0  501    0  0.00000000000E+00  0.00000000000E+00  0.17132184082E+04  0.17132184082E+04  0.25500000920E-02 0.  1.
       -2   -1    0    0    0  501  0.00000000000E+00  0.00000000000E+00 -0.16724418673E+04  0.16724418673E+04  0.25500000920E-02 0. -1.
    10030    2    1    2    0    0  0.00000000000E+00  0.00000000000E+00  0.40776540920E+02  0.33856602755E+04  0.33854147124E+04 0.  0.
        4    1    3    3  502    0 -0.31135209297E+03 -0.25119939500E+03 -0.16244849107E+04  0.16730194559E+04  0.12699999809E+01 0. -1.
       -4    1    3    3    0  502  0.31135209297E+03  0.25119939500E+03  0.16652614516E+04  0.17126408196E+04  0.12699999809E+01 0.  1.
</event>
<event>
 5   0  0.1151180E-06  0.3804617E+04  0.7818609E-02  0.8045165E-01
        2   -1    0    0  501    0  0.00000000000E+00  0.00000000000E+00  0.19164963637E+04  0.19164963637E+04  0.25500000920E-02 0.  1.
       -2   -1    0    0    0  501  0.00000000000E+00  0.00000000000E+00 -0.18882258274E+04  0.18882258274E+04  0.25500000920E-02 0. -1.
    10030    2    1    2    0    0  0.00000000000E+00  0.00000000000E+00  0.28270536260E+02  0.38047221911E+04  0.38046171592E+04 0.  0.
        5    1    3    3  502    0  0.82232628742E+03 -0.91276234564E+03  0.14665528001E+04  0.19131531115E+04  0.46999998093E+01 0.  1.
       -5    1    3    3    0  502 -0.82232628742E+03  0.91276234564E+03 -0.14382822638E+04  0.18915690796E+04  0.46999998093E+01 0. -1.
</event>
<event>
 5   0  0.5679750E-07  0.3635749E+04  0.7818609E-02  0.8082352E-01
        1   -1    0    0  501    0  0.00000000000E+00  0.00000000000E+00  0.18619287227E+04  0.18619287227E+04  0.50400001928E-02 0. -1.
       -1   -1    0    0    0  501  0.00000000000E+00  0.00000000000E+00 -0.17748626719E+04  0.17748626719E+04  0.50400001928E-02 0.  1.
    10030    2    1    2    0    0  0.00000000000E+00  0.00000000000E+00  0.87066050836E+02  0.36367913946E+04  0.36357490495E+04 0.  0.
        4    1    3    3  502    0  0.68089660396E+03 -0.16632733601E+04 -0.22961616731E+03  0.18118564106E+04  0.12699999809E+01 0. -1.
       -4    1    3    3    0  502 -0.68089660396E+03  0.16632733601E+04  0.31668221815E+03  0.18249349840E+04  0.12699999809E+01 0.  1.
</event>
<event>
 5   0  0.1151180E-06  0.2162597E+04  0.7818609E-02  0.8534159E-01
        2   -1    0    0  501    0  0.00000000000E+00  0.00000000000E+00  0.17111633680E+04  0.17111633680E+04  0.25500000920E-02 0. -1.
       -2   -1    0    0    0  501  0.00000000000E+00  0.00000000000E+00 -0.68328174816E+03  0.68328174816E+03  0.25500000920E-02 0.  1.
    10030    2    1    2    0    0  0.00000000000E+00  0.00000000000E+00  0.10278816198E+04  0.23944451161E+04  0.21625972324E+04 0.  0.
        5    1    3    3  502    0  0.36033564560E+03 -0.99953918565E+03  0.29176896005E+03  0.11018491626E+04  0.46999998093E+01 0.  1.
       -5    1    3    3    0  502 -0.36033564560E+03  0.99953918565E+03  0.73611265975E+03  0.12925959535E+04  0.46999998093E+01 0. -1.
</event>
<event>
 5   0  0.6287345E-07  0.2022171E+04  0.7818609E-02  0.8596325E-01
       -1   -1    0    0    0  501  0.00000000000E+00  0.00000000000E+00  0.94451889207E+03  0.94451889208E+03  0.50400001928E-02 0. -1.
        1   -1    0    0  501    0  0.00000000000E+00  0.00000000000E+00 -0.10823435176E+04  0.10823435176E+04  0.50400001928E-02 0.  1.
    10030    2    1    2    0    0  0.00000000000E+00  0.00000000000E+00 -0.13782462548E+03  0.20268624096E+04  0.20221710116E+04 0.  0.
        5    1    3    3  502    0  0.12852982581E+02  0.62848712493E+03 -0.86265262853E+03  0.10674047559E+04  0.46999998093E+01 0.  1.
       -5    1    3    3    0  502 -0.12852982581E+02 -0.62848712493E+03  0.72482800305E+03  0.95945765377E+03  0.46999998093E+01 0. -1.
</event>
<event>
 5   0  0.1184684E-06  0.1855384E+04  0.7818609E-02  0.8677389E-01
        2   -1    0    0  501    0  0.00000000000E+00  0.00000000000E+00  0.63330688602E+03  0.63330688602E+03  0.25500000920E-02 0. -1.
       -2   -1    0    0    0  501  0.00000000000E+00  0.00000000000E+00 -0.13589180695E+04  0.13589180695E+04  0.25500000920E-02 0.  1.
    10030    2    1    2    0    0  0.00000000000E+00  0.00000000000E+00 -0.72561118350E+03  0.19922249555E+04  0.18553837026E+04 0.  0.
        4    1    3    3  502    0  0.13618107688E+03  0.33606157004E+02 -0.13474651129E+04  0.13547466564E+04  0.12699999809E+01 0.  1.
       -4    1    3    3    0  502 -0.13618107688E+03 -0.33606157004E+02  0.62185392942E+03  0.63747829918E+03  0.12699999809E+01 0. -1.
</event>
<event>
 5   0  0.1184684E-06  0.3714273E+04  0.7818609E-02  0.8064806E-01
        2   -1    0    0  501    0  0.00000000000E+00  0.00000000000E+00  0.14093081285E+04  0.14093081285E+04  0.25500000920E-02 0. -1.
       -2   -1    0    0    0  501  0.00000000000E+00  0.00000000000E+00 -0.24472685829E+04  0.24472685829E+04  0.25500000920E-02 0.  1.
    10030    2    1    2    0    0  0.00000000000E+00  0.00000000000E+00 -0.10379604544E+04  0.38565767113E+04  0.37142727452E+04 0.  0.
        4    1    3    3  502    0 -0.14692897373E+04 -0.12131329535E+03  0.65363515050E+03  0.16126902278E+04  0.12699999809E+01 0. -1.
       -4    1    3    3    0  502  0.14692897373E+04  0.12131329535E+03 -0.16915956049E+04  0.22438864836E+04  0.12699999809E+01 0.  1.
</event>
<event>
 5   0  0.1151180E-06  0.3677276E+04  0.7818609E-02  0.8073017E-01
        2   -1    0    0  501    0  0.00000000000E+00  0.00000000000E+00  0.22620021830E+04  0.22620021830E+04  0.25500000920E-02 0. -1.
       -2   -1    0    0    0  501  0.00000000000E+00  0.00000000000E+00 -0.14945118255E+04  0.14945118255E+04  0.25500000920E-02 0.  1.
    10030    2    1    2    0    0  0.00000000000E+00  0.00000000000E+00  0.76749035751E+03  0.37565140086E+04  0.36772756285E+04 0.  0.
        5    1    3    3  502    0  0.13339740584E+04 -0.12597505586E+04  0.50508455792E+03  0.19030477553E+04  0.46999998093E+01 0.  1.
       -5    1    3    3    0  502 -0.13339740584E+04  0.12597505586E+04  0.26240579959E+03  0.18534662533E+04  0.46999998093E+01 0. -1.
</event>
<event>
 5   0  0.6287345E-07  0.3663461E+04  0.7818609E-02  0.8076108E-01
       -1   -1    0    0    0  501  0.00000000000E+00  0.00000000000E+00  0.16623491485E+04  0.16623491485E+04  0.50400001928E-02 0. -1.
        1   -1    0    0  501    0  0.00000000000E+00  0.00000000000E+00 -0.20183708968E+04  0.20183708968E+04  0.50400001928E-02 0.  1.
    10030    2    1    2    0    0  0.00000000000E+00  0.00000000000E+00 -0.35602174828E+03  0.36807200452E+04  0.36634612822E+04 0.  0.
        5    1    3    3  502    0 -0.10067822649E+04 -0.22038983639E+03 -0.16994210543E+04  0.19875201178E+04  0.46999998093E+01 0.  1.
       -5    1    3    3    0  502  0.10067822649E+04  0.22038983639E+03  0.13433993060E+04  0.16931999274E+04  0.46999998093E+01 0. -1.
</event>
<event>
 5   0  0.6261598E-07  0.1862957E+04  0.7818609E-02  0.8673518E-01
        1   -1    0    0  501    0  0.00000000000E+00  0.00000000000E+00  0.88007966989E+03  0.88007966990E+03  0.50400001928E-02 0. -1.
       -1   -1    0    0    0  501  0.00000000000E+00  0.00000000000E+00 -0.98587901105E+03  0.98587901106E+03  0.50400001928E-02 0.  1.
    10030    2    1    2    0    0  0.00000000000E+00  0.00000000000E+00 -0.10579934116E+03  0.18659586810E+04  0.18629568697E+04 0.  0.
        1    1    3    3  502    0 -0.35850355979E+03 -0.10786227186E+03 -0.90720601657E+03  0.98141827403E+03  0.50400001928E-02 0.  1.
       -1    1    3    3    0  502  0.35850355979E+03  0.10786227186E+03  0.80140667541E+03  0.88454040693E+03  0.50400001928E-02 0. -1.
</event>
<event>
 5   0  0.1151180E-06  0.3645417E+04  0.7818609E-02  0.8080167E-01
        2   -1    0    0  501    0  0.00000000000E+00  0.00000000000E+00  0.18631457537E+04  0.18631457537E+04  0.25500000920E-02 0. -1.
       -2   -1    0    0    0  501  0.00000000000E+00  0.00000000000E+00 -0.17831489726E+04  0.17831489726E+04  0.25500000920E-02 0.  1.
    10030    2    1    2    0    0  0.00000000000E+00  0.00000000000E+00  0.79996781063E+02  0.36462947264E+04  0.36454170881E+04 0.  0.
        5    1    3    3  502    0 -0.12443586534E+04 -0.13066945739E+04  0.29767481103E+03  0.18288005771E+04  0.46999998093E+01 0.  1.
       -5    1    3    3    0  502  0.12443586534E+04  0.13066945739E+04 -0.21767802996E+03  0.18174941492E+04  0.46999998093E+01 0. -1.
</event>
<event>
 5   0  0.1184684E-06  0.3564035E+04  0.7818609E-02  0.8098780E-01
        2   -1    0    0  501    0  0.00000000000E+00  0.00000000000E+00  0.20737109565E+04  0.20737109565E+04  0.25500000920E-02 0. -1.
       -2   -1    0    0    0  501  0.00000000000E+00  0.00000000000E+00 -0.15313548068E+04  0.15313548068E+04  0.25500000920E-02 0.  1.
    10030    2    1    2    0    0  0.00000000000E+00  0.00000000000E+00  0.54235614978E+03  0.36050657633E+04  0.35640354887E+04 0.  0.
        4    1    3    3  502    0 -0.11069330304E+04 -0.43140843221E+03 -0.10723340560E+04  0.16004111689E+04  0.12699999809E+01 0.  1.
       -4    1    3    3    0  502  0.11069330304E+04  0.43140843221E+03  0.16146902057E+04  0.20046545943E+04  0.12699999809E+01 0. -1.
</event>
<event>
 5   0  0.5875011E-07  0.3733867E+04  0.7818609E-02  0.8060498E-01
       -1   -1    0    0    0  501  0.00000000000E+00  0.00000000000E+00  0.11155873046E+04  0.11155873046E+04  0.50400001928E-02 0.  1.
        1   -1    0    0  501    0  0.00000000000E+00  0.00000000000E+00 -0.31243108110E+04  0.31243108110E+04  0.50400001928E-02 0. -1.
    10030    2    1    2    0    0  0.00000000000E+00  0.00000000000E+00 -0.20087235064E+04  0.42398981156E+04  0.37338674194E+04 0.  0.
        2    1    3    3  502    0 -0.23895464149E+03  0.18047182053E+04 -0.14743843684E+04  0.23426302284E+04  0.25500000920E-02 0.  1.
       -2    1    3    3    0  502  0.23895464149E+03 -0.18047182053E+04 -0.53433913800E+03  0.18972678872E+04  0.25500000920E-02 0. -1.
</event>
<event>
 5   0  0.1184684E-06  0.3740465E+04  0.7818609E-02  0.8059053E-01
       -2   -1    0    0    0  501  0.00000000000E+00  0.00000000000E+00  0.29465860991E+04  0.29465860991E+04  0.25500000920E-02 0. -1.
        2   -1    0    0  501    0  0.00000000000E+00  0.00000000000E+00 -0.11870586130E+04  0.11870586130E+04  0.25500000920E-02 0.  1.
    10030    2    1    2    0    0  0.00000000000E+00  0.00000000000E+00  0.17595274860E+04  0.41336447121E+04  0.37404654298E+04 0.  0.
        4    1    3    3  502    0 -0.11524825373E+04 -0.11302106662E+04 -0.16407383267E+03  0.16225023834E+04  0.12699999809E+01 0.  1.
       -4    1    3    3    0  502  0.11524825373E+04  0.11302106662E+04  0.19236013187E+04  0.25111423287E+04  0.12699999809E+01 0. -1.
</event>
<event>
 5   0  0.7929071E-07  0.2129985E+04  0.7818609E-02  0.8548148E-01
       -1   -1    0    0    0  501  0.00000000000E+00  0.00000000000E+00  0.94577001374E+03  0.94577001375E+03  0.50400001928E-02 0.  1.
        1   -1    0    0  501    0  0.00000000000E+00  0.00000000000E+00 -0.11992443155E+04  0.11992443155E+04  0.50400001928E-02 0. -1.
    10030    2    1    2    0    0  0.00000000000E+00  0.00000000000E+00 -0.25347430178E+03  0.21450143293E+04  0.21299852702E+04 0.  0.
        5    1    3    3  502    0 -0.19587042663E+03  0.22771434642E+02 -0.11806891393E+04  0.11970516680E+04  0.46999998093E+01 0. -1.
       -5    1    3    3    0  502  0.19587042663E+03 -0.22771434642E+02  0.92721483751E+03  0.94796266127E+03  0.46999998093E+01 0.  1.
</event>
<event>
 5   0  0.1680194E-06  0.4020524E+04  0.7818609E-02  0.8000419E-01
       -2   -1    0    0    0  501  0.00000000000E+00  0.00000000000E+00  0.17994509807E+04  0.17994509807E+04  0.25500000920E-02 0. -1.
        2   -1    0    0  501    0  0.00000000000E+00  0.00000000000E+00 -0.22457701985E+04  0.22457701985E+04  0.25500000920E-02 0.  1.
    10030    2    1    2    0    0  0.00000000000E+00  0.00000000000E+00 -0.44631921775E+03  0.40452211792E+04  0.40205240385E+04 0.  0.
        2    1    3    3  502    0  0.12469063326E+04 -0.11555732932E+04 -0.13026098287E+04  0.21417089915E+04  0.25500000920E-02 0.  1.
       -2    1    3    3    0  502 -0.12469063326E+04  0.11555732932E+04  0.85629061097E+03  0.19035121877E+04  0.25500000920E-02 0. -1.
</event>
<event>
 5   0  0.5875011E-07  0.3690269E+04  0.7818609E-02  0.8070122E-01
        1   -1    0    0  501    0  0.00000000000E+00  0.00000000000E+00  0.13779442501E+04  0.13779442501E+04  0.50400001928E-02 0. -1.
       -1   -1    0    0    0  501  0.00000000000E+00  0.00000000000E+00 -0.24707251452E+04  0.24707251452E+04  0.50400001928E-02 0.  1.
    10030    2    1    2    0    0  0.00000000000E+00  0.00000000000E+00 -0.10927808951E+04  0.38486693953E+04  0.36902690999E+04 0.  0.
        2    1    3    3  502    0  0.13444283743E+04 -0.69911770973E+03 -0.16443213822E+04  0.22360782709E+04  0.25500000920E-02 0.  1.
       -2    1    3    3    0  502 -0.13444283743E+04  0.69911770973E+03  0.55154048710E+03  0.16125911244E+04  0.25500000920E-02 0. -1.
</event>
<event>
 5   0  0.1184684E-06  0.3592246E+04  0.7818609E-02  0.8092270E-01
        2   -1    0    0  501    0  0.00000000000E+00  0.00000000000E+00  0.16113342732E+04  0.16113342732E+04  0.25500000920E-02 0. -1.
       -2   -1    0    0    0  501  0.00000000000E+00  0.00000000000E+00 -0.20021032414E+04  0.20021032414E+04  0.25500000920E-02 0.  1.
    10030    2    1    2    0    0  0.00000000000E+00  0.00000000000E+00 -0.39076896816E+03  0.36134375146E+04  0.35922458554E+04 0.  0.
        4    1    3    3  502    0 -0.71110351117E+03  0.62514997207E+03 -0.17306831414E+04  0.19727509828E+04  0.12699999809E+01 0.  1.
       -4    1    3    3    0  502  0.71110351117E+03 -0.62514997207E+03  0.13399141733E+04  0.16406865318E+04  0.12699999809E+01 0. -1.
</event>
<event>
 5   0  0.6261598E-07  0.2015356E+04  0.7818609E-02  0.8599474E-01
        1   -1    0    0  501    0  0.00000000000E+00  0.00000000000E+00  0.69582763770E+03  0.69582763772E+03  0.50400001928E-02 0. -1.
       -1   -1    0    0    0  501  0.00000000000E+00  0.00000000000E+00 -0.14592916338E+04  0.14592916338E+04  0.50400001928E-02 0.  1.
    10030    2    1    2    0    0  0.00000000000E+00  0.00000000000E+00 -0.76346399608E+03  0.21551192715E+04  0.20153564948E+04 0.  0.
        1    1    3    3  502    0 -0.21144491002E+02 -0.49104788556E+02  0.69430991680E+03  0.69636529950E+03  0.50400001928E-02 0. -1.
       -1    1    3    3    0  502  0.21144491002E+02  0.49104788556E+02 -0.14577739129E+04  0.14587539720E+04  0.50400001928E-02 0.  1.
</event>
<event>
 5   0  0.1685793E-06  0.3618148E+04  0.7818609E-02  0.8086347E-01
       -2   -1    0    0    0  501  0.00000000000E+00  0.00000000000E+00  0.21907025264E+04  0.21907025264E+04  0.25500000920E-02 0.  1.
        2   -1    0    0  501    0  0.00000000000E+00  0.00000000000E+00 -0.14939269807E+04  0.14939269807E+04  0.25500000920E-02 0. -1.
    10030    2    1    2    0    0  0.00000000000E+00  0.00000000000E+00  0.69677554568E+03  0.36846295071E+04  0.36181484828E+04 0.  0.
        3    1    3    3  502    0 -0.12385214210E+04  0.13184477822E+04  0.32539559644E+03  0.18379668575E+04  0.10100000352E+00 0.  1.
       -3    1    3    3    0  502  0.12385214210E+04 -0.13184477822E+04  0.37137994925E+03  0.18466626497E+04  0.10100000352E+00 0. -1.
</event>
<event>
 5   0  0.1151180E-06  0.3791818E+04  0.7818609E-02  0.8047913E-01
        2   -1    0    0  501    0  0.00000000000E+00  0.00000000000E+00  0.18999360292E+04  0.18999360292E+04  0.25500000920E-02 0. -1.
       -2   -1    0    0    0  501  0.00000000000E+00  0.00000000000E+00 -0.18918909706E+04  0.18918909706E+04  0.25500000920E-02 0.  1.
    10030    2    1    2    0    0  0.00000000000E+00  0.00000000000E+00  0.80450585717E+01  0.37918269999E+04  0.37918184653E+04 0.  0.
        5    1    3    3  502    0 -0.25803358352E+03  0.17287208333E+04 -0.73041270069E+03  0.18943552605E+04  0.46999998093E+01 0.  1.
       -5    1    3    3    0  502  0.25803358352E+03 -0.17287208333E+04  0.73845775926E+03  0.18974717394E+04  0.46999998093E+01 0. -1.
</event>
<event>
 5   0  0.1724503E-06  0.3031039E+04  0.7818609E-02  0.8234923E-01
        2   -1    0    0  501    0  0.00000000000E+00  0.00000000000E+00  0.22382834561E+04  0.22382834561E+04  0.25500000920E-02 0.  1.
       -2   -1    0    0    0  501  0.00000000000E+00  0.00000000000E+00 -0.10261434704E+04  0.10261434704E+04  0.25500000920E-02 0. -1.
    10030    2    1    2    0    0  0.00000000000E+00  0.00000000000E+00  0.12121399858E+04  0.32644269265E+04  0.30310393949E+04 0.  0.
        1    1    3    3  502    0  0.12487880728E+04  0.35226350162E+03 -0.23732332841E+03  0.13190464690E+04  0.50400001928E-02 0. -1.
       -1    1    3    3    0  502 -0.12487880728E+04 -0.35226350162E+03  0.14494633142E+04  0.19453804575E+04  0.50400001928E-02 0.  1.
</event>
<event>
 5   0  0.5679750E-07  0.2648315E+04  0.7818609E-02  0.8351973E-01
        4   -1    0    0  501    0  0.00000000000E+00  0.00000000000E+00  0.11160056440E+04  0.11160063667E+04  0.12699999809E+01 0. -1.
       -4   -1    0    0    0  501  0.00000000000E+00  0.00000000000E+00 -0.15711307873E+04  0.15711313006E+04  0.12699999809E+01 0.  1.
    10030    2    1    2    0    0  0.00000000000E+00  0.00000000000E+00 -0.45512514324E+03  0.26871376673E+04  0.26483145483E+04 0.  0.
        5    1    3    3  502    0  0.74442171820E+03 -0.55478515599E+03 -0.11855538818E+04  0.15058254748E+04  0.46999998093E+01 0.  1.
       -5    1    3    3    0  502 -0.74442171820E+03  0.55478515599E+03  0.73042873861E+03  0.11813121924E+04  0.46999998093E+01 0. -1.
</event>
<event>
 5   0  0.6261598E-07  0.3735620E+04  0.7818609E-02  0.8060114E-01
       -1   -1    0    0    0  501  0.00000000000E+00  0.00000000000E+00  0.25230644135E+04  0.25230644136E+04  0.50400001928E-02 0.  1.
        1   -1    0    0  501    0  0.00000000000E+00  0.00000000000E+00 -0.13827288543E+04  0.13827288544E+04  0.50400001928E-02 0. -1.
    10030    2    1    2    0    0  0.00000000000E+00  0.00000000000E+00  0.11403355592E+04  0.39057932679E+04  0.37356198768E+04 0.  0.
        1    1    3    3  502    0  0.97555035483E+03  0.95673686984E+03 -0.76129129105E+03  0.15641637903E+04  0.50400001928E-02 0. -1.
       -1    1    3    3    0  502 -0.97555035483E+03 -0.95673686984E+03  0.19016268503E+04  0.23416294776E+04  0.50400001928E-02 0.  1.
</event>
<event>
 5   0  0.5679750E-07  0.3664002E+04  0.7818609E-02  0.8075987E-01
        1   -1    0    0  501    0  0.00000000000E+00  0.00000000000E+00  0.16309448699E+04  0.16309448699E+04  0.50400001928E-02 0. -1.
       -1   -1    0    0    0  501  0.00000000000E+00  0.00000000000E+00 -0.20578425947E+04  0.20578425947E+04  0.50400001928E-02 0.  1.
    10030    2    1    2    0    0  0.00000000000E+00  0.00000000000E+00 -0.42689772483E+03  0.36887874646E+04  0.36640020867E+04 0.  0.
        4    1    3    3  502    0 -0.12553366138E+04  0.13137708602E+04 -0.44818336184E+03  0.18715591965E+04  0.12699999809E+01 0. -1.
       -4    1    3    3    0  502  0.12553366138E+04 -0.13137708602E+04  0.21285637010E+02  0.18172282681E+04  0.12699999809E+01 0.  1.
</event>
<event>
 5   0  0.1184684E-06  0.3313044E+04  0.7818609E-02  0.8159584E-01
       -2   -1    0    0    0  501  0.00000000000E+00  0.00000000000E+00  0.99978420724E+03  0.99978420724E+03  0.25500000920E-02 0.  1.
        2   -1    0    0  501    0  0.00000000000E+00  0.00000000000E+00 -0.27446572206E+04  0.27446572206E+04  0.25500000920E-02 0. -1.
    10030    2    1    2    0    0  0.00000000000E+00  0.00000000000E+00 -0.17448730133E+04  0.37444414278E+04  0.33130438835E+04 0.  0.
        4    1    3    3  502    0  0.51619450659E+03 -0.88592959922E+03  0.59802743570E+03  0.11869989259E+04  0.12699999809E+01 0.  1.
       -4    1    3    3    0  502 -0.51619450659E+03  0.88592959922E+03 -0.23429004490E+04  0.25574425019E+04  0.12699999809E+01 0. -1.
</event>
<event>
 5   0  0.6186440E-07  0.3766293E+04  0.7818609E-02  0.8053427E-01
       -1   -1    0    0    0  501  0.00000000000E+00  0.00000000000E+00  0.21589336399E+04  0.21589336399E+04  0.50400001928E-02 0.  1.
        1   -1    0    0  501    0  0.00000000000E+00  0.00000000000E+00 -0.16425887877E+04  0.16425887877E+04  0.50400001928E-02 0. -1.
    10030    2    1    2    0    0  0.00000000000E+00  0.00000000000E+00  0.51634485226E+03  0.38015224276E+04  0.37662927078E+04 0.  0.
        3    1    3    3  502    0  0.13056454066E+02  0.17423050279E+04 -0.46296339817E+03  0.18028123584E+04  0.10100000352E+00 0. -1.
       -3    1    3    3    0  502 -0.13056454066E+02 -0.17423050279E+04  0.97930825043E+03  0.19987100692E+04  0.10100000352E+00 0.  1.
</event>
<event>
 5   0  0.5875011E-07  0.3754273E+04  0.7818609E-02  0.8056039E-01
       -1   -1    0    0    0  501  0.00000000000E+00  0.00000000000E+00  0.33335911340E+04  0.33335911340E+04  0.50400001928E-02 0. -1.
        1   -1    0    0  501    0  0.00000000000E+00  0.00000000000E+00 -0.10570109051E+04  0.10570109051E+04  0.50400001928E-02 0.  1.
    10030    2    1    2    0    0  0.00000000000E+00  0.00000000000E+00  0.22765802288E+04  0.43906020391E+04  0.37542733954E+04 0.  0.
        2    1    3    3  502    0  0.11989229735E+04 -0.14442186231E+04  0.11132494310E+04  0.21823171225E+04  0.25500000920E-02 0. -1.
       -2    1    3    3    0  502 -0.11989229735E+04  0.14442186231E+04  0.11633307979E+04  0.22082849166E+04  0.25500000920E-02 0.  1.
</event>
<event>
 5   0  0.1151180E-06  0.3669536E+04  0.7818609E-02  0.8074747E-01
        2   -1    0    0  501    0  0.00000000000E+00  0.00000000000E+00  0.23633633424E+04  0.23633633424E+04  0.25500000920E-02 0.  1.
       -2   -1    0    0    0  501  0.00000000000E+00  0.00000000000E+00 -0.14243994820E+04  0.14243994820E+04  0.25500000920E-02 0. -1.
    10030    2    1    2    0    0  0.00000000000E+00  0.00000000000E+00  0.93896386044E+03  0.37877628244E+04  0.36695359492E+04 0.  0.
        5    1    3    3  502    0 -0.91624782425E+03 -0.10520905710E+04 -0.76052530208E+03  0.15889699400E+04  0.46999998093E+01 0. -1.
       -5    1    3    3    0  502  0.91624782425E+03  0.10520905710E+04  0.16994891625E+04  0.21987928844E+04  0.46999998093E+01 0.  1.
</event>
<event>
 5   0  0.1724503E-06  0.3600036E+04  0.7818609E-02  0.8090483E-01
       -2   -1    0    0    0  501  0.00000000000E+00  0.00000000000E+00  0.13125790097E+04  0.13125790097E+04  0.25500000920E-02 0.  1.
        2   -1    0    0  501    0  0.00000000000E+00  0.00000000000E+00 -0.24684725346E+04  0.24684725346E+04  0.25500000920E-02 0. -1.
    10030    2    1    2    0    0  0.00000000000E+00  0.00000000000E+00 -0.11558935249E+04  0.37810515443E+04  0.36000362414E+04 0.  0.
        1    1    3    3  502    0 -0.25897885459E+03 -0.14136774517E+04  0.56029447473E+03  0.15425575785E+04  0.50400001928E-02 0.  1.
       -1    1    3    3    0  502  0.25897885459E+03  0.14136774517E+04 -0.17161879996E+04  0.22384939658E+04  0.50400001928E-02 0. -1.
</event>
<event>
 5   0  0.1184684E-06  0.3699221E+04  0.7818609E-02  0.8068135E-01
        2   -1    0    0  501    0  0.00000000000E+00  0.00000000000E+00  0.26224767569E+04  0.26224767569E+04  0.25500000920E-02 0. -1.
       -2   -1    0    0    0  501  0.00000000000E+00  0.00000000000E+00 -0.13045144020E+04  0.13045144020E+04  0.25500000920E-02 0.  1.
    10030    2    1    2    0    0  0.00000000000E+00  0.00000000000E+00  0.13179623548E+04  0.39269911589E+04  0.36992208359E+04 0.  0.
        4    1    3    3  502    0 -0.74983808348E+03  0.13340731635E+04 -0.44375137122E+03  0.15934005301E+04  0.12699999809E+01 0.  1.
       -4    1    3    3    0  502  0.74983808348E+03 -0.13340731635E+04  0.17617137261E+04  0.23335906287E+04  0.12699999809E+01 0. -1.
</event>
<event>
 5   0  0.1724503E-06  0.3616027E+04  0.7818609E-02  0.8086830E-01
        2   -1    0    0  501    0  0.00000000000E+00  0.00000000000E+00  0.27093493806E+04  0.27093493806E+04  0.25500000920E-02 0. -1.
       -2   -1    0    0    0  501  0.00000000000E+00  0.00000000000E+00 -0.12065303339E+04  0.12065303339E+04  0.25500000920E-02 0.  1.
    10030    2    1    2    0    0  0.00000000000E+00  0.00000000000E+00  0.15028190467E+04  0.39158797144E+04  0.36160266662E+04 0.  0.
        1    1    3    3  502    0  0.35532804347E+03  0.93980006800E+03 -0.87637594246E+03  0.13332355301E+04  0.50400001928E-02 0.  1.
       -1    1    3    3    0  502 -0.35532804347E+03 -0.93980006800E+03  0.23791949891E+04  0.25826441843E+04  0.50400001928E-02 0. -1.
</event>
<event>
 5   0  0.1724503E-06  0.3702250E+04  0.7818609E-02  0.8067463E-01
       -2   -1    0    0    0  501  0.00000000000E+00  0.00000000000E+00  0.13868788645E+04  0.13868788645E+04  0.25500000920E-02 0.  1.
        2   -1    0    0  501    0  0.00000000000E+00  0.00000000000E+00 -0.24707732384E+04  0.24707732384E+04  0.25500000920E-02 0. -1.
    10030    2    1    2    0    0  0.00000000000E+00  0.00000000000E+00 -0.10838943739E+04  0.38576521030E+04  0.37022496855E+04 0.  0.
        1    1    3    3  502    0 -0.14462461642E+04 -0.60834952667E+02 -0.17442141642E+04  0.22666300778E+04  0.50400001928E-02 0. -1.
       -1    1    3    3    0  502  0.14462461642E+04  0.60834952667E+02  0.66031979035E+03  0.15910220252E+04  0.50400001928E-02 0.  1.
</event>
<event>
 5   0  0.6186440E-07  0.3680525E+04  0.7818609E-02  0.8072291E-01
       -1   -1    0    0    0  501  0.00000000000E+00  0.00000000000E+00  0.17237081769E+04  0.17237081769E+04  0.50400001928E-02 0. -1.
        1   -1    0    0  501    0  0.00000000000E+00  0.00000000000E+00 -0.19646981266E+04  0.19646981266E+04  0.50400001928E-02 0.  1.
    10030    2    1    2    0    0  0.00000000000E+00  0.00000000000E+00 -0.24098994968E+03  0.36884063035E+04  0.36805250854E+04 0.  0.
        3    1    3    3  502    0  0.75563550176E+03  0.13824055542E+04 -0.10736025531E+04  0.19064764830E+04  0.10100000352E+00 0.  1.
       -3    1    3    3    0  502 -0.75563550176E+03 -0.13824055542E+04  0.83261260346E+03  0.17819298206E+04  0.10100000352E+00 0. -1.
</event>
<event>
 5   0  0.5679750E-07  0.2017999E+04  0.7818609E-02  0.8598252E-01
       -3   -1    0    0    0  501  0.00000000000E+00  0.00000000000E+00  0.16370548093E+04  0.16370548125E+04  0.10100000352E+00 0. -1.
        3   -1    0    0  501    0  0.00000000000E+00  0.00000000000E+00 -0.62189725737E+03  0.62189726557E+03  0.10100000352E+00 0.  1.
    10030    2    1    2    0    0  0.00000000000E+00  0.00000000000E+00  0.10151575520E+04  0.22589520780E+04  0.20179989186E+04 0.  0.
        5    1    3    3  502    0 -0.89512166694E+03 -0.37113980784E+03  0.82234830272E+03  0.12709313029E+04  0.46999998093E+01 0. -1.
       -5    1    3    3    0  502  0.89512166694E+03  0.37113980784E+03  0.19280924924E+03  0.98802077517E+03  0.46999998093E+01 0.  1.
</event>
<event>
 5   0  0.5875011E-07  0.3652683E+04  0.7818609E-02  0.8078529E-01
       -1   -1    0    0    0  501  0.00000000000E+00  0.00000000000E+00  0.15003191857E+04  0.15003191857E+04  0.50400001928E-02 0.  1.
        1   -1    0    0  501    0  0.00000000000E+00  0.00000000000E+00 -0.22232097093E+04  0.22232097093E+04  0.50400001928E-02 0. -1.
    10030    2    1    2    0    0  0.00000000000E+00  0.00000000000E+00 -0.72289052364E+03  0.37235288950E+04  0.36526834961E+04 0.  0.
        2    1    3    3  502    0 -0.11168174338E+04 -0.92228040744E+03  0.77262556641E+03  0.16415945286E+04  0.25500000920E-02 0.  1.
       -2    1    3    3    0  502  0.11168174338E+04  0.92228040744E+03 -0.14955160900E+04  0.20819343664E+04  0.25500000920E-02 0. -1.
</event>
<event>
 5   0  0.6287345E-07  0.2454320E+04  0.7818609E-02  0.8419442E-01
       -1   -1    0    0    0  501  0.00000000000E+00  0.00000000000E+00  0.57468828337E+03  0.57468828339E+03  0.50400001928E-02 0. -1.
        1   -1    0    0  501    0  0.00000000000E+00  0.00000000000E+00 -0.26204148115E+04  0.26204148115E+04  0.50400001928E-02 0.  1.
    10030    2    1    2    0    0  0.00000000000E+00  0.00000000000E+00 -0.20457265281E+04  0.31951030949E+04  0.24543200197E+04 0.  0.
        5    1    3    3  502    0  0.47249116529E+03 -0.83466752798E+02  0.44750259598E+03  0.65612137864E+03  0.46999998093E+01 0. -1.
       -5    1    3    3    0  502 -0.47249116529E+03  0.83466752798E+02 -0.24932291241E+04  0.25389817162E+04  0.46999998093E+01 0.  1.
</event>
<event>
 5   0  0.6186440E-07  0.2486391E+04  0.7818609E-02  0.8407850E-01
        1   -1    0    0  501    0  0.00000000000E+00  0.00000000000E+00  0.12219585812E+04  0.12219585813E+04  0.50400001928E-02 0.  1.
       -1   -1    0    0    0  501  0.00000000000E+00  0.00000000000E+00 -0.12648019075E+04  0.12648019075E+04  0.50400001928E-02 0. -1.
    10030    2    1    2    0    0  0.00000000000E+00  0.00000000000E+00 -0.42843326276E+02  0.24867604888E+04  0.24863913968E+04 0.  0.
        3    1    3    3  502    0 -0.10716487508E+03 -0.39435111651E+03 -0.11957077122E+04  0.12636115134E+04  0.10100000352E+00 0. -1.
       -3    1    3    3    0  502  0.10716487508E+03  0.39435111651E+03  0.11528643859E+04  0.12231489754E+04  0.10100000352E+00 0.  1.
</event>
<event>
 5   0  0.5679750E-07  0.2309498E+04  0.7818609E-02  0.8474186E-01
        1   -1    0    0  501    0  0.00000000000E+00  0.00000000000E+00  0.16472704042E+04  0.16472704042E+04  0.50400001928E-02 0.  1.
       -1   -1    0    0    0  501  0.00000000000E+00  0.00000000000E+00 -0.80948782664E+03  0.80948782666E+03  0.50400001928E-02 0. -1.
    10030    2    1    2    0    0  0.00000000000E+00  0.00000000000E+00  0.83778257755E+03  0.24567582309E+04  0.23094980748E+04 0.  0.
        4    1    3    3  502    0 -0.64438468435E+03 -0.30159449429E+03 -0.54863763173E+03  0.89844071828E+03  0.12699999809E+01 0. -1.
       -4    1    3    3    0  502  0.64438468435E+03  0.30159449429E+03  0.13864202093E+04  0.15583175126E+04  0.12699999809E+01 0.  1.
</event>
<event>
 5   0  0.1184684E-06  0.3950554E+04  0.7818609E-02  0.8014596E-01
       -2   -1    0    0    0  501  0.00000000000E+00  0.00000000000E+00  0.25916411226E+04  0.25916411226E+04  0.25500000920E-02 0.  1.
        2   -1    0    0  501    0  0.00000000000E+00  0.00000000000E+00 -0.15055009894E+04  0.15055009894E+04  0.25500000920E-02 0. -1.
    10030    2    1    2    0    0  0.00000000000E+00  0.00000000000E+00  0.10861401332E+04  0.40971421120E+04  0.39505535178E+04 0.  0.
        4    1    3    3  502    0  0.35226689209E+03 -0.17582869361E+04  0.14020865872E+04  0.22762937692E+04  0.12699999809E+01 0.  1.
       -4    1    3    3    0  502 -0.35226689209E+03  0.17582869361E+04 -0.31594645394E+03  0.18208483428E+04  0.12699999809E+01 0. -1.
</event>
<event>
 5   0  0.1184684E-06  0.2045877E+04  0.7818609E-02  0.8585467E-01
       -2   -1    0    0    0  501  0.00000000000E+00  0.00000000000E+00  0.47562262660E+03  0.47562262660E+03  0.25500000920E-02 0. -1.
        2   -1    0    0  501    0  0.00000000000E+00  0.00000000000E+00 -0.22000710265E+04  0.22000710265E+04  0.25500000920E-02 0.  1.
    10030    2    1    2    0    0  0.00000000000E+00  0.00000000000E+00 -0.17244483999E+04  0.26756936531E+04  0.20458773769E+04 0.  0.
        4    1    3    3  502    0  0.59697857232E+03 -0.67232348917E+03 -0.22418853657E+03  0.92664146396E+03  0.12699999809E+01 0. -1.
       -4    1    3    3    0  502 -0.59697857232E+03  0.67232348917E+03 -0.15002598633E+04  0.17490521891E+04  0.12699999809E+01 0.  1.
</event>
<event>
 5   0  0.1680194E-06  0.3740124E+04  0.7818609E-02  0.8059128E-01
        2   -1    0    0  501    0  0.00000000000E+00  0.00000000000E+00  0.12280965893E+04  0.12280965893E+04  0.25500000920E-02 0. -1.
       -2   -1    0    0    0  501  0.00000000000E+00  0.00000000000E+00 -0.28476032372E+04  0.28476032372E+04  0.25500000920E-02 0.  1.
    10030    2    1    2    0    0  0.00000000000E+00  0.00000000000E+00 -0.16195066478E+04  0.40756998265E+04  0.37401239676E+04 0.  0.
        2    1    3    3  502    0 -0.96522439796E+03  0.12027466360E+04  0.34292154938E+03  0.15798268253E+04  0.25500000920E-02 0.  1.
       -2    1    3    3    0  502  0.96522439796E+03 -0.12027466360E+04 -0.19624281972E+04  0.24958730012E+04  0.25500000920E-02 0. -1.
</event>
<event>
 5   0  0.6261598E-07  0.3256365E+04  0.7818609E-02  0.8174088E-01
       -1   -1    0    0    0  501  0.00000000000E+00  0.00000000000E+00  0.13011005092E+04  0.13011005093E+04  0.50400001928E-02 0.  1.
        1   -1    0    0  501    0  0.00000000000E+00  0.00000000000E+00 -0.20374890902E+04  0.20374890902E+04  0.50400001928E-02 0. -1.
    10030    2    1    2    0    0  0.00000000000E+00  0.00000000000E+00 -0.73638858099E+03  0.33385895995E+04  0.32563649015E+04 0.  0.
        1    1    3    3  502    0  0.87913879047E+03 -0.95581036203E+03 -0.13750923569E+04  0.18913850616E+04  0.50400001928E-02 0. -1.
       -1    1    3    3    0  502 -0.87913879047E+03  0.95581036203E+03  0.63870377595E+03  0.14472045379E+04  0.50400001928E-02 0.  1.
</event>
<event>
 5   0  0.1724503E-06  0.2255504E+04  0.7818609E-02  0.8495675E-01
        2   -1    0    0  501    0  0.00000000000E+00  0.00000000000E+00  0.16103969942E+04  0.16103969942E+04  0.25500000920E-02 0. -1.
       -2   -1    0    0    0  501  0.00000000000E+00  0.00000000000E+00 -0.78975826426E+03  0.78975826426E+03  0.25500000920E-02 0.  1.
    10030    2    1    2    0    0  0.00000000000E+00  0.00000000000E+00  0.82063872994E+03  0.24001552585E+04  0.22555037884E+04 0.  0.
        1    1    3    3  502    0  0.69309827454E+03  0.85348925685E+03  0.67740437990E+03  0.12913968498E+04  0.50400001928E-02 0.  1.
       -1    1    3    3    0  502 -0.69309827454E+03 -0.85348925685E+03  0.14323435004E+03  0.11087584087E+04  0.50400001928E-02 0. -1.
</event>
<event>
 5   0  0.1151180E-06  0.3648676E+04  0.7818609E-02  0.8079432E-01
        2   -1    0    0  501    0  0.00000000000E+00  0.00000000000E+00  0.25649348723E+04  0.25649348723E+04  0.25500000920E-02 0.  1.
       -2   -1    0    0    0  501  0.00000000000E+00  0.00000000000E+00 -0.12975801575E+04  0.12975801575E+04  0.25500000920E-02 0. -1.
    10030    2    1    2    0    0  0.00000000000E+00  0.00000000000E+00  0.12673547148E+04  0.38625150299E+04  0.36486757026E+04 0.  0.
        5    1    3    3  502    0 -0.34522835205E+03  0.15693043755E+04  0.15481864972E+04  0.22313230062E+04  0.46999998093E+01 0. -1.
       -5    1    3    3    0  502  0.34522835205E+03 -0.15693043755E+04 -0.28083178241E+03  0.16311920236E+04  0.46999998093E+01 0.  1.
</event>
<event>
 5   0  0.1184684E-06  0.3918320E+04  0.7818609E-02  0.8021230E-01
        2   -1    0    0  501    0  0.00000000000E+00  0.00000000000E+00  0.12861051880E+04  0.12861051880E+04  0.25500000920E-02 0. -1.
       -2   -1    0    0    0  501  0.00000000000E+00  0.00000000000E+00 -0.29844429890E+04  0.29844429890E+04  0.25500000920E-02 0.  1.
    10030    2    1    2    0    0  0.00000000000E+00  0.00000000000E+00 -0.16983378010E+04  0.42705481769E+04  0.39183198498E+04 0.  0.
        4    1    3    3  502    0 -0.14753613238E+04 -0.74154033845E+03  0.30000027501E+03  0.16782654400E+04  0.12699999809E+01 0. -1.
       -4    1    3    3    0  502  0.14753613238E+04  0.74154033845E+03 -0.19983380760E+04  0.25922827369E+04  0.12699999809E+01 0.  1.
</event>
<event>
 5   0  0.6261598E-07  0.3600342E+04  0.7818609E-02  0.8090413E-01
        1   -1    0    0  501    0  0.00000000000E+00  0.00000000000E+00  0.14454298488E+04  0.14454298488E+04  0.50400001928E-02 0. -1.
       -1   -1    0    0    0  501  0.00000000000E+00  0.00000000000E+00 -0.22419737456E+04  0.22419737456E+04  0.50400001928E-02 0.  1.
    10030    2    1    2    0    0  0.00000000000E+00  0.00000000000E+00 -0.79654389687E+03  0.36874035944E+04  0.36003420794E+04 0.  0.
        1    1    3    3  502    0 -0.28352071068E+03  0.18521092264E+03 -0.22090550868E+04  0.22348627376E+04  0.50400001928E-02 0.  1.
       -1    1    3    3    0  502  0.28352071068E+03 -0.18521092264E+03  0.14125111899E+04  0.14525408569E+04  0.50400001928E-02 0. -1.
</event>
<event>
 5   0  0.5875011E-07  0.3455296E+04  0.7818609E-02  0.8124467E-01
       -1   -1    0    0    0  501  0.00000000000E+00  0.00000000000E+00  0.15263254137E+04  0.15263254137E+04  0.50400001928E-02 0. -1.
        1   -1    0    0  501    0  0.00000000000E+00  0.00000000000E+00 -0.19555255945E+04  0.19555255945E+04  0.50400001928E-02 0.  1.
    10030    2    1    2    0    0  0.00000000000E+00  0.00000000000E+00 -0.42920018078E+03  0.34818510082E+04  0.34552964631E+04 0.  0.
        2    1    3    3  502    0 -0.10842468249E+04 -0.12551324892E+04 -0.70186528262E+03  0.18009896217E+04  0.25500000920E-02 0. -1.
       -2    1    3    3    0  502  0.10842468249E+04  0.12551324892E+04  0.27266510184E+03  0.16808613865E+04  0.25500000920E-02 0.  1.
</event>
<event>
 5   0  0.6287345E-07  0.2770578E+04  0.7818609E-02  0.8312461E-01
       -1   -1    0    0    0  501  0.00000000000E+00  0.00000000000E+00  0.12820662227E+04  0.12820662228E+04  0.50400001928E-02 0.  1.
        1   -1    0    0  501    0  0.00000000000E+00  0.00000000000E+00 -0.14968220959E+04  0.14968220960E+04  0.50400001928E-02 0. -1.
    10030    2    1    2    0    0  0.00000000000E+00  0.00000000000E+00 -0.21475587320E+03  0.27788883187E+04  0.27705775937E+04 0.  0.
        5    1    3    3  502    0 -0.97231983636E+03  0.65086033444E+03 -0.85120744503E+03  0.14469282095E+04  0.46999998093E+01 0. -1.
       -5    1    3    3    0  502  0.97231983636E+03 -0.65086033444E+03  0.63645157183E+03  0.13319601092E+04  0.46999998093E+01 0.  1.
</event>
<event>
 5   0  0.6261598E-07  0.3668288E+04  0.7818609E-02  0.8075026E-01
       -1   -1    0    0    0  501  0.00000000000E+00  0.00000000000E+00  0.13046549924E+04  0.13046549924E+04  0.50400001928E-02 0. -1.
        1   -1    0    0  501    0  0.00000000000E+00  0.00000000000E+00 -0.25785239063E+04  0.25785239063E+04  0.50400001928E-02 0.  1.
    10030    2    1    2    0    0  0.00000000000E+00  0.00000000000E+00 -0.12738689138E+04  0.38831788987E+04  0.36682879317E+04 0.  0.
        1    1    3    3  502    0 -0.23578521090E+03  0.63388053315E+03 -0.24417090088E+04  0.25336420583E+04  0.50400001928E-02 0.  1.
       -1    1    3    3    0  502  0.23578521090E+03 -0.63388053315E+03  0.11678400950E+04  0.13495368404E+04  0.50400001928E-02 0. -1.
</event>
<event>
 5   0  0.1184684E-06  0.3573991E+04  0.7818609E-02  0.8096475E-01
        2   -1    0    0  501    0  0.00000000000E+00  0.00000000000E+00  0.12244648062E+04  0.12244648062E+04  0.25500000920E-02 0.  1.
       -2   -1    0    0    0  501  0.00000000000E+00  0.00000000000E+00 -0.26079583901E+04  0.26079583901E+04  0.25500000920E-02 0. -1.
    10030    2    1    2    0    0  0.00000000000E+00  0.00000000000E+00 -0.13834935839E+04  0.38324231963E+04  0.35739911945E+04 0.  0.
        4    1    3    3  502    0 -0.75203753243E+03  0.14318685750E+04 -0.15066618904E+04  0.22103935693E+04  0.12699999809E+01 0. -1.
       -4    1    3    3    0  502  0.75203753243E+03 -0.14318685750E+04  0.12316830643E+03  0.16220296270E+04  0.12699999809E+01 0.  1.
</event>
<event>
 5   0  0.1151180E-06  0.3748721E+04  0.7818609E-02  0.8057250E-01
       -2   -1    0    0    0  501  0.00000000000E+00  0.00000000000E+00  0.15416467384E+04  0.15416467384E+04  0.25500000920E-02 0. -1.
        2   -1    0    0  501    0  0.00000000000E+00  0.00000000000E+00 -0.22788797380E+04  0.22788797380E+04  0.25500000920E-02 0.  1.
    10030    2    1    2    0    0  0.00000000000E+00  0.00000000000E+00 -0.73723299967E+03  0.38205264764E+04  0.37487211234E+04 0.  0.
        5    1    3    3  502    0  0.14190322963E+04  0.10838422707E+04 -0.94947983200E+03  0.20223503077E+04  0.46999998093E+01 0.  1.
       -5    1    3    3    0  502 -0.14190322963E+04 -0.10838422707E+04  0.21224683233E+03  0.17981761687E+04  0.46999998093E+01 0. -1.
</event>
<event>
 5   0  0.5679750E-07  0.3652902E+04  0.7818609E-02  0.8078480E-01
       -3   -1    0    0    0  501  0.00000000000E+00  0.00000000000E+00  0.16980021407E+04  0.16980021438E+04  0.10100000352E+00 0.  1.
        3   -1    0    0  501    0  0.00000000000E+00  0.00000000000E+00 -0.19646168189E+04  0.19646168214E+04  0.10100000352E+00 0. -1.
    10030    2    1    2    0    0  0.00000000000E+00  0.00000000000E+00 -0.26661467811E+03  0.36626189652E+04  0.36529021747E+04 0.  0.
        4    1    3    3  502    0 -0.33649075371E+03 -0.13689128309E+04 -0.12977637216E+04  0.19160742825E+04  0.12699999809E+01 0. -1.
       -4    1    3    3    0  502  0.33649075371E+03  0.13689128309E+04  0.10311490435E+04  0.17465446827E+04  0.12699999809E+01 0.  1.
</event>
<event>
 5   0  0.1680194E-06  0.3687755E+04  0.7818609E-02  0.8070681E-01
       -2   -1    0    0    0  501  0.00000000000E+00  0.00000000000E+00  0.20601188486E+04  0.20601188486E+04  0.25500000920E-02 0.  1.
        2   -1    0    0  501    0  0.00000000000E+00  0.00000000000E+00 -0.16503337671E+04  0.16503337671E+04  0.25500000920E-02 0. -1.
    10030    2    1    2    0    0  0.00000000000E+00  0.00000000000E+00  0.40978508149E+03  0.37104526157E+04  0.36877547099E+04 0.  0.
        2    1    3    3  502    0  0.15245432678E+04 -0.83980345549E+03 -0.40744320492E+03  0.17875995034E+04  0.25500000920E-02 0. -1.
       -2    1    3    3    0  502 -0.15245432678E+04  0.83980345549E+03  0.81722828641E+03  0.19228531123E+04  0.25500000920E-02 0.  1.
</event>
<event>
 5   0  0.1724503E-06  0.3572525E+04  0.7818609E-02  0.8096814E-01
       -2   -1    0    0    0  501  0.00000000000E+00  0.00000000000E+00  0.18343469349E+04  0.18343469349E+04  0.25500000920E-02 0.  1.
        2   -1    0    0  501    0  0.00000000000E+00  0.00000000000E+00 -0.17394385414E+04  0.17394385414E+04  0.25500000920E-02 0. -1.
    10030    2    1    2    0    0  0.00000000000E+00  0.00000000000E+00  0.94908393527E+02  0.35737854763E+04  0.35725250212E+04 0.  0.
        1    1    3    3  502    0 -0.11776437059E+04  0.11206757589E+04 -0.69306024763E+03  0.17672270260E+04  0.50400001928E-02 0. -1.
       -1    1    3    3    0  502  0.11776437059E+04 -0.11206757589E+04  0.78796864116E+03  0.18065584502E+04  0.50400001928E-02 0.  1.
</event>
<event>
 5   0  0.1680194E-06  0.3638551E+04  0.7818609E-02  0.8081718E-01
        2   -1    0    0  501    0  0.00000000000E+00  0.00000000000E+00  0.27369196850E+04  0.27369196850E+04  0.25500000920E-02 0. -1.
       -2   -1    0    0    0  501  0.00000000000E+00  0.00000000000E+00 -0.12093020438E+04  0.12093020438E+04  0.25500000920E-02 0.  1.
    10030    2    1    2    0    0  0.00000000000E+00  0.00000000000E+00  0.15276176411E+04  0.39462217288E+04  0.36385505734E+04 0.  0.
        2    1    3    3  502    0 -0.17579552057E+04 -0.46815995499E+03  0.74916446294E+03  0.19674419029E+04  0.25500000920E-02 0. -1.
       -2    1    3    3    0  502  0.17579552057E+04  0.46815995499E+03  0.77845317820E+03  0.19787798259E+04  0.25500000920E-02 0.  1.
</event>
<event>
 5   0  0.1685793E-06  0.3662557E+04  0.7818609E-02  0.8076311E-01
        2   -1    0    0  501    0  0.00000000000E+00  0.00000000000E+00  0.13839671021E+04  0.13839671021E+04  0.25500000920E-02 0. -1.
       -2   -1    0    0    0  501  0.00000000000E+00  0.00000000000E+00 -0.24231658498E+04  0.24231658498E+04  0.25500000920E-02 0.  1.
    10030    2    1    2    0    0  0.00000000000E+00  0.00000000000E+00 -0.10391987476E+04  0.38071329519E+04  0.36625574775E+04 0.  0.
        3    1    3    3  502    0  0.12154428760E+04 -0.61817150041E+02 -0.19419928784E+04  0.22918244032E+04  0.10100000352E+00 0.  1.
       -3    1    3    3    0  502 -0.12154428760E+04  0.61817150041E+02  0.90279413079E+03  0.15153085487E+04  0.10100000352E+00 0. -1.
</event>
<event>
 5   0  0.1685793E-06  0.3785873E+04  0.7818609E-02  0.8049193E-01
       -2   -1    0    0    0  501  0.00000000000E+00  0.00000000000E+00  0.20174271572E+04  0.20174271572E+04  0.25500000920E-02 0. -1.
        2   -1    0    0  501    0  0.00000000000E+00  0.00000000000E+00 -0.17761277362E+04  0.17761277362E+04  0.25500000920E-02 0.  1.
    10030    2    1    2    0    0  0.00000000000E+00  0.00000000000E+00  0.24129942103E+03  0.37935548933E+04  0.37858728608E+04 0.  0.
        3    1    3    3  502    0 -0.78626941239E+03  0.96853547372E+03 -0.13059413019E+04  0.18060352286E+04  0.10100000352E+00 0.  1.
       -3    1    3    3    0  502  0.78626941239E+03 -0.96853547372E+03  0.15472407230E+04  0.19875196647E+04  0.10100000352E+00 0. -1.
</event>
<event>
 5   0  0.1680194E-06  0.3590347E+04  0.7818609E-02  0.8092706E-01
       -2   -1    0    0    0  501  0.00000000000E+00  0.00000000000E+00  0.11327708865E+04  0.11327708865E+04  0.25500000920E-02 0.  1.
        2   -1    0    0  501    0  0.00000000000E+00  0.00000000000E+00 -0.28449247113E+04  0.28449247113E+04  0.25500000920E-02 0. -1.
    10030    2    1    2    0    0  0.00000000000E+00  0.00000000000E+00 -0.17121538248E+04  0.39776955978E+04  0.35903469956E+04 0.  0.
        2    1    3    3  502    0 -0.13886430919E+04 -0.11370893479E+04 -0.89672388354E+03  0.20063438253E+04  0.25500000920E-02 0. -1.
       -2    1    3    3    0  502  0.13886430919E+04  0.11370893479E+04 -0.81542994122E+03  0.19713517725E+04  0.25500000920E-02 0.  1.
</event>
<event>
 5   0  0.6261598E-07  0.3070696E+04  0.7818609E-02  0.8223826E-01
        1   -1    0    0  501    0  0.00000000000E+00  0.00000000000E+00  0.22488513085E+04  0.22488513085E+04  0.50400001928E-02 0.  1.
       -1   -1    0    0    0  501  0.00000000000E+00  0.00000000000E+00 -0.10482214803E+04  0.10482214803E+04  0.50400001928E-02 0. -1.
    10030    2    1    2    0    0  0.00000000000E+00  0.00000000000E+00  0.12006298282E+04  0.32970727888E+04  0.30706964992E+04 0.  0.
        1    1    3    3  502    0  0.57546924931E+03 -0.11872009963E+04  0.14434995697E+04  0.19555822842E+04  0.50400001928E-02 0.  1.
       -1    1    3    3    0  502 -0.57546924931E+03  0.11872009963E+04 -0.24286974149E+03  0.13414905046E+04  0.50400001928E-02 0. -1.
</event>
<event>
 5   0  0.1151180E-06  0.3513035E+04  0.7818609E-02  0.8110708E-01
        2   -1    0    0  501    0  0.00000000000E+00  0.00000000000E+00  0.26941338883E+04  0.26941338883E+04  0.25500000920E-02 0.  1.
       -2   -1    0    0    0  501  0.00000000000E+00  0.00000000000E+00 -0.11452119123E+04  0.11452119123E+04  0.25500000920E-02 0. -1.
    10030    2    1    2    0    0  0.00000000000E+00  0.00000000000E+00  0.15489219760E+04  0.38393458006E+04  0.35130352815E+04 0.  0.
        5    1    3    3  502    0 -0.11498269188E+04  0.41019769745E+03  0.21546885974E+04  0.24765034092E+04  0.46999998093E+01 0.  1.
       -5    1    3    3    0  502  0.11498269188E+04 -0.41019769745E+03 -0.60576662138E+03  0.13628423914E+04  0.46999998093E+01 0. -1.
</event>
<event>
 5   0  0.6287345E-07  0.3612526E+04  0.7818609E-02  0.8087628E-01
        1   -1    0    0  501    0  0.00000000000E+00  0.00000000000E+00  0.21736062309E+04  0.21736062310E+04  0.50400001928E-02 0. -1.
       -1   -1    0    0    0  501  0.00000000000E+00  0.00000000000E+00 -0.15010016812E+04  0.15010016812E+04  0.50400001928E-02 0.  1.
    10030    2    1    2    0    0  0.00000000000E+00  0.00000000000E+00  0.67260454977E+03  0.36746079121E+04  0.36125263221E+04 0.  0.
        5    1    3    3  502    0 -0.74873987811E+03 -0.14009960483E+04 -0.53821853756E+03  0.16772306390E+04  0.46999998093E+01 0.  1.
       -5    1    3    3    0  502  0.74873987811E+03  0.14009960483E+04  0.12108230873E+04  0.19973772731E+04  0.46999998093E+01 0. -1.
</event>
<event>
 5   0  0.6287345E-07  0.2379022E+04  0.7818609E-02  0.8447399E-01
        1   -1    0    0  501    0  0.00000000000E+00  0.00000000000E+00  0.10082507075E+04  0.10082507075E+04  0.50400001928E-02 0. -1.
       -1   -1    0    0    0  501  0.00000000000E+00  0.00000000000E+00 -0.14033582536E+04  0.14033582536E+04  0.50400001928E-02 0.  1.
    10030    2    1    2    0    0  0.00000000000E+00  0.00000000000E+00 -0.39510754615E+03  0.24116089611E+04  0.23790224480E+04 0.  0.
        5    1    3    3  502    0  0.81410934687E+03  0.48363403273E+03  0.53219500551E+03  0.10862456077E+04  0.46999998093E+01 0. -1.
       -5    1    3    3    0  502 -0.81410934687E+03 -0.48363403273E+03 -0.92730255166E+03  0.13253633534E+04  0.46999998093E+01 0.  1.
</event>
<event>
 5   0  0.1151180E-06  0.3178105E+04  0.7818609E-02  0.8194624E-01
        2   -1    0    0  501    0  0.00000000000E+00  0.00000000000E+00  0.13926828955E+04  0.13926828955E+04  0.25500000920E-02 0.  1.
       -2   -1    0    0    0  501  0.00000000000E+00  0.00000000000E+00 -0.18131106600E+04  0.18131106601E+04  0.25500000920E-02 0. -1.
    10030    2    1    2    0    0  0.00000000000E+00  0.00000000000E+00 -0.42042776455E+03  0.32057935556E+04  0.31781052241E+04 0.  0.
        5    1    3    3  502    0 -0.11247170005E+04 -0.11212580069E+04 -0.26414240215E+03  0.16099693003E+04  0.46999998093E+01 0.  1.
       -5    1    3    3    0  502  0.11247170005E+04  0.11212580069E+04 -0.15628536240E+03  0.15958242553E+04  0.46999998093E+01 0. -1.
</event>
<event>
 5   0  0.6261598E-07  0.2740343E+04  0.7818609E-02  0.8322032E-01
       -1   -1    0    0    0  501  0.00000000000E+00  0.00000000000E+00  0.13490716946E+04  0.13490716946E+04  0.50400001928E-02 0. -1.
        1   -1    0    0  501    0  0.00000000000E+00  0.00000000000E+00 -0.13916015413E+04  0.13916015413E+04  0.50400001928E-02 0.  1.
    10030    2    1    2    0    0  0.00000000000E+00  0.00000000000E+00 -0.42529846710E+02  0.27406732360E+04  0.27403432264E+04 0.  0.
        1    1    3    3  502    0 -0.18296648852E+03 -0.85648455677E+03  0.10325828642E+04  0.13539829775E+04  0.50400001928E-02 0. -1.
       -1    1    3    3    0  502  0.18296648852E+03  0.85648455677E+03 -0.10751127109E+04  0.13866902585E+04  0.50400001928E-02 0.  1.
</event>
<event>
 5   0  0.1724503E-06  0.3847565E+04  0.7818609E-02  0.8036024E-01
       -2   -1    0    0    0  501  0.00000000000E+00  0.00000000000E+00  0.19751808703E+04  0.19751808703E+04  0.25500000920E-02 0. -1.
        2   -1    0    0  501    0  0.00000000000E+00  0.00000000000E+00 -0.18737215430E+04  0.18737215430E+04  0.25500000920E-02 0.  1.
    10030    2    1    2    0    0  0.00000000000E+00  0.00000000000E+00  0.10145932724E+03  0.38489024133E+04  0.38475649172E+04 0.  0.
        1    1    3    3  502    0 -0.61088427543E+03 -0.45325548479E+03 -0.17168930232E+04  0.18778556349E+04  0.50400001928E-02 0.  1.
       -1    1    3    3    0  502  0.61088427543E+03  0.45325548479E+03  0.18183523504E+04  0.19710467784E+04  0.50400001928E-02 0. -1.
</event>
<event>
 5   0  0.6261598E-07  0.2714484E+04  0.7818609E-02  0.8330321E-01
        1   -1    0    0  501    0  0.00000000000E+00  0.00000000000E+00  0.29476062785E+04  0.29476062785E+04  0.50400001928E-02 0.  1.
       -1   -1    0    0    0  501  0.00000000000E+00  0.00000000000E+00 -0.62494956890E+03  0.62494956892E+03  0.50400001928E-02 0. -1.
    10030    2    1    2    0    0  0.00000000000E+00  0.00000000000E+00  0.23226567096E+04  0.35725558475E+04  0.27144835775E+04 0.  0.
        1    1    3    3  502    0  0.11785009775E+04 -0.13866114655E+03  0.20283772319E+04  0.23499799281E+04  0.50400001928E-02 0.  1.
       -1    1    3    3    0  502 -0.11785009775E+04  0.13866114655E+03  0.29427947776E+03  0.12225759194E+04  0.50400001928E-02 0. -1.
</event>
<event>
 5   0  0.1724503E-06  0.3667558E+04  0.7818609E-02  0.8075190E-01
       -2   -1    0    0    0  501  0.00000000000E+00  0.00000000000E+00  0.26811070504E+04  0.26811070504E+04  0.25500000920E-02 0. -1.
        2   -1    0    0  501    0  0.00000000000E+00  0.00000000000E+00 -0.12542378021E+04  0.12542378021E+04  0.25500000920E-02 0.  1.
    10030    2    1    2    0    0  0.00000000000E+00  0.00000000000E+00  0.14268692483E+04  0.39353448525E+04  0.36675582144E+04 0.  0.
        1    1    3    3  502    0  0.61300457108E+03 -0.14214263836E+04  0.17683334474E+04  0.23501554734E+04  0.50400001928E-02 0. -1.
       -1    1    3    3    0  502 -0.61300457108E+03  0.14214263836E+04 -0.34146419907E+03  0.15851893791E+04  0.50400001928E-02 0.  1.
</event>
<event>
 5   0  0.5679750E-07  0.1907131E+04  0.7818609E-02  0.8651315E-01
       -1   -1    0    0    0  501  0.00000000000E+00  0.00000000000E+00  0.42996315478E+03  0.42996315481E+03  0.50400001928E-02 0.  1.
        1   -1    0    0  501    0  0.00000000000E+00  0.00000000000E+00 -0.21148020830E+04  0.21148020830E+04  0.50400001928E-02 0. -1.
    10030    2    1    2    0    0  0.00000000000E+00  0.00000000000E+00 -0.16848389282E+04  0.25447652378E+04  0.19071308035E+04 0.  0.
        4    1    3    3  502    0 -0.89633864061E+03  0.23248568817E+03 -0.11461481493E+04  0.14734753974E+04  0.12699999809E+01 0. -1.
       -4    1    3    3    0  502  0.89633864061E+03 -0.23248568817E+03 -0.53869077890E+03  0.10712898403E+04  0.12699999809E+01 0.  1.
</event>
<event>
 5   0  0.1184684E-06  0.3636641E+04  0.7818609E-02  0.8082150E-01
       -2   -1    0    0    0  501  0.00000000000E+00  0.00000000000E+00  0.26410746201E+04  0.26410746201E+04  0.25500000920E-02 0. -1.
        2   -1    0    0  501    0  0.00000000000E+00  0.00000000000E+00 -0.12518725004E+04  0.12518725004E+04  0.25500000920E-02 0.  1.
    10030    2    1    2    0    0  0.00000000000E+00  0.00000000000E+00  0.13892021198E+04  0.38929471205E+04  0.36366405862E+04 0.  0.
        4    1    3    3  502    0  0.22320395370E+03 -0.91909691390E+03  0.23570268971E+04  0.25397119027E+04  0.12699999809E+01 0. -1.
       -4    1    3    3    0  502 -0.22320395370E+03  0.91909691390E+03 -0.96782477735E+03  0.13532352178E+04  0.12699999809E+01 0.  1.
</event>
<event>
 5   0  0.1184684E-06  0.2956390E+04  0.7818609E-02  0.8256295E-01
        2   -1    0    0  501    0  0.00000000000E+00  0.00000000000E+00  0.17524961328E+04  0.17524961328E+04  0.25500000920E-02 0. -1.
       -2   -1    0    0    0  501  0.00000000000E+00  0.00000000000E+00 -0.12468278341E+04  0.12468278341E+04  0.25500000920E-02 0.  1.
    10030    2    1    2    0    0  0.00000000000E+00  0.00000000000E+00  0.50566829876E+03  0.29993239669E+04  0.29563903379E+04 0.  0.
        4    1    3    3  502    0  0.35241434008E+03  0.88348099356E+03 -0.89511244652E+03  0.13061249702E+04  0.12699999809E+01 0.  1.
       -4    1    3    3    0  502 -0.35241434008E+03 -0.88348099356E+03  0.14007807453E+04  0.16931989967E+04  0.12699999809E+01 0. -1.
</event>
<event>
 5   0  0.6186440E-07  0.3718516E+04  0.7818609E-02  0.8063871E-01
       -1   -1    0    0    0  501  0.00000000000E+00  0.00000000000E+00  0.25901593807E+04  0.25901593807E+04  0.50400001928E-02 0.  1.
        1   -1    0    0  501    0  0.00000000000E+00  0.00000000000E+00 -0.13346053370E+04  0.13346053370E+04  0.50400001928E-02 0. -1.
    10030    2    1    2    0    0  0.00000000000E+00  0.00000000000E+00  0.12555540437E+04  0.39247647178E+04  0.37185161198E+04 0.  0.
        3    1    3    3  502    0  0.54482056331E+03 -0.16660174007E+04  0.12821630350E+04  0.21717240810E+04  0.10100000352E+00 0.  1.
       -3    1    3    3    0  502 -0.54482056331E+03  0.16660174007E+04 -0.26608991332E+02  0.17530406368E+04  0.10100000352E+00 0. -1.
</event>
<event>
 5   0  0.6261598E-07  0.3734404E+04  0.7818609E-02  0.8060380E-01
       -1   -1    0    0    0  501  0.00000000000E+00  0.00000000000E+00  0.15233503798E+04  0.15233503798E+04  0.50400001928E-02 0.  1.
        1   -1    0    0  501    0  0.00000000000E+00  0.00000000000E+00 -0.22886676770E+04  0.22886676770E+04  0.50400001928E-02 0. -1.
    10030    2    1    2    0    0  0.00000000000E+00  0.00000000000E+00 -0.76531729714E+03  0.38120180568E+04  0.37344037141E+04 0.  0.
        1    1    3    3  502    0  0.11768645075E+03 -0.53588497992E+03 -0.22045271677E+04  0.22717752630E+04  0.50400001928E-02 0. -1.
       -1    1    3    3    0  502 -0.11768645075E+03  0.53588497992E+03  0.14392098705E+04  0.15402427938E+04  0.50400001928E-02 0.  1.
</event>
<event>
 5   0  0.1151180E-06  0.2419683E+04  0.7818609E-02  0.8432171E-01
        2   -1    0    0  501    0  0.00000000000E+00  0.00000000000E+00  0.26300913323E+04  0.26300913323E+04  0.25500000920E-02 0. -1.
       -2   -1    0    0    0  501  0.00000000000E+00  0.00000000000E+00 -0.55652692431E+03  0.55652692432E+03  0.25500000920E-02 0.  1.
    10030    2    1    2    0    0  0.00000000000E+00  0.00000000000E+00  0.20735644080E+04  0.31866182566E+04  0.24196831527E+04 0.  0.
        5    1    3    3  502    0 -0.89063153321E+03  0.63336540860E+03  0.17202285977E+04  0.20380345402E+04  0.46999998093E+01 0. -1.
       -5    1    3    3    0  502  0.89063153321E+03 -0.63336540860E+03  0.35333581029E+03  0.11485837164E+04  0.46999998093E+01 0.  1.
</event>
<event>
 5   0  0.1184684E-06  0.3300910E+04  0.7818609E-02  0.8162664E-01
        2   -1    0    0  501    0  0.00000000000E+00  0.00000000000E+00  0.19064849503E+04  0.19064849503E+04  0.25500000920E-02 0. -1.
       -2   -1    0    0    0  501  0.00000000000E+00  0.00000000000E+00 -0.14288080841E+04  0.14288080841E+04  0.25500000920E-02 0.  1.
    10030    2    1    2    0    0  0.00000000000E+00  0.00000000000E+00  0.47767686620E+03  0.33352930345E+04  0.33009096379E+04 0.  0.
        4    1    3    3  502    0 -0.76228898874E+03 -0.14076950736E+04  0.64465561696E+03  0.17257671917E+04  0.12699999809E+01 0. -1.
       -4    1    3    3    0  502  0.76228898874E+03  0.14076950736E+04 -0.16697875076E+03  0.16095258428E+04  0.12699999809E+01 0.  1.
</event>
<event>
 5   0  0.6261598E-07  0.3675977E+04  0.7818609E-02  0.8073307E-01
       -1   -1    0    0    0  501  0.00000000000E+00  0.00000000000E+00  0.13672748514E+04  0.13672748514E+04  0.50400001928E-02 0.  1.
        1   -1    0    0  501    0  0.00000000000E+00  0.00000000000E+00 -0.24707555738E+04  0.24707555738E+04  0.50400001928E-02 0. -1.
    10030    2    1    2    0    0  0.00000000000E+00  0.00000000000E+00 -0.11034807223E+04  0.38380304252E+04  0.36759771273E+04 0.  0.
        1    1    3    3  502    0 -0.38398115816E+02 -0.18366298859E+04 -0.48981104266E+03  0.19012097756E+04  0.50400001928E-02 0.  1.
       -1    1    3    3    0  502  0.38398115816E+02  0.18366298859E+04 -0.61366967968E+03  0.19368206497E+04  0.50400001928E-02 0. -1.
</event>
<event>
 5   0  0.1680194E-06  0.3790513E+04  0.7818609E-02  0.8048194E-01
       -2   -1    0    0    0  501  0.00000000000E+00  0.00000000000E+00  0.18716391847E+04  0.18716391847E+04  0.25500000920E-02 0.  1.
        2   -1    0    0  501    0  0.00000000000E+00  0.00000000000E+00 -0.19191718618E+04  0.19191718618E+04  0.25500000920E-02 0. -1.
    10030    2    1    2    0    0  0.00000000000E+00  0.00000000000E+00 -0.47532677154E+02  0.37908110465E+04  0.37905130306E+04 0.  0.
        2    1    3    3  502    0 -0.17621279393E+04  0.66441315733E+03  0.18945816431E+03  0.18927319182E+04  0.25500000920E-02 0.  1.
       -2    1    3    3    0  502  0.17621279393E+04 -0.66441315733E+03 -0.23699084147E+03  0.18980791283E+04  0.25500000920E-02 0. -1.
</event>
<event>
 5   0  0.1184684E-06  0.1879708E+04  0.7818609E-02  0.8665023E-01
        2   -1    0    0  501    0  0.00000000000E+00  0.00000000000E+00  0.14539107944E+04  0.14539107944E+04  0.25500000920E-02 0. -1.
       -2   -1    0    0    0  501  0.00000000000E+00  0.00000000000E+00 -0.60755140151E+03  0.60755140151E+03  0.25500000920E-02 0.  1.
    10030    2    1    2    0    0  0.00000000000E+00  0.00000000000E+00  0.84635939284E+03  0.20614621959E+04  0.18797079994E+04 0.  0.
        4    1    3    3  502    0  0.63080233465E+03  0.44395363614E+03 -0.16569174888E+03  0.78896247375E+03  0.12699999809E+01 0.  1.
       -4    1    3    3    0  502 -0.63080233465E+03 -0.44395363614E+03  0.10120511417E+04  0.12724997221E+04  0.12699999809E+01 0. -1.
</event>
<event>
 5   0  0.6186440E-07  0.3641778E+04  0.7818609E-02  0.8080988E-01
       -1   -1    0    0    0  501  0.00000000000E+00  0.00000000000E+00  0.29163046357E+04  0.29163046357E+04  0.50400001928E-02 0.  1.
        1   -1    0    0  501    0  0.00000000000E+00  0.00000000000E+00 -0.11369310993E+04  0.11369310993E+04  0.50400001928E-02 0. -1.
    10030    2    1    2    0    0  0.00000000000E+00  0.00000000000E+00  0.17793735364E+04  0.40532357350E+04  0.36417783762E+04 0.  0.
        3    1    3    3  502    0 -0.14708209432E+03 -0.43607614826E+03  0.28505086470E+04  0.28874201471E+04  0.10100000352E+00 0.  1.
       -3    1    3    3    0  502  0.14708209432E+03  0.43607614826E+03 -0.10711351106E+04  0.11658155878E+04  0.10100000352E+00 0. -1.
</event>
<event>
 5   0  0.1151180E-06  0.3766208E+04  0.7818609E-02  0.8053446E-01
       -2   -1    0    0    0  501  0.00000000000E+00  0.00000000000E+00  0.19508618129E+04  0.19508618129E+04  0.25500000920E-02 0.  1.
        2   -1    0    0  501    0  0.00000000000E+00  0.00000000000E+00 -0.18176998409E+04  0.18176998409E+04  0.25500000920E-02 0. -1.
    10030    2    1    2    0    0  0.00000000000E+00  0.00000000000E+00  0.13316197207E+03  0.37685616538E+04  0.37662082826E+04 0.  0.
        5    1    3    3  502    0 -0.23094427133E+01 -0.92318083902E+02 -0.18154268497E+04  0.18177801569E+04  0.46999998093E+01 0. -1.
       -5    1    3    3    0  502  0.23094427133E+01  0.92318083902E+02  0.19485888218E+04  0.19507814969E+04  0.46999998093E+01 0.  1.
</event>
<event>
 5   0  0.1680194E-06  0.3829277E+04  0.7818609E-02  0.8039901E-01
        2   -1    0    0  501    0  0.00000000000E+00  0.00000000000E+00  0.26671581412E+04  0.26671581412E+04  0.25500000920E-02 0. -1.
       -2   -1    0    0    0  501  0.00000000000E+00  0.00000000000E+00 -0.13744371158E+04  0.13744371158E+04  0.25500000920E-02 0.  1.
    10030    2    1    2    0    0  0.00000000000E+00  0.00000000000E+00  0.12927210254E+04  0.40415952570E+04  0.38292772911E+04 0.  0.
        2    1    3    3  502    0  0.45671317461E+03  0.14239324214E+04  0.19083449756E+04  0.24244485993E+04  0.25500000920E-02 0. -1.
       -2    1    3    3    0  502 -0.45671317461E+03 -0.14239324214E+04 -0.61562395016E+03  0.16171466577E+04  0.25500000920E-02 0.  1.
</event>
<event>
 5   0  0.1685793E-06  0.1967816E+04  0.7818609E-02  0.8621817E-01
       -2   -1    0    0    0  501  0.00000000000E+00  0.00000000000E+00  0.69734264806E+03  0.69734264807E+03  0.25500000920E-02 0.  1.
        2   -1    0    0  501    0  0.00000000000E+00  0.00000000000E+00 -0.13882338584E+04  0.13882338584E+04  0.25500000920E-02 0. -1.
    10030    2    1    2    0    0  0.00000000000E+00  0.00000000000E+00 -0.69089121032E+03  0.20855765065E+04  0.19678157179E+04 0.  0.
        3    1    3    3  502    0  0.26335423217E+03  0.90225978043E+03 -0.37094003937E+02  0.94064028104E+03  0.10100000352E+00 0. -1.
       -3    1    3    3    0  502 -0.26335423217E+03 -0.90225978043E+03 -0.65379720639E+03  0.11449362254E+04  0.10100000352E+00 0.  1.
</event>
<event>
 5   0  0.1685793E-06  0.2013881E+04  0.7818609E-02  0.8600158E-01
       -2   -1    0    0    0  501  0.00000000000E+00  0.00000000000E+00  0.70485226550E+03  0.70485226550E+03  0.25500000920E-02 0.  1.
        2   -1    0    0  501    0  0.00000000000E+00  0.00000000000E+00 -0.14384986796E+04  0.14384986796E+04  0.25500000920E-02 0. -1.
    10030    2    1    2    0    0  0.00000000000E+00  0.00000000000E+00 -0.73364641414E+03  0.21433509451E+04  0.20138808835E+04 0.  0.
        3    1    3    3  502    0 -0.72781070835E+03 -0.65187207949E+03 -0.10768819938E+03  0.98297629356E+03  0.10100000352E+00 0.  1.
       -3    1    3    3    0  502  0.72781070835E+03  0.65187207949E+03 -0.62595821476E+03  0.11603746516E+04  0.10100000352E+00 0. -1.
</event>
<event>
 5   0  0.1151180E-06  0.3752106E+04  0.7818609E-02  0.8056512E-01
       -2   -1    0    0    0  501  0.00000000000E+00  0.00000000000E+00  0.23032590026E+04  0.23032590026E+04  0.25500000920E-02 0. -1.
        2   -1    0    0  501    0  0.00000000000E+00  0.00000000000E+00 -0.15280844753E+04  0.15280844753E+04  0.25500000920E-02 0.  1.
    10030    2    1    2    0    0  0.00000000000E+00  0.00000000000E+00  0.77517452729E+03  0.38313434779E+04  0.37521057152E+04 0.  0.
        5    1    3    3  502    0 -0.74678821931E+03 -0.17207710024E+04  0.41659038643E+03  0.19215397803E+04  0.46999998093E+01 0.  1.
       -5    1    3    3    0  502  0.74678821931E+03  0.17207710024E+04  0.35858414087E+03  0.19098036976E+04  0.46999998093E+01 0. -1.
</event>
<event>
 5   0  0.1680194E-06  0.3727954E+04  0.7818609E-02  0.8061795E-01
        2   -1    0    0  501    0  0.00000000000E+00  0.00000000000E+00  0.20284536194E+04  0.20284536194E+04  0.25500000920E-02 0. -1.
       -2   -1    0    0    0  501  0.00000000000E+00  0.00000000000E+00 -0.17128366666E+04  0.17128366666E+04  0.25500000920E-02 0.  1.
    10030    2    1    2    0    0  0.00000000000E+00  0.00000000000E+00  0.31561695286E+03  0.37412902860E+04  0.37279537206E+04 0.  0.
        2    1    3    3  502    0  0.41215793110E+03  0.11187586984E+04  0.15957337941E+04  0.19919491778E+04  0.25500000920E-02 0. -1.
       -2    1    3    3    0  502 -0.41215793110E+03 -0.11187586984E+04 -0.12801168412E+04  0.17493411082E+04  0.25500000920E-02 0.  1.
</event>
<event>
 5   0  0.1151180E-06  0.3654222E+04  0.7818609E-02  0.8078183E-01
        2   -1    0    0  501    0  0.00000000000E+00  0.00000000000E+00  0.19428806358E+04  0.19428806358E+04  0.25500000920E-02 0.  1.
       -2   -1    0    0    0  501  0.00000000000E+00  0.00000000000E+00 -0.17182392520E+04  0.17182392520E+04  0.25500000920E-02 0. -1.
    10030    2    1    2    0    0  0.00000000000E+00  0.00000000000E+00  0.22464138379E+03  0.36611198878E+04  0.36542215425E+04 0.  0.
        5    1    3    3  502    0 -0.45190877524E+03 -0.71757791787E+03 -0.15091200921E+04  0.17310705219E+04  0.46999998093E+01 0. -1.
       -5    1    3    3    0  502  0.45190877524E+03  0.71757791787E+03  0.17337614759E+04  0.19300493659E+04  0.46999998093E+01 0.  1.
</event>
<event>
 5   0  0.1685793E-06  0.3725855E+04  0.7818609E-02  0.8062256E-01
       -2   -1    0    0    0  501  0.00000000000E+00  0.00000000000E+00  0.17484379127E+04  0.17484379127E+04  0.25500000920E-02 0.  1.
        2   -1    0    0  501    0  0.00000000000E+00  0.00000000000E+00 -0.19849139200E+04  0.19849139200E+04  0.25500000920E-02 0. -1.
    10030    2    1    2    0    0  0.00000000000E+00  0.00000000000E+00 -0.23647600736E+03  0.37333518327E+04  0.37258549361E+04 0.  0.
        3    1    3    3  502    0  0.32661612166E+03  0.17748739699E+04 -0.58138340224E+03  0.18960122285E+04  0.10100000352E+00 0.  1.
       -3    1    3    3    0  502 -0.32661612166E+03 -0.17748739699E+04  0.34490739488E+03  0.18373396042E+04  0.10100000352E+00 0. -1.
</event>
<event>
 5   0  0.5679750E-07  0.2284736E+04  0.7818609E-02  0.8483964E-01
       -1   -1    0    0    0  501  0.00000000000E+00  0.00000000000E+00  0.93184807333E+03  0.93184807335E+03  0.50400001928E-02 0. -1.
        1   -1    0    0  501    0  0.00000000000E+00  0.00000000000E+00 -0.14004477046E+04  0.14004477046E+04  0.50400001928E-02 0.  1.
    10030    2    1    2    0    0  0.00000000000E+00  0.00000000000E+00 -0.46859963127E+03  0.23322957780E+04  0.22847358669E+04 0.  0.
        4    1    3    3  502    0 -0.31536328457E+03 -0.18061868670E+03 -0.13398612760E+04  0.13882748154E+04  0.12699999809E+01 0.  1.
       -4    1    3    3    0  502  0.31536328457E+03  0.18061868670E+03  0.87126164474E+03  0.94402096255E+03  0.12699999809E+01 0. -1.
</event>
<event>
 5   0  0.1151180E-06  0.3674988E+04  0.7818609E-02  0.8073528E-01
        2   -1    0    0  501    0  0.00000000000E+00  0.00000000000E+00  0.10102073786E+04  0.10102073786E+04  0.25500000920E-02 0.  1.
       -2   -1    0    0    0  501  0.00000000000E+00  0.00000000000E+00 -0.33422677008E+04  0.33422677008E+04  0.25500000920E-02 0. -1.
    10030    2    1    2    0    0  0.00000000000E+00  0.00000000000E+00 -0.23320603223E+04  0.43524750794E+04  0.36749876150E+04 0.  0.
        5    1    3    3  502    0 -0.39671584924E+03  0.65325869208E+03 -0.31450770643E+04  0.32366127686E+04  0.46999998093E+01 0. -1.
       -5    1    3    3    0  502  0.39671584924E+03 -0.65325869208E+03  0.81301674201E+03  0.11158623108E+04  0.46999998093E+01 0.  1.
</event>
<event>
 5   0  0.5679750E-07  0.2162470E+04  0.7818609E-02  0.8534213E-01
       -1   -1    0    0    0  501  0.00000000000E+00  0.00000000000E+00  0.12870507825E+04  0.12870507825E+04  0.50400001928E-02 0. -1.
        1   -1    0    0  501    0  0.00000000000E+00  0.00000000000E+00 -0.90833176592E+03  0.90833176593E+03  0.50400001928E-02 0.  1.
    10030    2    1    2    0    0  0.00000000000E+00  0.00000000000E+00  0.37871901654E+03  0.21953825484E+04  0.21624699860E+04 0.  0.
        4    1    3    3  502    0 -0.33882446221E+03  0.41769950789E+02  0.12308983076E+04  0.12773640834E+04  0.12699999809E+01 0. -1.
       -4    1    3    3    0  502  0.33882446221E+03 -0.41769950789E+02 -0.85217929109E+03  0.91801846498E+03  0.12699999809E+01 0.  1.
</event>
<event>
 5   0  0.1151180E-06  0.3002052E+04  0.7818609E-02  0.8243145E-01
        2   -1    0    0  501    0  0.00000000000E+00  0.00000000000E+00  0.24135060336E+04  0.24135060336E+04  0.25500000920E-02 0.  1.
       -2   -1    0    0    0  501  0.00000000000E+00  0.00000000000E+00 -0.93352965986E+03  0.93352965987E+03  0.25500000920E-02 0. -1.
    10030    2    1    2    0    0  0.00000000000E+00  0.00000000000E+00  0.14799763737E+04  0.33470356935E+04  0.30020522758E+04 0.  0.
        5    1    3    3  502    0 -0.19615084117E+03  0.77354785378E+03 -0.67740533289E+03  0.10467815004E+04  0.46999998093E+01 0. -1.
       -5    1    3    3    0  502  0.19615084117E+03 -0.77354785378E+03  0.21573817066E+04  0.23002541930E+04  0.46999998093E+01 0.  1.
</event>
<event>
 5   0  0.6186440E-07  0.2282455E+04  0.7818609E-02  0.8484871E-01
        1   -1    0    0  501    0  0.00000000000E+00  0.00000000000E+00  0.84749993200E+03  0.84749993202E+03  0.50400001928E-02 0. -1.
       -1   -1    0    0    0  501  0.00000000000E+00  0.00000000000E+00 -0.15367561196E+04  0.15367561196E+04  0.50400001928E-02 0.  1.
    10030    2    1    2    0    0  0.00000000000E+00  0.00000000000E+00 -0.68925618761E+03  0.23842560516E+04  0.22824554383E+04 0.  0.
        3    1    3    3  502    0  0.40720133392E+03  0.73587726002E+03 -0.11504433781E+04  0.14250783293E+04  0.10100000352E+00 0.  1.
       -3    1    3    3    0  502 -0.40720133392E+03 -0.73587726002E+03  0.46118719050E+03  0.95917772235E+03  0.10100000352E+00 0. -1.
</event>
<event>
 5   0  0.6261598E-07  0.2229195E+04  0.7818609E-02  0.8506374E-01
       -1   -1    0    0    0  501  0.00000000000E+00  0.00000000000E+00  0.60901503734E+03  0.60901503736E+03  0.50400001928E-02 0.  1.
        1   -1    0    0  501    0  0.00000000000E+00  0.00000000000E+00 -0.20398962415E+04  0.20398962416E+04  0.50400001928E-02 0. -1.
    10030    2    1    2    0    0  0.00000000000E+00  0.00000000000E+00 -0.14308812042E+04  0.26489112789E+04  0.22291949092E+04 0.  0.
        1    1    3    3  502    0 -0.22793324349E+03  0.10488779111E+04 -0.35850278623E+03  0.11316460064E+04  0.50400001928E-02 0. -1.
       -1    1    3    3    0  502  0.22793324349E+03 -0.10488779111E+04 -0.10723784180E+04  0.15172652726E+04  0.50400001928E-02 0.  1.
</event>
<event>
 5   0  0.1724503E-06  0.3653356E+04  0.7818609E-02  0.8078378E-01
        2   -1    0    0  501    0  0.00000000000E+00  0.00000000000E+00  0.15640393627E+04  0.15640393627E+04  0.25500000920E-02 0.  1.
       -2   -1    0    0    0  501  0.00000000000E+00  0.00000000000E+00 -0.21334195599E+04  0.21334195599E+04  0.25500000920E-02 0. -1.
    10030    2    1    2    0    0  0.00000000000E+00  0.00000000000E+00 -0.56938019728E+03  0.36974589226E+04  0.36533558101E+04 0.  0.
        1    1    3    3  502    0 -0.60323387774E+03  0.89249998832E+03 -0.17777294324E+04  0.20786460197E+04  0.50400001928E-02 0. -1.
       -1    1    3    3    0  502  0.60323387774E+03 -0.89249998832E+03  0.12083492352E+04  0.16188129029E+04  0.50400001928E-02 0.  1.
</event>
<event>
 5   0  0.5679750E-07  0.3707231E+04  0.7818609E-02  0.8066361E-01
       -1   -1    0    0    0  501  0.00000000000E+00  0.00000000000E+00  0.21930331162E+04  0.21930331162E+04  0.50400001928E-02 0. -1.
        1   -1    0    0  501    0  0.00000000000E+00  0.00000000000E+00 -0.15667302112E+04  0.15667302112E+04  0.50400001928E-02 0.  1.
    10030    2    1    2    0    0  0.00000000000E+00  0.00000000000E+00  0.62630290494E+03  0.37597633274E+04  0.37072314400E+04 0.  0.
        4    1    3    3  502    0 -0.10335257560E+04 -0.84450080742E+03  0.16176646046E+04  0.20971879954E+04  0.12699999809E+01 0. -1.
       -4    1    3    3    0  502  0.10335257560E+04  0.84450080742E+03 -0.99136169971E+03  0.16625753320E+04  0.12699999809E+01 0.  1.
</event>
<event>
 5   0  0.2756614E-06  0.1947163E+04  0.7818609E-02  0.8631730E-01
       -2   -1    0    0    0  501  0.00000000000E+00  0.00000000000E+00  0.94480518118E+03  0.94480518118E+03  0.25500000920E-02 0.  1.
        2   -1    0    0  501    0  0.00000000000E+00  0.00000000000E+00 -0.10032340228E+04  0.10032340228E+04  0.25500000920E-02 0. -1.
    10030    2    1    2    0    0  0.00000000000E+00  0.00000000000E+00 -0.58428841592E+02  0.19480392040E+04  0.19471627591E+04 0.  0.
        1    1    3    3  502    0 -0.44236863563E+03  0.38423588549E+03 -0.80708190137E+03  0.99735070112E+03  0.50400001928E-02 0. -1.
       -1    1    3    3    0  502  0.44236863563E+03 -0.38423588549E+03  0.74865305978E+03  0.95068850283E+03  0.50400001928E-02 0.  1.
</event>
<event>
 5   0  0.5679750E-07  0.3544600E+04  0.7818609E-02  0.8103301E-01
        1   -1    0    0  501    0  0.00000000000E+00  0.00000000000E+00  0.22620178116E+04  0.22620178116E+04  0.50400001928E-02 0. -1.
       -1   -1    0    0    0  501  0.00000000000E+00  0.00000000000E+00 -0.13886045230E+04  0.13886045230E+04  0.50400001928E-02 0.  1.
    10030    2    1    2    0    0  0.00000000000E+00  0.00000000000E+00  0.87341328859E+03  0.36506223346E+04  0.35446004933E+04 0.  0.
        4    1    3    3  502    0  0.11121035628E+04 -0.91531576618E+03 -0.62688222791E+03  0.15708469775E+04  0.12699999809E+01 0.  1.
       -4    1    3    3    0  502 -0.11121035628E+04  0.91531576618E+03  0.15002955165E+04  0.20797753571E+04  0.12699999809E+01 0. -1.
</event>
<event>
 5   0  0.5679750E-07  0.3377384E+04  0.7818609E-02  0.8143479E-01
        1   -1    0    0  501    0  0.00000000000E+00  0.00000000000E+00  0.19633091266E+04  0.19633091267E+04  0.50400001928E-02 0. -1.
       -1   -1    0    0    0  501  0.00000000000E+00  0.00000000000E+00 -0.14524866557E+04  0.14524866557E+04  0.50400001928E-02 0.  1.
    10030    2    1    2    0    0  0.00000000000E+00  0.00000000000E+00  0.51082247094E+03  0.34157957824E+04  0.33773837848E+04 0.  0.
        4    1    3    3  502    0  0.14764800097E+04  0.81059057089E+03  0.37773474380E+03  0.17261910213E+04  0.12699999809E+01 0. -1.
       -4    1    3    3    0  502 -0.14764800097E+04 -0.81059057089E+03  0.13308772714E+03  0.16896047610E+04  0.12699999809E+01 0.  1.
</event>
<event>
 5   0  0.1184684E-06  0.2408726E+04  0.7818609E-02  0.8436244E-01
       -2   -1    0    0    0  501  0.00000000000E+00  0.00000000000E+00  0.66993168170E+03  0.66993168171E+03  0.25500000920E-02 0. -1.
        2   -1    0    0  501    0  0.00000000000E+00  0.00000000000E+00 -0.21651316037E+04  0.21651316037E+04  0.25500000920E-02 0.  1.
    10030    2    1    2    0    0  0.00000000000E+00  0.00000000000E+00 -0.14951999220E+04  0.28350632854E+04  0.24087260171E+04 0.  0.
        4    1    3    3  502    0  0.12678125990E+03  0.11721830070E+04 -0.45833117958E+03  0.12649725582E+04  0.12699999809E+01 0. -1.
       -4    1    3    3    0  502 -0.12678125990E+03 -0.11721830070E+04 -0.10368687424E+04  0.15700907272E+04  0.12699999809E+01 0.  1.
</event>
<event>
 5   0  0.5679750E-07  0.2138769E+04  0.7818609E-02  0.8544355E-01
       -1   -1    0    0    0  501  0.00000000000E+00  0.00000000000E+00  0.11429460573E+04  0.11429460573E+04  0.50400001928E-02 0. -1.
        1   -1    0    0  501    0  0.00000000000E+00  0.00000000000E+00 -0.10005575926E+04  0.10005575926E+04  0.50400001928E-02 0.  1.
    10030    2    1    2    0    0  0.00000000000E+00  0.00000000000E+00  0.14238846469E+03  0.21435036499E+04  0.21387691372E+04 0.  0.
        4    1    3    3  502    0  0.57654627886E+03  0.75017674227E+02 -0.82831610758E+03  0.10119992342E+04  0.12699999809E+01 0.  1.
       -4    1    3    3    0  502 -0.57654627886E+03 -0.75017674227E+02  0.97070457227E+03  0.11315044157E+04  0.12699999809E+01 0. -1.
</event>
<event>
 5   0  0.5679750E-07  0.3725188E+04  0.7818609E-02  0.8062403E-01
       -1   -1    0    0    0  501  0.00000000000E+00  0.00000000000E+00  0.13955895307E+04  0.13955895307E+04  0.50400001928E-02 0.  1.
        1   -1    0    0  501    0  0.00000000000E+00  0.00000000000E+00 -0.24858718194E+04  0.24858718194E+04  0.50400001928E-02 0. -1.
    10030    2    1    2    0    0  0.00000000000E+00  0.00000000000E+00 -0.10902822887E+04  0.38814613501E+04  0.37251881487E+04 0.  0.
        4    1    3    3  502    0  0.16189384171E+04 -0.92017343720E+03 -0.50379894758E+03  0.19291178672E+04  0.12699999809E+01 0. -1.
       -4    1    3    3    0  502 -0.16189384171E+04  0.92017343720E+03 -0.58648334107E+03  0.19523434829E+04  0.12699999809E+01 0.  1.
</event>
<event>
 5   0  0.1724503E-06  0.3746043E+04  0.7818609E-02  0.8057834E-01
       -2   -1    0    0    0  501  0.00000000000E+00  0.00000000000E+00  0.13503775478E+04  0.13503775478E+04  0.25500000920E-02 0.  1.
        2   -1    0    0  501    0  0.00000000000E+00  0.00000000000E+00 -0.25979474415E+04  0.25979474415E+04  0.25500000920E-02 0. -1.
    10030    2    1    2    0    0  0.00000000000E+00  0.00000000000E+00 -0.12475698937E+04  0.39483249893E+04  0.37460431901E+04 0.  0.
        1    1    3    3  502    0 -0.91912591692E+03  0.15676934150E+04 -0.14568895722E+03  0.18230963680E+04  0.50400001928E-02 0.  1.
       -1    1    3    3    0  502  0.91912591692E+03 -0.15676934150E+04 -0.11018809364E+04  0.21252286213E+04  0.50400001928E-02 0. -1.
</event>
<event>
 5   0  0.1685793E-06  0.2084492E+04  0.7818609E-02  0.8568106E-01
       -2   -1    0    0    0  501  0.00000000000E+00  0.00000000000E+00  0.10787898672E+04  0.10787898672E+04  0.25500000920E-02 0.  1.
        2   -1    0    0  501    0  0.00000000000E+00  0.00000000000E+00 -0.10069400117E+04  0.10069400117E+04  0.25500000920E-02 0. -1.
    10030    2    1    2    0    0  0.00000000000E+00  0.00000000000E+00  0.71849855524E+02  0.20857298789E+04  0.20844919587E+04 0.  0.
        3    1    3    3  502    0  0.28591172875E+03 -0.95726383278E+03 -0.26119772694E+03  0.10326295681E+04  0.10100000352E+00 0. -1.
       -3    1    3    3    0  502 -0.28591172875E+03  0.95726383278E+03  0.33304758247E+03  0.10531003108E+04  0.10100000352E+00 0.  1.
</event>
<event>
 5   0  0.6287345E-07  0.3449425E+04  0.7818609E-02  0.8125881E-01
       -1   -1    0    0    0  501  0.00000000000E+00  0.00000000000E+00  0.17634633516E+04  0.17634633516E+04  0.50400001928E-02 0. -1.
        1   -1    0    0  501    0  0.00000000000E+00  0.00000000000E+00 -0.16868130814E+04  0.16868130814E+04  0.50400001928E-02 0.  1.
    10030    2    1    2    0    0  0.00000000000E+00  0.00000000000E+00  0.76650270203E+02  0.34502764330E+04  0.34494249086E+04 0.  0.
        5    1    3    3  502    0 -0.13577515139E+04  0.10635417798E+04  0.39143334613E+02  0.17251563934E+04  0.46999998093E+01 0. -1.
       -5    1    3    3    0  502  0.13577515139E+04 -0.10635417798E+04  0.37506935590E+02  0.17251200396E+04  0.46999998093E+01 0.  1.
</event>
<event>
 5   0  0.1680194E-06  0.1818369E+04  0.7818609E-02  0.8696592E-01
        2   -1    0    0  501    0  0.00000000000E+00  0.00000000000E+00  0.10670504360E+04  0.10670504360E+04  0.25500000920E-02 0. -1.
       -2   -1    0    0    0  501  0.00000000000E+00  0.00000000000E+00 -0.77467428598E+03  0.77467428599E+03  0.25500000920E-02 0.  1.
    10030    2    1    2    0    0  0.00000000000E+00  0.00000000000E+00  0.29237614999E+03  0.18417247220E+04  0.18183690875E+04 0.  0.
        2    1    3    3  502    0  0.19153846341E+03  0.88671590625E+03  0.20750032728E+03  0.93059575928E+03  0.25500000920E-02 0. -1.
       -2    1    3    3    0  502 -0.19153846341E+03 -0.88671590625E+03  0.84875822709E+02  0.91112896269E+03  0.25500000920E-02 0.  1.
</event>
<event>
 5   0  0.1680194E-06  0.3681793E+04  0.7818609E-02  0.8072009E-01
       -2   -1    0    0    0  501  0.00000000000E+00  0.00000000000E+00  0.18967060008E+04  0.18967060008E+04  0.25500000920E-02 0. -1.
        2   -1    0    0  501    0  0.00000000000E+00  0.00000000000E+00 -0.17867286857E+04  0.17867286857E+04  0.25500000920E-02 0.  1.
    10030    2    1    2    0    0  0.00000000000E+00  0.00000000000E+00  0.10997731511E+03  0.36834346864E+04  0.36817925090E+04 0.  0.
        2    1    3    3  502    0 -0.26254308719E+03  0.17868685860E+04  0.41161757213E+03  0.18523653101E+04  0.25500000920E-02 0. -1.
       -2    1    3    3    0  502  0.26254308719E+03 -0.17868685860E+04 -0.30164025702E+03  0.18310693763E+04  0.25500000920E-02 0.  1.
</event>
<event>
 5   0  0.1724503E-06  0.3687635E+04  0.7818609E-02  0.8070708E-01
        2   -1    0    0  501    0  0.00000000000E+00  0.00000000000E+00  0.27408928696E+04  0.27408928696E+04  0.25500000920E-02 0. -1.
       -2   -1    0    0    0  501  0.00000000000E+00  0.00000000000E+00 -0.12403484664E+04  0.12403484664E+04  0.25500000920E-02 0.  1.
    10030    2    1    2    0    0  0.00000000000E+00  0.00000000000E+00  0.15005444031E+04  0.39812413360E+04  0.36876346171E+04 0.  0.
        1    1    3    3  502    0 -0.29436754260E+03 -0.52818515488E+03  0.26308036024E+04  0.26993998226E+04  0.50400001928E-02 0. -1.
       -1    1    3    3    0  502  0.29436754260E+03  0.52818515488E+03 -0.11302591992E+04  0.12818415134E+04  0.50400001928E-02 0.  1.
</event>
<event>
 5   0  0.1151180E-06  0.2703545E+04  0.7818609E-02  0.8333856E-01
        2   -1    0    0  501    0  0.00000000000E+00  0.00000000000E+00  0.16664665674E+04  0.16664665674E+04  0.25500000920E-02 0.  1.
       -2   -1    0    0    0  501  0.00000000000E+00  0.00000000000E+00 -0.10965053146E+04  0.10965053147E+04  0.25500000920E-02 0. -1.
    10030    2    1    2    0    0  0.00000000000E+00  0.00000000000E+00  0.56996125272E+03  0.27629718820E+04  0.27035454113E+04 0.  0.
        5    1    3    3  502    0 -0.58668482184E+03  0.10095841919E+04  0.98098494034E+03  0.15250615935E+04  0.46999998093E+01 0.  1.
       -5    1    3    3    0  502  0.58668482184E+03 -0.10095841919E+04 -0.41102368763E+03  0.12379102885E+04  0.46999998093E+01 0. -1.
</event>
<event>
 5   0  0.1184684E-06  0.2296661E+04  0.7818609E-02  0.8479239E-01
        2   -1    0    0  501    0  0.00000000000E+00  0.00000000000E+00  0.94923694056E+03  0.94923694057E+03  0.25500000920E-02 0.  1.
       -2   -1    0    0    0  501  0.00000000000E+00  0.00000000000E+00 -0.13891822530E+04  0.13891822531E+04  0.25500000920E-02 0. -1.
    10030    2    1    2    0    0  0.00000000000E+00  0.00000000000E+00 -0.43994531248E+03  0.23384191936E+04  0.22966611520E+04 0.  0.
        4    1    3    3  502    0  0.38869634099E+03 -0.83577922235E+03 -0.91729710901E+03  0.13004027657E+04  0.12699999809E+01 0. -1.
       -4    1    3    3    0  502 -0.38869634099E+03  0.83577922235E+03  0.47735179653E+03  0.10380164279E+04  0.12699999809E+01 0.  1.
</event>
<event>
 5   0  0.5679750E-07  0.3409436E+04  0.7818609E-02  0.8135594E-01
        1   -1    0    0  501    0  0.00000000000E+00  0.00000000000E+00  0.20588023573E+04  0.20588023573E+04  0.50400001928E-02 0. -1.
       -1   -1    0    0    0  501  0.00000000000E+00  0.00000000000E+00 -0.14115307265E+04  0.14115307265E+04  0.50400001928E-02 0.  1.
    10030    2    1    2    0    0  0.00000000000E+00  0.00000000000E+00  0.64727163078E+03  0.34703330838E+04  0.34094356056E+04 0.  0.
        4    1    3    3  502    0  0.96668059472E+03 -0.13793512282E+04  0.59096737737E+03  0.17850280774E+04  0.12699999809E+01 0. -1.
       -4    1    3    3    0  502 -0.96668059472E+03  0.13793512282E+04  0.56304253415E+02  0.16853050065E+04  0.12699999809E+01 0.  1.
</event>
<event>
 5   0  0.6261598E-07  0.3241056E+04  0.7818609E-02  0.8178058E-01
       -1   -1    0    0    0  501  0.00000000000E+00  0.00000000000E+00  0.12128328277E+04  0.12128328277E+04  0.50400001928E-02 0. -1.
        1   -1    0    0  501    0  0.00000000000E+00  0.00000000000E+00 -0.21652704313E+04  0.21652704313E+04  0.50400001928E-02 0.  1.
    10030    2    1    2    0    0  0.00000000000E+00  0.00000000000E+00 -0.95243760359E+03  0.33781032590E+04  0.32410560377E+04 0.  0.
        1    1    3    3  502    0 -0.97487214184E+03  0.12030421291E+04 -0.97436658234E+03  0.18295016519E+04  0.50400001928E-02 0.  1.
       -1    1    3    3    0  502  0.97487214184E+03 -0.12030421291E+04  0.21928978759E+02  0.15486016071E+04  0.50400001928E-02 0. -1.
</event>
<event>
 5   0  0.5875011E-07  0.3753649E+04  0.7818609E-02  0.8056175E-01
       -1   -1    0    0    0  501  0.00000000000E+00  0.00000000000E+00  0.17545082869E+04  0.17545082869E+04  0.50400001928E-02 0. -1.
        1   -1    0    0  501    0  0.00000000000E+00  0.00000000000E+00 -0.20076683145E+04  0.20076683145E+04  0.50400001928E-02 0.  1.
    10030    2    1    2    0    0  0.00000000000E+00  0.00000000000E+00 -0.25316002763E+03  0.37621766014E+04  0.37536492618E+04 0.  0.
        2    1    3    3  502    0 -0.60396423628E+03 -0.83522653057E+03 -0.16986120293E+04  0.19868716572E+04  0.25500000920E-02 0.  1.
       -2    1    3    3    0  502  0.60396423628E+03  0.83522653057E+03  0.14454520016E+04  0.17753049443E+04  0.25500000920E-02 0. -1.
</event>
<event>
 5   0  0.1184684E-06  0.3705557E+04  0.7818609E-02  0.8066731E-01
       -2   -1    0    0    0  501  0.00000000000E+00  0.00000000000E+00  0.22672745861E+04  0.22672745861E+04  0.25500000920E-02 0.  1.
        2   -1    0    0  501    0  0.00000000000E+00  0.00000000000E+00 -0.15140594711E+04  0.15140594711E+04  0.25500000920E-02 0. -1.
    10030    2    1    2    0    0  0.00000000000E+00  0.00000000000E+00  0.75321511498E+03  0.37813340572E+04  0.37055572108E+04 0.  0.
        4    1    3    3  502    0 -0.30841677926E+03 -0.14754534610E+04 -0.72278324630E+03  0.16716761227E+04  0.12699999809E+01 0. -1.
       -4    1    3    3    0  502  0.30841677926E+03  0.14754534610E+04  0.14759983613E+04  0.21096579345E+04  0.12699999809E+01 0.  1.
</event>
<event>
 5   0  0.6261598E-07  0.3190868E+04  0.7818609E-02  0.8191233E-01
       -1   -1    0    0    0  501  0.00000000000E+00  0.00000000000E+00  0.91601677312E+03  0.91601677314E+03  0.50400001928E-02 0. -1.
        1   -1    0    0  501    0  0.00000000000E+00  0.00000000000E+00 -0.27787800138E+04  0.27787800138E+04  0.50400001928E-02 0.  1.
    10030    2    1    2    0    0  0.00000000000E+00  0.00000000000E+00 -0.18627632407E+04  0.36947967869E+04  0.31908676572E+04 0.  0.
        1    1    3    3  502    0 -0.12433466182E+04  0.22310272306E+03 -0.20598264970E+04  0.24163134804E+04  0.50400001928E-02 0.  1.
       -1    1    3    3    0  502  0.12433466182E+04 -0.22310272306E+03  0.19706325632E+03  0.12784833065E+04  0.50400001928E-02 0. -1.
</event>
<event>
 5   0  0.1685793E-06  0.2950331E+04  0.7818609E-02  0.8258058E-01
        2   -1    0    0  501    0  0.00000000000E+00  0.00000000000E+00  0.14167564106E+04  0.14167564106E+04  0.25500000920E-02 0. -1.
       -2   -1    0    0    0  501  0.00000000000E+00  0.00000000000E+00 -0.15359831385E+04  0.15359831385E+04  0.25500000920E-02 0.  1.
    10030    2    1    2    0    0  0.00000000000E+00  0.00000000000E+00 -0.11922672791E+03  0.29527395491E+04  0.29503314784E+04 0.  0.
        3    1    3    3  502    0 -0.84325059481E+03 -0.85055723388E+03 -0.92147521632E+03  0.15111703273E+04  0.10100000352E+00 0.  1.
       -3    1    3    3    0  502  0.84325059481E+03  0.85055723388E+03  0.80224848841E+03  0.14415692218E+04  0.10100000352E+00 0. -1.
</event>
<event>
 5   0  0.6261598E-07  0.1992969E+04  0.7818609E-02  0.8609915E-01
        1   -1    0    0  501    0  0.00000000000E+00  0.00000000000E+00  0.18821516687E+04  0.18821516687E+04  0.50400001928E-02 0.  1.
       -1   -1    0    0    0  501  0.00000000000E+00  0.00000000000E+00 -0.52757787004E+03  0.52757787007E+03  0.50400001928E-02 0. -1.
    10030    2    1    2    0    0  0.00000000000E+00  0.00000000000E+00  0.13545737986E+04  0.24097295387E+04  0.19929692105E+04 0.  0.
        1    1    3    3  502    0 -0.55977793660E+03 -0.80694850579E+03  0.47329249020E+03  0.10901940243E+04  0.50400001928E-02 0. -1.
       -1    1    3    3    0  502  0.55977793660E+03  0.80694850579E+03  0.88128130843E+03  0.13195355145E+04  0.50400001928E-02 0.  1.
</event>
<event>
 5   0  0.1184684E-06  0.3549854E+04  0.7818609E-02  0.8102076E-01
       -2   -1    0    0    0  501  0.00000000000E+00  0.00000000000E+00  0.14221793393E+04  0.14221793393E+04  0.25500000920E-02 0. -1.
        2   -1    0    0  501    0  0.00000000000E+00  0.00000000000E+00 -0.22151683783E+04  0.22151683783E+04  0.25500000920E-02 0.  1.
    10030    2    1    2    0    0  0.00000000000E+00  0.00000000000E+00 -0.79298903900E+03  0.36373477176E+04  0.35498544763E+04 0.  0.
        4    1    3    3  502    0 -0.48896769809E+03  0.40050415616E+03  0.13029596982E+04  0.14481707693E+04  0.12699999809E+01 0. -1.
       -4    1    3    3    0  502  0.48896769809E+03 -0.40050415616E+03 -0.20959487372E+04  0.21891769483E+04  0.12699999809E+01 0.  1.
</event>
<event>
 5   0  0.7744388E-07  0.1879732E+04  0.7818609E-02  0.8665011E-01
       -1   -1    0    0    0  501  0.00000000000E+00  0.00000000000E+00  0.58633526487E+03  0.58633526489E+03  0.50400001928E-02 0. -1.
        1   -1    0    0  501    0  0.00000000000E+00  0.00000000000E+00 -0.15065583057E+04  0.15065583057E+04  0.50400001928E-02 0.  1.
    10030    2    1    2    0    0  0.00000000000E+00  0.00000000000E+00 -0.92022304087E+03  0.20928935706E+04  0.18797321759E+04 0.  0.
        1    1    3    3  502    0  0.41501430781E+03 -0.28022756979E+03 -0.13456557032E+04  0.14358111429E+04  0.50400001928E-02 0.  1.
       -1    1    3    3    0  502 -0.41501430781E+03  0.28022756979E+03  0.42543266236E+03  0.65708242769E+03  0.50400001928E-02 0. -1.
</event>
<event>
 5   0  0.1151180E-06  0.3652285E+04  0.7818609E-02  0.8078619E-01
       -2   -1    0    0    0  501  0.00000000000E+00  0.00000000000E+00  0.13726760915E+04  0.13726760915E+04  0.25500000920E-02 0.  1.
        2   -1    0    0  501    0  0.00000000000E+00  0.00000000000E+00 -0.24294123812E+04  0.24294123812E+04  0.25500000920E-02 0. -1.
    10030    2    1    2    0    0  0.00000000000E+00  0.00000000000E+00 -0.10567362896E+04  0.38020884727E+04  0.36522849243E+04 0.  0.
        5    1    3    3  502    0 -0.18826391896E+03 -0.13654859993E+04  0.71858477397E+03  0.15544714487E+04  0.46999998093E+01 0.  1.
       -5    1    3    3    0  502  0.18826391896E+03  0.13654859993E+04 -0.17753210636E+04  0.22476170240E+04  0.46999998093E+01 0. -1.
</event>
<event>
 5   0  0.1685793E-06  0.3701856E+04  0.7818609E-02  0.8067551E-01
        2   -1    0    0  501    0  0.00000000000E+00  0.00000000000E+00  0.11647333229E+04  0.11647333229E+04  0.25500000920E-02 0.  1.
       -2   -1    0    0    0  501  0.00000000000E+00  0.00000000000E+00 -0.29413898258E+04  0.29413898258E+04  0.25500000920E-02 0. -1.
    10030    2    1    2    0    0  0.00000000000E+00  0.00000000000E+00 -0.17766565029E+04  0.41061231487E+04  0.37018561538E+04 0.  0.
        3    1    3    3  502    0 -0.75228860996E+03 -0.21350992970E+03 -0.27491557752E+04  0.28582131008E+04  0.10100000352E+00 0. -1.
       -3    1    3    3    0  502  0.75228860996E+03  0.21350992970E+03  0.97249927238E+03  0.12479100479E+04  0.10100000352E+00 0.  1.
</event>
<event>
 5   0  0.6287345E-07  0.3703232E+04  0.7818609E-02  0.8067246E-01
       -1   -1    0    0    0  501  0.00000000000E+00  0.00000000000E+00  0.17778372269E+04  0.17778372269E+04  0.50400001928E-02 0. -1.
        1   -1    0    0  501    0  0.00000000000E+00  0.00000000000E+00 -0.19284567899E+04  0.19284567899E+04  0.50400001928E-02 0.  1.
    10030    2    1    2    0    0  0.00000000000E+00  0.00000000000E+00 -0.15061956299E+03  0.37062940168E+04  0.37032322485E+04 0.  0.
        5    1    3    3  502    0 -0.24931745806E+03  0.85740702857E+03 -0.16987341740E+04  0.19191211247E+04  0.46999998093E+01 0.  1.
       -5    1    3    3    0  502  0.24931745806E+03 -0.85740702857E+03  0.15481146110E+04  0.17871728921E+04  0.46999998093E+01 0. -1.
</event>
<event>
 5   0  0.1685793E-06  0.3918546E+04  0.7818609E-02  0.8021183E-01
        2   -1    0    0  501    0  0.00000000000E+00  0.00000000000E+00  0.29008498760E+04  0.29008498760E+04  0.25500000920E-02 0. -1.
       -2   -1    0    0    0  501  0.00000000000E+00  0.00000000000E+00 -0.13233196213E+04  0.13233196213E+04  0.25500000920E-02 0.  1.
    10030    2    1    2    0    0  0.00000000000E+00  0.00000000000E+00  0.15775302547E+04  0.42241694972E+04  0.39185464444E+04 0.  0.
        3    1    3    3  502    0  0.17174622897E+04  0.89627954641E+03  0.47308069103E+03  0.19941913380E+04  0.10100000352E+00 0.  1.
       -3    1    3    3    0  502 -0.17174622897E+04 -0.89627954641E+03  0.11044495637E+04  0.22299781593E+04  0.10100000352E+00 0. -1.
</event>
<event>
 5   0  0.5679750E-07  0.2001975E+04  0.7818609E-02  0.8605698E-01
        1   -1    0    0  501    0  0.00000000000E+00  0.00000000000E+00  0.11762123239E+04  0.11762123239E+04  0.50400001928E-02 0.  1.
       -1   -1    0    0    0  501  0.00000000000E+00  0.00000000000E+00 -0.85186623005E+03  0.85186623006E+03  0.50400001928E-02 0. -1.
    10030    2    1    2    0    0  0.00000000000E+00  0.00000000000E+00  0.32434609387E+03  0.20280785540E+04  0.20019745834E+04 0.  0.
        4    1    3    3  502    0 -0.83093421400E+02 -0.87283965735E+03  0.65139895144E+03  0.10922800881E+04  0.12699999809E+01 0.  1.
       -4    1    3    3    0  502  0.83093421400E+02  0.87283965735E+03 -0.32705285757E+03  0.93579846584E+03  0.12699999809E+01 0. -1.
</event>
<event>
 5   0  0.5875011E-07  0.2305389E+04  0.7818609E-02  0.8475799E-01
        1   -1    0    0  501    0  0.00000000000E+00  0.00000000000E+00  0.82548230144E+03  0.82548230145E+03  0.50400001928E-02 0. -1.
       -1   -1    0    0    0  501  0.00000000000E+00  0.00000000000E+00 -0.16096107385E+04  0.16096107385E+04  0.50400001928E-02 0.  1.
    10030    2    1    2    0    0  0.00000000000E+00  0.00000000000E+00 -0.78412843705E+03  0.24350930399E+04  0.23053894915E+04 0.  0.
        2    1    3    3  502    0  0.33300256351E+03 -0.94848350435E+03  0.20375829584E+03  0.10256847023E+04  0.25500000920E-02 0. -1.
       -2    1    3    3    0  502 -0.33300256351E+03  0.94848350435E+03 -0.98788673288E+03  0.14094083377E+04  0.25500000920E-02 0.  1.
</event>
<event>
 5   0  0.5679750E-07  0.3749670E+04  0.7818609E-02  0.8057043E-01
       -1   -1    0    0    0  501  0.00000000000E+00  0.00000000000E+00  0.17543245728E+04  0.17543245728E+04  0.50400001928E-02 0. -1.
        1   -1    0    0  501    0  0.00000000000E+00  0.00000000000E+00 -0.20036242145E+04  0.20036242145E+04  0.50400001928E-02 0.  1.
    10030    2    1    2    0    0  0.00000000000E+00  0.00000000000E+00 -0.24929964174E+03  0.37579487873E+04  0.37496704890E+04 0.  0.
        4    1    3    3  502    0 -0.14982663458E+04 -0.51075677813E+03  0.88222288843E+03  0.18121791764E+04  0.12699999809E+01 0.  1.
       -4    1    3    3    0  502  0.14982663458E+04  0.51075677813E+03 -0.11315225302E+04  0.19457696109E+04  0.12699999809E+01 0. -1.
</event>
<event>
 5   0  0.6186440E-07  0.3327361E+04  0.7818609E-02  0.8155968E-01
        1   -1    0    0  501    0  0.00000000000E+00  0.00000000000E+00  0.17108183038E+04  0.17108183038E+04  0.50400001928E-02 0.  1.
       -1   -1    0    0    0  501  0.00000000000E+00  0.00000000000E+00 -0.16178415183E+04  0.16178415183E+04  0.50400001928E-02 0. -1.
    10030    2    1    2    0    0  0.00000000000E+00  0.00000000000E+00  0.92976785456E+02  0.33286598221E+04  0.33273610457E+04 0.  0.
        3    1    3    3  502    0  0.11695701356E+04 -0.16510569717E+03  0.12185594184E+04  0.16970684311E+04  0.10100000352E+00 0.  1.
       -3    1    3    3    0  502 -0.11695701356E+04  0.16510569717E+03 -0.11255826330E+04  0.16315913910E+04  0.10100000352E+00 0. -1.
</event>
<event>
 5   0  0.6261598E-07  0.3637537E+04  0.7818609E-02  0.8081947E-01
        1   -1    0    0  501    0  0.00000000000E+00  0.00000000000E+00  0.10594723564E+04  0.10594723564E+04  0.50400001928E-02 0. -1.
       -1   -1    0    0    0  501  0.00000000000E+00  0.00000000000E+00 -0.31222321601E+04  0.31222321601E+04  0.50400001928E-02 0.  1.
    10030    2    1    2    0    0  0.00000000000E+00  0.00000000000E+00 -0.20627598037E+04  0.41817045165E+04  0.36375368940E+04 0.  0.
        1    1    3    3  502    0  0.15837071570E+03 -0.17543164253E+04 -0.15521505863E+04  0.23477390924E+04  0.50400001928E-02 0. -1.
       -1    1    3    3    0  502 -0.15837071570E+03  0.17543164253E+04 -0.51060921746E+03  0.18339654240E+04  0.50400001928E-02 0.  1.
</event>
<event>
 5   0  0.5875011E-07  0.3705140E+04  0.7818609E-02  0.8066824E-01
       -1   -1    0    0    0  501  0.00000000000E+00  0.00000000000E+00  0.17908666339E+04  0.17908666339E+04  0.50400001928E-02 0.  1.
        1   -1    0    0  501    0  0.00000000000E+00  0.00000000000E+00 -0.19163994336E+04  0.19163994336E+04  0.50400001928E-02 0. -1.
    10030    2    1    2    0    0  0.00000000000E+00  0.00000000000E+00 -0.12553279962E+03  0.37072660675E+04  0.37051401069E+04 0.  0.
        2    1    3    3  502    0  0.17711446063E+04  0.53864017498E+03  0.74832042581E+01  0.18512542918E+04  0.25500000920E-02 0.  1.
       -2    1    3    3    0  502 -0.17711446063E+04 -0.53864017498E+03 -0.13301600388E+03  0.18560117757E+04  0.25500000920E-02 0. -1.
</event>
<event>
 5   0  0.1151180E-06  0.2408634E+04  0.7818609E-02  0.8436278E-01
       -2   -1    0    0    0  501  0.00000000000E+00  0.00000000000E+00  0.29008953044E+04  0.29008953044E+04  0.25500000920E-02 0.  1.
        2   -1    0    0  501    0  0.00000000000E+00  0.00000000000E+00 -0.49997645567E+03  0.49997645568E+03  0.25500000920E-02 0. -1.
    10030    2    1    2    0    0  0.00000000000E+00  0.00000000000E+00  0.24009188487E+04  0.34008717601E+04  0.24086339303E+04 0.  0.
        5    1    3    3  502    0  0.14890908802E+03 -0.72929261409E+03  0.25372086482E+04  0.26441428569E+04  0.46999998093E+01 0.  1.
       -5    1    3    3    0  502 -0.14890908802E+03  0.72929261409E+03 -0.13628979944E+03  0.75672890317E+03  0.46999998093E+01 0. -1.
</event>
<event>
 5   0  0.1680194E-06  0.2016279E+04  0.7818609E-02  0.8599047E-01
        2   -1    0    0  501    0  0.00000000000E+00  0.00000000000E+00  0.17907569331E+04  0.17907569331E+04  0.25500000920E-02 0. -1.
       -2   -1    0    0    0  501  0.00000000000E+00  0.00000000000E+00 -0.56755074228E+03  0.56755074229E+03  0.25500000920E-02 0.  1.
    10030    2    1    2    0    0  0.00000000000E+00  0.00000000000E+00  0.12232061908E+04  0.23583076754E+04  0.20162791738E+04 0.  0.
        2    1    3    3  502    0 -0.48570836068E+03 -0.75192002644E+03  0.69204440866E+02  0.89782269543E+03  0.25500000920E-02 0.  1.
       -2    1    3    3    0  502  0.48570836068E+03  0.75192002644E+03  0.11540017499E+04  0.14604849800E+04  0.25500000920E-02 0. -1.
</event>
<event>
 5   0  0.6186440E-07  0.2466023E+04  0.7818609E-02  0.8415191E-01
       -1   -1    0    0    0  501  0.00000000000E+00  0.00000000000E+00  0.10441860619E+04  0.10441860619E+04  0.50400001928E-02 0.  1.
        1   -1    0    0  501    0  0.00000000000E+00  0.00000000000E+00 -0.14559831510E+04  0.14559831510E+04  0.50400001928E-02 0. -1.
    10030    2    1    2    0    0  0.00000000000E+00  0.00000000000E+00 -0.41179708911E+03  0.25001692129E+04  0.24660229623E+04 0.  0.
        3    1    3    3  502    0  0.11210782020E+04 -0.50189807867E+03 -0.96707274539E+02  0.12320999649E+04  0.10100000352E+00 0. -1.
       -3    1    3    3    0  502 -0.11210782020E+04  0.50189807867E+03 -0.31508981458E+03  0.12680692480E+04  0.10100000352E+00 0.  1.
</event>
<event>
 5   0  0.6261598E-07  0.3660209E+04  0.7818609E-02  0.8076838E-01
        1   -1    0    0  501    0  0.00000000000E+00  0.00000000000E+00  0.25361966729E+04  0.25361966729E+04  0.50400001928E-02 0.  1.
       -1   -1    0    0    0  501  0.00000000000E+00  0.00000000000E+00 -0.13205925547E+04  0.13205925547E+04  0.50400001928E-02 0. -1.
    10030    2    1    2    0    0  0.00000000000E+00  0.00000000000E+00  0.12156041182E+04  0.38567892276E+04  0.36602089796E+04 0.  0.
        1    1    3    3  502    0 -0.18968415174E+02 -0.14918586515E+04  0.17245730264E+04  0.22803846519E+04  0.50400001928E-02 0.  1.
       -1    1    3    3    0  502  0.18968415174E+02  0.14918586515E+04 -0.50896890823E+03  0.15764045758E+04  0.50400001928E-02 0. -1.
</event>
<event>
 5   0  0.1680194E-06  0.3825166E+04  0.7818609E-02  0.8040776E-01
       -2   -1    0    0    0  501  0.00000000000E+00  0.00000000000E+00  0.18458992586E+04  0.18458992586E+04  0.25500000920E-02 0.  1.
        2   -1    0    0  501    0  0.00000000000E+00  0.00000000000E+00 -0.19816754747E+04  0.19816754747E+04  0.25500000920E-02 0. -1.
    10030    2    1    2    0    0  0.00000000000E+00  0.00000000000E+00 -0.13577621610E+03  0.38275747334E+04  0.38251657688E+04 0.  0.
        2    1    3    3  502    0  0.18178924002E+04  0.46482507640E+03  0.30272084281E+03  0.19006406917E+04  0.25500000920E-02 0.  1.
       -2    1    3    3    0  502 -0.18178924002E+04 -0.46482507640E+03 -0.43849705891E+03  0.19269340417E+04  0.25500000920E-02 0. -1.
</event>
<event>
 5   0  0.1151180E-06  0.2537339E+04  0.7818609E-02  0.8389803E-01
       -2   -1    0    0    0  501  0.00000000000E+00  0.00000000000E+00  0.10300370921E+04  0.10300370921E+04  0.25500000920E-02 0. -1.
        2   -1    0    0  501    0  0.00000000000E+00  0.00000000000E+00 -0.15625872832E+04  0.15625872832E+04  0.25500000920E-02 0.  1.
    10030    2    1    2    0    0  0.00000000000E+00  0.00000000000E+00 -0.53255019110E+03  0.25926243754E+04  0.25373394423E+04 0.  0.
        5    1    3    3  502    0 -0.12352684148E+04  0.65856472706E+02 -0.55396916368E+03  0.13554073395E+04  0.46999998093E+01 0.  1.
       -5    1    3    3    0  502  0.12352684148E+04 -0.65856472706E+02  0.21418972581E+02  0.12372170359E+04  0.46999998093E+01 0. -1.
</event>
<event>
 5   0  0.6328165E-07  0.1996142E+04  0.7818609E-02  0.8608427E-01
        1   -1    0    0  501    0  0.00000000000E+00  0.00000000000E+00  0.10548967266E+04  0.10548967266E+04  0.50400001928E-02 0. -1.
       -1   -1    0    0    0  501  0.00000000000E+00  0.00000000000E+00 -0.94430625532E+03  0.94430625533E+03  0.50400001928E-02 0.  1.
    10030    2    1    2    0    0  0.00000000000E+00  0.00000000000E+00  0.11059047125E+03  0.19992029819E+04  0.19961418563E+04 0.  0.
        3    1    3    3  502    0 -0.48878462973E+03  0.22954962981E+03  0.89595250102E+03  0.10461043643E+04  0.10100000352E+00 0. -1.
       -3    1    3    3    0  502  0.48878462973E+03 -0.22954962981E+03 -0.78536202977E+03  0.95309861757E+03  0.10100000352E+00 0.  1.
</event>
<event>
 5   0  0.1184684E-06  0.1832074E+04  0.7818609E-02  0.8689427E-01
        2   -1    0    0  501    0  0.00000000000E+00  0.00000000000E+00  0.11154891773E+04  0.11154891773E+04  0.25500000920E-02 0.  1.
       -2   -1    0    0    0  501  0.00000000000E+00  0.00000000000E+00 -0.75224706207E+03  0.75224706207E+03  0.25500000920E-02 0. -1.
    10030    2    1    2    0    0  0.00000000000E+00  0.00000000000E+00  0.36324211527E+03  0.18677362394E+04  0.18320736409E+04 0.  0.
        4    1    3    3  502    0  0.63552981271E+03  0.35152865227E+03 -0.38750319840E+03  0.82318338047E+03  0.12699999809E+01 0. -1.
       -4    1    3    3    0  502 -0.63552981271E+03 -0.35152865227E+03  0.75074531367E+03  0.10445528589E+04  0.12699999809E+01 0.  1.
</event>
<event>
 5   0  0.1680194E-06  0.3628169E+04  0.7818609E-02  0.8084070E-01
        2   -1    0    0  501    0  0.00000000000E+00  0.00000000000E+00  0.22210074386E+04  0.22210074386E+04  0.25500000920E-02 0. -1.
       -2   -1    0    0    0  501  0.00000000000E+00  0.00000000000E+00 -0.14817160639E+04  0.14817160639E+04  0.25500000920E-02 0.  1.
    10030    2    1    2    0    0  0.00000000000E+00  0.00000000000E+00  0.73929137469E+03  0.37027235025E+04  0.36281689044E+04 0.  0.
        2    1    3    3  502    0  0.53566316497E+03  0.12505239297E+04 -0.85507977527E+03  0.16068312130E+04  0.25500000920E-02 0.  1.
       -2    1    3    3    0  502 -0.53566316497E+03 -0.12505239297E+04  0.15943711500E+04  0.20958922894E+04  0.25500000920E-02 0. -1.
</event>
<event>
 5   0  0.1184684E-06  0.3704032E+04  0.7818609E-02  0.8067069E-01
       -2   -1    0    0    0  501  0.00000000000E+00  0.00000000000E+00  0.17419532164E+04  0.17419532164E+04  0.25500000920E-02 0. -1.
        2   -1    0    0  501    0  0.00000000000E+00  0.00000000000E+00 -0.19690331716E+04  0.19690331716E+04  0.25500000920E-02 0.  1.
    10030    2    1    2    0    0  0.00000000000E+00  0.00000000000E+00 -0.22707995514E+03  0.37109863880E+04  0.37040322172E+04 0.  0.
        4    1    3    3  502    0 -0.80642815965E+02  0.16265397174E+04  0.77006103994E+03  0.18014245291E+04  0.12699999809E+01 0. -1.
       -4    1    3    3    0  502  0.80642815965E+02 -0.16265397174E+04 -0.99714099508E+03  0.19095618589E+04  0.12699999809E+01 0.  1.
</event>
<event>
 5   0  0.1685793E-06  0.3766356E+04  0.7818609E-02  0.8053414E-01
       -2   -1    0    0    0  501  0.00000000000E+00  0.00000000000E+00  0.20673935328E+04  0.20673935328E+04  0.25500000920E-02 0.  1.
        2   -1    0    0  501    0  0.00000000000E+00  0.00000000000E+00 -0.17153766610E+04  0.17153766610E+04  0.25500000920E-02 0. -1.
    10030    2    1    2    0    0  0.00000000000E+00  0.00000000000E+00  0.35201687180E+03  0.37827701938E+04  0.37663555940E+04 0.  0.
        3    1    3    3  502    0  0.56732053377E+03  0.12495424997E+04  0.14712604909E+04  0.20119186089E+04  0.10100000352E+00 0.  1.
       -3    1    3    3    0  502 -0.56732053377E+03 -0.12495424997E+04 -0.11192436191E+04  0.17708515849E+04  0.10100000352E+00 0. -1.
</event>
<event>
 5   0  0.1184684E-06  0.2506283E+04  0.7818609E-02  0.8400751E-01
        2   -1    0    0  501    0  0.00000000000E+00  0.00000000000E+00  0.17978503866E+04  0.17978503866E+04  0.25500000920E-02 0.  1.
       -2   -1    0    0    0  501  0.00000000000E+00  0.00000000000E+00 -0.87346739540E+03  0.87346739540E+03  0.25500000920E-02 0. -1.
    10030    2    1    2    0    0  0.00000000000E+00  0.00000000000E+00  0.92438299119E+03  0.26713177820E+04  0.25062830602E+04 0.  0.
        4    1    3    3  502    0 -0.11617961076E+04 -0.16768220781E+03 -0.54166928976E+01  0.11738477209E+04  0.12699999809E+01 0. -1.
       -4    1    3    3    0  502  0.11617961076E+04  0.16768220781E+03  0.92979968409E+03  0.14974700611E+04  0.12699999809E+01 0.  1.
</event>
<event>
 5   0  0.1724503E-06  0.3688268E+04  0.7818609E-02  0.8070567E-01
       -2   -1    0    0    0  501  0.00000000000E+00  0.00000000000E+00  0.16019804856E+04  0.16019804856E+04  0.25500000920E-02 0. -1.
        2   -1    0    0  501    0  0.00000000000E+00  0.00000000000E+00 -0.21228909106E+04  0.21228909106E+04  0.25500000920E-02 0.  1.
    10030    2    1    2    0    0  0.00000000000E+00  0.00000000000E+00 -0.52091042498E+03  0.37248713962E+04  0.36882677841E+04 0.  0.
        1    1    3    3  502    0 -0.14816858858E+04  0.10219379989E+04 -0.66578539019E+03  0.19191197262E+04  0.50400001928E-02 0.  1.
       -1    1    3    3    0  502  0.14816858858E+04 -0.10219379989E+04  0.14487496521E+03  0.18057516699E+04  0.50400001928E-02 0. -1.
</event>
<event>
 5   0  0.5679750E-07  0.3729552E+04  0.7818609E-02  0.8061444E-01
       -4   -1    0    0    0  501  0.00000000000E+00  0.00000000000E+00  0.15907588859E+04  0.15907593929E+04  0.12699999809E+01 0. -1.
        4   -1    0    0  501    0  0.00000000000E+00  0.00000000000E+00 -0.21859932516E+04  0.21859936206E+04  0.12699999809E+01 0.  1.
    10030    2    1    2    0    0  0.00000000000E+00  0.00000000000E+00 -0.59523436575E+03  0.37767530134E+04  0.37295521680E+04 0.  0.
        2    1    3    3  502    0 -0.99336081387E+03  0.66973623799E+02  0.12990874025E+04  0.16367282158E+04  0.25500000920E-02 0. -1.
       -2    1    3    3    0  502  0.99336081387E+03 -0.66973623799E+02 -0.18943217683E+04  0.21400247977E+04  0.25500000920E-02 0.  1.
</event>
<event>
 5   0  0.1680194E-06  0.2986061E+04  0.7818609E-02  0.8247722E-01
       -2   -1    0    0    0  501  0.00000000000E+00  0.00000000000E+00  0.11706106966E+04  0.11706106966E+04  0.25500000920E-02 0. -1.
        2   -1    0    0  501    0  0.00000000000E+00  0.00000000000E+00 -0.19042546022E+04  0.19042546022E+04  0.25500000920E-02 0.  1.
    10030    2    1    2    0    0  0.00000000000E+00  0.00000000000E+00 -0.73364390564E+03  0.30748652988E+04  0.29860614906E+04 0.  0.
        2    1    3    3  502    0 -0.58780959851E+03 -0.52505561917E+03 -0.16725775637E+04  0.18489778890E+04  0.25500000920E-02 0.  1.
       -2    1    3    3    0  502  0.58780959851E+03  0.52505561917E+03  0.93893365806E+03  0.12258874098E+04  0.25500000920E-02 0. -1.
</event>
<event>
 5   0  0.1685793E-06  0.1969619E+04  0.7818609E-02  0.8620958E-01
       -2   -1    0    0    0  501  0.00000000000E+00  0.00000000000E+00  0.73709944028E+03  0.73709944028E+03  0.25500000920E-02 0.  1.
        2   -1    0    0  501    0  0.00000000000E+00  0.00000000000E+00 -0.13157649120E+04  0.13157649120E+04  0.25500000920E-02 0. -1.
    10030    2    1    2    0    0  0.00000000000E+00  0.00000000000E+00 -0.57866547173E+03  0.20528643523E+04  0.19696188263E+04 0.  0.
        3    1    3    3  502    0  0.56883107119E+03 -0.78247054199E+03 -0.97090298611E+02  0.97224249697E+03  0.10100000352E+00 0.  1.
       -3    1    3    3    0  502 -0.56883107119E+03  0.78247054199E+03 -0.48157517312E+03  0.10806218553E+04  0.10100000352E+00 0. -1.
</event>
<event>
 5   0  0.1151180E-06  0.3637376E+04  0.7818609E-02  0.8081983E-01
        2   -1    0    0  501    0  0.00000000000E+00  0.00000000000E+00  0.24601636679E+04  0.24601636679E+04  0.25500000920E-02 0. -1.
       -2   -1    0    0    0  501  0.00000000000E+00  0.00000000000E+00 -0.13444743367E+04  0.13444743367E+04  0.25500000920E-02 0.  1.
    10030    2    1    2    0    0  0.00000000000E+00  0.00000000000E+00  0.11156893311E+04  0.38046380046E+04  0.36373764807E+04 0.  0.
        5    1    3    3  502    0 -0.18170813060E+04 -0.75983085481E+02  0.55067959292E+03  0.19002178838E+04  0.46999998093E+01 0. -1.
       -5    1    3    3    0  502  0.18170813060E+04  0.75983085481E+02  0.56500973821E+03  0.19044201207E+04  0.46999998093E+01 0.  1.
</event>
<event>
 5   0  0.1724503E-06  0.3712864E+04  0.7818609E-02  0.8065117E-01
        2   -1    0    0  501    0  0.00000000000E+00  0.00000000000E+00  0.27139826459E+04  0.27139826459E+04  0.25500000920E-02 0. -1.
       -2   -1    0    0    0  501  0.00000000000E+00  0.00000000000E+00 -0.12698456758E+04  0.12698456758E+04  0.25500000920E-02 0.  1.
    10030    2    1    2    0    0  0.00000000000E+00  0.00000000000E+00  0.14441369701E+04  0.39838283217E+04  0.37128636533E+04 0.  0.
        1    1    3    3  502    0 -0.37201177491E+02 -0.15989446652E+04 -0.28922931162E+03  0.16253189117E+04  0.50400001928E-02 0.  1.
       -1    1    3    3    0  502  0.37201177491E+02  0.15989446652E+04  0.17333662817E+04  0.23585094099E+04  0.50400001928E-02 0. -1.
</event>
<event>
 5   0  0.5679750E-07  0.3459897E+04  0.7818609E-02  0.8123360E-01
        1   -1    0    0  501    0  0.00000000000E+00  0.00000000000E+00  0.23024078779E+04  0.23024078779E+04  0.50400001928E-02 0. -1.
       -1   -1    0    0    0  501  0.00000000000E+00  0.00000000000E+00 -0.12998227479E+04  0.12998227480E+04  0.50400001928E-02 0.  1.
    10030    2    1    2    0    0  0.00000000000E+00  0.00000000000E+00  0.10025851300E+04  0.36022306259E+04  0.34598971862E+04 0.  0.
        4    1    3    3  502    0 -0.10511887942E+04 -0.76690445379E+03  0.16881809057E+04  0.21314541293E+04  0.12699999809E+01 0.  1.
       -4    1    3    3    0  502  0.10511887942E+04  0.76690445379E+03 -0.68559577570E+03  0.14707764966E+04  0.12699999809E+01 0. -1.
</event>
<event>
 5   0  0.1680194E-06  0.3656991E+04  0.7818609E-02  0.8077560E-01
       -2   -1    0    0    0  501  0.00000000000E+00  0.00000000000E+00  0.17549653098E+04  0.17549653098E+04  0.25500000920E-02 0.  1.
        2   -1    0    0  501    0  0.00000000000E+00  0.00000000000E+00 -0.19051067942E+04  0.19051067942E+04  0.25500000920E-02 0. -1.
    10030    2    1    2    0    0  0.00000000000E+00  0.00000000000E+00 -0.15014148449E+03  0.36600721040E+04  0.36569912963E+04 0.  0.
        2    1    3    3  502    0  0.13322876996E+04  0.10004847324E+04  0.67884741587E+03  0.17991092319E+04  0.25500000920E-02 0.  1.
       -2    1    3    3    0  502 -0.13322876996E+04 -0.10004847324E+04 -0.82898890036E+03  0.18609628721E+04  0.25500000920E-02 0. -1.
</event>
<event>
 5   0  0.6261598E-07  0.2583211E+04  0.7818609E-02  0.8373926E-01
        1   -1    0    0  501    0  0.00000000000E+00  0.00000000000E+00  0.94336911079E+03  0.94336911081E+03  0.50400001928E-02 0.  1.
       -1   -1    0    0    0  501  0.00000000000E+00  0.00000000000E+00 -0.17683909199E+04  0.17683909199E+04  0.50400001928E-02 0. -1.
    10030    2    1    2    0    0  0.00000000000E+00  0.00000000000E+00 -0.82502180912E+03  0.27117600307E+04  0.25832114661E+04 0.  0.
        1    1    3    3  502    0  0.43225286904E+03  0.11317136408E+04 -0.88271461539E+03  0.14989340879E+04  0.50400001928E-02 0. -1.
       -1    1    3    3    0  502 -0.43225286904E+03 -0.11317136408E+04  0.57692806264E+02  0.12128259428E+04  0.50400001928E-02 0.  1.
</event>
<event>
 5   0  0.1685793E-06  0.3708744E+04  0.7818609E-02  0.8066027E-01
       -2   -1    0    0    0  501  0.00000000000E+00  0.00000000000E+00  0.26022774771E+04  0.26022774771E+04  0.25500000920E-02 0.  1.
        2   -1    0    0  501    0  0.00000000000E+00  0.00000000000E+00 -0.13214175961E+04  0.13214175961E+04  0.25500000920E-02 0. -1.
    10030    2    1    2    0    0  0.00000000000E+00  0.00000000000E+00  0.12808598809E+04  0.39236950732E+04  0.37087438565E+04 0.  0.
        3    1    3    3  502    0  0.17425161658E+04  0.59264705404E+03  0.40127031443E+03  0.18837757282E+04  0.10100000352E+00 0. -1.
       -3    1    3    3    0  502 -0.17425161658E+04 -0.59264705404E+03  0.87958956650E+03  0.20399193450E+04  0.10100000352E+00 0.  1.
</event>
<event>
 5   0  0.5875011E-07  0.2447377E+04  0.7818609E-02  0.8421976E-01
        1   -1    0    0  501    0  0.00000000000E+00  0.00000000000E+00  0.15908239011E+04  0.15908239011E+04  0.50400001928E-02 0.  1.
       -1   -1    0    0    0  501  0.00000000000E+00  0.00000000000E+00 -0.94128165237E+03  0.94128165238E+03  0.50400001928E-02 0. -1.
    10030    2    1    2    0    0  0.00000000000E+00  0.00000000000E+00  0.64954224876E+03  0.25321055535E+04  0.24473768409E+04 0.  0.
        2    1    3    3  502    0 -0.64608857718E+03  0.82864531776E+03 -0.32410143200E+03  0.10996023147E+04  0.25500000920E-02 0. -1.
       -2    1    3    3    0  502  0.64608857718E+03 -0.82864531776E+03  0.97364368076E+03  0.14325032388E+04  0.25500000920E-02 0.  1.
</event>
<event>
 5   0  0.1184684E-06  0.3474501E+04  0.7818609E-02  0.8119860E-01
        2   -1    0    0  501    0  0.00000000000E+00  0.00000000000E+00  0.25332922975E+04  0.25332922975E+04  0.25500000920E-02 0.  1.
       -2   -1    0    0    0  501  0.00000000000E+00  0.00000000000E+00 -0.11913503651E+04  0.11913503651E+04  0.25500000920E-02 0. -1.
    10030    2    1    2    0    0  0.00000000000E+00  0.00000000000E+00  0.13419419324E+04  0.37246426626E+04  0.34745006568E+04 0.  0.
        4    1    3    3  502    0 -0.51942097397E+03 -0.16054881656E+04  0.11138051649E+04  0.20218689266E+04  0.12699999809E+01 0.  1.
       -4    1    3    3    0  502  0.51942097397E+03  0.16054881656E+04  0.22813676746E+03  0.17027737359E+04  0.12699999809E+01 0. -1.
</event>
<event>
 5   0  0.5679750E-07  0.3644337E+04  0.7818609E-02  0.8080411E-01
       -1   -1    0    0    0  501  0.00000000000E+00  0.00000000000E+00  0.19622981952E+04  0.19622981952E+04  0.50400001928E-02 0. -1.
        1   -1    0    0  501    0  0.00000000000E+00  0.00000000000E+00 -0.16920456136E+04  0.16920456136E+04  0.50400001928E-02 0.  1.
    10030    2    1    2    0    0  0.00000000000E+00  0.00000000000E+00  0.27025258157E+03  0.36543438088E+04  0.36443370063E+04 0.  0.
        4    1    3    3  502    0 -0.85255514839E+03  0.98411821597E+03  0.14133647378E+04  0.19217024845E+04  0.12699999809E+01 0. -1.
       -4    1    3    3    0  502  0.85255514839E+03 -0.98411821597E+03 -0.11431121562E+04  0.17326413243E+04  0.12699999809E+01 0.  1.
</event>
<event>
 5   0  0.1724503E-06  0.3847984E+04  0.7818609E-02  0.8035935E-01
        2   -1    0    0  501    0  0.00000000000E+00  0.00000000000E+00  0.22390251101E+04  0.22390251101E+04  0.25500000920E-02 0.  1.
       -2   -1    0    0    0  501  0.00000000000E+00  0.00000000000E+00 -0.16532847836E+04  0.16532847836E+04  0.25500000920E-02 0. -1.
    10030    2    1    2    0    0  0.00000000000E+00  0.00000000000E+00  0.58574032644E+03  0.38923098937E+04  0.38479844827E+04 0.  0.
        1    1    3    3  502    0 -0.97444882581E+03 -0.79373854509E+03 -0.11806791347E+04  0.17244055820E+04  0.50400001928E-02 0. -1.
       -1    1    3    3    0  502  0.97444882581E+03  0.79373854509E+03  0.17664194611E+04  0.21679043117E+04  0.50400001928E-02 0.  1.
</event>
<event>
 5   0  0.5875011E-07  0.3629814E+04  0.7818609E-02  0.8083696E-01
       -1   -1    0    0    0  501  0.00000000000E+00  0.00000000000E+00  0.15177924621E+04  0.15177924621E+04  0.50400001928E-02 0.  1.
        1   -1    0    0  501    0  0.00000000000E+00  0.00000000000E+00 -0.21701824514E+04  0.21701824514E+04  0.50400001928E-02 0. -1.
    10030    2    1    2    0    0  0.00000000000E+00  0.00000000000E+00 -0.65238998938E+03  0.36879749135E+04  0.36298135303E+04 0.  0.
        2    1    3    3  502    0  0.13613599939E+04 -0.45760669660E+03 -0.14535604137E+04  0.20434144949E+04  0.25500000920E-02 0. -1.
       -2    1    3    3    0  502 -0.13613599939E+04  0.45760669660E+03  0.80117042430E+03  0.16445604186E+04  0.25500000920E-02 0.  1.
</event>
<event>
 5   0  0.6287345E-07  0.3028319E+04  0.7818609E-02  0.8235690E-01
        1   -1    0    0  501    0  0.00000000000E+00  0.00000000000E+00  0.77792077154E+03  0.77792077156E+03  0.50400001928E-02 0. -1.
       -1   -1    0    0    0  501  0.00000000000E+00  0.00000000000E+00 -0.29471890338E+04  0.29471890338E+04  0.50400001928E-02 0.  1.
    10030    2    1    2    0    0  0.00000000000E+00  0.00000000000E+00 -0.21692682623E+04  0.37251098054E+04  0.30283193802E+04 0.  0.
        5    1    3    3  502    0 -0.67884380193E+03  0.12921102339E+04 -0.15801636363E+04  0.21511199343E+04  0.46999998093E+01 0. -1.
       -5    1    3    3    0  502  0.67884380193E+03 -0.12921102339E+04 -0.58910462595E+03  0.15739898711E+04  0.46999998093E+01 0.  1.
</event>
<event>
 5   0  0.1685793E-06  0.2754073E+04  0.7818609E-02  0.8317670E-01
       -2   -1    0    0    0  501  0.00000000000E+00  0.00000000000E+00  0.12256626059E+04  0.12256626059E+04  0.25500000920E-02 0.  1.
        2   -1    0    0  501    0  0.00000000000E+00  0.00000000000E+00 -0.15471061538E+04  0.15471061538E+04  0.25500000920E-02 0. -1.
    10030    2    1    2    0    0  0.00000000000E+00  0.00000000000E+00 -0.32144354796E+03  0.27727687597E+04  0.27540734631E+04 0.  0.
        3    1    3    3  502    0 -0.12671006295E+04  0.46879651523E+03 -0.42883001386E+03  0.14174658264E+04  0.10100000352E+00 0.  1.
       -3    1    3    3    0  502  0.12671006295E+04 -0.46879651523E+03  0.10738646590E+03  0.13553029334E+04  0.10100000352E+00 0. -1.
</event>
<event>
 5   0  0.6261598E-07  0.2421306E+04  0.7818609E-02  0.8431570E-01
        1   -1    0    0  501    0  0.00000000000E+00  0.00000000000E+00  0.53966166528E+03  0.53966166531E+03  0.50400001928E-02 0. -1.
       -1   -1    0    0    0  501  0.00000000000E+00  0.00000000000E+00 -0.27159243621E+04  0.27159243621E+04  0.50400001928E-02 0.  1.
    10030    2    1    2    0    0  0.00000000000E+00  0.00000000000E+00 -0.21762626968E+04  0.32555860274E+04  0.24213056512E+04 0.  0.
        1    1    3    3  502    0 -0.45086780289E+03  0.42643959865E+03 -0.24857913715E+04  0.25620872838E+04  0.50400001928E-02 0.  1.
       -1    1    3    3    0  502  0.45086780289E+03 -0.42643959865E+03  0.30952867467E+03  0.69349874365E+03  0.50400001928E-02 0. -1.
</event>
<event>
 5   0  0.1724503E-06  0.3710644E+04  0.7818609E-02  0.8065607E-01
       -2   -1    0    0    0  501  0.00000000000E+00  0.00000000000E+00  0.17417242120E+04  0.17417242120E+04  0.25500000920E-02 0.  1.
        2   -1    0    0  501    0  0.00000000000E+00  0.00000000000E+00 -0.19763287198E+04  0.19763287198E+04  0.25500000920E-02 0. -1.
    10030    2    1    2    0    0  0.00000000000E+00  0.00000000000E+00 -0.23460450776E+03  0.37180529318E+04  0.37106439237E+04 0.  0.
        1    1    3    3  502    0  0.17264207590E+04 -0.32082872982E+03 -0.71746387071E+03  0.18968959162E+04  0.50400001928E-02 0. -1.
       -1    1    3    3    0  502 -0.17264207590E+04  0.32082872982E+03  0.48285936295E+03  0.18211570156E+04  0.50400001928E-02 0.  1.
</event>
<event>
 5   0  0.5875011E-07  0.1842180E+04  0.7818609E-02  0.8684185E-01
       -1   -1    0    0    0  501  0.00000000000E+00  0.00000000000E+00  0.59299047024E+03  0.59299047026E+03  0.50400001928E-02 0. -1.
        1   -1    0    0  501    0  0.00000000000E+00  0.00000000000E+00 -0.14307255902E+04  0.14307255902E+04  0.50400001928E-02 0.  1.
    10030    2    1    2    0    0  0.00000000000E+00  0.00000000000E+00 -0.83773511992E+03  0.20237160604E+04  0.18421798398E+04 0.  0.
        2    1    3    3  502    0  0.80270230160E+03  0.18234486362E+03 -0.87290801147E+03  0.11998120814E+04  0.25500000920E-02 0.  1.
       -2    1    3    3    0  502 -0.80270230160E+03 -0.18234486362E+03  0.35172891547E+02  0.82390397899E+03  0.25500000920E-02 0. -1.
</event>
<event>
 5   0  0.1724503E-06  0.3723682E+04  0.7818609E-02  0.8062734E-01
       -2   -1    0    0    0  501  0.00000000000E+00  0.00000000000E+00  0.13201926655E+04  0.13201926655E+04  0.25500000920E-02 0.  1.
        2   -1    0    0  501    0  0.00000000000E+00  0.00000000000E+00 -0.26257163438E+04  0.26257163438E+04  0.25500000920E-02 0. -1.
    10030    2    1    2    0    0  0.00000000000E+00  0.00000000000E+00 -0.13055236782E+04  0.39459090093E+04  0.37236817581E+04 0.  0.
        1    1    3    3  502    0  0.18374543124E+04 -0.13288664123E+03 -0.36732768693E+03  0.18785171916E+04  0.50400001928E-02 0.  1.
       -1    1    3    3    0  502 -0.18374543124E+04  0.13288664123E+03 -0.93819599130E+03  0.20673918177E+04  0.50400001928E-02 0. -1.
</event>
<event>
 5   0  0.5875011E-07  0.2621918E+04  0.7818609E-02  0.8360794E-01
       -1   -1    0    0    0  501  0.00000000000E+00  0.00000000000E+00  0.19872674023E+04  0.19872674023E+04  0.50400001928E-02 0.  1.
        1   -1    0    0  501    0  0.00000000000E+00  0.00000000000E+00 -0.86481211589E+03  0.86481211590E+03  0.50400001928E-02 0. -1.
    10030    2    1    2    0    0  0.00000000000E+00  0.00000000000E+00  0.11224552864E+04  0.28520795182E+04  0.26219175632E+04 0.  0.
        2    1    3    3  502    0 -0.46422814639E+03  0.49856512166E+03 -0.65715724293E+03  0.94653610305E+03  0.25500000920E-02 0. -1.
       -2    1    3    3    0  502  0.46422814639E+03 -0.49856512166E+03  0.17796125293E+04  0.19055434151E+04  0.25500000920E-02 0.  1.
</event>
<event>
 5   0  0.6287345E-07  0.3670120E+04  0.7818609E-02  0.8074616E-01
        1   -1    0    0  501    0  0.00000000000E+00  0.00000000000E+00  0.21387898888E+04  0.21387898888E+04  0.50400001928E-02 0.  1.
       -1   -1    0    0    0  501  0.00000000000E+00  0.00000000000E+00 -0.15744625802E+04  0.15744625802E+04  0.50400001928E-02 0. -1.
    10030    2    1    2    0    0  0.00000000000E+00  0.00000000000E+00  0.56432730863E+03  0.37132524690E+04  0.36701196966E+04 0.  0.
        5    1    3    3  502    0  0.32757928265E+02  0.17113575274E+04 -0.38712788100E+03  0.17549096144E+04  0.46999998093E+01 0. -1.
       -5    1    3    3    0  502 -0.32757928265E+02 -0.17113575274E+04  0.95145518963E+03  0.19583428546E+04  0.46999998093E+01 0.  1.
</event>
<event>
 5   0  0.5875011E-07  0.3718777E+04  0.7818609E-02  0.8063813E-01
       -1   -1    0    0    0  501  0.00000000000E+00  0.00000000000E+00  0.13134846997E+04  0.13134846998E+04  0.50400001928E-02 0.  1.
        1   -1    0    0  501    0  0.00000000000E+00  0.00000000000E+00 -0.26321774155E+04  0.26321774155E+04  0.50400001928E-02 0. -1.
    10030    2    1    2    0    0  0.00000000000E+00  0.00000000000E+00 -0.13186927157E+04  0.39456621152E+04  0.37187765527E+04 0.  0.
        2    1    3    3  502    0 -0.16204214440E+03 -0.17993408698E+04 -0.19269510826E+03  0.18168700083E+04  0.25500000920E-02 0.  1.
       -2    1    3    3    0  502  0.16204214440E+03  0.17993408698E+04 -0.11259976074E+04  0.21287921069E+04  0.25500000920E-02 0. -1.
</event>
<event>
 5   0  0.6261598E-07  0.3690842E+04  0.7818609E-02  0.8069994E-01
       -1   -1    0    0    0  501  0.00000000000E+00  0.00000000000E+00  0.28291191718E+04  0.28291191718E+04  0.50400001928E-02 0.  1.
        1   -1    0    0  501    0  0.00000000000E+00  0.00000000000E+00 -0.12037594759E+04  0.12037594759E+04  0.50400001928E-02 0. -1.
    10030    2    1    2    0    0  0.00000000000E+00  0.00000000000E+00  0.16253596960E+04  0.40328786477E+04  0.36908421865E+04 0.  0.
        1    1    3    3  502    0 -0.67057890002E+03  0.14855278359E+04 -0.13303993746E+03  0.16352885486E+04  0.50400001928E-02 0. -1.
       -1    1    3    3    0  502  0.67057890002E+03 -0.14855278359E+04  0.17583996334E+04  0.23975900991E+04  0.50400001928E-02 0.  1.
</event>
<event>
 5   0  0.1680194E-06  0.2279943E+04  0.7818609E-02  0.8485872E-01
       -2   -1    0    0    0  501  0.00000000000E+00  0.00000000000E+00  0.68956264166E+03  0.68956264167E+03  0.25500000920E-02 0. -1.
        2   -1    0    0  501    0  0.00000000000E+00  0.00000000000E+00 -0.18845780239E+04  0.18845780239E+04  0.25500000920E-02 0.  1.
    10030    2    1    2    0    0  0.00000000000E+00  0.00000000000E+00 -0.11950153823E+04  0.25741406656E+04  0.22799426314E+04 0.  0.
        2    1    3    3  502    0  0.42128634739E+02 -0.11275541468E+04 -0.78089001793E+03  0.13722034820E+04  0.25500000920E-02 0. -1.
       -2    1    3    3    0  502 -0.42128634739E+02  0.11275541468E+04 -0.41412536435E+03  0.12019371836E+04  0.25500000920E-02 0.  1.
</event>
<event>
 5   0  0.1184684E-06  0.3537470E+04  0.7818609E-02  0.8104967E-01
       -2   -1    0    0    0  501  0.00000000000E+00  0.00000000000E+00  0.11022402566E+04  0.11022402566E+04  0.25500000920E-02 0. -1.
        2   -1    0    0  501    0  0.00000000000E+00  0.00000000000E+00 -0.28382403572E+04  0.28382403572E+04  0.25500000920E-02 0.  1.
    10030    2    1    2    0    0  0.00000000000E+00  0.00000000000E+00 -0.17360001006E+04  0.39404806138E+04  0.35374695926E+04 0.  0.
        4    1    3    3  502    0  0.28611610793E+03  0.26381605017E+02 -0.28120689140E+04  0.28267103860E+04  0.12699999809E+01 0.  1.
       -4    1    3    3    0  502 -0.28611610793E+03 -0.26381605017E+02  0.10760688134E+04  0.11137702278E+04  0.12699999809E+01 0. -1.
</event>
<event>
 5   0  0.1685793E-06  0.3716707E+04  0.7818609E-02  0.8064269E-01
        2   -1    0    0  501    0  0.00000000000E+00  0.00000000000E+00  0.26442755804E+04  0.26442755804E+04  0.25500000920E-02 0.  1.
       -2   -1    0    0    0  501  0.00000000000E+00  0.00000000000E+00 -0.13060205943E+04  0.13060205943E+04  0.25500000920E-02 0. -1.
    10030    2    1    2    0    0  0.00000000000E+00  0.00000000000E+00  0.13382549860E+04  0.39502961747E+04  0.37167073412E+04 0.  0.
        3    1    3    3  502    0  0.54529658197E+02  0.13088143776E+04 -0.73186214654E+03  0.15005301631E+04  0.10100000352E+00 0. -1.
       -3    1    3    3    0  502 -0.54529658197E+02 -0.13088143776E+04  0.20701171326E+04  0.24497660116E+04  0.10100000352E+00 0.  1.
</event>
<event>
 5   0  0.1151180E-06  0.2256220E+04  0.7818609E-02  0.8495386E-01
       -2   -1    0    0    0  501  0.00000000000E+00  0.00000000000E+00  0.75751925566E+03  0.75751925566E+03  0.25500000920E-02 0.  1.
        2   -1    0    0  501    0  0.00000000000E+00  0.00000000000E+00 -0.16799991103E+04  0.16799991103E+04  0.25500000920E-02 0. -1.
    10030    2    1    2    0    0  0.00000000000E+00  0.00000000000E+00 -0.92247985466E+03  0.24375183660E+04  0.22562195599E+04 0.  0.
        5    1    3    3  502    0 -0.21662651533E+03  0.10250059729E+04 -0.91324338423E+03  0.13898200821E+04  0.46999998093E+01 0. -1.
       -5    1    3    3    0  502  0.21662651533E+03 -0.10250059729E+04 -0.92364704351E+01  0.10476982839E+04  0.46999998093E+01 0.  1.
</event>
<event>
 5   0  0.5875011E-07  0.2489199E+04  0.7818609E-02  0.8406844E-01
        1   -1    0    0  501    0  0.00000000000E+00  0.00000000000E+00  0.18753917877E+04  0.18753917877E+04  0.50400001928E-02 0.  1.
       -1   -1    0    0    0  501  0.00000000000E+00  0.00000000000E+00 -0.82597540479E+03  0.82597540480E+03  0.50400001928E-02 0. -1.
    10030    2    1    2    0    0  0.00000000000E+00  0.00000000000E+00  0.10494163829E+04  0.27013671925E+04  0.24891986590E+04 0.  0.
        2    1    3    3  502    0  0.10030346027E+04 -0.26578058217E+03 -0.22111781417E+03  0.10609480759E+04  0.25500000920E-02 0. -1.
       -2    1    3    3    0  502 -0.10030346027E+04  0.26578058217E+03  0.12705341970E+04  0.16404191165E+04  0.25500000920E-02 0.  1.
</event>
<event>
 5   0  0.5679750E-07  0.3377151E+04  0.7818609E-02  0.8143537E-01
        1   -1    0    0  501    0  0.00000000000E+00  0.00000000000E+00  0.25630438485E+04  0.25630438485E+04  0.50400001928E-02 0.  1.
       -1   -1    0    0    0  501  0.00000000000E+00  0.00000000000E+00 -0.11124614756E+04  0.11124614757E+04  0.50400001928E-02 0. -1.
    10030    2    1    2    0    0  0.00000000000E+00  0.00000000000E+00  0.14505823729E+04  0.36755053242E+04  0.33771511911E+04 0.  0.
        4    1    3    3  502    0 -0.11831676562E+04 -0.75762660364E+03 -0.29415874455E+03  0.14354144883E+04  0.12699999809E+01 0. -1.
       -4    1    3    3    0  502  0.11831676562E+04  0.75762660364E+03  0.17447411174E+04  0.22400908359E+04  0.12699999809E+01 0.  1.
</event>
<event>
 5   0  0.1724503E-06  0.3853261E+04  0.7818609E-02  0.8034821E-01
       -2   -1    0    0    0  501  0.00000000000E+00  0.00000000000E+00  0.18018840499E+04  0.18018840499E+04  0.25500000920E-02 0. -1.
        2   -1    0    0  501    0  0.00000000000E+00  0.00000000000E+00 -0.20600136888E+04  0.20600136888E+04  0.25500000920E-02 0.  1.
    10030    2    1    2    0    0  0.00000000000E+00  0.00000000000E+00 -0.25812963890E+03  0.38618977388E+04  0.38532613763E+04 0.  0.
        1    1    3    3  502    0 -0.11734143118E+03  0.25681530248E+03 -0.20391649885E+04  0.20586201596E+04  0.50400001928E-02 0.  1.
       -1    1    3    3    0  502  0.11734143118E+03 -0.25681530248E+03  0.17810353496E+04  0.18032775792E+04  0.50400001928E-02 0. -1.
</event>
<event>
 5   0  0.1724503E-06  0.2114342E+04  0.7818609E-02  0.8554952E-01
        2   -1    0    0  501    0  0.00000000000E+00  0.00000000000E+00  0.16830369671E+04  0.16830369671E+04  0.25500000920E-02 0. -1.
       -2   -1    0    0    0  501  0.00000000000E+00  0.00000000000E+00 -0.66404425067E+03  0.66404425068E+03  0.25500000920E-02 0.  1.
    10030    2    1    2    0    0  0.00000000000E+00  0.00000000000E+00  0.10189927164E+04  0.23470812178E+04  0.21143424715E+04 0.  0.
        1    1    3    3  502    0  0.58010428126E+03  0.53782865902E+03  0.12879996606E+04  0.15115302740E+04  0.50400001928E-02 0. -1.
       -1    1    3    3    0  502 -0.58010428126E+03 -0.53782865902E+03 -0.26900694414E+03  0.83555094377E+03  0.50400001928E-02 0.  1.
</event>
<event>
 5   0  0.6287345E-07  0.2418438E+04  0.7818609E-02  0.8432633E-01
        1   -1    0    0  501    0  0.00000000000E+00  0.00000000000E+00  0.26610779203E+04  0.26610779203E+04  0.50400001928E-02 0. -1.
       -1   -1    0    0    0  501  0.00000000000E+00  0.00000000000E+00 -0.54948072991E+03  0.54948072994E+03  0.50400001928E-02 0.  1.
    10030    2    1    2    0    0  0.00000000000E+00  0.00000000000E+00  0.21115971903E+04  0.32105586502E+04  0.24184383705E+04 0.  0.
        5    1    3    3  502    0 -0.40426482789E+03 -0.14587778785E+03  0.25562515900E+04  0.25921332261E+04  0.46999998093E+01 0. -1.
       -5    1    3    3    0  502  0.40426482789E+03  0.14587778785E+03 -0.44465439970E+03  0.61842542414E+03  0.46999998093E+01 0.  1.
</event>
<event>
 5   0  0.1685793E-06  0.3423823E+04  0.7818609E-02  0.8132084E-01
        2   -1    0    0  501    0  0.00000000000E+00  0.00000000000E+00  0.19858253206E+04  0.19858253206E+04  0.25500000920E-02 0. -1.
       -2   -1    0    0    0  501  0.00000000000E+00  0.00000000000E+00 -0.14757800232E+04  0.14757800232E+04  0.25500000920E-02 0.  1.
    10030    2    1    2    0    0  0.00000000000E+00  0.00000000000E+00  0.51004529739E+03  0.34616053438E+04  0.34238232067E+04 0.  0.
        3    1    3    3  502    0  0.10415715712E+04 -0.23386283666E+03  0.16081026990E+04  0.19301703202E+04  0.10100000352E+00 0. -1.
       -3    1    3    3    0  502 -0.10415715712E+04  0.23386283666E+03 -0.10980574016E+04  0.15314350236E+04  0.10100000352E+00 0.  1.
</event>
<event>
 5   0  0.6261598E-07  0.3794841E+04  0.7818609E-02  0.8047263E-01
        1   -1    0    0  501    0  0.00000000000E+00  0.00000000000E+00  0.24689510837E+04  0.24689510837E+04  0.50400001928E-02 0. -1.
       -1   -1    0    0    0  501  0.00000000000E+00  0.00000000000E+00 -0.14581915896E+04  0.14581915896E+04  0.50400001928E-02 0.  1.
    10030    2    1    2    0    0  0.00000000000E+00  0.00000000000E+00  0.10107594941E+04  0.39271426734E+04  0.37948405529E+04 0.  0.
        1    1    3    3  502    0  0.12028227347E+04  0.14442375819E+04  0.77444227744E+03  0.20328220693E+04  0.50400001928E-02 0. -1.
       -1    1    3    3    0  502 -0.12028227347E+04 -0.14442375819E+04  0.23631721665E+03  0.18943206041E+04  0.50400001928E-02 0.  1.
</event>
<event>
 5   0  0.6287345E-07  0.3521164E+04  0.7818609E-02  0.8108793E-01
        1   -1    0    0  501    0  0.00000000000E+00  0.00000000000E+00  0.19653999007E+04  0.19653999007E+04  0.50400001928E-02 0.  1.
       -1   -1    0    0    0  501  0.00000000000E+00  0.00000000000E+00 -0.15771081000E+04  0.15771081000E+04  0.50400001928E-02 0. -1.
    10030    2    1    2    0    0  0.00000000000E+00  0.00000000000E+00  0.38829180064E+03  0.35425080007E+04  0.35211635027E+04 0.  0.
        5    1    3    3  502    0 -0.47438833994E+03 -0.45665238879E+03 -0.14485562230E+04  0.15911985805E+04  0.46999998093E+01 0. -1.
       -5    1    3    3    0  502  0.47438833994E+03  0.45665238879E+03  0.18368480237E+04  0.19513094202E+04  0.46999998093E+01 0.  1.
</event>
<event>
 5   0  0.1680194E-06  0.3315246E+04  0.7818609E-02  0.8159027E-01
        2   -1    0    0  501    0  0.00000000000E+00  0.00000000000E+00  0.12918323113E+04  0.12918323113E+04  0.25500000920E-02 0.  1.
       -2   -1    0    0    0  501  0.00000000000E+00  0.00000000000E+00 -0.21269901826E+04  0.21269901826E+04  0.25500000920E-02 0. -1.
    10030    2    1    2    0    0  0.00000000000E+00  0.00000000000E+00 -0.83515787137E+03  0.34188224939E+04  0.33152463822E+04 0.  0.
        2    1    3    3  502    0  0.16123156673E+04  0.35254616970E+03 -0.25827274778E+03  0.16704955627E+04  0.25500000920E-02 0.  1.
       -2    1    3    3    0  502 -0.16123156673E+04 -0.35254616970E+03 -0.57688512358E+03  0.17483269312E+04  0.25500000920E-02 0. -1.
</event>
<event>
 5   0  0.5679750E-07  0.3175171E+04  0.7818609E-02  0.8195405E-01
       -1   -1    0    0    0  501  0.00000000000E+00  0.00000000000E+00  0.11860871301E+04  0.11860871301E+04  0.50400001928E-02 0.  1.
        1   -1    0    0  501    0  0.00000000000E+00  0.00000000000E+00 -0.21249937978E+04  0.21249937978E+04  0.50400001928E-02 0. -1.
    10030    2    1    2    0    0  0.00000000000E+00  0.00000000000E+00 -0.93890666777E+03  0.33110809279E+04  0.31751710474E+04 0.  0.
        4    1    3    3  502    0 -0.90759874673E+03  0.13019868292E+04 -0.42878406304E+03  0.16440080821E+04  0.12699999809E+01 0.  1.
       -4    1    3    3    0  502  0.90759874673E+03 -0.13019868292E+04 -0.51012260473E+03  0.16670728458E+04  0.12699999809E+01 0. -1.
</event>
<event>
 5   0  0.1724503E-06  0.3589227E+04  0.7818609E-02  0.8092964E-01
        2   -1    0    0  501    0  0.00000000000E+00  0.00000000000E+00  0.14508177872E+04  0.14508177872E+04  0.25500000920E-02 0.  1.
       -2   -1    0    0    0  501  0.00000000000E+00  0.00000000000E+00 -0.22198778217E+04  0.22198778217E+04  0.25500000920E-02 0. -1.
    10030    2    1    2    0    0  0.00000000000E+00  0.00000000000E+00 -0.76906003445E+03  0.36706956089E+04  0.35892273426E+04 0.  0.
        1    1    3    3  502    0 -0.13580077774E+04 -0.11653371835E+04 -0.52341509444E+03  0.18644460936E+04  0.50400001928E-02 0.  1.
       -1    1    3    3    0  502  0.13580077774E+04  0.11653371835E+04 -0.24564494001E+03  0.18062495153E+04  0.50400001928E-02 0. -1.
</event>
<event>
 5   0  0.1680194E-06  0.3975488E+04  0.7818609E-02  0.8009510E-01
        2   -1    0    0  501    0  0.00000000000E+00  0.00000000000E+00  0.23018723062E+04  0.23018723062E+04  0.25500000920E-02 0.  1.
       -2   -1    0    0    0  501  0.00000000000E+00  0.00000000000E+00 -0.17164835942E+04  0.17164835942E+04  0.25500000920E-02 0. -1.
    10030    2    1    2    0    0  0.00000000000E+00  0.00000000000E+00  0.58538871200E+03  0.40183559003E+04  0.39754879194E+04 0.  0.
        2    1    3    3  502    0  0.13324182746E+04 -0.23007316347E+03 -0.11800182932E+04  0.17946351416E+04  0.25500000920E-02 0. -1.
       -2    1    3    3    0  502 -0.13324182746E+04  0.23007316347E+03  0.17654070052E+04  0.22237207588E+04  0.25500000920E-02 0.  1.
</event>
<event>
 5   0  0.5679750E-07  0.2029880E+04  0.7818609E-02  0.8592777E-01
        1   -1    0    0  501    0  0.00000000000E+00  0.00000000000E+00  0.19081002033E+04  0.19081002033E+04  0.50400001928E-02 0.  1.
       -1   -1    0    0    0  501  0.00000000000E+00  0.00000000000E+00 -0.53985783962E+03  0.53985783965E+03  0.50400001928E-02 0. -1.
    10030    2    1    2    0    0  0.00000000000E+00  0.00000000000E+00  0.13682423637E+04  0.24479580429E+04  0.20298796551E+04 0.  0.
        4    1    3    3  502    0 -0.34039326838E+03 -0.45554460350E+03  0.16979278676E+04  0.17906281354E+04  0.12699999809E+01 0.  1.
       -4    1    3    3    0  502  0.34039326838E+03  0.45554460350E+03 -0.32968550391E+03  0.65732990753E+03  0.12699999809E+01 0. -1.
</event>
<event>
 5   0  0.1685793E-06  0.3715759E+04  0.7818609E-02  0.8064478E-01
        2   -1    0    0  501    0  0.00000000000E+00  0.00000000000E+00  0.27600744161E+04  0.27600744161E+04  0.25500000920E-02 0. -1.
       -2   -1    0    0    0  501  0.00000000000E+00  0.00000000000E+00 -0.12505880092E+04  0.12505880092E+04  0.25500000920E-02 0.  1.
    10030    2    1    2    0    0  0.00000000000E+00  0.00000000000E+00  0.15094864069E+04  0.40106624252E+04  0.37157588561E+04 0.  0.
        3    1    3    3  502    0 -0.10191823696E+04 -0.97630081909E+03 -0.54937884497E+03  0.15145009466E+04  0.10100000352E+00 0.  1.
       -3    1    3    3    0  502  0.10191823696E+04  0.97630081909E+03  0.20588652518E+04  0.24961614786E+04  0.10100000352E+00 0. -1.
</event>
<event>
 5   0  0.1680194E-06  0.3511975E+04  0.7818609E-02  0.8110958E-01
        2   -1    0    0  501    0  0.00000000000E+00  0.00000000000E+00  0.12915543925E+04  0.12915543925E+04  0.25500000920E-02 0.  1.
       -2   -1    0    0    0  501  0.00000000000E+00  0.00000000000E+00 -0.23874268175E+04  0.23874268175E+04  0.25500000920E-02 0. -1.
    10030    2    1    2    0    0  0.00000000000E+00  0.00000000000E+00 -0.10958724250E+04  0.36789812101E+04  0.35119747112E+04 0.  0.
        2    1    3    3  502    0 -0.13811705921E+04 -0.10635903495E+04 -0.32661973442E+03  0.17735662059E+04  0.25500000920E-02 0. -1.
       -2    1    3    3    0  502  0.13811705921E+04  0.10635903495E+04 -0.76925269062E+03  0.19054150041E+04  0.25500000920E-02 0.  1.
</event>
<event>
 5   0  0.1151180E-06  0.1897546E+04  0.7818609E-02  0.8656079E-01
        2   -1    0    0  501    0  0.00000000000E+00  0.00000000000E+00  0.25091021050E+04  0.25091021050E+04  0.25500000920E-02 0.  1.
       -2   -1    0    0    0  501  0.00000000000E+00  0.00000000000E+00 -0.35876196831E+03  0.35876196832E+03  0.25500000920E-02 0. -1.
    10030    2    1    2    0    0  0.00000000000E+00  0.00000000000E+00  0.21503401367E+04  0.28678640733E+04  0.18975462154E+04 0.  0.
        5    1    3    3  502    0 -0.43253683485E+03  0.13038758983E+03 -0.18575510808E+03  0.48848345649E+03  0.46999998093E+01 0. -1.
       -5    1    3    3    0  502  0.43253683485E+03 -0.13038758983E+03  0.23360952448E+04  0.23793806168E+04  0.46999998093E+01 0.  1.
</event>
<event>
 5   0  0.5679750E-07  0.3612231E+04  0.7818609E-02  0.8087696E-01
       -1   -1    0    0    0  501  0.00000000000E+00  0.00000000000E+00  0.12844908295E+04  0.12844908295E+04  0.50400001928E-02 0. -1.
        1   -1    0    0  501    0  0.00000000000E+00  0.00000000000E+00 -0.25395686699E+04  0.25395686699E+04  0.50400001928E-02 0.  1.
    10030    2    1    2    0    0  0.00000000000E+00  0.00000000000E+00 -0.12550778404E+04  0.38240594995E+04  0.36122307055E+04 0.  0.
        4    1    3    3  502    0  0.22159244583E+03  0.17238368308E+04 -0.11476053217E+04  0.20827184684E+04  0.12699999809E+01 0.  1.
       -4    1    3    3    0  502 -0.22159244583E+03 -0.17238368308E+04 -0.10747251866E+03  0.17413410311E+04  0.12699999809E+01 0. -1.
</event>
<event>
 5   0  0.1184684E-06  0.2544478E+04  0.7818609E-02  0.8387309E-01
        2   -1    0    0  501    0  0.00000000000E+00  0.00000000000E+00  0.11663226398E+04  0.11663226398E+04  0.25500000920E-02 0. -1.
       -2   -1    0    0    0  501  0.00000000000E+00  0.00000000000E+00 -0.13877735512E+04  0.13877735512E+04  0.25500000920E-02 0.  1.
    10030    2    1    2    0    0  0.00000000000E+00  0.00000000000E+00 -0.22145091142E+03  0.25540961909E+04  0.25444777158E+04 0.  0.
        4    1    3    3  502    0 -0.86393813172E+03  0.27295282026E+03  0.78579000647E+03  0.11993164239E+04  0.12699999809E+01 0. -1.
       -4    1    3    3    0  502  0.86393813172E+03 -0.27295282026E+03 -0.10072409179E+04  0.13547797670E+04  0.12699999809E+01 0.  1.
</event>
<event>
 5   0  0.1685793E-06  0.3659546E+04  0.7818609E-02  0.8076986E-01
        2   -1    0    0  501    0  0.00000000000E+00  0.00000000000E+00  0.20776487991E+04  0.20776487991E+04  0.25500000920E-02 0.  1.
       -2   -1    0    0    0  501  0.00000000000E+00  0.00000000000E+00 -0.16114704950E+04  0.16114704950E+04  0.25500000920E-02 0. -1.
    10030    2    1    2    0    0  0.00000000000E+00  0.00000000000E+00  0.46617830418E+03  0.36891192941E+04  0.36595462772E+04 0.  0.
        3    1    3    3  502    0  0.93905622812E+03  0.89044167224E+03 -0.10709472852E+04  0.16797741125E+04  0.10100000352E+00 0. -1.
       -3    1    3    3    0  502 -0.93905622812E+03 -0.89044167224E+03  0.15371255893E+04  0.20093451816E+04  0.10100000352E+00 0.  1.
</event>
<event>
 5   0  0.1151180E-06  0.2829919E+04  0.7818609E-02  0.8294039E-01
       -2   -1    0    0    0  501  0.00000000000E+00  0.00000000000E+00  0.14492896047E+04  0.14492896047E+04  0.25500000920E-02 0.  1.
        2   -1    0    0  501    0  0.00000000000E+00  0.00000000000E+00 -0.13814426531E+04  0.13814426531E+04  0.25500000920E-02 0. -1.
    10030    2    1    2    0    0  0.00000000000E+00  0.00000000000E+00  0.67846951572E+02  0.28307322578E+04  0.28299190636E+04 0.  0.
        5    1    3    3  502    0 -0.79773197507E+03  0.21942576350E+03  0.11821054064E+04  0.14428857375E+04  0.46999998093E+01 0.  1.
       -5    1    3    3    0  502  0.79773197507E+03 -0.21942576350E+03 -0.11142584548E+04  0.13878465203E+04  0.46999998093E+01 0. -1.
</event>
<event>
 5   0  0.1685793E-06  0.2599595E+04  0.7818609E-02  0.8368339E-01
        2   -1    0    0  501    0  0.00000000000E+00  0.00000000000E+00  0.15615415324E+04  0.15615415324E+04  0.25500000920E-02 0. -1.
       -2   -1    0    0    0  501  0.00000000000E+00  0.00000000000E+00 -0.10819270733E+04  0.10819270733E+04  0.25500000920E-02 0.  1.
    10030    2    1    2    0    0  0.00000000000E+00  0.00000000000E+00  0.47961445904E+03  0.26434686057E+04  0.25995953993E+04 0.  0.
        3    1    3    3  502    0 -0.10139294593E+04  0.68523252091E+03  0.68523820616E+03  0.14025505215E+04  0.10100000352E+00 0.  1.
       -3    1    3    3    0  502  0.10139294593E+04 -0.68523252091E+03 -0.20562374712E+03  0.12409180842E+04  0.10100000352E+00 0. -1.
</event>
<event>
 5   0  0.6261598E-07  0.3671856E+04  0.7818609E-02  0.8074228E-01
       -1   -1    0    0    0  501  0.00000000000E+00  0.00000000000E+00  0.22565251626E+04  0.22565251626E+04  0.50400001928E-02 0. -1.
        1   -1    0    0  501    0  0.00000000000E+00  0.00000000000E+00 -0.14937267303E+04  0.14937267303E+04  0.50400001928E-02 0.  1.
    10030    2    1    2    0    0  0.00000000000E+00  0.00000000000E+00  0.76279843231E+03  0.37502518930E+04  0.36718561808E+04 0.  0.
        1    1    3    3  502    0  0.11232280184E+04  0.78607262771E+03 -0.86576986544E+03  0.16214526873E+04  0.50400001928E-02 0.  1.
       -1    1    3    3    0  502 -0.11232280184E+04 -0.78607262771E+03  0.16285682978E+04  0.21287992056E+04  0.50400001928E-02 0. -1.
</event>
<event>
 5   0  0.6261598E-07  0.3600368E+04  0.7818609E-02  0.8090407E-01
       -1   -1    0    0    0  501  0.00000000000E+00  0.00000000000E+00  0.22618524019E+04  0.22618524019E+04  0.50400001928E-02 0.  1.
        1   -1    0    0  501    0  0.00000000000E+00  0.00000000000E+00 -0.14327473305E+04  0.14327473305E+04  0.50400001928E-02 0. -1.
    10030    2    1    2    0    0  0.00000000000E+00  0.00000000000E+00  0.82910507147E+03  0.36945997324E+04  0.36003683094E+04 0.  0.
        1    1    3    3  502    0 -0.17274326413E+04 -0.18658460381E+02  0.93405476446E+03  0.19638813537E+04  0.50400001928E-02 0.  1.
       -1    1    3    3    0  502  0.17274326413E+04  0.18658460381E+02 -0.10494969300E+03  0.17307183787E+04  0.50400001928E-02 0. -1.
</event>
<event>
 5   0  0.1184684E-06  0.2666870E+04  0.7818609E-02  0.8345835E-01
        2   -1    0    0  501    0  0.00000000000E+00  0.00000000000E+00  0.22161203792E+04  0.22161203792E+04  0.25500000920E-02 0.  1.
       -2   -1    0    0    0  501  0.00000000000E+00  0.00000000000E+00 -0.80232512642E+03  0.80232512643E+03  0.25500000920E-02 0. -1.
    10030    2    1    2    0    0  0.00000000000E+00  0.00000000000E+00  0.14137952528E+04  0.30184455056E+04  0.26668701231E+04 0.  0.
        4    1    3    3  502    0  0.42902925542E+03  0.84449546368E+03  0.17691367336E+04  0.20067598474E+04  0.12699999809E+01 0.  1.
       -4    1    3    3    0  502 -0.42902925542E+03 -0.84449546368E+03 -0.35534148080E+03  0.10116856582E+04  0.12699999809E+01 0. -1.
</event>
<event>
 5   0  0.6186440E-07  0.3081715E+04  0.7818609E-02  0.8220774E-01
       -1   -1    0    0    0  501  0.00000000000E+00  0.00000000000E+00  0.25066026434E+04  0.25066026434E+04  0.50400001928E-02 0.  1.
        1   -1    0    0  501    0  0.00000000000E+00  0.00000000000E+00 -0.94719499489E+03  0.94719499491E+03  0.50400001928E-02 0. -1.
    10030    2    1    2    0    0  0.00000000000E+00  0.00000000000E+00  0.15594076485E+04  0.34537976383E+04  0.30817147682E+04 0.  0.
        3    1    3    3  502    0 -0.35662276978E+03 -0.76509557943E+03 -0.66500227716E+03  0.10746064789E+04  0.10100000352E+00 0. -1.
       -3    1    3    3    0  502  0.35662276978E+03  0.76509557943E+03  0.22244099257E+04  0.23791911595E+04  0.10100000352E+00 0.  1.
</event>
<event>
 5   0  0.6287345E-07  0.3545215E+04  0.7818609E-02  0.8103157E-01
        1   -1    0    0  501    0  0.00000000000E+00  0.00000000000E+00  0.14532798470E+04  0.14532798470E+04  0.50400001928E-02 0. -1.
       -1   -1    0    0    0  501  0.00000000000E+00  0.00000000000E+00 -0.21621008003E+04  0.21621008003E+04  0.50400001928E-02 0.  1.
    10030    2    1    2    0    0  0.00000000000E+00  0.00000000000E+00 -0.70882095331E+03  0.36153806473E+04  0.35452150966E+04 0.  0.
        5    1    3    3  502    0  0.56421535049E+02 -0.11484742304E+04  0.10213405728E+04  0.15379645975E+04  0.46999998093E+01 0. -1.
       -5    1    3    3    0  502 -0.56421535049E+02  0.11484742304E+04 -0.17301615261E+04  0.20774160498E+04  0.46999998093E+01 0.  1.
</event>
<event>
 5   0  0.6261598E-07  0.3608518E+04  0.7818609E-02  0.8088543E-01
        1   -1    0    0  501    0  0.00000000000E+00  0.00000000000E+00  0.12914460683E+04  0.12914460683E+04  0.50400001928E-02 0.  1.
       -1   -1    0    0    0  501  0.00000000000E+00  0.00000000000E+00 -0.25207020354E+04  0.25207020355E+04  0.50400001928E-02 0. -1.
    10030    2    1    2    0    0  0.00000000000E+00  0.00000000000E+00 -0.12292559672E+04  0.38121481037E+04  0.36085181075E+04 0.  0.
        1    1    3    3  502    0 -0.34115968645E+02  0.17926967809E+04 -0.40222219470E+03  0.18375821999E+04  0.50400001928E-02 0. -1.
       -1    1    3    3    0  502  0.34115968645E+02 -0.17926967809E+04 -0.82703377248E+03  0.19745659038E+04  0.50400001928E-02 0.  1.
</event>
<event>
 5   0  0.6287345E-07  0.3576702E+04  0.7818609E-02  0.8095849E-01
       -1   -1    0    0    0  501  0.00000000000E+00  0.00000000000E+00  0.15002683347E+04  0.15002683347E+04  0.50400001928E-02 0. -1.
        1   -1    0    0  501    0  0.00000000000E+00  0.00000000000E+00 -0.21317520155E+04  0.21317520155E+04  0.50400001928E-02 0.  1.
    10030    2    1    2    0    0  0.00000000000E+00  0.00000000000E+00 -0.63148368080E+03  0.36320203502E+04  0.35767024177E+04 0.  0.
        5    1    3    3  502    0  0.97350545698E+02  0.14704115042E+04 -0.13446204930E+04  0.19948968596E+04  0.46999998093E+01 0.  1.
       -5    1    3    3    0  502 -0.97350545698E+02 -0.14704115042E+04  0.71313681223E+03  0.16371234905E+04  0.46999998093E+01 0. -1.
</event>
<event>
 5   0  0.6287345E-07  0.3717964E+04  0.7818609E-02  0.8063992E-01
       -1   -1    0    0    0  501  0.00000000000E+00  0.00000000000E+00  0.17606228163E+04  0.17606228163E+04  0.50400001928E-02 0.  1.
        1   -1    0    0  501    0  0.00000000000E+00  0.00000000000E+00 -0.19628366141E+04  0.19628366141E+04  0.50400001928E-02 0. -1.
    10030    2    1    2    0    0  0.00000000000E+00  0.00000000000E+00 -0.20221379778E+03  0.37234594304E+04  0.37179644579E+04 0.  0.
        5    1    3    3  502    0 -0.18080080051E+04 -0.41733981253E+03  0.11875492467E+02  0.18555938626E+04  0.46999998093E+01 0.  1.
       -5    1    3    3    0  502  0.18080080051E+04  0.41733981253E+03 -0.21408929025E+03  0.18678655679E+04  0.46999998093E+01 0. -1.
</event>
<event>
 5   0  0.6261598E-07  0.3696464E+04  0.7818609E-02  0.8068746E-01
        1   -1    0    0  501    0  0.00000000000E+00  0.00000000000E+00  0.15567418668E+04  0.15567418668E+04  0.50400001928E-02 0. -1.
       -1   -1    0    0    0  501  0.00000000000E+00  0.00000000000E+00 -0.21943016982E+04  0.21943016982E+04  0.50400001928E-02 0.  1.
    10030    2    1    2    0    0  0.00000000000E+00  0.00000000000E+00 -0.63755983144E+03  0.37510435650E+04  0.36964638897E+04 0.  0.
        1    1    3    3  502    0 -0.88339648050E+03  0.92445035676E+02 -0.19635220459E+04  0.21550763910E+04  0.50400001928E-02 0.  1.
       -1    1    3    3    0  502  0.88339648050E+03 -0.92445035676E+02  0.13259622144E+04  0.15959671740E+04  0.50400001928E-02 0. -1.
</event>
<event>
 5   0  0.1724503E-06  0.3675019E+04  0.7818609E-02  0.8073520E-01
       -2   -1    0    0    0  501  0.00000000000E+00  0.00000000000E+00  0.16935032673E+04  0.16935032673E+04  0.25500000920E-02 0.  1.
        2   -1    0    0  501    0  0.00000000000E+00  0.00000000000E+00 -0.19937615577E+04  0.19937615577E+04  0.25500000920E-02 0. -1.
    10030    2    1    2    0    0  0.00000000000E+00  0.00000000000E+00 -0.30025829037E+03  0.36872648249E+04  0.36750192990E+04 0.  0.
        1    1    3    3  502    0  0.12783258747E+04 -0.71423505912E+03 -0.12638697826E+04  0.19343256161E+04  0.50400001928E-02 0. -1.
       -1    1    3    3    0  502 -0.12783258747E+04  0.71423505912E+03  0.96361149227E+03  0.17529392088E+04  0.50400001928E-02 0.  1.
</event>
<event>
 5   0  0.1151180E-06  0.3107332E+04  0.7818609E-02  0.8213728E-01
       -2   -1    0    0    0  501  0.00000000000E+00  0.00000000000E+00  0.13121633189E+04  0.13121633189E+04  0.25500000920E-02 0.  1.
        2   -1    0    0  501    0  0.00000000000E+00  0.00000000000E+00 -0.18396174713E+04  0.18396174713E+04  0.25500000920E-02 0. -1.
    10030    2    1    2    0    0  0.00000000000E+00  0.00000000000E+00 -0.52745415240E+03  0.31517807902E+04  0.31073323392E+04 0.  0.
        5    1    3    3  502    0 -0.46987197560E+03  0.12804926364E+04  0.49083317525E+03  0.14496138662E+04  0.46999998093E+01 0.  1.
       -5    1    3    3    0  502  0.46987197560E+03 -0.12804926364E+04 -0.10182873277E+04  0.17021669239E+04  0.46999998093E+01 0. -1.
</event>
<event>
 5   0  0.6261598E-07  0.1953832E+04  0.7818609E-02  0.8628515E-01
       -1   -1    0    0    0  501  0.00000000000E+00  0.00000000000E+00  0.57205326877E+03  0.57205326879E+03  0.50400001928E-02 0. -1.
        1   -1    0    0  501    0  0.00000000000E+00  0.00000000000E+00 -0.16683143299E+04  0.16683143300E+04  0.50400001928E-02 0.  1.
    10030    2    1    2    0    0  0.00000000000E+00  0.00000000000E+00 -0.10962610612E+04  0.22403675987E+04  0.19538317899E+04 0.  0.
        1    1    3    3  502    0  0.47628256362E+03 -0.84608119342E+03 -0.67198075886E+03  0.11807864356E+04  0.50400001928E-02 0. -1.
       -1    1    3    3    0  502 -0.47628256362E+03  0.84608119342E+03 -0.42428030232E+03  0.10595811631E+04  0.50400001928E-02 0.  1.
</event>
<event>
 5   0  0.6287345E-07  0.2745255E+04  0.7818609E-02  0.8320469E-01
        1   -1    0    0  501    0  0.00000000000E+00  0.00000000000E+00  0.12912741023E+04  0.12912741023E+04  0.50400001928E-02 0.  1.
       -1   -1    0    0    0  501  0.00000000000E+00  0.00000000000E+00 -0.14591067978E+04  0.14591067978E+04  0.50400001928E-02 0. -1.
    10030    2    1    2    0    0  0.00000000000E+00  0.00000000000E+00 -0.16783269552E+03  0.27503809001E+04  0.27452554128E+04 0.  0.
        5    1    3    3  502    0  0.43971072691E+01 -0.98750006951E+03 -0.10390635125E+04  0.14334750764E+04  0.46999998093E+01 0. -1.
       -5    1    3    3    0  502 -0.43971072691E+01  0.98750006951E+03  0.87123081696E+03  0.13169058236E+04  0.46999998093E+01 0.  1.
</event>
<event>
 5   0  0.1151180E-06  0.2748201E+04  0.7818609E-02  0.8319533E-01
        2   -1    0    0  501    0  0.00000000000E+00  0.00000000000E+00  0.17773607050E+04  0.17773607050E+04  0.25500000920E-02 0. -1.
       -2   -1    0    0    0  501  0.00000000000E+00  0.00000000000E+00 -0.10623347971E+04  0.10623347971E+04  0.25500000920E-02 0.  1.
    10030    2    1    2    0    0  0.00000000000E+00  0.00000000000E+00  0.71502590790E+03  0.28396955021E+04  0.27482009562E+04 0.  0.
        5    1    3    3  502    0  0.12413888180E+04  0.41456039304E+03  0.79004618919E+03  0.15287581849E+04  0.46999998093E+01 0. -1.
       -5    1    3    3    0  502 -0.12413888180E+04 -0.41456039304E+03 -0.75020281292E+02  0.13109373172E+04  0.46999998093E+01 0.  1.
</event>
<event>
 5   0  0.6261598E-07  0.2081881E+04  0.7818609E-02  0.8569267E-01
       -1   -1    0    0    0  501  0.00000000000E+00  0.00000000000E+00  0.54988608910E+03  0.54988608913E+03  0.50400001928E-02 0.  1.
        1   -1    0    0  501    0  0.00000000000E+00  0.00000000000E+00 -0.19705129122E+04  0.19705129122E+04  0.50400001928E-02 0. -1.
    10030    2    1    2    0    0  0.00000000000E+00  0.00000000000E+00 -0.14206268231E+04  0.25203990013E+04  0.20818814941E+04 0.  0.
        1    1    3    3  502    0  0.12525565035E+03  0.55803070038E+03 -0.17632670829E+04  0.18536984777E+04  0.50400001928E-02 0. -1.
       -1    1    3    3    0  502 -0.12525565035E+03 -0.55803070038E+03  0.34264025983E+03  0.66670052362E+03  0.50400001928E-02 0.  1.
</event>
<event>
 5   0  0.1151180E-06  0.2132746E+04  0.7818609E-02  0.8546954E-01
       -2   -1    0    0    0  501  0.00000000000E+00  0.00000000000E+00  0.39465761815E+03  0.39465761816E+03  0.25500000920E-02 0. -1.
        2   -1    0    0  501    0  0.00000000000E+00  0.00000000000E+00 -0.28813614824E+04  0.28813614824E+04  0.25500000920E-02 0.  1.
    10030    2    1    2    0    0  0.00000000000E+00  0.00000000000E+00 -0.24867038642E+04  0.32760191006E+04  0.21327458918E+04 0.  0.
        5    1    3    3  502    0  0.80601186694E+03 -0.20389722772E+03 -0.22690653296E+04  0.24165903188E+04  0.46999998093E+01 0.  1.
       -5    1    3    3    0  502 -0.80601186694E+03  0.20389722772E+03 -0.21763853467E+03  0.85942878175E+03  0.46999998093E+01 0. -1.
</event>
<event>
 5   0  0.1724503E-06  0.3814419E+04  0.7818609E-02  0.8043068E-01
       -2   -1    0    0    0  501  0.00000000000E+00  0.00000000000E+00  0.33525901527E+04  0.33525901527E+04  0.25500000920E-02 0. -1.
        2   -1    0    0  501    0  0.00000000000E+00  0.00000000000E+00 -0.10849666760E+04  0.10849666760E+04  0.25500000920E-02 0.  1.
    10030    2    1    2    0    0  0.00000000000E+00  0.00000000000E+00  0.22676234767E+04  0.44375568287E+04  0.38144192712E+04 0.  0.
        1    1    3    3  502    0  0.34716308353E+03 -0.67296773253E+03 -0.90258678399E+03  0.11781641135E+04  0.50400001928E-02 0.  1.
       -1    1    3    3    0  502 -0.34716308353E+03  0.67296773253E+03  0.31702102607E+04  0.32593927153E+04  0.50400001928E-02 0. -1.
</event>
<event>
 5   0  0.5679750E-07  0.1898083E+04  0.7818609E-02  0.8655811E-01
       -1   -1    0    0    0  501  0.00000000000E+00  0.00000000000E+00  0.59323599573E+03  0.59323599575E+03  0.50400001928E-02 0. -1.
        1   -1    0    0  501    0  0.00000000000E+00  0.00000000000E+00 -0.15182484263E+04  0.15182484263E+04  0.50400001928E-02 0.  1.
    10030    2    1    2    0    0  0.00000000000E+00  0.00000000000E+00 -0.92501243059E+03  0.21114844221E+04  0.18980828401E+04 0.  0.
        4    1    3    3  502    0  0.34955168493E+03 -0.50315591247E+03 -0.12687884001E+04  0.14089634026E+04  0.12699999809E+01 0.  1.
       -4    1    3    3    0  502 -0.34955168493E+03  0.50315591247E+03  0.34377596953E+03  0.70252101948E+03  0.12699999809E+01 0. -1.
</event>
<event>
 5   0  0.1680194E-06  0.3664342E+04  0.7818609E-02  0.8075910E-01
       -2   -1    0    0    0  501  0.00000000000E+00  0.00000000000E+00  0.19183828116E+04  0.19183828116E+04  0.25500000920E-02 0.  1.
        2   -1    0    0  501    0  0.00000000000E+00  0.00000000000E+00 -0.17498336733E+04  0.17498336733E+04  0.25500000920E-02 0. -1.
    10030    2    1    2    0    0  0.00000000000E+00  0.00000000000E+00  0.16854913824E+03  0.36682164849E+04  0.36643421467E+04 0.  0.
        2    1    3    3  502    0  0.10064571971E+03  0.91901432888E+03 -0.14992113936E+04  0.17613493975E+04  0.25500000920E-02 0. -1.
       -2    1    3    3    0  502 -0.10064571971E+03 -0.91901432888E+03  0.16677605318E+04  0.19068670874E+04  0.25500000920E-02 0.  1.
</event>
<event>
 5   0  0.1151180E-06  0.2033143E+04  0.7818609E-02  0.8591280E-01
        2   -1    0    0  501    0  0.00000000000E+00  0.00000000000E+00  0.89747965062E+03  0.89747965063E+03  0.25500000920E-02 0.  1.
       -2   -1    0    0    0  501  0.00000000000E+00  0.00000000000E+00 -0.11514666211E+04  0.11514666211E+04  0.25500000920E-02 0. -1.
    10030    2    1    2    0    0  0.00000000000E+00  0.00000000000E+00 -0.25398697049E+03  0.20489462717E+04  0.20331432422E+04 0.  0.
        5    1    3    3  502    0 -0.67950320629E+03 -0.75059871996E+03 -0.35332000318E+02  0.10131107965E+04  0.46999998093E+01 0. -1.
       -5    1    3    3    0  502  0.67950320629E+03  0.75059871996E+03 -0.21865497018E+03  0.10358354752E+04  0.46999998093E+01 0.  1.
</event>
<event>
 5   0  0.1151180E-06  0.3722846E+04  0.7818609E-02  0.8062918E-01
        2   -1    0    0  501    0  0.00000000000E+00  0.00000000000E+00  0.25729186858E+04  0.25729186858E+04  0.25500000920E-02 0.  1.
       -2   -1    0    0    0  501  0.00000000000E+00  0.00000000000E+00 -0.13466788547E+04  0.13466788547E+04  0.25500000920E-02 0. -1.
    10030    2    1    2    0    0  0.00000000000E+00  0.00000000000E+00  0.12262398311E+04  0.39195975405E+04  0.37228457874E+04 0.  0.
        5    1    3    3  502    0  0.42318418514E+03 -0.11795053994E+03  0.25175491614E+04  0.25555964185E+04  0.46999998093E+01 0.  1.
       -5    1    3    3    0  502 -0.42318418514E+03  0.11795053994E+03 -0.12913093303E+04  0.13640011220E+04  0.46999998093E+01 0. -1.
</event>
<event>
 5   0  0.1680194E-06  0.1921597E+04  0.7818609E-02  0.8644180E-01
       -2   -1    0    0    0  501  0.00000000000E+00  0.00000000000E+00  0.51827054796E+03  0.51827054796E+03  0.25500000920E-02 0.  1.
        2   -1    0    0  501    0  0.00000000000E+00  0.00000000000E+00 -0.17811811991E+04  0.17811811991E+04  0.25500000920E-02 0. -1.
    10030    2    1    2    0    0  0.00000000000E+00  0.00000000000E+00 -0.12629106512E+04  0.22994517471E+04  0.19215969984E+04 0.  0.
        2    1    3    3  502    0  0.34439807002E+03  0.31687742289E+03 -0.16355692571E+04  0.17012078434E+04  0.25500000920E-02 0. -1.
       -2    1    3    3    0  502 -0.34439807002E+03 -0.31687742289E+03  0.37265860589E+03  0.59824390370E+03  0.25500000920E-02 0.  1.
</event>
<event>
 5   0  0.1685793E-06  0.3672961E+04  0.7818609E-02  0.8073981E-01
       -2   -1    0    0    0  501  0.00000000000E+00  0.00000000000E+00  0.20533028069E+04  0.20533028069E+04  0.25500000920E-02 0. -1.
        2   -1    0    0  501    0  0.00000000000E+00  0.00000000000E+00 -0.16425535641E+04  0.16425535641E+04  0.25500000920E-02 0.  1.
    10030    2    1    2    0    0  0.00000000000E+00  0.00000000000E+00  0.41074924282E+03  0.36958563710E+04  0.36729605736E+04 0.  0.
        3    1    3    3  502    0 -0.75883552993E+03 -0.87350360514E+03 -0.12296358410E+04  0.16884443199E+04  0.10100000352E+00 0.  1.
       -3    1    3    3    0  502  0.75883552993E+03  0.87350360514E+03  0.16403850838E+04  0.20074120512E+04  0.10100000352E+00 0. -1.
</event>
<event>
 5   0  0.6186440E-07  0.2033669E+04  0.7818609E-02  0.8591039E-01
        1   -1    0    0  501    0  0.00000000000E+00  0.00000000000E+00  0.70733442633E+03  0.70733442635E+03  0.50400001928E-02 0.  1.
       -1   -1    0    0    0  501  0.00000000000E+00  0.00000000000E+00 -0.14617586441E+04  0.14617586441E+04  0.50400001928E-02 0. -1.
    10030    2    1    2    0    0  0.00000000000E+00  0.00000000000E+00 -0.75442421776E+03  0.21690930704E+04  0.20336688147E+04 0.  0.
        3    1    3    3  502    0  0.19823881549E+03  0.11773116801E+03 -0.14335105157E+04  0.14519337673E+04  0.10100000352E+00 0. -1.
       -3    1    3    3    0  502 -0.19823881549E+03 -0.11773116801E+03  0.67908629791E+03  0.71715930315E+03  0.10100000352E+00 0.  1.
</event>
<event>
 5   0  0.6186440E-07  0.3727509E+04  0.7818609E-02  0.8061893E-01
       -1   -1    0    0    0  501  0.00000000000E+00  0.00000000000E+00  0.22764098665E+04  0.22764098665E+04  0.50400001928E-02 0.  1.
        1   -1    0    0  501    0  0.00000000000E+00  0.00000000000E+00 -0.15259031057E+04  0.15259031057E+04  0.50400001928E-02 0. -1.
    10030    2    1    2    0    0  0.00000000000E+00  0.00000000000E+00  0.75050676072E+03  0.38023129722E+04  0.37275090262E+04 0.  0.
        3    1    3    3  502    0 -0.10344134851E+04 -0.15298619189E+04  0.11903119072E+03  0.18505829308E+04  0.10100000352E+00 0.  1.
       -3    1    3    3    0  502  0.10344134851E+04  0.15298619189E+04  0.63147557000E+03  0.19517300415E+04  0.10100000352E+00 0. -1.
</event>
<event>
 5   0  0.1724503E-06  0.3710783E+04  0.7818609E-02  0.8065576E-01
       -2   -1    0    0    0  501  0.00000000000E+00  0.00000000000E+00  0.36650528627E+04  0.36650528627E+04  0.25500000920E-02 0. -1.
        2   -1    0    0  501    0  0.00000000000E+00  0.00000000000E+00 -0.93927104932E+03  0.93927104932E+03  0.25500000920E-02 0.  1.
    10030    2    1    2    0    0  0.00000000000E+00  0.00000000000E+00  0.27257818134E+04  0.46043239120E+04  0.37107832317E+04 0.  0.
        1    1    3    3  502    0  0.82550700768E+03 -0.14407618485E+04  0.23899981250E+04  0.29102143497E+04  0.50400001928E-02 0. -1.
       -1    1    3    3    0  502 -0.82550700768E+03  0.14407618485E+04  0.33578368839E+03  0.16941095623E+04  0.50400001928E-02 0.  1.
</event>
<event>
 5   0  0.5875011E-07  0.3912963E+04  0.7818609E-02  0.8022338E-01
       -1   -1    0    0    0  501  0.00000000000E+00  0.00000000000E+00  0.15805641389E+04  0.15805641389E+04  0.50400001928E-02 0. -1.
        1   -1    0    0  501    0  0.00000000000E+00  0.00000000000E+00 -0.24218066144E+04  0.24218066144E+04  0.50400001928E-02 0.  1.
    10030    2    1    2    0    0  0.00000000000E+00  0.00000000000E+00 -0.84124247551E+03  0.40023707533E+04  0.39129634223E+04 0.  0.
        2    1    3    3  502    0  0.16013604883E+02 -0.67573373117E+03  0.14573440737E+04  0.16064632769E+04  0.25500000920E-02 0. -1.
       -2    1    3    3    0  502 -0.16013604883E+02  0.67573373117E+03 -0.22985865492E+04  0.23959074764E+04  0.25500000920E-02 0.  1.
</event>
<event>
 5   0  0.1151180E-06  0.3691652E+04  0.7818609E-02  0.8069814E-01
       -2   -1    0    0    0  501  0.00000000000E+00  0.00000000000E+00  0.17681896719E+04  0.17681896720E+04  0.25500000920E-02 0. -1.
        2   -1    0    0  501    0  0.00000000000E+00  0.00000000000E+00 -0.19268707101E+04  0.19268707101E+04  0.25500000920E-02 0.  1.
    10030    2    1    2    0    0  0.00000000000E+00  0.00000000000E+00 -0.15868103820E+03  0.36950603821E+04  0.36916516027E+04 0.  0.
        5    1    3    3  502    0  0.33032348248E+03 -0.18055848125E+04 -0.27394401659E+03  0.18558872629E+04  0.46999998093E+01 0. -1.
       -5    1    3    3    0  502 -0.33032348248E+03  0.18055848125E+04  0.11526297839E+03  0.18391731192E+04  0.46999998093E+01 0.  1.
</event>
<event>
 5   0  0.1184684E-06  0.3785078E+04  0.7818609E-02  0.8049365E-01
       -2   -1    0    0    0  501  0.00000000000E+00  0.00000000000E+00  0.17327393511E+04  0.17327393511E+04  0.25500000920E-02 0.  1.
        2   -1    0    0  501    0  0.00000000000E+00  0.00000000000E+00 -0.20670758290E+04  0.20670758290E+04  0.25500000920E-02 0. -1.
    10030    2    1    2    0    0  0.00000000000E+00  0.00000000000E+00 -0.33433647787E+03  0.37998151801E+04  0.37850778753E+04 0.  0.
        4    1    3    3  502    0 -0.55355145900E+02 -0.11499212377E+04 -0.16751215729E+04  0.20325887291E+04  0.12699999809E+01 0. -1.
       -4    1    3    3    0  502  0.55355145900E+02  0.11499212377E+04  0.13407850950E+04  0.17672264509E+04  0.12699999809E+01 0.  1.
</event>
<event>
 5   0  0.1680194E-06  0.3667399E+04  0.7818609E-02  0.8075225E-01
       -2   -1    0    0    0  501  0.00000000000E+00  0.00000000000E+00  0.12880026503E+04  0.12880026503E+04  0.25500000920E-02 0.  1.
        2   -1    0    0  501    0  0.00000000000E+00  0.00000000000E+00 -0.26105960627E+04  0.26105960627E+04  0.25500000920E-02 0. -1.
    10030    2    1    2    0    0  0.00000000000E+00  0.00000000000E+00 -0.13225934124E+04  0.38985987130E+04  0.36673994316E+04 0.  0.
        2    1    3    3  502    0  0.81939934846E+03  0.23890781172E+03 -0.23865589110E+04  0.25345918153E+04  0.25500000920E-02 0. -1.
       -2    1    3    3    0  502 -0.81939934846E+03 -0.23890781172E+03  0.10639654986E+04  0.13640068977E+04  0.25500000920E-02 0.  1.
</event>
<event>
 5   0  0.1685793E-06  0.2205479E+04  0.7818609E-02  0.8516151E-01
        2   -1    0    0  501    0  0.00000000000E+00  0.00000000000E+00  0.98271349643E+03  0.98271349643E+03  0.25500000920E-02 0.  1.
       -2   -1    0    0    0  501  0.00000000000E+00  0.00000000000E+00 -0.12374255993E+04  0.12374255994E+04  0.25500000920E-02 0. -1.
    10030    2    1    2    0    0  0.00000000000E+00  0.00000000000E+00 -0.25471210292E+03  0.22201390958E+04  0.22054793922E+04 0.  0.
        3    1    3    3  502    0  0.63505000132E+03  0.58505738879E+03 -0.81781179067E+03  0.11892841492E+04  0.10100000352E+00 0. -1.
       -3    1    3    3    0  502 -0.63505000132E+03 -0.58505738879E+03  0.56309968775E+03  0.10308549466E+04  0.10100000352E+00 0.  1.
</event>
<event>
 5   0  0.1151180E-06  0.3457441E+04  0.7818609E-02  0.8123951E-01
        2   -1    0    0  501    0  0.00000000000E+00  0.00000000000E+00  0.27324170670E+04  0.27324170670E+04  0.25500000920E-02 0.  1.
       -2   -1    0    0    0  501  0.00000000000E+00  0.00000000000E+00 -0.10937107154E+04  0.10937107154E+04  0.25500000920E-02 0. -1.
    10030    2    1    2    0    0  0.00000000000E+00  0.00000000000E+00  0.16387063516E+04  0.38261277825E+04  0.34574405709E+04 0.  0.
        5    1    3    3  502    0  0.19179974714E+03  0.15769688163E+04  0.64862870240E+02  0.15899204611E+04  0.46999998093E+01 0. -1.
       -5    1    3    3    0  502 -0.19179974714E+03 -0.15769688163E+04  0.15738434814E+04  0.22362073214E+04  0.46999998093E+01 0.  1.
</event>
<event>
 5   0  0.1184684E-06  0.3127938E+04  0.7818609E-02  0.8208112E-01
        2   -1    0    0  501    0  0.00000000000E+00  0.00000000000E+00  0.15831782507E+04  0.15831782507E+04  0.25500000920E-02 0. -1.
       -2   -1    0    0    0  501  0.00000000000E+00  0.00000000000E+00 -0.15449925988E+04  0.15449925988E+04  0.25500000920E-02 0.  1.
    10030    2    1    2    0    0  0.00000000000E+00  0.00000000000E+00  0.38185651914E+02  0.31281708495E+04  0.31279377742E+04 0.  0.
        4    1    3    3  502    0  0.44269024832E+02  0.12202883128E+04  0.99637276086E+03  0.15760151029E+04  0.12699999809E+01 0. -1.
       -4    1    3    3    0  502 -0.44269024832E+02 -0.12202883128E+04 -0.95818710895E+03  0.15521557466E+04  0.12699999809E+01 0.  1.
</event>
<event>
 5   0  0.1724503E-06  0.1852380E+04  0.7818609E-02  0.8678930E-01
       -2   -1    0    0    0  501  0.00000000000E+00  0.00000000000E+00  0.66670403576E+03  0.66670403576E+03  0.25500000920E-02 0.  1.
        2   -1    0    0  501    0  0.00000000000E+00  0.00000000000E+00 -0.12866700816E+04  0.12866700816E+04  0.25500000920E-02 0. -1.
    10030    2    1    2    0    0  0.00000000000E+00  0.00000000000E+00 -0.61996604586E+03  0.19533741174E+04  0.18523802375E+04 0.  0.
        1    1    3    3  502    0 -0.89125740049E+03  0.14344920094E+03 -0.52842602408E+03  0.10460169646E+04  0.50400001928E-02 0. -1.
       -1    1    3    3    0  502  0.89125740049E+03 -0.14344920094E+03 -0.91540021783E+02  0.90735715283E+03  0.50400001928E-02 0.  1.
</event>
<event>
 5   0  0.6261598E-07  0.3425451E+04  0.7818609E-02  0.8131688E-01
        1   -1    0    0  501    0  0.00000000000E+00  0.00000000000E+00  0.19269313231E+04  0.19269313231E+04  0.50400001928E-02 0.  1.
       -1   -1    0    0    0  501  0.00000000000E+00  0.00000000000E+00 -0.15223315981E+04  0.15223315981E+04  0.50400001928E-02 0. -1.
    10030    2    1    2    0    0  0.00000000000E+00  0.00000000000E+00  0.40459972495E+03  0.34492629212E+04  0.34254508845E+04 0.  0.
        1    1    3    3  502    0 -0.10695295598E+04 -0.12565427678E+04 -0.25984067476E+03  0.16704222169E+04  0.50400001928E-02 0. -1.
       -1    1    3    3    0  502  0.10695295598E+04  0.12565427678E+04  0.66444039972E+03  0.17788407043E+04  0.50400001928E-02 0.  1.
</event>
<event>
 5   0  0.1724503E-06  0.3578258E+04  0.7818609E-02  0.8095490E-01
        2   -1    0    0  501    0  0.00000000000E+00  0.00000000000E+00  0.20551225447E+04  0.20551225447E+04  0.25500000920E-02 0. -1.
       -2   -1    0    0    0  501  0.00000000000E+00  0.00000000000E+00 -0.15575631500E+04  0.15575631500E+04  0.25500000920E-02 0.  1.
    10030    2    1    2    0    0  0.00000000000E+00  0.00000000000E+00  0.49755939472E+03  0.36126856947E+04  0.35782583162E+04 0.  0.
        1    1    3    3  502    0 -0.10358024279E+04  0.14549889356E+04  0.35516749072E+03  0.18209951726E+04  0.50400001928E-02 0. -1.
       -1    1    3    3    0  502  0.10358024279E+04 -0.14549889356E+04  0.14239190400E+03  0.17916905220E+04  0.50400001928E-02 0.  1.
</event>
<event>
 5   0  0.1151180E-06  0.3461581E+04  0.7818609E-02  0.8122956E-01
       -2   -1    0    0    0  501  0.00000000000E+00  0.00000000000E+00  0.14442921383E+04  0.14442921383E+04  0.25500000920E-02 0.  1.
        2   -1    0    0  501    0  0.00000000000E+00  0.00000000000E+00 -0.20741200953E+04  0.20741200953E+04  0.25500000920E-02 0. -1.
    10030    2    1    2    0    0  0.00000000000E+00  0.00000000000E+00 -0.62982795703E+03  0.35184122336E+04  0.34615807647E+04 0.  0.
        5    1    3    3  502    0  0.18387396659E+03  0.44693610414E+01 -0.20641520403E+04  0.20723357223E+04  0.46999998093E+01 0. -1.
       -5    1    3    3    0  502 -0.18387396659E+03 -0.44693610414E+01  0.14343240832E+04  0.14460765113E+04  0.46999998093E+01 0.  1.
</event>
<event>
 5   0  0.5679750E-07  0.2435111E+04  0.7818609E-02  0.8426474E-01
        3   -1    0    0  501    0  0.00000000000E+00  0.00000000000E+00  0.15451377717E+04  0.15451377750E+04  0.10100000352E+00 0. -1.
       -3   -1    0    0    0  501  0.00000000000E+00  0.00000000000E+00 -0.95942304485E+03  0.95942305017E+03  0.10100000352E+00 0.  1.
    10030    2    1    2    0    0  0.00000000000E+00  0.00000000000E+00  0.58571472684E+03  0.25045608252E+04  0.24351105079E+04 0.  0.
        4    1    3    3  502    0 -0.88823496412E+03  0.30074372328E+03 -0.50584090707E+03  0.10654974307E+04  0.12699999809E+01 0.  1.
       -4    1    3    3    0  502  0.88823496412E+03 -0.30074372328E+03  0.10915556339E+04  0.14390633945E+04  0.12699999809E+01 0. -1.
</event>
<event>
 5   0  0.5679750E-07  0.3800368E+04  0.7818609E-02  0.8046076E-01
        1   -1    0    0  501    0  0.00000000000E+00  0.00000000000E+00  0.20872498620E+04  0.20872498620E+04  0.50400001928E-02 0. -1.
       -1   -1    0    0    0  501  0.00000000000E+00  0.00000000000E+00 -0.17298838891E+04  0.17298838891E+04  0.50400001928E-02 0.  1.
    10030    2    1    2    0    0  0.00000000000E+00  0.00000000000E+00  0.35736597288E+03  0.38171337511E+04  0.38003683552E+04 0.  0.
        4    1    3    3  502    0  0.89870654284E+02  0.13939437439E+04  0.14725983245E+04  0.20297052332E+04  0.12699999809E+01 0. -1.
       -4    1    3    3    0  502 -0.89870654284E+02 -0.13939437439E+04 -0.11152323516E+04  0.17874285179E+04  0.12699999809E+01 0.  1.
</event>
<event>
 5   0  0.1184684E-06  0.3419413E+04  0.7818609E-02  0.8133158E-01
       -2   -1    0    0    0  501  0.00000000000E+00  0.00000000000E+00  0.13130892227E+04  0.13130892227E+04  0.25500000920E-02 0.  1.
        2   -1    0    0  501    0  0.00000000000E+00  0.00000000000E+00 -0.22261211442E+04  0.22261211442E+04  0.25500000920E-02 0. -1.
    10030    2    1    2    0    0  0.00000000000E+00  0.00000000000E+00 -0.91303192144E+03  0.35392103669E+04  0.34194126296E+04 0.  0.
        4    1    3    3  502    0  0.35220969277E+03  0.16591925637E+04 -0.67880139089E+03  0.18269495265E+04  0.12699999809E+01 0.  1.
       -4    1    3    3    0  502 -0.35220969277E+03 -0.16591925637E+04 -0.23423053055E+03  0.17122608404E+04  0.12699999809E+01 0. -1.
</event>
<event>
 5   0  0.1184684E-06  0.3749753E+04  0.7818609E-02  0.8057025E-01
       -2   -1    0    0    0  501  0.00000000000E+00  0.00000000000E+00  0.10507131021E+04  0.10507131021E+04  0.25500000920E-02 0. -1.
        2   -1    0    0  501    0  0.00000000000E+00  0.00000000000E+00 -0.33455005813E+04  0.33455005813E+04  0.25500000920E-02 0.  1.
    10030    2    1    2    0    0  0.00000000000E+00  0.00000000000E+00 -0.22947874792E+04  0.43962136834E+04  0.37497526818E+04 0.  0.
        4    1    3    3  502    0  0.19822875397E+03 -0.10356041333E+04 -0.29649514729E+04  0.31468570685E+04  0.12699999809E+01 0.  1.
       -4    1    3    3    0  502 -0.19822875397E+03  0.10356041333E+04  0.67016399371E+03  0.12493566149E+04  0.12699999809E+01 0. -1.
</event>
<event>
 5   0  0.1184684E-06  0.2161633E+04  0.7818609E-02  0.8534569E-01
       -2   -1    0    0    0  501  0.00000000000E+00  0.00000000000E+00  0.10467767781E+04  0.10467767781E+04  0.25500000920E-02 0. -1.
        2   -1    0    0  501    0  0.00000000000E+00  0.00000000000E+00 -0.11159627417E+04  0.11159627417E+04  0.25500000920E-02 0.  1.
    10030    2    1    2    0    0  0.00000000000E+00  0.00000000000E+00 -0.69185963606E+02  0.21627395197E+04  0.21616326082E+04 0.  0.
        4    1    3    3  502    0 -0.68617490192E+03 -0.70843236896E+03  0.40773051172E+03  0.10672198464E+04  0.12699999809E+01 0. -1.
       -4    1    3    3    0  502  0.68617490192E+03  0.70843236896E+03 -0.47691647532E+03  0.10955196734E+04  0.12699999809E+01 0.  1.
</event>
<event>
 5   0  0.6287345E-07  0.3712721E+04  0.7818609E-02  0.8065149E-01
        1   -1    0    0  501    0  0.00000000000E+00  0.00000000000E+00  0.19783796280E+04  0.19783796280E+04  0.50400001928E-02 0. -1.
       -1   -1    0    0    0  501  0.00000000000E+00  0.00000000000E+00 -0.17418667670E+04  0.17418667671E+04  0.50400001928E-02 0.  1.
    10030    2    1    2    0    0  0.00000000000E+00  0.00000000000E+00  0.23651286090E+03  0.37202463950E+04  0.37127206879E+04 0.  0.
        5    1    3    3  502    0  0.79433321668E+03  0.14345258621E+04  0.99020529732E+03  0.19155569240E+04  0.46999998093E+01 0. -1.
       -5    1    3    3    0  502 -0.79433321668E+03 -0.14345258621E+04 -0.75369243641E+03  0.18046894710E+04  0.46999998093E+01 0.  1.
</event>
<event>
 5   0  0.5679750E-07  0.3484849E+04  0.7818609E-02  0.8117390E-01
        1   -1    0    0  501    0  0.00000000000E+00  0.00000000000E+00  0.22675546136E+04  0.22675546136E+04  0.50400001928E-02 0.  1.
       -1   -1    0    0    0  501  0.00000000000E+00  0.00000000000E+00 -0.13389065115E+04  0.13389065115E+04  0.50400001928E-02 0. -1.
    10030    2    1    2    0    0  0.00000000000E+00  0.00000000000E+00  0.92864810204E+03  0.36064611251E+04  0.34848492865E+04 0.  0.
        4    1    3    3  502    0  0.14102393278E+02 -0.10556224329E+03 -0.13355345623E+04  0.13397747738E+04  0.12699999809E+01 0. -1.
       -4    1    3    3    0  502 -0.14102393278E+02  0.10556224329E+03  0.22641826643E+04  0.22666863513E+04  0.12699999809E+01 0.  1.
</event>
<event>
 5   0  0.6287345E-07  0.3750152E+04  0.7818609E-02  0.8056937E-01
       -1   -1    0    0    0  501  0.00000000000E+00  0.00000000000E+00  0.13527155340E+04  0.13527155340E+04  0.50400001928E-02 0. -1.
        1   -1    0    0  501    0  0.00000000000E+00  0.00000000000E+00 -0.25991500896E+04  0.25991500896E+04  0.50400001928E-02 0.  1.
    10030    2    1    2    0    0  0.00000000000E+00  0.00000000000E+00 -0.12464345556E+04  0.39518656235E+04  0.37501523709E+04 0.  0.
        5    1    3    3  502    0 -0.90522498849E+03  0.15733974096E+04 -0.11184717738E+04  0.21321381022E+04  0.46999998093E+01 0.  1.
       -5    1    3    3    0  502  0.90522498849E+03 -0.15733974096E+04 -0.12796278183E+03  0.18197275213E+04  0.46999998093E+01 0. -1.
</event>
<event>
 5   0  0.1685793E-06  0.3769563E+04  0.7818609E-02  0.8052718E-01
       -2   -1    0    0    0  501  0.00000000000E+00  0.00000000000E+00  0.30816802356E+04  0.30816802356E+04  0.25500000920E-02 0. -1.
        2   -1    0    0  501    0  0.00000000000E+00  0.00000000000E+00 -0.11527481942E+04  0.11527481942E+04  0.25500000920E-02 0.  1.
    10030    2    1    2    0    0  0.00000000000E+00  0.00000000000E+00  0.19289320414E+04  0.42344284298E+04  0.37695630127E+04 0.  0.
        3    1    3    3  502    0  0.40364452197E+03  0.98529169682E+03  0.27114637468E+04  0.29130335199E+04  0.10100000352E+00 0. -1.
       -3    1    3    3    0  502 -0.40364452197E+03 -0.98529169682E+03 -0.78253170534E+03  0.13213949099E+04  0.10100000352E+00 0.  1.
</event>
<event>
 5   0  0.6287345E-07  0.1842013E+04  0.7818609E-02  0.8684271E-01
        1   -1    0    0  501    0  0.00000000000E+00  0.00000000000E+00  0.13938805157E+04  0.13938805157E+04  0.50400001928E-02 0. -1.
       -1   -1    0    0    0  501  0.00000000000E+00  0.00000000000E+00 -0.60855492637E+03  0.60855492639E+03  0.50400001928E-02 0.  1.
    10030    2    1    2    0    0  0.00000000000E+00  0.00000000000E+00  0.78532558931E+03  0.20024354421E+04  0.18420128714E+04 0.  0.
        5    1    3    3  502    0  0.15831082508E+03  0.22328998392E+03  0.13486293189E+04  0.13761336650E+04  0.46999998093E+01 0. -1.
       -5    1    3    3    0  502 -0.15831082508E+03 -0.22328998392E+03 -0.56330372955E+03  0.62630177708E+03  0.46999998093E+01 0.  1.
</event>
<event>
 5   0  0.6287345E-07  0.2084879E+04  0.7818609E-02  0.8567934E-01
       -1   -1    0    0    0  501  0.00000000000E+00  0.00000000000E+00  0.61346722844E+03  0.61346722846E+03  0.50400001928E-02 0.  1.
        1   -1    0    0  501    0  0.00000000000E+00  0.00000000000E+00 -0.17713737428E+04  0.17713737429E+04  0.50400001928E-02 0. -1.
    10030    2    1    2    0    0  0.00000000000E+00  0.00000000000E+00 -0.11579065144E+04  0.23848409713E+04  0.20848786445E+04 0.  0.
        5    1    3    3  502    0 -0.18400609680E+03  0.11515738280E+03 -0.17452226185E+04  0.17586766458E+04  0.46999998093E+01 0. -1.
       -5    1    3    3    0  502  0.18400609680E+03 -0.11515738280E+03  0.58731610406E+03  0.62616432552E+03  0.46999998093E+01 0.  1.
</event>
<event>
 5   0  0.1724503E-06  0.3710237E+04  0.7818609E-02  0.8065697E-01
        2   -1    0    0  501    0  0.00000000000E+00  0.00000000000E+00  0.28573735911E+04  0.28573735911E+04  0.25500000920E-02 0. -1.
       -2   -1    0    0    0  501  0.00000000000E+00  0.00000000000E+00 -0.12044151813E+04  0.12044151813E+04  0.25500000920E-02 0.  1.
    10030    2    1    2    0    0  0.00000000000E+00  0.00000000000E+00  0.16529584098E+04  0.40617887724E+04  0.37102367212E+04 0.  0.
        1    1    3    3  502    0 -0.52482131114E+03  0.17488437044E+04  0.46741989953E+03  0.18847740113E+04  0.50400001928E-02 0.  1.
       -1    1    3    3    0  502  0.52482131114E+03 -0.17488437044E+04  0.11855385102E+04  0.21770147611E+04  0.50400001928E-02 0. -1.
</event>
<event>
 5   0  0.1151180E-06  0.3744998E+04  0.7818609E-02  0.8058062E-01
       -2   -1    0    0    0  501  0.00000000000E+00  0.00000000000E+00  0.11133373969E+04  0.11133373969E+04  0.25500000920E-02 0.  1.
        2   -1    0    0  501    0  0.00000000000E+00  0.00000000000E+00 -0.31493169865E+04  0.31493169865E+04  0.25500000920E-02 0. -1.
    10030    2    1    2    0    0  0.00000000000E+00  0.00000000000E+00 -0.20359795896E+04  0.42626543835E+04  0.37449979311E+04 0.  0.
        5    1    3    3  502    0  0.11702021650E+04  0.12685449380E+04 -0.19118708966E+03  0.17364198685E+04  0.46999998093E+01 0.  1.
       -5    1    3    3    0  502 -0.11702021650E+04 -0.12685449380E+04 -0.18447924999E+04  0.25262345149E+04  0.46999998093E+01 0. -1.
</event>
<event>
 5   0  0.5679750E-07  0.1934852E+04  0.7818609E-02  0.8637700E-01
       -1   -1    0    0    0  501  0.00000000000E+00  0.00000000000E+00  0.75447106796E+03  0.75447106798E+03  0.50400001928E-02 0. -1.
        1   -1    0    0  501    0  0.00000000000E+00  0.00000000000E+00 -0.12404892691E+04  0.12404892691E+04  0.50400001928E-02 0.  1.
    10030    2    1    2    0    0  0.00000000000E+00  0.00000000000E+00 -0.48601820114E+03  0.19949603371E+04  0.19348522049E+04 0.  0.
        4    1    3    3  502    0  0.92830713526E+03  0.12110754383E+03  0.84748023250E+01  0.93621290832E+03  0.12699999809E+01 0. -1.
       -4    1    3    3    0  502 -0.92830713526E+03 -0.12110754383E+03 -0.49449300346E+03  0.10587474288E+04  0.12699999809E+01 0.  1.
</event>
<event>
 5   0  0.1151180E-06  0.3074160E+04  0.7818609E-02  0.8222865E-01
       -2   -1    0    0    0  501  0.00000000000E+00  0.00000000000E+00  0.12109789286E+04  0.12109789286E+04  0.25500000920E-02 0. -1.
        2   -1    0    0  501    0  0.00000000000E+00  0.00000000000E+00 -0.19509963244E+04  0.19509963244E+04  0.25500000920E-02 0.  1.
    10030    2    1    2    0    0  0.00000000000E+00  0.00000000000E+00 -0.74001739578E+03  0.31619752530E+04  0.30741603333E+04 0.  0.
        5    1    3    3  502    0 -0.20223533639E+03 -0.13008352805E+04 -0.11860973442E+04  0.17719820988E+04  0.46999998093E+01 0.  1.
       -5    1    3    3    0  502  0.20223533639E+03  0.13008352805E+04  0.44607994845E+03  0.13899931542E+04  0.46999998093E+01 0. -1.
</event>
<event>
 5   0  0.1685793E-06  0.3639573E+04  0.7818609E-02  0.8081487E-01
        2   -1    0    0  501    0  0.00000000000E+00  0.00000000000E+00  0.20187665054E+04  0.20187665054E+04  0.25500000920E-02 0. -1.
       -2   -1    0    0    0  501  0.00000000000E+00  0.00000000000E+00 -0.16404194113E+04  0.16404194113E+04  0.25500000920E-02 0.  1.
    10030    2    1    2    0    0  0.00000000000E+00  0.00000000000E+00  0.37834709412E+03  0.36591859167E+04  0.36395734708E+04 0.  0.
        3    1    3    3  502    0  0.14651999802E+04  0.74204672234E+03  0.97709263057E+03  0.19110610506E+04  0.10100000352E+00 0. -1.
       -3    1    3    3    0  502 -0.14651999802E+04 -0.74204672234E+03 -0.59874553645E+03  0.17481248662E+04  0.10100000352E+00 0.  1.
</event>
<event>
 5   0  0.1151180E-06  0.3644486E+04  0.7818609E-02  0.8080377E-01
       -2   -1    0    0    0  501  0.00000000000E+00  0.00000000000E+00  0.23481310849E+04  0.23481310849E+04  0.25500000920E-02 0.  1.
        2   -1    0    0  501    0  0.00000000000E+00  0.00000000000E+00 -0.14141328780E+04  0.14141328780E+04  0.25500000920E-02 0. -1.
    10030    2    1    2    0    0  0.00000000000E+00  0.00000000000E+00  0.93399820689E+03  0.37622639629E+04  0.36444859001E+04 0.  0.
        5    1    3    3  502    0 -0.13991150213E+04  0.11650045974E+04  0.54554154852E+03  0.19006304812E+04  0.46999998093E+01 0.  1.
       -5    1    3    3    0  502  0.13991150213E+04 -0.11650045974E+04  0.38845665837E+03  0.18616334817E+04  0.46999998093E+01 0. -1.
</event>
<event>
 5   0  0.1680194E-06  0.3049723E+04  0.7818609E-02  0.8229673E-01
        2   -1    0    0  501    0  0.00000000000E+00  0.00000000000E+00  0.23524298812E+04  0.23524298812E+04  0.25500000920E-02 0. -1.
       -2   -1    0    0    0  501  0.00000000000E+00  0.00000000000E+00 -0.98842562103E+03  0.98842562103E+03  0.25500000920E-02 0.  1.
    10030    2    1    2    0    0  0.00000000000E+00  0.00000000000E+00  0.13640042602E+04  0.33408555023E+04  0.30497225882E+04 0.  0.
        2    1    3    3  502    0  0.15234949762E+04 -0.38092172015E+02  0.62493275954E+03  0.16471274723E+04  0.25500000920E-02 0.  1.
       -2    1    3    3    0  502 -0.15234949762E+04  0.38092172015E+02  0.73907150066E+03  0.16937280299E+04  0.25500000920E-02 0. -1.
</event>
<event>
 5   0  0.6261598E-07  0.3759899E+04  0.7818609E-02  0.8054816E-01
       -1   -1    0    0    0  501  0.00000000000E+00  0.00000000000E+00  0.16896190346E+04  0.16896190346E+04  0.50400001928E-02 0. -1.
        1   -1    0    0  501    0  0.00000000000E+00  0.00000000000E+00 -0.20917205414E+04  0.20917205414E+04  0.50400001928E-02 0.  1.
    10030    2    1    2    0    0  0.00000000000E+00  0.00000000000E+00 -0.40210150683E+03  0.37813395760E+04  0.37598993825E+04 0.  0.
        1    1    3    3  502    0  0.12884619425E+04 -0.11996083438E+04  0.46226805974E+03  0.18201335431E+04  0.50400001928E-02 0. -1.
       -1    1    3    3    0  502 -0.12884619425E+04  0.11996083438E+04 -0.86436956657E+03  0.19612060329E+04  0.50400001928E-02 0.  1.
</event>
<event>
 5   0  0.5679750E-07  0.3634520E+04  0.7818609E-02  0.8082630E-01
        1   -1    0    0  501    0  0.00000000000E+00  0.00000000000E+00  0.18129791196E+04  0.18129791196E+04  0.50400001928E-02 0.  1.
       -1   -1    0    0    0  501  0.00000000000E+00  0.00000000000E+00 -0.18215511173E+04  0.18215511173E+04  0.50400001928E-02 0. -1.
    10030    2    1    2    0    0  0.00000000000E+00  0.00000000000E+00 -0.85719976752E+01  0.36345302368E+04  0.36345201284E+04 0.  0.
        4    1    3    3  502    0 -0.48364865244E+02 -0.95381244646E+03 -0.15503611849E+04  0.18209115189E+04  0.12699999809E+01 0. -1.
       -4    1    3    3    0  502  0.48364865244E+02  0.95381244646E+03  0.15417891872E+04  0.18136187179E+04  0.12699999809E+01 0.  1.
</event>
<event>
 5   0  0.1184684E-06  0.3668103E+04  0.7818609E-02  0.8075068E-01
       -2   -1    0    0    0  501  0.00000000000E+00  0.00000000000E+00  0.14884590471E+04  0.14884590471E+04  0.25500000920E-02 0. -1.
        2   -1    0    0  501    0  0.00000000000E+00  0.00000000000E+00 -0.22598836030E+04  0.22598836030E+04  0.25500000920E-02 0.  1.
    10030    2    1    2    0    0  0.00000000000E+00  0.00000000000E+00 -0.77142455584E+03  0.37483426501E+04  0.36681026127E+04 0.  0.
        4    1    3    3  502    0  0.68485491651E+03  0.73355149394E+03 -0.19544215099E+04  0.21970182298E+04  0.12699999809E+01 0.  1.
       -4    1    3    3    0  502 -0.68485491651E+03 -0.73355149394E+03  0.11829969540E+04  0.15513244203E+04  0.12699999809E+01 0. -1.
</event>
<event>
 5   0  0.1685793E-06  0.1839582E+04  0.7818609E-02  0.8685529E-01
        2   -1    0    0  501    0  0.00000000000E+00  0.00000000000E+00  0.17807009358E+04  0.17807009358E+04  0.25500000920E-02 0. -1.
       -2   -1    0    0    0  501  0.00000000000E+00  0.00000000000E+00 -0.47510273810E+03  0.47510273811E+03  0.25500000920E-02 0.  1.
    10030    2    1    2    0    0  0.00000000000E+00  0.00000000000E+00  0.13055981977E+04  0.22558036739E+04  0.18395824421E+04 0.  0.
        3    1    3    3  502    0 -0.58485963459E+03 -0.17073759652E+03 -0.19216667752E+03  0.63885848291E+03  0.10100000352E+00 0.  1.
       -3    1    3    3    0  502  0.58485963459E+03  0.17073759652E+03  0.14977648752E+04  0.16169451910E+04  0.10100000352E+00 0. -1.
</event>
<event>
 5   0  0.1151180E-06  0.2859642E+04  0.7818609E-02  0.8284988E-01
        2   -1    0    0  501    0  0.00000000000E+00  0.00000000000E+00  0.14635955810E+04  0.14635955810E+04  0.25500000920E-02 0. -1.
       -2   -1    0    0    0  501  0.00000000000E+00  0.00000000000E+00 -0.13968254665E+04  0.13968254665E+04  0.25500000920E-02 0.  1.
    10030    2    1    2    0    0  0.00000000000E+00  0.00000000000E+00  0.66770114455E+02  0.28604210475E+04  0.28596416420E+04 0.  0.
        5    1    3    3  502    0  0.38192080968E+02  0.15694028458E+03  0.14544328851E+04  0.14633816984E+04  0.46999998093E+01 0. -1.
       -5    1    3    3    0  502 -0.38192080968E+02 -0.15694028458E+03 -0.13876627706E+04  0.13970393491E+04  0.46999998093E+01 0.  1.
</event>
<event>
 5   0  0.1151180E-06  0.2143519E+04  0.7818609E-02  0.8542311E-01
       -2   -1    0    0    0  501  0.00000000000E+00  0.00000000000E+00  0.84931034302E+03  0.84931034303E+03  0.25500000920E-02 0.  1.
        2   -1    0    0  501    0  0.00000000000E+00  0.00000000000E+00 -0.13524724556E+04  0.13524724556E+04  0.25500000920E-02 0. -1.
    10030    2    1    2    0    0  0.00000000000E+00  0.00000000000E+00 -0.50316211262E+03  0.22017827987E+04  0.21435193913E+04 0.  0.
        5    1    3    3  502    0  0.36666851353E+03  0.99779977938E+03 -0.11150518680E+03  0.10688805804E+04  0.46999998093E+01 0.  1.
       -5    1    3    3    0  502 -0.36666851353E+03 -0.99779977938E+03 -0.39165692583E+03  0.11329022182E+04  0.46999998093E+01 0. -1.
</event>
<event>
 5   0  0.5679750E-07  0.3667741E+04  0.7818609E-02  0.8075149E-01
        1   -1    0    0  501    0  0.00000000000E+00  0.00000000000E+00  0.23231847986E+04  0.23231847986E+04  0.50400001928E-02 0.  1.
       -1   -1    0    0    0  501  0.00000000000E+00  0.00000000000E+00 -0.14476169805E+04  0.14476169806E+04  0.50400001928E-02 0. -1.
    10030    2    1    2    0    0  0.00000000000E+00  0.00000000000E+00  0.87556781807E+03  0.37708017792E+04  0.36677414104E+04 0.  0.
        4    1    3    3  502    0  0.12109096008E+04  0.12658345206E+04  0.99565541235E+03  0.20149368248E+04  0.12699999809E+01 0.  1.
       -4    1    3    3    0  502 -0.12109096008E+04 -0.12658345206E+04 -0.12008759428E+03  0.17558649544E+04  0.12699999809E+01 0. -1.
</event>
<event>
 5   0  0.6186440E-07  0.2438075E+04  0.7818609E-02  0.8425385E-01
        1   -1    0    0  501    0  0.00000000000E+00  0.00000000000E+00  0.12741786402E+04  0.12741786402E+04  0.50400001928E-02 0. -1.
       -1   -1    0    0    0  501  0.00000000000E+00  0.00000000000E+00 -0.11662827671E+04  0.11662827671E+04  0.50400001928E-02 0.  1.
    10030    2    1    2    0    0  0.00000000000E+00  0.00000000000E+00  0.10789587303E+03  0.24404614073E+04  0.24380751345E+04 0.  0.
        3    1    3    3  502    0  0.34188941105E+03  0.16968793551E+03  0.12128246692E+04  0.12714661038E+04  0.10100000352E+00 0. -1.
       -3    1    3    3    0  502 -0.34188941105E+03 -0.16968793551E+03 -0.11049287961E+04  0.11689953035E+04  0.10100000352E+00 0.  1.
</event>
<event>
 5   0  0.6261598E-07  0.2995409E+04  0.7818609E-02  0.8245043E-01
        1   -1    0    0  501    0  0.00000000000E+00  0.00000000000E+00  0.25660911593E+04  0.25660911593E+04  0.50400001928E-02 0. -1.
       -1   -1    0    0    0  501  0.00000000000E+00  0.00000000000E+00 -0.87413865993E+03  0.87413865994E+03  0.50400001928E-02 0.  1.
    10030    2    1    2    0    0  0.00000000000E+00  0.00000000000E+00  0.16919524993E+04  0.34402298192E+04  0.29954094794E+04 0.  0.
        1    1    3    3  502    0 -0.26441996527E+03  0.12568337242E+04  0.17308217199E+04  0.21552941225E+04  0.50400001928E-02 0. -1.
       -1    1    3    3    0  502  0.26441996527E+03 -0.12568337242E+04 -0.38869220516E+02  0.12849356967E+04  0.50400001928E-02 0.  1.
</event>
<event>
 5   0  0.1184684E-06  0.2552189E+04  0.7818609E-02  0.8384625E-01
        2   -1    0    0  501    0  0.00000000000E+00  0.00000000000E+00  0.12614006049E+04  0.12614006049E+04  0.25500000920E-02 0. -1.
       -2   -1    0    0    0  501  0.00000000000E+00  0.00000000000E+00 -0.12909598181E+04  0.12909598181E+04  0.25500000920E-02 0.  1.
    10030    2    1    2    0    0  0.00000000000E+00  0.00000000000E+00 -0.29559213250E+02  0.25523604230E+04  0.25521892527E+04 0.  0.
        4    1    3    3  502    0 -0.88493446201E+02  0.74777986703E+03  0.10155370637E+04  0.12642479820E+04  0.12699999809E+01 0. -1.
       -4    1    3    3    0  502  0.88493446201E+02 -0.74777986703E+03 -0.10450962769E+04  0.12881124409E+04  0.12699999809E+01 0.  1.
</event>
<event>
 5   0  0.6186440E-07  0.3673178E+04  0.7818609E-02  0.8073932E-01
       -1   -1    0    0    0  501  0.00000000000E+00  0.00000000000E+00  0.12208760334E+04  0.12208760334E+04  0.50400001928E-02 0. -1.
        1   -1    0    0  501    0  0.00000000000E+00  0.00000000000E+00 -0.27628188607E+04  0.27628188607E+04  0.50400001928E-02 0.  1.
    10030    2    1    2    0    0  0.00000000000E+00  0.00000000000E+00 -0.15419428273E+04  0.39836948941E+04  0.36731780962E+04 0.  0.
        3    1    3    3  502    0  0.48660837317E+03  0.11822783188E+04  0.65900913597E+03  0.14383541926E+04  0.10100000352E+00 0. -1.
       -3    1    3    3    0  502 -0.48660837317E+03 -0.11822783188E+04 -0.22009519633E+04  0.25453407015E+04  0.10100000352E+00 0.  1.
</event>
<event>
 5   0  0.5679750E-07  0.2233551E+04  0.7818609E-02  0.8504592E-01
        1   -1    0    0  501    0  0.00000000000E+00  0.00000000000E+00  0.16213977739E+04  0.16213977739E+04  0.50400001928E-02 0.  1.
       -1   -1    0    0    0  501  0.00000000000E+00  0.00000000000E+00 -0.76920539452E+03  0.76920539453E+03  0.50400001928E-02 0. -1.
    10030    2    1    2    0    0  0.00000000000E+00  0.00000000000E+00  0.85219237935E+03  0.23906031684E+04  0.22335513554E+04 0.  0.
        4    1    3    3  502    0 -0.24184067092E+03 -0.35923646164E+03 -0.67567769362E+03  0.80254576445E+03  0.12699999809E+01 0. -1.
       -4    1    3    3    0  502  0.24184067092E+03  0.35923646164E+03  0.15278700730E+04  0.15880574040E+04  0.12699999809E+01 0.  1.
</event>
<event>
 5   0  0.5679750E-07  0.3650909E+04  0.7818609E-02  0.8078929E-01
       -1   -1    0    0    0  501  0.00000000000E+00  0.00000000000E+00  0.15882240181E+04  0.15882240181E+04  0.50400001928E-02 0.  1.
        1   -1    0    0  501    0  0.00000000000E+00  0.00000000000E+00 -0.20981195502E+04  0.20981195502E+04  0.50400001928E-02 0. -1.
    10030    2    1    2    0    0  0.00000000000E+00  0.00000000000E+00 -0.50989553205E+03  0.36863435683E+04  0.36509088526E+04 0.  0.
        4    1    3    3  502    0 -0.15068771122E+04  0.47635988040E+03 -0.11774259252E+04  0.19707690857E+04  0.12699999809E+01 0. -1.
       -4    1    3    3    0  502  0.15068771122E+04 -0.47635988040E+03  0.66753039318E+03  0.17155744826E+04  0.12699999809E+01 0.  1.
</event>
<event>
 5   0  0.5875011E-07  0.3724284E+04  0.7818609E-02  0.8062601E-01
       -1   -1    0    0    0  501  0.00000000000E+00  0.00000000000E+00  0.20665422158E+04  0.20665422159E+04  0.50400001928E-02 0.  1.
        1   -1    0    0  501    0  0.00000000000E+00  0.00000000000E+00 -0.16779589762E+04  0.16779589762E+04  0.50400001928E-02 0. -1.
    10030    2    1    2    0    0  0.00000000000E+00  0.00000000000E+00  0.38858323961E+03  0.37445011921E+04  0.37242841250E+04 0.  0.
        2    1    3    3  502    0  0.14681546918E+04  0.56011293742E+03  0.11988994797E+04  0.19765031404E+04  0.25500000920E-02 0.  1.
       -2    1    3    3    0  502 -0.14681546918E+04 -0.56011293742E+03 -0.81031624010E+03  0.17679980517E+04  0.25500000920E-02 0. -1.
</event>
<event>
 5   0  0.6261598E-07  0.3682916E+04  0.7818609E-02  0.8071758E-01
       -1   -1    0    0    0  501  0.00000000000E+00  0.00000000000E+00  0.19984554980E+04  0.19984554980E+04  0.50400001928E-02 0.  1.
        1   -1    0    0  501    0  0.00000000000E+00  0.00000000000E+00 -0.16967944817E+04  0.16967944817E+04  0.50400001928E-02 0. -1.
    10030    2    1    2    0    0  0.00000000000E+00  0.00000000000E+00  0.30166101627E+03  0.36952499797E+04  0.36829163775E+04 0.  0.
        1    1    3    3  502    0 -0.16575767539E+04 -0.35492343892E+03  0.87257033507E+03  0.19065440808E+04  0.50400001928E-02 0.  1.
       -1    1    3    3    0  502  0.16575767539E+04  0.35492343892E+03 -0.57090931879E+03  0.17887058989E+04  0.50400001928E-02 0. -1.
</event>
<event>
 5   0  0.1184684E-06  0.2345960E+04  0.7818609E-02  0.8460017E-01
        2   -1    0    0  501    0  0.00000000000E+00  0.00000000000E+00  0.16582628820E+04  0.16582628820E+04  0.25500000920E-02 0.  1.
       -2   -1    0    0    0  501  0.00000000000E+00  0.00000000000E+00 -0.82971270706E+03  0.82971270706E+03  0.25500000920E-02 0. -1.
    10030    2    1    2    0    0  0.00000000000E+00  0.00000000000E+00  0.82855017490E+03  0.24879755890E+04  0.23459597480E+04 0.  0.
        4    1    3    3  502    0 -0.33093460473E+03 -0.75052817547E+03  0.13035270178E+04  0.15401280966E+04  0.12699999809E+01 0.  1.
       -4    1    3    3    0  502  0.33093460473E+03  0.75052817547E+03 -0.47497684289E+03  0.94784749246E+03  0.12699999809E+01 0. -1.
</event>
<event>
 5   0  0.1685793E-06  0.3065259E+04  0.7818609E-02  0.8225337E-01
        2   -1    0    0  501    0  0.00000000000E+00  0.00000000000E+00  0.11923921644E+04  0.11923921644E+04  0.25500000920E-02 0. -1.
       -2   -1    0    0    0  501  0.00000000000E+00  0.00000000000E+00 -0.19699507762E+04  0.19699507762E+04  0.25500000920E-02 0.  1.
    10030    2    1    2    0    0  0.00000000000E+00  0.00000000000E+00 -0.77755861181E+03  0.31623429406E+04  0.30652594473E+04 0.  0.
        3    1    3    3  502    0  0.46462433031E+03  0.14562374483E+04 -0.50389554972E+03  0.16094763153E+04  0.10100000352E+00 0.  1.
       -3    1    3    3    0  502 -0.46462433031E+03 -0.14562374483E+04 -0.27366306209E+03  0.15528666253E+04  0.10100000352E+00 0. -1.
</event>
<event>
 5   0  0.6261598E-07  0.3734376E+04  0.7818609E-02  0.8060386E-01
        1   -1    0    0  501    0  0.00000000000E+00  0.00000000000E+00  0.23534882136E+04  0.23534882136E+04  0.50400001928E-02 0. -1.
       -1   -1    0    0    0  501  0.00000000000E+00  0.00000000000E+00 -0.14813719732E+04  0.14813719732E+04  0.50400001928E-02 0.  1.
    10030    2    1    2    0    0  0.00000000000E+00  0.00000000000E+00  0.87211624037E+03  0.38348601868E+04  0.37343762418E+04 0.  0.
        1    1    3    3  502    0  0.16191279818E+04 -0.31314884204E+03  0.13352646438E+04  0.21219258441E+04  0.50400001928E-02 0. -1.
       -1    1    3    3    0  502 -0.16191279818E+04  0.31314884204E+03 -0.46314840346E+03  0.17129343427E+04  0.50400001928E-02 0.  1.
</event>
<event>
 5   0  0.1151180E-06  0.3738653E+04  0.7818609E-02  0.8059449E-01
        2   -1    0    0  501    0  0.00000000000E+00  0.00000000000E+00  0.20003472264E+04  0.20003472264E+04  0.25500000920E-02 0.  1.
       -2   -1    0    0    0  501  0.00000000000E+00  0.00000000000E+00 -0.17468876092E+04  0.17468876092E+04  0.25500000920E-02 0. -1.
    10030    2    1    2    0    0  0.00000000000E+00  0.00000000000E+00  0.25345961716E+03  0.37472348356E+04  0.37386531179E+04 0.  0.
        5    1    3    3  502    0  0.11937613963E+03  0.18996264766E+03  0.19867976074E+04  0.19994307423E+04  0.46999998093E+01 0.  1.
       -5    1    3    3    0  502 -0.11937613963E+03 -0.18996264766E+03 -0.17333379903E+04  0.17478040933E+04  0.46999998093E+01 0. -1.
</event>
<event>
 5   0  0.5875011E-07  0.2100638E+04  0.7818609E-02  0.8560962E-01
        1   -1    0    0  501    0  0.00000000000E+00  0.00000000000E+00  0.74758958608E+03  0.74758958609E+03  0.50400001928E-02 0. -1.
       -1   -1    0    0    0  501  0.00000000000E+00  0.00000000000E+00 -0.14756358622E+04  0.14756358622E+04  0.50400001928E-02 0.  1.
    10030    2    1    2    0    0  0.00000000000E+00  0.00000000000E+00 -0.72804627616E+03  0.22232254483E+04  0.21006380016E+04 0.  0.
        2    1    3    3  502    0 -0.48962371776E+03 -0.60009709476E+03 -0.11148767688E+04  0.13574970047E+04  0.25500000920E-02 0.  1.
       -2    1    3    3    0  502  0.48962371776E+03  0.60009709476E+03  0.38683049262E+03  0.86572844366E+03  0.25500000920E-02 0. -1.
</event>
<event>
 5   0  0.1151180E-06  0.3834662E+04  0.7818609E-02  0.8038757E-01
        2   -1    0    0  501    0  0.00000000000E+00  0.00000000000E+00  0.30593224460E+04  0.30593224460E+04  0.25500000920E-02 0.  1.
       -2   -1    0    0    0  501  0.00000000000E+00  0.00000000000E+00 -0.12016246527E+04  0.12016246527E+04  0.25500000920E-02 0. -1.
    10030    2    1    2    0    0  0.00000000000E+00  0.00000000000E+00  0.18576977933E+04  0.42609470987E+04  0.38346615349E+04 0.  0.
        5    1    3    3  502    0  0.83269258860E+03 -0.92033003550E+03  0.25527306435E+04  0.28384573539E+04  0.46999998093E+01 0.  1.
       -5    1    3    3    0  502 -0.83269258860E+03  0.92033003550E+03 -0.69503285025E+03  0.14224897449E+04  0.46999998093E+01 0. -1.
</event>
<event>
 5   0  0.5679750E-07  0.3573309E+04  0.7818609E-02  0.8096633E-01
        1   -1    0    0  501    0  0.00000000000E+00  0.00000000000E+00  0.20952476806E+04  0.20952476806E+04  0.50400001928E-02 0. -1.
       -1   -1    0    0    0  501  0.00000000000E+00  0.00000000000E+00 -0.15235120963E+04  0.15235120963E+04  0.50400001928E-02 0.  1.
    10030    2    1    2    0    0  0.00000000000E+00  0.00000000000E+00  0.57173558425E+03  0.36187597769E+04  0.35733094946E+04 0.  0.
        4    1    3    3  502    0 -0.36183266177E+03  0.57156820258E+03  0.19605396100E+04  0.20739648649E+04  0.12699999809E+01 0. -1.
       -4    1    3    3    0  502  0.36183266177E+03 -0.57156820258E+03 -0.13888040258E+04  0.15447949120E+04  0.12699999809E+01 0.  1.
</event>
<event>
 5   0  0.6186440E-07  0.3681135E+04  0.7818609E-02  0.8072155E-01
        1   -1    0    0  501    0  0.00000000000E+00  0.00000000000E+00  0.13525731663E+04  0.13525731663E+04  0.50400001928E-02 0.  1.
       -1   -1    0    0    0  501  0.00000000000E+00  0.00000000000E+00 -0.25046255467E+04  0.25046255467E+04  0.50400001928E-02 0. -1.
    10030    2    1    2    0    0  0.00000000000E+00  0.00000000000E+00 -0.11520523804E+04  0.38571987130E+04  0.36811353173E+04 0.  0.
        3    1    3    3  502    0  0.28884571472E+03  0.18122512816E+04 -0.72422168173E+03  0.19728617815E+04  0.10100000352E+00 0.  1.
       -3    1    3    3    0  502 -0.28884571472E+03 -0.18122512816E+04 -0.42783069864E+03  0.18843369315E+04  0.10100000352E+00 0. -1.
</event>
<event>
 5   0  0.1685793E-06  0.3694818E+04  0.7818609E-02  0.8069111E-01
        2   -1    0    0  501    0  0.00000000000E+00  0.00000000000E+00  0.18170579916E+04  0.18170579916E+04  0.25500000920E-02 0. -1.
       -2   -1    0    0    0  501  0.00000000000E+00  0.00000000000E+00 -0.18782672415E+04  0.18782672415E+04  0.25500000920E-02 0.  1.
    10030    2    1    2    0    0  0.00000000000E+00  0.00000000000E+00 -0.61209249942E+02  0.36953252330E+04  0.36948182642E+04 0.  0.
        3    1    3    3  502    0  0.12115435945E+04  0.29597632408E+03 -0.13936858379E+04  0.18702406505E+04  0.10100000352E+00 0.  1.
       -3    1    3    3    0  502 -0.12115435945E+04 -0.29597632408E+03  0.13324765880E+04  0.18250845825E+04  0.10100000352E+00 0. -1.
</event>
<event>
 5   0  0.1184684E-06  0.3708945E+04  0.7818609E-02  0.8065982E-01
        2   -1    0    0  501    0  0.00000000000E+00  0.00000000000E+00  0.10507450995E+04  0.10507450995E+04  0.25500000920E-02 0.  1.
       -2   -1    0    0    0  501  0.00000000000E+00  0.00000000000E+00 -0.32729800057E+04  0.32729800057E+04  0.25500000920E-02 0. -1.
    10030    2    1    2    0    0  0.00000000000E+00  0.00000000000E+00 -0.22222349062E+04  0.43237251052E+04  0.37089447026E+04 0.  0.
        4    1    3    3  502    0  0.17111272456E+03 -0.48259372424E+03 -0.31889416177E+04  0.32297873802E+04  0.12699999809E+01 0. -1.
       -4    1    3    3    0  502 -0.17111272456E+03  0.48259372424E+03  0.96670671152E+03  0.10939377250E+04  0.12699999809E+01 0.  1.
</event>
<event>
 5   0  0.6186440E-07  0.3456987E+04  0.7818609E-02  0.8124060E-01
        1   -1    0    0  501    0  0.00000000000E+00  0.00000000000E+00  0.18406063671E+04  0.18406063671E+04  0.50400001928E-02 0.  1.
       -1   -1    0    0    0  501  0.00000000000E+00  0.00000000000E+00 -0.16232091903E+04  0.16232091903E+04  0.50400001928E-02 0. -1.
    10030    2    1    2    0    0  0.00000000000E+00  0.00000000000E+00  0.21739717678E+03  0.34638155575E+04  0.34569866479E+04 0.  0.
        3    1    3    3  502    0  0.20173605363E+02  0.12984975672E+04 -0.10342502477E+04  0.16601736329E+04  0.10100000352E+00 0. -1.
       -3    1    3    3    0  502 -0.20173605363E+02 -0.12984975672E+04  0.12516474245E+04  0.18036419245E+04  0.10100000352E+00 0.  1.
</event>
<event>
 5   0  0.6287345E-07  0.3715947E+04  0.7818609E-02  0.8064437E-01
       -1   -1    0    0    0  501  0.00000000000E+00  0.00000000000E+00  0.13698060431E+04  0.13698060432E+04  0.50400001928E-02 0.  1.
        1   -1    0    0  501    0  0.00000000000E+00  0.00000000000E+00 -0.25201132015E+04  0.25201132015E+04  0.50400001928E-02 0. -1.
    10030    2    1    2    0    0  0.00000000000E+00  0.00000000000E+00 -0.11503071583E+04  0.38899192446E+04  0.37159474123E+04 0.  0.
        5    1    3    3  502    0 -0.65220515791E+03 -0.10580512736E+04 -0.20208235525E+04  0.23724658029E+04  0.46999998093E+01 0. -1.
       -5    1    3    3    0  502  0.65220515791E+03  0.10580512736E+04  0.87051639414E+03  0.15174534418E+04  0.46999998093E+01 0.  1.
</event>
<event>
 5   0  0.1724503E-06  0.2173171E+04  0.7818609E-02  0.8529679E-01
        2   -1    0    0  501    0  0.00000000000E+00  0.00000000000E+00  0.18847212070E+04  0.18847212070E+04  0.25500000920E-02 0. -1.
       -2   -1    0    0    0  501  0.00000000000E+00  0.00000000000E+00 -0.62644187875E+03  0.62644187876E+03  0.25500000920E-02 0.  1.
    10030    2    1    2    0    0  0.00000000000E+00  0.00000000000E+00  0.12582793283E+04  0.25111630858E+04  0.21731712255E+04 0.  0.
        1    1    3    3  502    0 -0.92016749979E+03  0.26125362561E+02 -0.37949660300E+02  0.92132021522E+03  0.50400001928E-02 0.  1.
       -1    1    3    3    0  502  0.92016749979E+03 -0.26125362561E+02  0.12962289886E+04  0.15898428706E+04  0.50400001928E-02 0. -1.
</event>
<event>
 5   0  0.1184684E-06  0.3418910E+04  0.7818609E-02  0.8133281E-01
       -2   -1    0    0    0  501  0.00000000000E+00  0.00000000000E+00  0.10671948220E+04  0.10671948220E+04  0.25500000920E-02 0. -1.
        2   -1    0    0  501    0  0.00000000000E+00  0.00000000000E+00 -0.27382402602E+04  0.27382402602E+04  0.25500000920E-02 0.  1.
    10030    2    1    2    0    0  0.00000000000E+00  0.00000000000E+00 -0.16710454382E+04  0.38054350822E+04  0.34189096666E+04 0.  0.
        4    1    3    3  502    0 -0.85336880035E+03 -0.92163065043E+03 -0.21261834306E+04  0.24694734173E+04  0.12699999809E+01 0.  1.
       -4    1    3    3    0  502  0.85336880035E+03  0.92163065043E+03  0.45513799233E+03  0.13359616649E+04  0.12699999809E+01 0. -1.
</event>
<event>
 5   0  0.1184684E-06  0.3414813E+04  0.7818609E-02  0.8134280E-01
        2   -1    0    0  501    0  0.00000000000E+00  0.00000000000E+00  0.21635191558E+04  0.21635191558E+04  0.25500000920E-02 0.  1.
       -2   -1    0    0    0  501  0.00000000000E+00  0.00000000000E+00 -0.13474514433E+04  0.13474514433E+04  0.25500000920E-02 0. -1.
    10030    2    1    2    0    0  0.00000000000E+00  0.00000000000E+00  0.81606771242E+03  0.35109705991E+04  0.34148130310E+04 0.  0.
        4    1    3    3  502    0 -0.25263383946E+03 -0.41612010974E+03  0.20906547328E+04  0.21465830119E+04  0.12699999809E+01 0.  1.
       -4    1    3    3    0  502  0.25263383946E+03  0.41612010974E+03 -0.12745870204E+04  0.13643875871E+04  0.12699999809E+01 0. -1.
</event>
<event>
 5   0  0.5875011E-07  0.3748223E+04  0.7818609E-02  0.8057358E-01
       -1   -1    0    0    0  501  0.00000000000E+00  0.00000000000E+00  0.17710025586E+04  0.17710025586E+04  0.50400001928E-02 0.  1.
        1   -1    0    0  501    0  0.00000000000E+00  0.00000000000E+00 -0.19832237866E+04  0.19832237866E+04  0.50400001928E-02 0. -1.
    10030    2    1    2    0    0  0.00000000000E+00  0.00000000000E+00 -0.21222122796E+03  0.37542263452E+04  0.37482232593E+04 0.  0.
        2    1    3    3  502    0  0.90591402477E+02 -0.62069711481E+03  0.16627366911E+04  0.17771226785E+04  0.25500000920E-02 0.  1.
       -2    1    3    3    0  502 -0.90591402477E+02  0.62069711481E+03 -0.18749579191E+04  0.19771036667E+04  0.25500000920E-02 0. -1.
</event>
<event>
 5   0  0.6261598E-07  0.2388298E+04  0.7818609E-02  0.8443897E-01
        1   -1    0    0  501    0  0.00000000000E+00  0.00000000000E+00  0.96621022179E+03  0.96621022180E+03  0.50400001928E-02 0. -1.
       -1   -1    0    0    0  501  0.00000000000E+00  0.00000000000E+00 -0.14758613982E+04  0.14758613982E+04  0.50400001928E-02 0.  1.
    10030    2    1    2    0    0  0.00000000000E+00  0.00000000000E+00 -0.50965117641E+03  0.24420716200E+04  0.23882984478E+04 0.  0.
        1    1    3    3  502    0  0.74057675617E+03 -0.93632055610E+03 -0.28450061841E+03  0.12272288774E+04  0.50400001928E-02 0.  1.
       -1    1    3    3    0  502 -0.74057675617E+03  0.93632055610E+03 -0.22515055801E+03  0.12148427426E+04  0.50400001928E-02 0. -1.
</event>
<event>
 5   0  0.6261598E-07  0.3233239E+04  0.7818609E-02  0.8180094E-01
        1   -1    0    0  501    0  0.00000000000E+00  0.00000000000E+00  0.12618637375E+04  0.12618637375E+04  0.50400001928E-02 0. -1.
       -1   -1    0    0    0  501  0.00000000000E+00  0.00000000000E+00 -0.20711098549E+04  0.20711098549E+04  0.50400001928E-02 0.  1.
    10030    2    1    2    0    0  0.00000000000E+00  0.00000000000E+00 -0.80924611746E+03  0.33329735924E+04  0.32332388852E+04 0.  0.
        1    1    3    3  502    0  0.15461541099E+04  0.25995763113E+03  0.15984517560E+01  0.15678561977E+04  0.50400001928E-02 0. -1.
       -1    1    3    3    0  502 -0.15461541099E+04 -0.25995763113E+03 -0.81084456922E+03  0.17651173947E+04  0.50400001928E-02 0.  1.
</event>
<event>
 5   0  0.1184684E-06  0.3745211E+04  0.7818609E-02  0.8058016E-01
       -2   -1    0    0    0  501  0.00000000000E+00  0.00000000000E+00  0.23373236636E+04  0.23373236636E+04  0.25500000920E-02 0. -1.
        2   -1    0    0  501    0  0.00000000000E+00  0.00000000000E+00 -0.15002845801E+04  0.15002845801E+04  0.25500000920E-02 0.  1.
    10030    2    1    2    0    0  0.00000000000E+00  0.00000000000E+00  0.83703908344E+03  0.38376082437E+04  0.37452106222E+04 0.  0.
        4    1    3    3  502    0 -0.13896652486E+04  0.18245344455E+03 -0.85396751074E+03  0.16412558865E+04  0.12699999809E+01 0.  1.
       -4    1    3    3    0  502  0.13896652486E+04 -0.18245344455E+03  0.16910065942E+04  0.21963523572E+04  0.12699999809E+01 0. -1.
</event>
<event>
 5   0  0.5875011E-07  0.3729898E+04  0.7818609E-02  0.8061368E-01
       -1   -1    0    0    0  501  0.00000000000E+00  0.00000000000E+00  0.16259770559E+04  0.16259770559E+04  0.50400001928E-02 0. -1.
        1   -1    0    0  501    0  0.00000000000E+00  0.00000000000E+00 -0.21390431086E+04  0.21390431086E+04  0.50400001928E-02 0.  1.
    10030    2    1    2    0    0  0.00000000000E+00  0.00000000000E+00 -0.51306605271E+03  0.37650201645E+04  0.37298981306E+04 0.  0.
        2    1    3    3  502    0  0.16827517701E+04 -0.38213415636E+03  0.45748545067E+03  0.17852095033E+04  0.25500000920E-02 0. -1.
       -2    1    3    3    0  502 -0.16827517701E+04  0.38213415636E+03 -0.97055150338E+03  0.19798106611E+04  0.25500000920E-02 0.  1.
</event>
<event>
 5   0  0.6287345E-07  0.3343090E+04  0.7818609E-02  0.8152017E-01
        1   -1    0    0  501    0  0.00000000000E+00  0.00000000000E+00  0.21589880531E+04  0.21589880531E+04  0.50400001928E-02 0. -1.
       -1   -1    0    0    0  501  0.00000000000E+00  0.00000000000E+00 -0.12941537196E+04  0.12941537196E+04  0.50400001928E-02 0.  1.
    10030    2    1    2    0    0  0.00000000000E+00  0.00000000000E+00  0.86483433350E+03  0.34531417727E+04  0.33430898400E+04 0.  0.
        5    1    3    3  502    0  0.16225736635E+03 -0.37867918942E+03 -0.12408848658E+04  0.13074948266E+04  0.46999998093E+01 0.  1.
       -5    1    3    3    0  502 -0.16225736635E+03  0.37867918942E+03  0.21057191993E+04  0.21456469462E+04  0.46999998093E+01 0. -1.
</event>
<event>
 5   0  0.1724503E-06  0.3693772E+04  0.7818609E-02  0.8069343E-01
        2   -1    0    0  501    0  0.00000000000E+00  0.00000000000E+00  0.29586412030E+04  0.29586412030E+04  0.25500000920E-02 0.  1.
       -2   -1    0    0    0  501  0.00000000000E+00  0.00000000000E+00 -0.11528902179E+04  0.11528902179E+04  0.25500000920E-02 0. -1.
    10030    2    1    2    0    0  0.00000000000E+00  0.00000000000E+00  0.18057509851E+04  0.41115314209E+04  0.36937723272E+04 0.  0.
        1    1    3    3  502    0  0.11258354042E+04  0.81556460356E+03 -0.45050617717E+03  0.14613715461E+04  0.50400001928E-02 0. -1.
       -1    1    3    3    0  502 -0.11258354042E+04 -0.81556460356E+03  0.22562571623E+04  0.26501598749E+04  0.50400001928E-02 0.  1.
</event>
<event>
 5   0  0.6186440E-07  0.3579709E+04  0.7818609E-02  0.8095155E-01
        1   -1    0    0  501    0  0.00000000000E+00  0.00000000000E+00  0.25996232524E+04  0.25996232524E+04  0.50400001928E-02 0. -1.
       -1   -1    0    0    0  501  0.00000000000E+00  0.00000000000E+00 -0.12323245363E+04  0.12323245363E+04  0.50400001928E-02 0.  1.
    10030    2    1    2    0    0  0.00000000000E+00  0.00000000000E+00  0.13672987161E+04  0.38319477888E+04  0.35797092168E+04 0.  0.
        3    1    3    3  502    0 -0.16552662973E+04  0.26202562196E+03  0.10860270326E+02  0.16759122582E+04  0.10100000352E+00 0.  1.
       -3    1    3    3    0  502  0.16552662973E+04 -0.26202562196E+03  0.13564384458E+04  0.21560355306E+04  0.10100000352E+00 0. -1.
</event>
<event>
 5   0  0.1724503E-06  0.3737447E+04  0.7818609E-02  0.8059713E-01
        2   -1    0    0  501    0  0.00000000000E+00  0.00000000000E+00  0.16973260567E+04  0.16973260567E+04  0.25500000920E-02 0. -1.
       -2   -1    0    0    0  501  0.00000000000E+00  0.00000000000E+00 -0.20574287992E+04  0.20574287992E+04  0.25500000920E-02 0.  1.
    10030    2    1    2    0    0  0.00000000000E+00  0.00000000000E+00 -0.36010274246E+03  0.37547548559E+04  0.37374469954E+04 0.  0.
        1    1    3    3  502    0  0.13775266422E+04 -0.12616597704E+04 -0.12724862906E+03  0.18723133391E+04  0.50400001928E-02 0.  1.
       -1    1    3    3    0  502 -0.13775266422E+04  0.12616597704E+04 -0.23285411340E+03  0.18824415168E+04  0.50400001928E-02 0. -1.
</event>
<event>
 5   0  0.1724503E-06  0.4153519E+04  0.7818609E-02  0.7974273E-01
       -2   -1    0    0    0  501  0.00000000000E+00  0.00000000000E+00  0.15801164610E+04  0.15801164610E+04  0.25500000920E-02 0.  1.
        2   -1    0    0  501    0  0.00000000000E+00  0.00000000000E+00 -0.27295018444E+04  0.27295018444E+04  0.25500000920E-02 0. -1.
    10030    2    1    2    0    0  0.00000000000E+00  0.00000000000E+00 -0.11493853834E+04  0.43096183054E+04  0.41535193727E+04 0.  0.
        1    1    3    3  502    0 -0.16173133399E+04  0.79384366727E+03 -0.16464909238E+04  0.24406602733E+04  0.50400001928E-02 0. -1.
       -1    1    3    3    0  502  0.16173133399E+04 -0.79384366727E+03  0.49710554041E+03  0.18689580321E+04  0.50400001928E-02 0.  1.
</event>
<event>
 5   0  0.6186440E-07  0.3690189E+04  0.7818609E-02  0.8070140E-01
       -1   -1    0    0    0  501  0.00000000000E+00  0.00000000000E+00  0.20991758529E+04  0.20991758529E+04  0.50400001928E-02 0. -1.
        1   -1    0    0  501    0  0.00000000000E+00  0.00000000000E+00 -0.16217664834E+04  0.16217664834E+04  0.50400001928E-02 0.  1.
    10030    2    1    2    0    0  0.00000000000E+00  0.00000000000E+00  0.47740936947E+03  0.37209423363E+04  0.36901886353E+04 0.  0.
        3    1    3    3  502    0 -0.19744828511E+03  0.13969959301E+03 -0.16057117528E+04  0.16238263592E+04  0.10100000352E+00 0.  1.
       -3    1    3    3    0  502  0.19744828511E+03 -0.13969959301E+03  0.20831211222E+04  0.20971159772E+04  0.10100000352E+00 0. -1.
</event>
<event>
 5   0  0.1151180E-06  0.3533886E+04  0.7818609E-02  0.8105806E-01
       -2   -1    0    0    0  501  0.00000000000E+00  0.00000000000E+00  0.12022383067E+04  0.12022383067E+04  0.25500000920E-02 0. -1.
        2   -1    0    0  501    0  0.00000000000E+00  0.00000000000E+00 -0.25968960164E+04  0.25968960164E+04  0.25500000920E-02 0.  1.
    10030    2    1    2    0    0  0.00000000000E+00  0.00000000000E+00 -0.13946577097E+04  0.37991343231E+04  0.35338861721E+04 0.  0.
        5    1    3    3  502    0 -0.11482317309E+04 -0.63153048553E+03 -0.19715334712E+04  0.23673261669E+04  0.46999998093E+01 0.  1.
       -5    1    3    3    0  502  0.11482317309E+04  0.63153048553E+03  0.57687576150E+03  0.14318081562E+04  0.46999998093E+01 0. -1.
</event>
<event>
 5   0  0.1680194E-06  0.3195640E+04  0.7818609E-02  0.8189970E-01
       -2   -1    0    0    0  501  0.00000000000E+00  0.00000000000E+00  0.14104175029E+04  0.14104175029E+04  0.25500000920E-02 0.  1.
        2   -1    0    0  501    0  0.00000000000E+00  0.00000000000E+00 -0.18101224674E+04  0.18101224674E+04  0.25500000920E-02 0. -1.
    10030    2    1    2    0    0  0.00000000000E+00  0.00000000000E+00 -0.39970496446E+03  0.32205399703E+04  0.31956397860E+04 0.  0.
        2    1    3    3  502    0  0.14203561593E+04 -0.46159753584E+03 -0.77220776876E+03  0.16813056660E+04  0.25500000920E-02 0. -1.
       -2    1    3    3    0  502 -0.14203561593E+04  0.46159753584E+03  0.37250280430E+03  0.15392343043E+04  0.25500000920E-02 0.  1.
</event>
<event>
 5   0  0.1680194E-06  0.2413201E+04  0.7818609E-02  0.8434578E-01
       -2   -1    0    0    0  501  0.00000000000E+00  0.00000000000E+00  0.14380219460E+04  0.14380219460E+04  0.25500000920E-02 0.  1.
        2   -1    0    0  501    0  0.00000000000E+00  0.00000000000E+00 -0.10124216412E+04  0.10124216412E+04  0.25500000920E-02 0. -1.
    10030    2    1    2    0    0  0.00000000000E+00  0.00000000000E+00  0.42560030476E+03  0.24504435872E+04  0.24132008111E+04 0.  0.
        2    1    3    3  502    0  0.22091486389E+03  0.92290598068E+03 -0.54390229300E+03  0.10937954702E+04  0.25500000920E-02 0. -1.
       -2    1    3    3    0  502 -0.22091486389E+03 -0.92290598068E+03  0.96950259776E+03  0.13566481170E+04  0.25500000920E-02 0.  1.
</event>
<event>
 5   0  0.6261598E-07  0.2191654E+04  0.7818609E-02  0.8521910E-01
       -1   -1    0    0    0  501  0.00000000000E+00  0.00000000000E+00  0.12577067889E+04  0.12577067889E+04  0.50400001928E-02 0.  1.
        1   -1    0    0  501    0  0.00000000000E+00  0.00000000000E+00 -0.95478269384E+03  0.95478269385E+03  0.50400001928E-02 0. -1.
    10030    2    1    2    0    0  0.00000000000E+00  0.00000000000E+00  0.30292409509E+03  0.22124894828E+04  0.21916538741E+04 0.  0.
        1    1    3    3  502    0 -0.78091997632E+03  0.31174239221E+03 -0.55793996889E+03  0.10091166124E+04  0.50400001928E-02 0. -1.
       -1    1    3    3    0  502  0.78091997632E+03 -0.31174239221E+03  0.86086406397E+03  0.12033728704E+04  0.50400001928E-02 0.  1.
</event>
<event>
 5   0  0.1151180E-06  0.2082804E+04  0.7818609E-02  0.8568856E-01
        2   -1    0    0  501    0  0.00000000000E+00  0.00000000000E+00  0.20020499303E+04  0.20020499303E+04  0.25500000920E-02 0.  1.
       -2   -1    0    0    0  501  0.00000000000E+00  0.00000000000E+00 -0.54170381275E+03  0.54170381275E+03  0.25500000920E-02 0. -1.
    10030    2    1    2    0    0  0.00000000000E+00  0.00000000000E+00  0.14603461176E+04  0.25437537431E+04  0.20828039568E+04 0.  0.
        5    1    3    3  502    0 -0.99562090745E+03 -0.18952582832E+03  0.43778430314E+03  0.11040191199E+04  0.46999998093E+01 0. -1.
       -5    1    3    3    0  502  0.99562090745E+03  0.18952582832E+03  0.10225618144E+04  0.14397346232E+04  0.46999998093E+01 0.  1.
</event>
<event>
 5   0  0.1184684E-06  0.3688769E+04  0.7818609E-02  0.8070455E-01
        2   -1    0    0  501    0  0.00000000000E+00  0.00000000000E+00  0.21058472972E+04  0.21058472972E+04  0.25500000920E-02 0. -1.
       -2   -1    0    0    0  501  0.00000000000E+00  0.00000000000E+00 -0.16153846616E+04  0.16153846617E+04  0.25500000920E-02 0.  1.
    10030    2    1    2    0    0  0.00000000000E+00  0.00000000000E+00  0.49046263557E+03  0.37212319589E+04  0.36887685879E+04 0.  0.
        4    1    3    3  502    0  0.15253013530E+04  0.94649622509E+03 -0.18199602075E+03  0.18043069267E+04  0.12699999809E+01 0.  1.
       -4    1    3    3    0  502 -0.15253013530E+04 -0.94649622509E+03  0.67245865631E+03  0.19169250321E+04  0.12699999809E+01 0. -1.
</event>
<event>
 5   0  0.5875011E-07  0.3735999E+04  0.7818609E-02  0.8060031E-01
        1   -1    0    0  501    0  0.00000000000E+00  0.00000000000E+00  0.12301066620E+04  0.12301066620E+04  0.50400001928E-02 0. -1.
       -1   -1    0    0    0  501  0.00000000000E+00  0.00000000000E+00 -0.28366822035E+04  0.28366822035E+04  0.50400001928E-02 0.  1.
    10030    2    1    2    0    0  0.00000000000E+00  0.00000000000E+00 -0.16065755415E+04  0.40667888655E+04  0.37359987562E+04 0.  0.
        2    1    3    3  502    0  0.10234258607E+04  0.24793572785E+03  0.87622562015E+03  0.13699065497E+04  0.25500000920E-02 0. -1.
       -2    1    3    3    0  502 -0.10234258607E+04 -0.24793572785E+03 -0.24828011616E+04  0.26968823159E+04  0.25500000920E-02 0.  1.
</event>
<event>
 5   0  0.1184684E-06  0.3355294E+04  0.7818609E-02  0.8148967E-01
        2   -1    0    0  501    0  0.00000000000E+00  0.00000000000E+00  0.22118187767E+04  0.22118187767E+04  0.25500000920E-02 0. -1.
       -2   -1    0    0    0  501  0.00000000000E+00  0.00000000000E+00 -0.12724821864E+04  0.12724821864E+04  0.25500000920E-02 0.  1.
    10030    2    1    2    0    0  0.00000000000E+00  0.00000000000E+00  0.93933659029E+03  0.34843009631E+04  0.33552943197E+04 0.  0.
        4    1    3    3  502    0 -0.49913613611E+03 -0.13793069609E+04 -0.37580611628E+03  0.15142180902E+04  0.12699999809E+01 0.  1.
       -4    1    3    3    0  502  0.49913613611E+03  0.13793069609E+04  0.13151427066E+04  0.19700828729E+04  0.12699999809E+01 0. -1.
</event>
<event>
 5   0  0.5679750E-07  0.3615469E+04  0.7818609E-02  0.8086958E-01
       -1   -1    0    0    0  501  0.00000000000E+00  0.00000000000E+00  0.14282114401E+04  0.14282114401E+04  0.50400001928E-02 0.  1.
        1   -1    0    0  501    0  0.00000000000E+00  0.00000000000E+00 -0.22881090778E+04  0.22881090778E+04  0.50400001928E-02 0. -1.
    10030    2    1    2    0    0  0.00000000000E+00  0.00000000000E+00 -0.85989763763E+03  0.37163205179E+04  0.36154687448E+04 0.  0.
        4    1    3    3  502    0  0.75019569316E+03 -0.19809359125E+03 -0.21082419432E+04  0.22464906750E+04  0.12699999809E+01 0. -1.
       -4    1    3    3    0  502 -0.75019569316E+03  0.19809359125E+03  0.12483443056E+04  0.14698298429E+04  0.12699999809E+01 0.  1.
</event>
<event>
 5   0  0.1184684E-06  0.3684442E+04  0.7818609E-02  0.8071418E-01
       -2   -1    0    0    0  501  0.00000000000E+00  0.00000000000E+00  0.13978674040E+04  0.13978674040E+04  0.25500000920E-02 0. -1.
        2   -1    0    0  501    0  0.00000000000E+00  0.00000000000E+00 -0.24278260979E+04  0.24278260979E+04  0.25500000920E-02 0.  1.
    10030    2    1    2    0    0  0.00000000000E+00  0.00000000000E+00 -0.10299586938E+04  0.38256935019E+04  0.36844424082E+04 0.  0.
        4    1    3    3  502    0  0.10640159367E+04 -0.14908689671E+04 -0.31003683581E+03  0.18576718341E+04  0.12699999809E+01 0.  1.
       -4    1    3    3    0  502 -0.10640159367E+04  0.14908689671E+04 -0.71992185803E+03  0.19680216679E+04  0.12699999809E+01 0. -1.
</event>
<event>
 5   0  0.6287345E-07  0.1937431E+04  0.7818609E-02  0.8636446E-01
        1   -1    0    0  501    0  0.00000000000E+00  0.00000000000E+00  0.51101489219E+03  0.51101489222E+03  0.50400001928E-02 0. -1.
       -1   -1    0    0    0  501  0.00000000000E+00  0.00000000000E+00 -0.18363650122E+04  0.18363650122E+04  0.50400001928E-02 0.  1.
    10030    2    1    2    0    0  0.00000000000E+00  0.00000000000E+00 -0.13253501200E+04  0.23473799045E+04  0.19374311537E+04 0.  0.
        5    1    3    3  502    0  0.67603775650E+02  0.96294249203E+03 -0.56454892258E+03  0.11182871230E+04  0.46999998093E+01 0. -1.
       -5    1    3    3    0  502 -0.67603775650E+02 -0.96294249203E+03 -0.76080119745E+03  0.12290927815E+04  0.46999998093E+01 0.  1.
</event>
<event>
 5   0  0.1685793E-06  0.3731986E+04  0.7818609E-02  0.8060910E-01
       -2   -1    0    0    0  501  0.00000000000E+00  0.00000000000E+00  0.12169061407E+04  0.12169061407E+04  0.25500000920E-02 0. -1.
        2   -1    0    0  501    0  0.00000000000E+00  0.00000000000E+00 -0.28612969191E+04  0.28612969191E+04  0.25500000920E-02 0.  1.
    10030    2    1    2    0    0  0.00000000000E+00  0.00000000000E+00 -0.16443907784E+04  0.40782030598E+04  0.37319859546E+04 0.  0.
        3    1    3    3  502    0  0.11001089454E+04  0.77080023636E+03  0.59316650631E+03  0.14684070317E+04  0.10100000352E+00 0. -1.
       -3    1    3    3    0  502 -0.11001089454E+04 -0.77080023636E+03 -0.22375572847E+04  0.26097960282E+04  0.10100000352E+00 0.  1.
</event>
<event>
 5   0  0.1680194E-06  0.3481373E+04  0.7818609E-02  0.8118218E-01
        2   -1    0    0  501    0  0.00000000000E+00  0.00000000000E+00  0.25300154316E+04  0.25300154316E+04  0.25500000920E-02 0. -1.
       -2   -1    0    0    0  501  0.00000000000E+00  0.00000000000E+00 -0.11976171674E+04  0.11976171674E+04  0.25500000920E-02 0.  1.
    10030    2    1    2    0    0  0.00000000000E+00  0.00000000000E+00  0.13323982642E+04  0.37276325990E+04  0.34813732432E+04 0.  0.
        2    1    3    3  502    0 -0.44267788856E+03  0.15662520918E+04  0.13270096281E+04  0.21000152098E+04  0.25500000920E-02 0. -1.
       -2    1    3    3    0  502  0.44267788856E+03 -0.15662520918E+04  0.53886360263E+01  0.16276173892E+04  0.25500000920E-02 0.  1.
</event>
<event>
 5   0  0.1184684E-06  0.2333432E+04  0.7818609E-02  0.8464855E-01
        2   -1    0    0  501    0  0.00000000000E+00  0.00000000000E+00  0.25595061494E+04  0.25595061494E+04  0.25500000920E-02 0.  1.
       -2   -1    0    0    0  501  0.00000000000E+00  0.00000000000E+00 -0.53183145942E+03  0.53183145943E+03  0.25500000920E-02 0. -1.
    10030    2    1    2    0    0  0.00000000000E+00  0.00000000000E+00  0.20276746900E+04  0.30913376088E+04  0.23334317139E+04 0.  0.
        4    1    3    3  502    0  0.29710027316E+03 -0.11212916354E+04  0.84804749012E+03  0.14369236801E+04  0.12699999809E+01 0.  1.
       -4    1    3    3    0  502 -0.29710027316E+03  0.11212916354E+04  0.11796271998E+04  0.16544139287E+04  0.12699999809E+01 0. -1.
</event>
<event>
 5   0  0.5679750E-07  0.3283717E+04  0.7818609E-02  0.8167051E-01
        4   -1    0    0  501    0  0.00000000000E+00  0.00000000000E+00  0.12577309280E+04  0.12577315692E+04  0.12699999809E+01 0. -1.
       -4   -1    0    0    0  501  0.00000000000E+00  0.00000000000E+00 -0.21433023244E+04  0.21433027006E+04  0.12699999809E+01 0.  1.
    10030    2    1    2    0    0  0.00000000000E+00  0.00000000000E+00 -0.88557139636E+03  0.34010342698E+04  0.32837170107E+04 0.  0.
        5    1    3    3  502    0  0.80679597948E+03 -0.25773726170E+03 -0.18995676267E+04  0.20798383367E+04  0.46999998093E+01 0.  1.
       -5    1    3    3    0  502 -0.80679597948E+03  0.25773726170E+03  0.10139962303E+04  0.13211959331E+04  0.46999998093E+01 0. -1.
</event>
<event>
 5   0  0.1680194E-06  0.3644592E+04  0.7818609E-02  0.8080353E-01
        2   -1    0    0  501    0  0.00000000000E+00  0.00000000000E+00  0.30393695428E+04  0.30393695428E+04  0.25500000920E-02 0. -1.
       -2   -1    0    0    0  501  0.00000000000E+00  0.00000000000E+00 -0.10925824793E+04  0.10925824793E+04  0.25500000920E-02 0.  1.
    10030    2    1    2    0    0  0.00000000000E+00  0.00000000000E+00  0.19467870635E+04  0.41319520221E+04  0.36445915605E+04 0.  0.
        2    1    3    3  502    0 -0.58075686890E+03 -0.17259946388E+04  0.10488169225E+04  0.21015120678E+04  0.25500000920E-02 0.  1.
       -2    1    3    3    0  502  0.58075686890E+03  0.17259946388E+04  0.89797014099E+03  0.20304399543E+04  0.25500000920E-02 0. -1.
</event>
<event>
 5   0  0.6261598E-07  0.3207490E+04  0.7818609E-02  0.8186842E-01
        1   -1    0    0  501    0  0.00000000000E+00  0.00000000000E+00  0.25389311661E+04  0.25389311661E+04  0.50400001928E-02 0.  1.
       -1   -1    0    0    0  501  0.00000000000E+00  0.00000000000E+00 -0.10130242261E+04  0.10130242261E+04  0.50400001928E-02 0. -1.
    10030    2    1    2    0    0  0.00000000000E+00  0.00000000000E+00  0.15259069400E+04  0.35519553922E+04  0.32074904706E+04 0.  0.
        1    1    3    3  502    0  0.80099447182E+02 -0.27618761220E+03 -0.98424013827E+03  0.10253897641E+04  0.50400001928E-02 0. -1.
       -1    1    3    3    0  502 -0.80099447182E+02  0.27618761220E+03  0.25101470783E+04  0.25265656281E+04  0.50400001928E-02 0.  1.
</event>
<event>
 5   0  0.5875011E-07  0.3744786E+04  0.7818609E-02  0.8058108E-01
        1   -1    0    0  501    0  0.00000000000E+00  0.00000000000E+00  0.21649881753E+04  0.21649881753E+04  0.50400001928E-02 0.  1.
       -1   -1    0    0    0  501  0.00000000000E+00  0.00000000000E+00 -0.16193420465E+04  0.16193420465E+04  0.50400001928E-02 0. -1.
    10030    2    1    2    0    0  0.00000000000E+00  0.00000000000E+00  0.54564612876E+03  0.37843302218E+04  0.37447864465E+04 0.  0.
        2    1    3    3  502    0  0.67012218789E+03  0.12606051414E+04 -0.95144291383E+03  0.17156435199E+04  0.25500000920E-02 0. -1.
       -2    1    3    3    0  502 -0.67012218789E+03 -0.12606051414E+04  0.14970890426E+04  0.20686867019E+04  0.25500000920E-02 0.  1.
</event>
<event>
 5   0  0.1151180E-06  0.2226124E+04  0.7818609E-02  0.8507633E-01
        2   -1    0    0  501    0  0.00000000000E+00  0.00000000000E+00  0.86099308579E+03  0.86099308579E+03  0.25500000920E-02 0.  1.
       -2   -1    0    0    0  501  0.00000000000E+00  0.00000000000E+00 -0.14389275417E+04  0.14389275417E+04  0.25500000920E-02 0. -1.
    10030    2    1    2    0    0  0.00000000000E+00  0.00000000000E+00 -0.57793445587E+03  0.22999206275E+04  0.22261236842E+04 0.  0.
        5    1    3    3  502    0 -0.53516576340E+02 -0.62649243150E+03 -0.12378515127E+04  0.13884002478E+04  0.46999998093E+01 0. -1.
       -5    1    3    3    0  502  0.53516576340E+02  0.62649243150E+03  0.65991705680E+03  0.91152037966E+03  0.46999998093E+01 0.  1.
</event>
<event>
 5   0  0.6186440E-07  0.3657384E+04  0.7818609E-02  0.8077472E-01
        1   -1    0    0  501    0  0.00000000000E+00  0.00000000000E+00  0.10486209134E+04  0.10486209134E+04  0.50400001928E-02 0. -1.
       -1   -1    0    0    0  501  0.00000000000E+00  0.00000000000E+00 -0.31890593126E+04  0.31890593126E+04  0.50400001928E-02 0.  1.
    10030    2    1    2    0    0  0.00000000000E+00  0.00000000000E+00 -0.21404383992E+04  0.42376802259E+04  0.36573839225E+04 0.  0.
        3    1    3    3  502    0  0.60060672019E+03 -0.14348992851E+04  0.43817037131E+02  0.15561440595E+04  0.10100000352E+00 0.  1.
       -3    1    3    3    0  502 -0.60060672019E+03  0.14348992851E+04 -0.21842554363E+04  0.26815361665E+04  0.10100000352E+00 0. -1.
</event>
<event>
 5   0  0.1724503E-06  0.2704863E+04  0.7818609E-02  0.8333429E-01
       -2   -1    0    0    0  501  0.00000000000E+00  0.00000000000E+00  0.27209796515E+04  0.27209796515E+04  0.25500000920E-02 0.  1.
        2   -1    0    0  501    0  0.00000000000E+00  0.00000000000E+00 -0.67221059882E+03  0.67221059882E+03  0.25500000920E-02 0. -1.
    10030    2    1    2    0    0  0.00000000000E+00  0.00000000000E+00  0.20487690526E+04  0.33931902503E+04  0.27048632948E+04 0.  0.
        1    1    3    3  502    0 -0.12899140519E+04  0.35254561098E+03  0.77066759343E+03  0.15434037737E+04  0.50400001928E-02 0. -1.
       -1    1    3    3    0  502  0.12899140519E+04 -0.35254561098E+03  0.12781014592E+04  0.18497864766E+04  0.50400001928E-02 0.  1.
</event>
<event>
 5   0  0.1184684E-06  0.2413687E+04  0.7818609E-02  0.8434397E-01
        2   -1    0    0  501    0  0.00000000000E+00  0.00000000000E+00  0.16536732757E+04  0.16536732757E+04  0.25500000920E-02 0.  1.
       -2   -1    0    0    0  501  0.00000000000E+00  0.00000000000E+00 -0.88074944749E+03  0.88074944749E+03  0.25500000920E-02 0. -1.
    10030    2    1    2    0    0  0.00000000000E+00  0.00000000000E+00  0.77292382825E+03  0.25344227232E+04  0.24136874893E+04 0.  0.
        4    1    3    3  502    0  0.10791382199E+04 -0.19415139339E+03  0.91590181165E+03  0.14286748415E+04  0.12699999809E+01 0.  1.
       -4    1    3    3    0  502 -0.10791382199E+04  0.19415139339E+03 -0.14297798340E+03  0.11057478817E+04  0.12699999809E+01 0. -1.
</event>
<event>
 5   0  0.1685793E-06  0.3569419E+04  0.7818609E-02  0.8097533E-01
        2   -1    0    0  501    0  0.00000000000E+00  0.00000000000E+00  0.18533083350E+04  0.18533083350E+04  0.25500000920E-02 0. -1.
       -2   -1    0    0    0  501  0.00000000000E+00  0.00000000000E+00 -0.17186501838E+04  0.17186501838E+04  0.25500000920E-02 0.  1.
    10030    2    1    2    0    0  0.00000000000E+00  0.00000000000E+00  0.13465815118E+03  0.35719585187E+04  0.35694193984E+04 0.  0.
        3    1    3    3  502    0 -0.53986729988E+03  0.16308358061E+04 -0.41686071781E+03  0.17677259392E+04  0.10100000352E+00 0.  1.
       -3    1    3    3    0  502  0.53986729988E+03 -0.16308358061E+04  0.55151886899E+03  0.18042325795E+04  0.10100000352E+00 0. -1.
</event>
<event>
 5   0  0.1593421E-06  0.1896425E+04  0.7818609E-02  0.8656638E-01
       -2   -1    0    0    0  501  0.00000000000E+00  0.00000000000E+00  0.10010435965E+04  0.10010435965E+04  0.25500000920E-02 0.  1.
        2   -1    0    0  501    0  0.00000000000E+00  0.00000000000E+00 -0.89816935509E+03  0.89816935510E+03  0.25500000920E-02 0. -1.
    10030    2    1    2    0    0  0.00000000000E+00  0.00000000000E+00  0.10287424145E+03  0.18992129516E+04  0.18964247220E+04 0.  0.
        5    1    3    3  502    0  0.28054158649E+03  0.59317090851E+03 -0.63406124673E+03  0.91247523969E+03  0.46999998093E+01 0. -1.
       -5    1    3    3    0  502 -0.28054158649E+03 -0.59317090851E+03  0.73693548818E+03  0.98673771195E+03  0.46999998093E+01 0.  1.
</event>
<event>
 5   0  0.1151180E-06  0.2788697E+04  0.7818609E-02  0.8306786E-01
       -2   -1    0    0    0  501  0.00000000000E+00  0.00000000000E+00  0.85416701104E+03  0.85416701104E+03  0.25500000920E-02 0. -1.
        2   -1    0    0  501    0  0.00000000000E+00  0.00000000000E+00 -0.22761439173E+04  0.22761439173E+04  0.25500000920E-02 0.  1.
    10030    2    1    2    0    0  0.00000000000E+00  0.00000000000E+00 -0.14219769063E+04  0.31303109284E+04  0.27886965031E+04 0.  0.
        5    1    3    3  502    0 -0.13202947468E+04  0.39104983013E+02 -0.20964745007E+03  0.13374160016E+04  0.46999998093E+01 0.  1.
       -5    1    3    3    0  502  0.13202947468E+04 -0.39104983013E+02 -0.12123294562E+04  0.17928949268E+04  0.46999998093E+01 0. -1.
</event>
<event>
 5   0  0.6287345E-07  0.3712103E+04  0.7818609E-02  0.8065285E-01
        1   -1    0    0  501    0  0.00000000000E+00  0.00000000000E+00  0.17347368989E+04  0.17347368989E+04  0.50400001928E-02 0.  1.
       -1   -1    0    0    0  501  0.00000000000E+00  0.00000000000E+00 -0.19858495312E+04  0.19858495313E+04  0.50400001928E-02 0. -1.
    10030    2    1    2    0    0  0.00000000000E+00  0.00000000000E+00 -0.25111263233E+03  0.37205864302E+04  0.37121026158E+04 0.  0.
        5    1    3    3  502    0 -0.18197914530E+04 -0.25091991113E+03  0.14019609933E+03  0.18423568521E+04  0.46999998093E+01 0. -1.
       -5    1    3    3    0  502  0.18197914530E+04  0.25091991113E+03 -0.39130873166E+03  0.18782295780E+04  0.46999998093E+01 0.  1.
</event>
<event>
 5   0  0.6287345E-07  0.3685938E+04  0.7818609E-02  0.8071085E-01
        1   -1    0    0  501    0  0.00000000000E+00  0.00000000000E+00  0.21769980320E+04  0.21769980320E+04  0.50400001928E-02 0. -1.
       -1   -1    0    0    0  501  0.00000000000E+00  0.00000000000E+00 -0.15601917085E+04  0.15601917085E+04  0.50400001928E-02 0.  1.
    10030    2    1    2    0    0  0.00000000000E+00  0.00000000000E+00  0.61680632348E+03  0.37371897406E+04  0.36859377526E+04 0.  0.
        5    1    3    3  502    0  0.65282436317E+03  0.11310118891E+04  0.16269256120E+04  0.20862110582E+04  0.46999998093E+01 0. -1.
       -5    1    3    3    0  502 -0.65282436317E+03 -0.11310118891E+04 -0.10101192885E+04  0.16509786823E+04  0.46999998093E+01 0.  1.
</event>
<event>
 5   0  0.5875011E-07  0.3436164E+04  0.7818609E-02  0.8129087E-01
        1   -1    0    0  501    0  0.00000000000E+00  0.00000000000E+00  0.87723994551E+03  0.87723994553E+03  0.50400001928E-02 0.  1.
       -1   -1    0    0    0  501  0.00000000000E+00  0.00000000000E+00 -0.33648787484E+04  0.33648787484E+04  0.50400001928E-02 0. -1.
    10030    2    1    2    0    0  0.00000000000E+00  0.00000000000E+00 -0.24876388029E+04  0.42421186939E+04  0.34361641695E+04 0.  0.
        2    1    3    3  502    0  0.95756486625E+03  0.16835455408E+02 -0.30047717033E+04  0.31537068498E+04  0.25500000920E-02 0. -1.
       -2    1    3    3    0  502 -0.95756486625E+03 -0.16835455408E+02  0.51713290043E+03  0.10884118441E+04  0.25500000920E-02 0.  1.
</event>
<event>
 5   0  0.5679750E-07  0.3646360E+04  0.7818609E-02  0.8079954E-01
       -1   -1    0    0    0  501  0.00000000000E+00  0.00000000000E+00  0.29680654862E+04  0.29680654862E+04  0.50400001928E-02 0.  1.
        1   -1    0    0  501    0  0.00000000000E+00  0.00000000000E+00 -0.11199164098E+04  0.11199164098E+04  0.50400001928E-02 0. -1.
    10030    2    1    2    0    0  0.00000000000E+00  0.00000000000E+00  0.18481490764E+04  0.40879818961E+04  0.36463599622E+04 0.  0.
        4    1    3    3  502    0  0.12613606514E+04 -0.95270774940E+03  0.19425617473E+04  0.25044421542E+04  0.12699999809E+01 0.  1.
       -4    1    3    3    0  502 -0.12613606514E+04  0.95270774940E+03 -0.94412670950E+02  0.15835397419E+04  0.12699999809E+01 0. -1.
</event>
<event>
 5   0  0.1184684E-06  0.2965219E+04  0.7818609E-02  0.8253733E-01
       -2   -1    0    0    0  501  0.00000000000E+00  0.00000000000E+00  0.11031386039E+04  0.11031386039E+04  0.25500000920E-02 0.  1.
        2   -1    0    0  501    0  0.00000000000E+00  0.00000000000E+00 -0.19926152513E+04  0.19926152513E+04  0.25500000920E-02 0. -1.
    10030    2    1    2    0    0  0.00000000000E+00  0.00000000000E+00 -0.88947664739E+03  0.30957538553E+04  0.29652189171E+04 0.  0.
        4    1    3    3  502    0 -0.97562021810E+03  0.10952798286E+04 -0.21922840464E+03  0.14830830790E+04  0.12699999809E+01 0. -1.
       -4    1    3    3    0  502  0.97562021810E+03 -0.10952798286E+04 -0.67024824275E+03  0.16126707763E+04  0.12699999809E+01 0.  1.
</event>
<event>
 5   0  0.1685793E-06  0.2655916E+04  0.7818609E-02  0.8349452E-01
       -2   -1    0    0    0  501  0.00000000000E+00  0.00000000000E+00  0.11396239877E+04  0.11396239877E+04  0.25500000920E-02 0.  1.
        2   -1    0    0  501    0  0.00000000000E+00  0.00000000000E+00 -0.15474156044E+04  0.15474156044E+04  0.25500000920E-02 0. -1.
    10030    2    1    2    0    0  0.00000000000E+00  0.00000000000E+00 -0.40779161671E+03  0.26870395921E+04  0.26559156174E+04 0.  0.
        3    1    3    3  502    0  0.52135241816E+03  0.22999059438E+03  0.10096471788E+04  0.11593495820E+04  0.10100000352E+00 0.  1.
       -3    1    3    3    0  502 -0.52135241816E+03 -0.22999059438E+03 -0.14174387956E+04  0.15276900100E+04  0.10100000352E+00 0. -1.
</event>
<event>
 5   0  0.6186440E-07  0.3744454E+04  0.7818609E-02  0.8058181E-01
       -1   -1    0    0    0  501  0.00000000000E+00  0.00000000000E+00  0.24896578618E+04  0.24896578618E+04  0.50400001928E-02 0.  1.
        1   -1    0    0  501    0  0.00000000000E+00  0.00000000000E+00 -0.14079178563E+04  0.14079178563E+04  0.50400001928E-02 0. -1.
    10030    2    1    2    0    0  0.00000000000E+00  0.00000000000E+00  0.10817400055E+04  0.38975757180E+04  0.37444539039E+04 0.  0.
        3    1    3    3  502    0 -0.41180133165E+03 -0.12002837525E+04  0.19737423731E+04  0.23464697715E+04  0.10100000352E+00 0.  1.
       -3    1    3    3    0  502  0.41180133165E+03  0.12002837525E+04 -0.89200236761E+03  0.15511059465E+04  0.10100000352E+00 0. -1.
</event>
<event>
 5   0  0.1184684E-06  0.2046694E+04  0.7818609E-02  0.8585096E-01
        2   -1    0    0  501    0  0.00000000000E+00  0.00000000000E+00  0.86128984273E+03  0.86128984274E+03  0.25500000920E-02 0.  1.
       -2   -1    0    0    0  501  0.00000000000E+00  0.00000000000E+00 -0.12158964536E+04  0.12158964536E+04  0.25500000920E-02 0. -1.
    10030    2    1    2    0    0  0.00000000000E+00  0.00000000000E+00 -0.35460661089E+03  0.20771862964E+04  0.20466941787E+04 0.  0.
        4    1    3    3  502    0  0.11571989527E+03  0.87936783823E+03  0.34075105875E+03  0.95015355917E+03  0.12699999809E+01 0.  1.
       -4    1    3    3    0  502 -0.11571989527E+03 -0.87936783823E+03 -0.69535766964E+03  0.11270327372E+04  0.12699999809E+01 0. -1.
</event>
<event>
 5   0  0.1702548E-06  0.1869767E+04  0.7818609E-02  0.8670053E-01
        2   -1    0    0  501    0  0.00000000000E+00  0.00000000000E+00  0.12310179672E+04  0.12310179672E+04  0.25500000920E-02 0. -1.
       -2   -1    0    0    0  501  0.00000000000E+00  0.00000000000E+00 -0.70998720770E+03  0.70998720770E+03  0.25500000920E-02 0.  1.
    10030    2    1    2    0    0  0.00000000000E+00  0.00000000000E+00  0.52103075953E+03  0.19410051749E+04  0.18697668402E+04 0.  0.
        2    1    3    3  502    0 -0.39611659863E+03  0.48134651637E+03  0.98376963266E+03  0.11646482382E+04  0.25500000920E-02 0. -1.
       -2    1    3    3    0  502  0.39611659863E+03 -0.48134651637E+03 -0.46273887313E+03  0.77635693675E+03  0.25500000920E-02 0.  1.
</event>
<event>
 5   0  0.1680194E-06  0.3618450E+04  0.7818609E-02  0.8086279E-01
       -2   -1    0    0    0  501  0.00000000000E+00  0.00000000000E+00  0.11095244639E+04  0.11095244639E+04  0.25500000920E-02 0.  1.
        2   -1    0    0  501    0  0.00000000000E+00  0.00000000000E+00 -0.29501779468E+04  0.29501779468E+04  0.25500000920E-02 0. -1.
    10030    2    1    2    0    0  0.00000000000E+00  0.00000000000E+00 -0.18406534829E+04  0.40597024108E+04  0.36184497260E+04 0.  0.
        2    1    3    3  502    0 -0.15093571771E+04  0.99488587758E+03 -0.10022948600E+04  0.20670152356E+04  0.25500000920E-02 0. -1.
       -2    1    3    3    0  502  0.15093571771E+04 -0.99488587758E+03 -0.83835862290E+03  0.19926871752E+04  0.25500000920E-02 0.  1.
</event>
<event>
 5   0  0.5875011E-07  0.2668622E+04  0.7818609E-02  0.8345258E-01
       -1   -1    0    0    0  501  0.00000000000E+00  0.00000000000E+00  0.13439939737E+04  0.13439939737E+04  0.50400001928E-02 0.  1.
        1   -1    0    0  501    0  0.00000000000E+00  0.00000000000E+00 -0.13246981214E+04  0.13246981214E+04  0.50400001928E-02 0. -1.
    10030    2    1    2    0    0  0.00000000000E+00  0.00000000000E+00  0.19295852311E+02  0.26686920951E+04  0.26686223353E+04 0.  0.
        2    1    3    3  502    0 -0.57841957970E+02  0.10924093583E+04 -0.75436314051E+03  0.13288219016E+04  0.25500000920E-02 0. -1.
       -2    1    3    3    0  502  0.57841957970E+02 -0.10924093583E+04  0.77365899282E+03  0.13398701935E+04  0.25500000920E-02 0.  1.
</event>
<event>
 5   0  0.5679750E-07  0.3273142E+04  0.7818609E-02  0.8169763E-01
       -1   -1    0    0    0  501  0.00000000000E+00  0.00000000000E+00  0.14662980215E+04  0.14662980215E+04  0.50400001928E-02 0.  1.
        1   -1    0    0  501    0  0.00000000000E+00  0.00000000000E+00 -0.18266173252E+04  0.18266173252E+04  0.50400001928E-02 0. -1.
    10030    2    1    2    0    0  0.00000000000E+00  0.00000000000E+00 -0.36031930377E+03  0.32929153467E+04  0.32731424472E+04 0.  0.
        4    1    3    3  502    0 -0.89716132009E+03  0.12115032692E+04 -0.82097311204E+03  0.17165771376E+04  0.12699999809E+01 0. -1.
       -4    1    3    3    0  502  0.89716132009E+03 -0.12115032692E+04  0.46065380827E+03  0.15763382091E+04  0.12699999809E+01 0.  1.
</event>
<event>
 5   0  0.1151180E-06  0.3722208E+04  0.7818609E-02  0.8063058E-01
       -2   -1    0    0    0  501  0.00000000000E+00  0.00000000000E+00  0.16476648553E+04  0.16476648553E+04  0.25500000920E-02 0. -1.
        2   -1    0    0  501    0  0.00000000000E+00  0.00000000000E+00 -0.21021917801E+04  0.21021917801E+04  0.25500000920E-02 0.  1.
    10030    2    1    2    0    0  0.00000000000E+00  0.00000000000E+00 -0.45452692482E+03  0.37498566354E+04  0.37222076864E+04 0.  0.
        5    1    3    3  502    0 -0.14074082345E+04 -0.56875870095E+03  0.85748964475E+03  0.17434434259E+04  0.46999998093E+01 0. -1.
       -5    1    3    3    0  502  0.14074082345E+04  0.56875870095E+03 -0.13120165696E+04  0.20064132095E+04  0.46999998093E+01 0.  1.
</event>
<event>
 5   0  0.6186440E-07  0.3498706E+04  0.7818609E-02  0.8114097E-01
       -1   -1    0    0    0  501  0.00000000000E+00  0.00000000000E+00  0.20454807734E+04  0.20454807735E+04  0.50400001928E-02 0.  1.
        1   -1    0    0  501    0  0.00000000000E+00  0.00000000000E+00 -0.14960958478E+04  0.14960958478E+04  0.50400001928E-02 0. -1.
    10030    2    1    2    0    0  0.00000000000E+00  0.00000000000E+00  0.54938492562E+03  0.35415766213E+04  0.34987056418E+04 0.  0.
        3    1    3    3  502    0 -0.14065938040E+04 -0.38249792797E+03 -0.70433213633E+03  0.16189177134E+04  0.10100000352E+00 0. -1.
       -3    1    3    3    0  502  0.14065938040E+04  0.38249792797E+03  0.12537170620E+04  0.19226589079E+04  0.10100000352E+00 0.  1.
</event>
<event>
 5   0  0.1680194E-06  0.3606572E+04  0.7818609E-02  0.8088988E-01
        2   -1    0    0  501    0  0.00000000000E+00  0.00000000000E+00  0.20973865429E+04  0.20973865429E+04  0.25500000920E-02 0. -1.
       -2   -1    0    0    0  501  0.00000000000E+00  0.00000000000E+00 -0.15504249798E+04  0.15504249798E+04  0.25500000920E-02 0.  1.
    10030    2    1    2    0    0  0.00000000000E+00  0.00000000000E+00  0.54696156313E+03  0.36478115227E+04  0.36065720503E+04 0.  0.
        2    1    3    3  502    0  0.14969904455E+04  0.97941652812E+03  0.50324201988E+03  0.18583567096E+04  0.25500000920E-02 0. -1.
       -2    1    3    3    0  502 -0.14969904455E+04 -0.97941652812E+03  0.43719543249E+02  0.17894548131E+04  0.25500000920E-02 0.  1.
</event>
<event>
 5   0  0.1184684E-06  0.3372935E+04  0.7818609E-02  0.8144581E-01
       -2   -1    0    0    0  501  0.00000000000E+00  0.00000000000E+00  0.20413842051E+04  0.20413842051E+04  0.25500000920E-02 0. -1.
        2   -1    0    0  501    0  0.00000000000E+00  0.00000000000E+00 -0.13932572575E+04  0.13932572575E+04  0.25500000920E-02 0.  1.
    10030    2    1    2    0    0  0.00000000000E+00  0.00000000000E+00  0.64812694756E+03  0.34346414626E+04  0.33729354331E+04 0.  0.
        4    1    3    3  502    0  0.81742589826E+03 -0.12953805445E+04  0.10426474684E+04  0.18529196449E+04  0.12699999809E+01 0. -1.
       -4    1    3    3    0  502 -0.81742589826E+03  0.12953805445E+04 -0.39452052084E+03  0.15817218177E+04  0.12699999809E+01 0.  1.
</event>
<event>
 5   0  0.5875011E-07  0.2591513E+04  0.7818609E-02  0.8371090E-01
        1   -1    0    0  501    0  0.00000000000E+00  0.00000000000E+00  0.85548293624E+03  0.85548293625E+03  0.50400001928E-02 0. -1.
       -1   -1    0    0    0  501  0.00000000000E+00  0.00000000000E+00 -0.19626166451E+04  0.19626166451E+04  0.50400001928E-02 0.  1.
    10030    2    1    2    0    0  0.00000000000E+00  0.00000000000E+00 -0.11071337088E+04  0.28180995813E+04  0.25915131103E+04 0.  0.
        2    1    3    3  502    0 -0.19604758567E+03  0.87873674369E+03  0.45977472587E+03  0.10109429851E+04  0.25500000920E-02 0. -1.
       -2    1    3    3    0  502  0.19604758567E+03 -0.87873674369E+03 -0.15669084347E+04  0.18071565962E+04  0.25500000920E-02 0.  1.
</event>
<event>
 5   0  0.1151180E-06  0.2756366E+04  0.7818609E-02  0.8316944E-01
       -2   -1    0    0    0  501  0.00000000000E+00  0.00000000000E+00  0.10654576641E+04  0.10654576641E+04  0.25500000920E-02 0.  1.
        2   -1    0    0  501    0  0.00000000000E+00  0.00000000000E+00 -0.17826974082E+04  0.17826974082E+04  0.25500000920E-02 0. -1.
    10030    2    1    2    0    0  0.00000000000E+00  0.00000000000E+00 -0.71723974411E+03  0.28481550722E+04  0.27563661703E+04 0.  0.
        5    1    3    3  502    0 -0.48920904333E+03  0.20724730646E+03  0.95537527529E+03  0.10931792812E+04  0.46999998093E+01 0.  1.
       -5    1    3    3    0  502  0.48920904333E+03 -0.20724730646E+03 -0.16726150194E+04  0.17549757911E+04  0.46999998093E+01 0. -1.
</event>
<event>
 5   0  0.1685793E-06  0.4002383E+04  0.7818609E-02  0.8004066E-01
       -2   -1    0    0    0  501  0.00000000000E+00  0.00000000000E+00  0.14832492432E+04  0.14832492432E+04  0.25500000920E-02 0.  1.
        2   -1    0    0  501    0  0.00000000000E+00  0.00000000000E+00 -0.26999968493E+04  0.26999968493E+04  0.25500000920E-02 0. -1.
    10030    2    1    2    0    0  0.00000000000E+00  0.00000000000E+00 -0.12167476060E+04  0.41832460925E+04  0.40023834316E+04 0.  0.
        3    1    3    3  502    0  0.40457060282E+02 -0.70041552835E+03 -0.25672453315E+04  0.26613844684E+04  0.10100000352E+00 0. -1.
       -3    1    3    3    0  502 -0.40457060282E+02  0.70041552835E+03  0.13504977255E+04  0.15218616241E+04  0.10100000352E+00 0.  1.
</event>
<event>
 5   0  0.1184684E-06  0.2323372E+04  0.7818609E-02  0.8468763E-01
       -2   -1    0    0    0  501  0.00000000000E+00  0.00000000000E+00  0.13389435729E+04  0.13389435729E+04  0.25500000920E-02 0. -1.
        2   -1    0    0  501    0  0.00000000000E+00  0.00000000000E+00 -0.10078946841E+04  0.10078946841E+04  0.25500000920E-02 0.  1.
    10030    2    1    2    0    0  0.00000000000E+00  0.00000000000E+00  0.33104888882E+03  0.23468382570E+04  0.23233717821E+04 0.  0.
        4    1    3    3  502    0  0.38821451082E+03  0.10223169139E+04  0.56149159716E+03  0.12292749104E+04  0.12699999809E+01 0. -1.
       -4    1    3    3    0  502 -0.38821451082E+03 -0.10223169139E+04 -0.23044270834E+03  0.11175633466E+04  0.12699999809E+01 0.  1.
</event>
<event>
 5   0  0.1151180E-06  0.2137127E+04  0.7818609E-02  0.8545063E-01
       -2   -1    0    0    0  501  0.00000000000E+00  0.00000000000E+00  0.10246567486E+04  0.10246567486E+04  0.25500000920E-02 0.  1.
        2   -1    0    0  501    0  0.00000000000E+00  0.00000000000E+00 -0.11143518469E+04  0.11143518469E+04  0.25500000920E-02 0. -1.
    10030    2    1    2    0    0  0.00000000000E+00  0.00000000000E+00 -0.89695098276E+02  0.21390085955E+04  0.21371271747E+04 0.  0.
        5    1    3    3  502    0  0.16372553544E+03  0.65515346478E+03 -0.87369126847E+03  0.11042602211E+04  0.46999998093E+01 0. -1.
       -5    1    3    3    0  502 -0.16372553544E+03 -0.65515346478E+03  0.78399617020E+03  0.10347483744E+04  0.46999998093E+01 0.  1.
</event>
<event>
 5   0  0.1685793E-06  0.2429031E+04  0.7818609E-02  0.8428714E-01
       -2   -1    0    0    0  501  0.00000000000E+00  0.00000000000E+00  0.65594428021E+03  0.65594428021E+03  0.25500000920E-02 0. -1.
        2   -1    0    0  501    0  0.00000000000E+00  0.00000000000E+00 -0.22487394734E+04  0.22487394734E+04  0.25500000920E-02 0.  1.
    10030    2    1    2    0    0  0.00000000000E+00  0.00000000000E+00 -0.15927951932E+04  0.29046837537E+04  0.24290309140E+04 0.  0.
        3    1    3    3  502    0 -0.86746775162E+03 -0.84255602529E+03 -0.93087726853E+03  0.15260843539E+04  0.10100000352E+00 0.  1.
       -3    1    3    3    0  502  0.86746775162E+03  0.84255602529E+03 -0.66191792471E+03  0.13785993998E+04  0.10100000352E+00 0. -1.
</event>
<event>
 5   0  0.6261598E-07  0.2288649E+04  0.7818609E-02  0.8482410E-01
        1   -1    0    0  501    0  0.00000000000E+00  0.00000000000E+00  0.14555812849E+04  0.14555812849E+04  0.50400001928E-02 0.  1.
       -1   -1    0    0    0  501  0.00000000000E+00  0.00000000000E+00 -0.89962586347E+03  0.89962586348E+03  0.50400001928E-02 0. -1.
    10030    2    1    2    0    0  0.00000000000E+00  0.00000000000E+00  0.55595542141E+03  0.23552071484E+04  0.22886490079E+04 0.  0.
        1    1    3    3  502    0 -0.11775883967E+03  0.43115202486E+03  0.13620456441E+04  0.14335018484E+04  0.50400001928E-02 0.  1.
       -1    1    3    3    0  502  0.11775883967E+03 -0.43115202486E+03 -0.80609022266E+03  0.92170529995E+03  0.50400001928E-02 0. -1.
</event>
<event>
 5   0  0.1184684E-06  0.2834847E+04  0.7818609E-02  0.8292531E-01
       -2   -1    0    0    0  501  0.00000000000E+00  0.00000000000E+00  0.10190078023E+04  0.10190078023E+04  0.25500000920E-02 0.  1.
        2   -1    0    0  501    0  0.00000000000E+00  0.00000000000E+00 -0.19716138973E+04  0.19716138973E+04  0.25500000920E-02 0. -1.
    10030    2    1    2    0    0  0.00000000000E+00  0.00000000000E+00 -0.95260609494E+03  0.29906216996E+04  0.28348473994E+04 0.  0.
        4    1    3    3  502    0  0.99511274591E+03  0.74362095242E+03 -0.11963531075E+04  0.17246692056E+04  0.12699999809E+01 0. -1.
       -4    1    3    3    0  502 -0.99511274591E+03 -0.74362095242E+03  0.24374701260E+03  0.12659524940E+04  0.12699999809E+01 0.  1.
</event>
<event>
 5   0  0.6287345E-07  0.3717252E+04  0.7818609E-02  0.8064149E-01
       -1   -1    0    0    0  501  0.00000000000E+00  0.00000000000E+00  0.18060394926E+04  0.18060394926E+04  0.50400001928E-02 0. -1.
        1   -1    0    0  501    0  0.00000000000E+00  0.00000000000E+00 -0.19127437803E+04  0.19127437803E+04  0.50400001928E-02 0.  1.
    10030    2    1    2    0    0  0.00000000000E+00  0.00000000000E+00 -0.10670428772E+03  0.37187832728E+04  0.37172521068E+04 0.  0.
        5    1    3    3  502    0  0.12358544864E+04 -0.13075383028E+04  0.41318315881E+03  0.18460051835E+04  0.46999998093E+01 0. -1.
       -5    1    3    3    0  502 -0.12358544864E+04  0.13075383028E+04 -0.51988744653E+03  0.18727780893E+04  0.46999998093E+01 0.  1.
</event>
<event>
 5   0  0.5679750E-07  0.3812528E+04  0.7818609E-02  0.8043472E-01
        1   -1    0    0  501    0  0.00000000000E+00  0.00000000000E+00  0.11997951552E+04  0.11997951552E+04  0.50400001928E-02 0. -1.
       -1   -1    0    0    0  501  0.00000000000E+00  0.00000000000E+00 -0.30287193119E+04  0.30287193119E+04  0.50400001928E-02 0.  1.
    10030    2    1    2    0    0  0.00000000000E+00  0.00000000000E+00 -0.18289241568E+04  0.42285144671E+04  0.38125281674E+04 0.  0.
        4    1    3    3  502    0 -0.11570572825E+04  0.80666959370E+03  0.50777195373E+03  0.14991101889E+04  0.12699999809E+01 0. -1.
       -4    1    3    3    0  502  0.11570572825E+04 -0.80666959370E+03 -0.23366961105E+04  0.27294042782E+04  0.12699999809E+01 0.  1.
</event>
<event>
 5   0  0.1685793E-06  0.3576555E+04  0.7818609E-02  0.8095883E-01
        2   -1    0    0  501    0  0.00000000000E+00  0.00000000000E+00  0.12814127170E+04  0.12814127170E+04  0.25500000920E-02 0.  1.
       -2   -1    0    0    0  501  0.00000000000E+00  0.00000000000E+00 -0.24956339387E+04  0.24956339387E+04  0.25500000920E-02 0. -1.
    10030    2    1    2    0    0  0.00000000000E+00  0.00000000000E+00 -0.12142212218E+04  0.37770466557E+04  0.35765553629E+04 0.  0.
        3    1    3    3  502    0 -0.11756121743E+04  0.13469711114E+04 -0.56564242878E+03  0.18751923973E+04  0.10100000352E+00 0. -1.
       -3    1    3    3    0  502  0.11756121743E+04 -0.13469711114E+04 -0.64857879298E+03  0.19018542584E+04  0.10100000352E+00 0.  1.
</event>
<event>
 5   0  0.6186440E-07  0.3752580E+04  0.7818609E-02  0.8056408E-01
       -1   -1    0    0    0  501  0.00000000000E+00  0.00000000000E+00  0.17702374670E+04  0.17702374671E+04  0.50400001928E-02 0. -1.
        1   -1    0    0  501    0  0.00000000000E+00  0.00000000000E+00 -0.19886963248E+04  0.19886963248E+04  0.50400001928E-02 0.  1.
    10030    2    1    2    0    0  0.00000000000E+00  0.00000000000E+00 -0.21845885779E+03  0.37589337919E+04  0.37525803095E+04 0.  0.
        3    1    3    3  502    0  0.79827796494E+02 -0.69628607716E+03  0.16341994807E+04  0.17781436194E+04  0.10100000352E+00 0. -1.
       -3    1    3    3    0  502 -0.79827796494E+02  0.69628607716E+03 -0.18526583384E+04  0.19807901725E+04  0.10100000352E+00 0.  1.
</event>
<event>
 5   0  0.6186440E-07  0.1957976E+04  0.7818609E-02  0.8626524E-01
        1   -1    0    0  501    0  0.00000000000E+00  0.00000000000E+00  0.44558768511E+03  0.44558768514E+03  0.50400001928E-02 0.  1.
       -1   -1    0    0    0  501  0.00000000000E+00  0.00000000000E+00 -0.21509057092E+04  0.21509057092E+04  0.50400001928E-02 0. -1.
    10030    2    1    2    0    0  0.00000000000E+00  0.00000000000E+00 -0.17053180241E+04  0.25964933944E+04  0.19579755830E+04 0.  0.
        3    1    3    3  502    0 -0.46829907268E+03 -0.74883184954E+03 -0.14127176001E+04  0.16660804867E+04  0.10100000352E+00 0. -1.
       -3    1    3    3    0  502  0.46829907268E+03  0.74883184954E+03 -0.29260042397E+03  0.93041290762E+03  0.10100000352E+00 0.  1.
</event>
<event>
 5   0  0.1151180E-06  0.1951170E+04  0.7818609E-02  0.8629797E-01
       -2   -1    0    0    0  501  0.00000000000E+00  0.00000000000E+00  0.58136553727E+03  0.58136553728E+03  0.25500000920E-02 0.  1.
        2   -1    0    0  501    0  0.00000000000E+00  0.00000000000E+00 -0.16371208475E+04  0.16371208475E+04  0.25500000920E-02 0. -1.
    10030    2    1    2    0    0  0.00000000000E+00  0.00000000000E+00 -0.10557553103E+04  0.22184863848E+04  0.19511695376E+04 0.  0.
        5    1    3    3  502    0  0.75344377194E+03 -0.53782735581E+03 -0.87797089447E+03  0.12758490364E+04  0.46999998093E+01 0. -1.
       -5    1    3    3    0  502 -0.75344377194E+03  0.53782735581E+03 -0.17778441579E+03  0.94263734842E+03  0.46999998093E+01 0.  1.
</event>
<event>
 5   0  0.5875011E-07  0.3442464E+04  0.7818609E-02  0.8127562E-01
       -1   -1    0    0    0  501  0.00000000000E+00  0.00000000000E+00  0.19167648417E+04  0.19167648417E+04  0.50400001928E-02 0.  1.
        1   -1    0    0  501    0  0.00000000000E+00  0.00000000000E+00 -0.15456456864E+04  0.15456456864E+04  0.50400001928E-02 0. -1.
    10030    2    1    2    0    0  0.00000000000E+00  0.00000000000E+00  0.37111915532E+03  0.34624105281E+04  0.34424638324E+04 0.  0.
        2    1    3    3  502    0 -0.29303722063E+03  0.22885324091E+02 -0.15202167915E+04  0.15483712875E+04  0.25500000920E-02 0. -1.
       -2    1    3    3    0  502  0.29303722063E+03 -0.22885324091E+02  0.18913359468E+04  0.19140392406E+04  0.25500000920E-02 0.  1.
</event>
<event>
 5   0  0.5875011E-07  0.3279297E+04  0.7818609E-02  0.8168183E-01
        1   -1    0    0  501    0  0.00000000000E+00  0.00000000000E+00  0.20337052916E+04  0.20337052916E+04  0.50400001928E-02 0.  1.
       -1   -1    0    0    0  501  0.00000000000E+00  0.00000000000E+00 -0.13219456014E+04  0.13219456014E+04  0.50400001928E-02 0. -1.
    10030    2    1    2    0    0  0.00000000000E+00  0.00000000000E+00  0.71175969020E+03  0.33556508930E+04  0.32792973423E+04 0.  0.
        2    1    3    3  502    0  0.14914728367E+04  0.68056137860E+03  0.38469126849E+03  0.16839365738E+04  0.25500000920E-02 0. -1.
       -2    1    3    3    0  502 -0.14914728367E+04 -0.68056137860E+03  0.32706842171E+03  0.16717143192E+04  0.25500000920E-02 0.  1.
</event>
<event>
 5   0  0.6186440E-07  0.3728942E+04  0.7818609E-02  0.8061578E-01
        1   -1    0    0  501    0  0.00000000000E+00  0.00000000000E+00  0.21281375438E+04  0.21281375438E+04  0.50400001928E-02 0.  1.
       -1   -1    0    0    0  501  0.00000000000E+00  0.00000000000E+00 -0.16334713777E+04  0.16334713777E+04  0.50400001928E-02 0. -1.
    10030    2    1    2    0    0  0.00000000000E+00  0.00000000000E+00  0.49466616604E+03  0.37616089215E+04  0.37289418154E+04 0.  0.
        3    1    3    3  502    0 -0.14243679759E+04 -0.44457559342E+03  0.13750623438E+04  0.20291052335E+04  0.10100000352E+00 0.  1.
       -3    1    3    3    0  502  0.14243679759E+04  0.44457559342E+03 -0.88039617776E+03  0.17325036880E+04  0.10100000352E+00 0. -1.
</event>
<event>
 5   0  0.5875011E-07  0.3533009E+04  0.7818609E-02  0.8106011E-01
       -1   -1    0    0    0  501  0.00000000000E+00  0.00000000000E+00  0.18031909834E+04  0.18031909834E+04  0.50400001928E-02 0. -1.
        1   -1    0    0  501    0  0.00000000000E+00  0.00000000000E+00 -0.17305645348E+04  0.17305645348E+04  0.50400001928E-02 0.  1.
    10030    2    1    2    0    0  0.00000000000E+00  0.00000000000E+00  0.72626448604E+02  0.35337555181E+04  0.35330091227E+04 0.  0.
        2    1    3    3  502    0 -0.12264963813E+04  0.11789262072E+04  0.51220570256E+03  0.17766583963E+04  0.25500000920E-02 0. -1.
       -2    1    3    3    0  502  0.12264963813E+04 -0.11789262072E+04 -0.43957925396E+03  0.17570971219E+04  0.25500000920E-02 0.  1.
</event>
<event>
 5   0  0.5875011E-07  0.3627540E+04  0.7818609E-02  0.8084212E-01
       -1   -1    0    0    0  501  0.00000000000E+00  0.00000000000E+00  0.14913327727E+04  0.14913327728E+04  0.50400001928E-02 0.  1.
        1   -1    0    0  501    0  0.00000000000E+00  0.00000000000E+00 -0.22059202984E+04  0.22059202985E+04  0.50400001928E-02 0. -1.
    10030    2    1    2    0    0  0.00000000000E+00  0.00000000000E+00 -0.71458752570E+03  0.36972530712E+04  0.36275397917E+04 0.  0.
        2    1    3    3  502    0 -0.11192122289E+04 -0.86557684187E+02 -0.18093242998E+04  0.21292681062E+04  0.25500000920E-02 0. -1.
       -2    1    3    3    0  502  0.11192122289E+04  0.86557684187E+02  0.10947367741E+04  0.15679849650E+04  0.25500000920E-02 0.  1.
</event>
<event>
 5   0  0.5875011E-07  0.2525747E+04  0.7818609E-02  0.8393870E-01
        1   -1    0    0  501    0  0.00000000000E+00  0.00000000000E+00  0.19636556179E+04  0.19636556179E+04  0.50400001928E-02 0.  1.
       -1   -1    0    0    0  501  0.00000000000E+00  0.00000000000E+00 -0.81218364410E+03  0.81218364412E+03  0.50400001928E-02 0. -1.
    10030    2    1    2    0    0  0.00000000000E+00  0.00000000000E+00  0.11514719738E+04  0.27758392620E+04  0.25257466029E+04 0.  0.
        2    1    3    3  502    0 -0.59242535723E+03  0.57234471236E+03 -0.47628407116E+03  0.95152130302E+03  0.25500000920E-02 0. -1.
       -2    1    3    3    0  502  0.59242535723E+03 -0.57234471236E+03  0.16277560450E+04  0.18243179590E+04  0.25500000920E-02 0.  1.
</event>
<event>
 5   0  0.5679750E-07  0.3674236E+04  0.7818609E-02  0.8073695E-01
       -1   -1    0    0    0  501  0.00000000000E+00  0.00000000000E+00  0.18596193382E+04  0.18596193382E+04  0.50400001928E-02 0. -1.
        1   -1    0    0  501    0  0.00000000000E+00  0.00000000000E+00 -0.18148893411E+04  0.18148893411E+04  0.50400001928E-02 0.  1.
    10030    2    1    2    0    0  0.00000000000E+00  0.00000000000E+00  0.44729997082E+02  0.36745086793E+04  0.36742364188E+04 0.  0.
        4    1    3    3  502    0  0.54188660805E+03 -0.10526269429E+04  0.14272242742E+04  0.18543557692E+04  0.12699999809E+01 0. -1.
       -4    1    3    3    0  502 -0.54188660805E+03  0.10526269429E+04 -0.13824942772E+04  0.18201529101E+04  0.12699999809E+01 0.  1.
</event>
<event>
 5   0  0.1680194E-06  0.3387324E+04  0.7818609E-02  0.8141025E-01
        2   -1    0    0  501    0  0.00000000000E+00  0.00000000000E+00  0.13678473053E+04  0.13678473053E+04  0.25500000920E-02 0.  1.
       -2   -1    0    0    0  501  0.00000000000E+00  0.00000000000E+00 -0.20970837910E+04  0.20970837910E+04  0.25500000920E-02 0. -1.
    10030    2    1    2    0    0  0.00000000000E+00  0.00000000000E+00 -0.72923648571E+03  0.34649310963E+04  0.33873236707E+04 0.  0.
        2    1    3    3  502    0  0.58441718817E+03 -0.20385702174E+03 -0.19772496577E+04  0.20718632542E+04  0.25500000920E-02 0. -1.
       -2    1    3    3    0  502 -0.58441718817E+03  0.20385702174E+03  0.12480131720E+04  0.13930678421E+04  0.25500000920E-02 0.  1.
</event>
<event>
 5   0  0.5679750E-07  0.3665725E+04  0.7818609E-02  0.8075600E-01
       -1   -1    0    0    0  501  0.00000000000E+00  0.00000000000E+00  0.15399261000E+04  0.15399261000E+04  0.50400001928E-02 0.  1.
        1   -1    0    0  501    0  0.00000000000E+00  0.00000000000E+00 -0.21815231967E+04  0.21815231967E+04  0.50400001928E-02 0. -1.
    10030    2    1    2    0    0  0.00000000000E+00  0.00000000000E+00 -0.64159709672E+03  0.37214492966E+04  0.36657247623E+04 0.  0.
        4    1    3    3  502    0  0.61356748496E+03  0.12274488468E+04  0.91269725156E+03  0.16480635959E+04  0.12699999809E+01 0.  1.
       -4    1    3    3    0  502 -0.61356748496E+03 -0.12274488468E+04 -0.15542943483E+04  0.20733857008E+04  0.12699999809E+01 0. -1.
</event>
<event>
 5   0  0.6287345E-07  0.3571491E+04  0.7818609E-02  0.8097054E-01
        1   -1    0    0  501    0  0.00000000000E+00  0.00000000000E+00  0.18423610635E+04  0.18423610635E+04  0.50400001928E-02 0. -1.
       -1   -1    0    0    0  501  0.00000000000E+00  0.00000000000E+00 -0.17308692736E+04  0.17308692736E+04  0.50400001928E-02 0.  1.
    10030    2    1    2    0    0  0.00000000000E+00  0.00000000000E+00  0.11149178993E+03  0.35732303371E+04  0.35714905323E+04 0.  0.
        5    1    3    3  502    0  0.11235692042E+04  0.13575773194E+03  0.14377319803E+04  0.18297358431E+04  0.46999998093E+01 0. -1.
       -5    1    3    3    0  502 -0.11235692042E+04 -0.13575773194E+03 -0.13262401903E+04  0.17434944940E+04  0.46999998093E+01 0.  1.
</event>
<event>
 5   0  0.5875011E-07  0.3574043E+04  0.7818609E-02  0.8096463E-01
       -1   -1    0    0    0  501  0.00000000000E+00  0.00000000000E+00  0.15672405320E+04  0.15672405320E+04  0.50400001928E-02 0. -1.
        1   -1    0    0  501    0  0.00000000000E+00  0.00000000000E+00 -0.20376236174E+04  0.20376236174E+04  0.50400001928E-02 0.  1.
    10030    2    1    2    0    0  0.00000000000E+00  0.00000000000E+00 -0.47038308540E+03  0.36048641493E+04  0.35740432689E+04 0.  0.
        2    1    3    3  502    0  0.17262344193E+04 -0.24102183948E+03 -0.63288800882E+03  0.18543257614E+04  0.25500000920E-02 0. -1.
       -2    1    3    3    0  502 -0.17262344193E+04  0.24102183948E+03  0.16250492342E+03  0.17505383880E+04  0.25500000920E-02 0.  1.
</event>
<event>
 5   0  0.6287345E-07  0.3778461E+04  0.7818609E-02  0.8050793E-01
        1   -1    0    0  501    0  0.00000000000E+00  0.00000000000E+00  0.14615375625E+04  0.14615375625E+04  0.50400001928E-02 0.  1.
       -1   -1    0    0    0  501  0.00000000000E+00  0.00000000000E+00 -0.24420799455E+04  0.24420799455E+04  0.50400001928E-02 0. -1.
    10030    2    1    2    0    0  0.00000000000E+00  0.00000000000E+00 -0.98054238303E+03  0.39036175080E+04  0.37784608353E+04 0.  0.
        5    1    3    3  502    0 -0.65101024066E+03 -0.31710487353E+03 -0.22930053689E+04  0.24046341814E+04  0.46999998093E+01 0. -1.
       -5    1    3    3    0  502  0.65101024066E+03  0.31710487353E+03  0.13124629859E+04  0.14989833267E+04  0.46999998093E+01 0.  1.
</event>
<event>
 5   0  0.5679750E-07  0.2538493E+04  0.7818609E-02  0.8389399E-01
       -3   -1    0    0    0  501  0.00000000000E+00  0.00000000000E+00  0.12879060695E+04  0.12879060735E+04  0.10100000352E+00 0.  1.
        3   -1    0    0  501    0  0.00000000000E+00  0.00000000000E+00 -0.12508576010E+04  0.12508576051E+04  0.10100000352E+00 0. -1.
    10030    2    1    2    0    0  0.00000000000E+00  0.00000000000E+00  0.37048468482E+02  0.25387636786E+04  0.25384933379E+04 0.  0.
        3    1    3    3  502    0  0.10391713160E+04 -0.19979226782E+03 -0.68240211592E+03  0.12591531410E+04  0.10100000352E+00 0. -1.
       -3    1    3    3    0  502 -0.10391713160E+04  0.19979226782E+03  0.71945058440E+03  0.12796105376E+04  0.10100000352E+00 0.  1.
</event>
<event>
 5   0  0.1151180E-06  0.3630816E+04  0.7818609E-02  0.8083469E-01
       -2   -1    0    0    0  501  0.00000000000E+00  0.00000000000E+00  0.11756888466E+04  0.11756888466E+04  0.25500000920E-02 0. -1.
        2   -1    0    0  501    0  0.00000000000E+00  0.00000000000E+00 -0.28032137110E+04  0.28032137110E+04  0.25500000920E-02 0.  1.
    10030    2    1    2    0    0  0.00000000000E+00  0.00000000000E+00 -0.16275248644E+04  0.39789025576E+04  0.36308164893E+04 0.  0.
        5    1    3    3  502    0  0.32973733651E+03 -0.63633563055E+03 -0.26416114483E+04  0.27371121424E+04  0.46999998093E+01 0.  1.
       -5    1    3    3    0  502 -0.32973733651E+03  0.63633563055E+03  0.10140865839E+04  0.12417904153E+04  0.46999998093E+01 0. -1.
</event>
<event>
 5   0  0.5679750E-07  0.3672351E+04  0.7818609E-02  0.8074117E-01
       -3   -1    0    0    0  501  0.00000000000E+00  0.00000000000E+00  0.16336848018E+04  0.16336848049E+04  0.10100000352E+00 0. -1.
        3   -1    0    0  501    0  0.00000000000E+00  0.00000000000E+00 -0.20637639724E+04  0.20637639748E+04  0.10100000352E+00 0.  1.
    10030    2    1    2    0    0  0.00000000000E+00  0.00000000000E+00 -0.43007917054E+03  0.36974487798E+04  0.36723506622E+04 0.  0.
        2    1    3    3  502    0 -0.14579410920E+03 -0.93223328818E+03 -0.18009954543E+04  0.20331993144E+04  0.25500000920E-02 0.  1.
       -2    1    3    3    0  502  0.14579410920E+03  0.93223328818E+03  0.13709162837E+04  0.16642494653E+04  0.25500000920E-02 0. -1.
</event>
<event>
 5   0  0.1151180E-06  0.3642976E+04  0.7818609E-02  0.8080718E-01
       -2   -1    0    0    0  501  0.00000000000E+00  0.00000000000E+00  0.15356272071E+04  0.15356272071E+04  0.25500000920E-02 0. -1.
        2   -1    0    0  501    0  0.00000000000E+00  0.00000000000E+00 -0.21605627326E+04  0.21605627326E+04  0.25500000920E-02 0.  1.
    10030    2    1    2    0    0  0.00000000000E+00  0.00000000000E+00 -0.62493552546E+03  0.36961899397E+04  0.36429762090E+04 0.  0.
        5    1    3    3  502    0  0.13446031177E+04 -0.11168325980E+04  0.20738773507E+03  0.17602000905E+04  0.46999998093E+01 0. -1.
       -5    1    3    3    0  502 -0.13446031177E+04  0.11168325980E+04 -0.83232326053E+03  0.19359898492E+04  0.46999998093E+01 0.  1.
</event>
<event>
 5   0  0.6261598E-07  0.3129471E+04  0.7818609E-02  0.8207696E-01
       -1   -1    0    0    0  501  0.00000000000E+00  0.00000000000E+00  0.12116414153E+04  0.12116414153E+04  0.50400001928E-02 0.  1.
        1   -1    0    0  501    0  0.00000000000E+00  0.00000000000E+00 -0.20207277895E+04  0.20207277895E+04  0.50400001928E-02 0. -1.
    10030    2    1    2    0    0  0.00000000000E+00  0.00000000000E+00 -0.80908637416E+03  0.32323692048E+04  0.31294711878E+04 0.  0.
        1    1    3    3  502    0  0.11792687377E+04  0.93114610025E+02  0.65336649622E+03  0.13513818353E+04  0.50400001928E-02 0.  1.
       -1    1    3    3    0  502 -0.11792687377E+04 -0.93114610025E+02 -0.14624528704E+04  0.18809873696E+04  0.50400001928E-02 0. -1.
</event>
<event>
 5   0  0.5875011E-07  0.2951962E+04  0.7818609E-02  0.8257583E-01
        1   -1    0    0  501    0  0.00000000000E+00  0.00000000000E+00  0.27866766262E+04  0.27866766262E+04  0.50400001928E-02 0. -1.
       -1   -1    0    0    0  501  0.00000000000E+00  0.00000000000E+00 -0.78176250764E+03  0.78176250765E+03  0.50400001928E-02 0.  1.
    10030    2    1    2    0    0  0.00000000000E+00  0.00000000000E+00  0.20049141185E+04  0.35684391338E+04  0.29519615900E+04 0.  0.
        2    1    3    3  502    0 -0.73335818746E+03 -0.86785194496E+02 -0.54238377655E+03  0.91625654822E+03  0.25500000920E-02 0.  1.
       -2    1    3    3    0  502  0.73335818746E+03  0.86785194496E+02  0.25472978951E+04  0.26521825856E+04  0.25500000920E-02 0. -1.
</event>
<event>
 5   0  0.5875011E-07  0.3735844E+04  0.7818609E-02  0.8060065E-01
        1   -1    0    0  501    0  0.00000000000E+00  0.00000000000E+00  0.16359583305E+04  0.16359583305E+04  0.50400001928E-02 0. -1.
       -1   -1    0    0    0  501  0.00000000000E+00  0.00000000000E+00 -0.21327757509E+04  0.21327757509E+04  0.50400001928E-02 0.  1.
    10030    2    1    2    0    0  0.00000000000E+00  0.00000000000E+00 -0.49681742036E+03  0.37687340814E+04  0.37358438172E+04 0.  0.
        2    1    3    3  502    0  0.62942749735E+03  0.17586605339E+04 -0.24018781566E+03  0.18832833124E+04  0.25500000920E-02 0.  1.
       -2    1    3    3    0  502 -0.62942749735E+03 -0.17586605339E+04 -0.25662960470E+03  0.18854507689E+04  0.25500000920E-02 0. -1.
</event>
<event>
 5   0  0.1184684E-06  0.1892123E+04  0.7818609E-02  0.8658787E-01
        2   -1    0    0  501    0  0.00000000000E+00  0.00000000000E+00  0.13892205796E+04  0.13892205796E+04  0.25500000920E-02 0.  1.
       -2   -1    0    0    0  501  0.00000000000E+00  0.00000000000E+00 -0.64426937972E+03  0.64426937972E+03  0.25500000920E-02 0. -1.
    10030    2    1    2    0    0  0.00000000000E+00  0.00000000000E+00  0.74495119990E+03  0.20334899593E+04  0.18921229147E+04 0.  0.
        4    1    3    3  502    0  0.31798492683E+03 -0.71893242512E+03 -0.19320809777E+03  0.80951172167E+03  0.12699999809E+01 0. -1.
       -4    1    3    3    0  502 -0.31798492683E+03  0.71893242512E+03  0.93815929767E+03  0.12239782377E+04  0.12699999809E+01 0.  1.
</event>
<event>
 5   0  0.6287345E-07  0.2299272E+04  0.7818609E-02  0.8478208E-01
       -1   -1    0    0    0  501  0.00000000000E+00  0.00000000000E+00  0.97900371062E+03  0.97900371063E+03  0.50400001928E-02 0. -1.
        1   -1    0    0  501    0  0.00000000000E+00  0.00000000000E+00 -0.13500077029E+04  0.13500077029E+04  0.50400001928E-02 0.  1.
    10030    2    1    2    0    0  0.00000000000E+00  0.00000000000E+00 -0.37100399224E+03  0.23290114135E+04  0.22992716677E+04 0.  0.
        5    1    3    3  502    0  0.49395973198E+03  0.48665470286E+03 -0.11143200235E+04  0.13124634171E+04  0.46999998093E+01 0.  1.
       -5    1    3    3    0  502 -0.49395973198E+03 -0.48665470286E+03  0.74331603123E+03  0.10165479964E+04  0.46999998093E+01 0. -1.
</event>
<event>
 5   0  0.6261598E-07  0.3629432E+04  0.7818609E-02  0.8083783E-01
       -1   -1    0    0    0  501  0.00000000000E+00  0.00000000000E+00  0.26869155800E+04  0.26869155800E+04  0.50400001928E-02 0.  1.
        1   -1    0    0  501    0  0.00000000000E+00  0.00000000000E+00 -0.12256408276E+04  0.12256408276E+04  0.50400001928E-02 0. -1.
    10030    2    1    2    0    0  0.00000000000E+00  0.00000000000E+00  0.14612747524E+04  0.39125564075E+04  0.36294316001E+04 0.  0.
        1    1    3    3  502    0 -0.34147432180E+03  0.14534145666E+04 -0.38142330305E+03  0.15409420336E+04  0.50400001928E-02 0. -1.
       -1    1    3    3    0  502  0.34147432180E+03 -0.14534145666E+04  0.18426980555E+04  0.23716143739E+04  0.50400001928E-02 0.  1.
</event>
<event>
 5   0  0.1680194E-06  0.1874868E+04  0.7818609E-02  0.8667468E-01
       -2   -1    0    0    0  501  0.00000000000E+00  0.00000000000E+00  0.42544650290E+03  0.42544650291E+03  0.25500000920E-02 0. -1.
        2   -1    0    0  501    0  0.00000000000E+00  0.00000000000E+00 -0.20655544775E+04  0.20655544775E+04  0.25500000920E-02 0.  1.
    10030    2    1    2    0    0  0.00000000000E+00  0.00000000000E+00 -0.16401079746E+04  0.24910009804E+04  0.18748684530E+04 0.  0.
        2    1    3    3  502    0 -0.12061807391E+03  0.67420319035E+03 -0.16704627766E+04  0.18054208788E+04  0.25500000920E-02 0.  1.
       -2    1    3    3    0  502  0.12061807391E+03 -0.67420319035E+03  0.30354802049E+02  0.68558010155E+03  0.25500000920E-02 0. -1.
</event>
<event>
 5   0  0.1685793E-06  0.3590587E+04  0.7818609E-02  0.8092651E-01
        2   -1    0    0  501    0  0.00000000000E+00  0.00000000000E+00  0.25704380796E+04  0.25704380796E+04  0.25500000920E-02 0.  1.
       -2   -1    0    0    0  501  0.00000000000E+00  0.00000000000E+00 -0.12539025515E+04  0.12539025515E+04  0.25500000920E-02 0. -1.
    10030    2    1    2    0    0  0.00000000000E+00  0.00000000000E+00  0.13165355282E+04  0.38243406311E+04  0.35905870642E+04 0.  0.
        3    1    3    3  502    0 -0.29302820758E+03  0.16500279407E+04 -0.27562769551E+02  0.16760720307E+04  0.10100000352E+00 0. -1.
       -3    1    3    3    0  502  0.29302820758E+03 -0.16500279407E+04  0.13440982977E+04  0.21482686004E+04  0.10100000352E+00 0.  1.
</event>
<event>
 5   0  0.1685793E-06  0.2685506E+04  0.7818609E-02  0.8339723E-01
        2   -1    0    0  501    0  0.00000000000E+00  0.00000000000E+00  0.18564582992E+04  0.18564582992E+04  0.25500000920E-02 0.  1.
       -2   -1    0    0    0  501  0.00000000000E+00  0.00000000000E+00 -0.97119625348E+03  0.97119625348E+03  0.25500000920E-02 0. -1.
    10030    2    1    2    0    0  0.00000000000E+00  0.00000000000E+00  0.88526204569E+03  0.28276545527E+04  0.26855057959E+04 0.  0.
        3    1    3    3  502    0 -0.19211749379E+03 -0.12904800805E+04  0.10843940605E+03  0.13092009336E+04  0.10100000352E+00 0.  1.
       -3    1    3    3    0  502  0.19211749379E+03  0.12904800805E+04  0.77682263964E+03  0.15184536191E+04  0.10100000352E+00 0. -1.
</event>
<event>
 5   0  0.1151180E-06  0.3619624E+04  0.7818609E-02  0.8086011E-01
       -2   -1    0    0    0  501  0.00000000000E+00  0.00000000000E+00  0.14047371948E+04  0.14047371948E+04  0.25500000920E-02 0.  1.
        2   -1    0    0  501    0  0.00000000000E+00  0.00000000000E+00 -0.23316952490E+04  0.23316952490E+04  0.25500000920E-02 0. -1.
    10030    2    1    2    0    0  0.00000000000E+00  0.00000000000E+00 -0.92695805426E+03  0.37364324438E+04  0.36196237612E+04 0.  0.
        5    1    3    3  502    0  0.35086328712E+03  0.13386223812E+04 -0.16674725395E+04  0.21669106317E+04  0.46999998093E+01 0. -1.
       -5    1    3    3    0  502 -0.35086328712E+03 -0.13386223812E+04  0.74051448529E+03  0.15695218121E+04  0.46999998093E+01 0.  1.
</event>
<event>
 5   0  0.1724503E-06  0.3505458E+04  0.7818609E-02  0.8112498E-01
       -2   -1    0    0    0  501  0.00000000000E+00  0.00000000000E+00  0.15702762414E+04  0.15702762414E+04  0.25500000920E-02 0.  1.
        2   -1    0    0  501    0  0.00000000000E+00  0.00000000000E+00 -0.19563807630E+04  0.19563807630E+04  0.25500000920E-02 0. -1.
    10030    2    1    2    0    0  0.00000000000E+00  0.00000000000E+00 -0.38610452162E+03  0.35266570043E+04  0.35054575913E+04 0.  0.
        1    1    3    3  502    0 -0.14367475581E+04 -0.68048974224E+03  0.54948198099E+03  0.16820345663E+04  0.50400001928E-02 0. -1.
       -1    1    3    3    0  502  0.14367475581E+04  0.68048974224E+03 -0.93558650261E+03  0.18446224380E+04  0.50400001928E-02 0.  1.
</event>
<event>
 5   0  0.6186440E-07  0.3454697E+04  0.7818609E-02  0.8124611E-01
        1   -1    0    0  501    0  0.00000000000E+00  0.00000000000E+00  0.14698283861E+04  0.14698283861E+04  0.50400001928E-02 0. -1.
       -1   -1    0    0    0  501  0.00000000000E+00  0.00000000000E+00 -0.20299877685E+04  0.20299877685E+04  0.50400001928E-02 0.  1.
    10030    2    1    2    0    0  0.00000000000E+00  0.00000000000E+00 -0.56015938239E+03  0.34998161545E+04  0.34546974660E+04 0.  0.
        3    1    3    3  502    0  0.63534518108E+03 -0.15533145899E+04 -0.69442488905E+03  0.18162256608E+04  0.10100000352E+00 0. -1.
       -3    1    3    3    0  502 -0.63534518108E+03  0.15533145899E+04  0.13426550666E+03  0.16835904938E+04  0.10100000352E+00 0.  1.
</event>
<event>
 5   0  0.6261598E-07  0.3203126E+04  0.7818609E-02  0.8187992E-01
       -1   -1    0    0    0  501  0.00000000000E+00  0.00000000000E+00  0.18732501006E+04  0.18732501006E+04  0.50400001928E-02 0.  1.
        1   -1    0    0  501    0  0.00000000000E+00  0.00000000000E+00 -0.13692799961E+04  0.13692799961E+04  0.50400001928E-02 0. -1.
    10030    2    1    2    0    0  0.00000000000E+00  0.00000000000E+00  0.50397010451E+03  0.32425300968E+04  0.32031259048E+04 0.  0.
        1    1    3    3  502    0 -0.13959402965E+04  0.76839694722E+03  0.89005373185E+02  0.15959339386E+04  0.50400001928E-02 0. -1.
       -1    1    3    3    0  502  0.13959402965E+04 -0.76839694722E+03  0.41496473132E+03  0.16465961582E+04  0.50400001928E-02 0.  1.
</event>
<event>
 5   0  0.6287345E-07  0.3662658E+04  0.7818609E-02  0.8076288E-01
        1   -1    0    0  501    0  0.00000000000E+00  0.00000000000E+00  0.18309955041E+04  0.18309955041E+04  0.50400001928E-02 0. -1.
       -1   -1    0    0    0  501  0.00000000000E+00  0.00000000000E+00 -0.18316627371E+04  0.18316627371E+04  0.50400001928E-02 0.  1.
    10030    2    1    2    0    0  0.00000000000E+00  0.00000000000E+00 -0.66723303701E+00  0.36626582412E+04  0.36626581804E+04 0.  0.
        5    1    3    3  502    0  0.15124988191E+03  0.10977842822E+04 -0.14583244807E+04  0.18315947254E+04  0.46999998093E+01 0.  1.
       -5    1    3    3    0  502 -0.15124988191E+03 -0.10977842822E+04  0.14576572477E+04  0.18310635158E+04  0.46999998093E+01 0. -1.
</event>
<event>
 5   0  0.5875011E-07  0.3598218E+04  0.7818609E-02  0.8090900E-01
       -1   -1    0    0    0  501  0.00000000000E+00  0.00000000000E+00  0.11725726801E+04  0.11725726801E+04  0.50400001928E-02 0. -1.
        1   -1    0    0  501    0  0.00000000000E+00  0.00000000000E+00 -0.27604193360E+04  0.27604193360E+04  0.50400001928E-02 0.  1.
    10030    2    1    2    0    0  0.00000000000E+00  0.00000000000E+00 -0.15878466559E+04  0.39329920161E+04  0.35982175026E+04 0.  0.
        2    1    3    3  502    0 -0.71628959470E+03 -0.96375609241E+03  0.67046164219E+03  0.13752873892E+04  0.25500000920E-02 0. -1.
       -2    1    3    3    0  502  0.71628959470E+03  0.96375609241E+03 -0.22583082981E+04  0.25577046269E+04  0.25500000920E-02 0.  1.
</event>
<event>
 5   0  0.1184684E-06  0.2600152E+04  0.7818609E-02  0.8368150E-01
       -2   -1    0    0    0  501  0.00000000000E+00  0.00000000000E+00  0.73887569669E+03  0.73887569669E+03  0.25500000920E-02 0. -1.
        2   -1    0    0  501    0  0.00000000000E+00  0.00000000000E+00 -0.22875254701E+04  0.22875254701E+04  0.25500000920E-02 0.  1.
    10030    2    1    2    0    0  0.00000000000E+00  0.00000000000E+00 -0.15486497734E+04  0.30264011668E+04  0.26001515151E+04 0.  0.
        4    1    3    3  502    0 -0.70638289306E+03 -0.59886076302E+03  0.28771777752E+03  0.96973921107E+03  0.12699999809E+01 0. -1.
       -4    1    3    3    0  502  0.70638289306E+03  0.59886076302E+03 -0.18363675509E+04  0.20566619557E+04  0.12699999809E+01 0.  1.
</event>
<event>
 5   0  0.5875011E-07  0.2527618E+04  0.7818609E-02  0.8393212E-01
       -1   -1    0    0    0  501  0.00000000000E+00  0.00000000000E+00  0.76439285742E+03  0.76439285743E+03  0.50400001928E-02 0.  1.
        1   -1    0    0  501    0  0.00000000000E+00  0.00000000000E+00 -0.20895182933E+04  0.20895182934E+04  0.50400001928E-02 0. -1.
    10030    2    1    2    0    0  0.00000000000E+00  0.00000000000E+00 -0.13251254359E+04  0.28539111508E+04  0.25276177392E+04 0.  0.
        2    1    3    3  502    0  0.73957374103E+03 -0.49354915141E+03  0.35151763799E+03  0.95609870468E+03  0.25500000920E-02 0.  1.
       -2    1    3    3    0  502 -0.73957374103E+03  0.49354915141E+03 -0.16766430739E+04  0.18978124461E+04  0.25500000920E-02 0. -1.
</event>
<event>
 5   0  0.1151180E-06  0.3493626E+04  0.7818609E-02  0.8115302E-01
       -2   -1    0    0    0  501  0.00000000000E+00  0.00000000000E+00  0.19943014132E+04  0.19943014132E+04  0.25500000920E-02 0.  1.
        2   -1    0    0  501    0  0.00000000000E+00  0.00000000000E+00 -0.15300372141E+04  0.15300372141E+04  0.25500000920E-02 0. -1.
    10030    2    1    2    0    0  0.00000000000E+00  0.00000000000E+00  0.46426419910E+03  0.35243386273E+04  0.34936258405E+04 0.  0.
        5    1    3    3  502    0 -0.74423741864E+03 -0.54451372097E+03  0.17287336979E+04  0.19593179466E+04  0.46999998093E+01 0.  1.
       -5    1    3    3    0  502  0.74423741864E+03  0.54451372097E+03 -0.12644694988E+04  0.15650206807E+04  0.46999998093E+01 0. -1.
</event>
<event>
 5   0  0.6261598E-07  0.3686398E+04  0.7818609E-02  0.8070983E-01
       -1   -1    0    0    0  501  0.00000000000E+00  0.00000000000E+00  0.15221466313E+04  0.15221466313E+04  0.50400001928E-02 0.  1.
        1   -1    0    0  501    0  0.00000000000E+00  0.00000000000E+00 -0.22319678178E+04  0.22319678179E+04  0.50400001928E-02 0. -1.
    10030    2    1    2    0    0  0.00000000000E+00  0.00000000000E+00 -0.70982118658E+03  0.37541144491E+04  0.36863978597E+04 0.  0.
        1    1    3    3  502    0  0.43570107290E+03  0.44544006013E+03 -0.21214599671E+04  0.22110731928E+04  0.50400001928E-02 0. -1.
       -1    1    3    3    0  502 -0.43570107290E+03 -0.44544006013E+03  0.14116387805E+04  0.15430412563E+04  0.50400001928E-02 0.  1.
</event>
<event>
 5   0  0.1680194E-06  0.3685315E+04  0.7818609E-02  0.8071224E-01
        2   -1    0    0  501    0  0.00000000000E+00  0.00000000000E+00  0.19313367298E+04  0.19313367298E+04  0.25500000920E-02 0.  1.
       -2   -1    0    0    0  501  0.00000000000E+00  0.00000000000E+00 -0.17580500966E+04  0.17580500966E+04  0.25500000920E-02 0. -1.
    10030    2    1    2    0    0  0.00000000000E+00  0.00000000000E+00  0.17328663319E+03  0.36893868264E+04  0.36853150337E+04 0.  0.
        2    1    3    3  502    0 -0.49610779504E+03  0.53063819025E+03  0.17819389346E+04  0.19243196719E+04  0.25500000920E-02 0.  1.
       -2    1    3    3    0  502  0.49610779504E+03 -0.53063819025E+03 -0.16086523014E+04  0.17650671545E+04  0.25500000920E-02 0. -1.
</event>
<event>
 5   0  0.1184684E-06  0.2827243E+04  0.7818609E-02  0.8294860E-01
        2   -1    0    0  501    0  0.00000000000E+00  0.00000000000E+00  0.22971537300E+04  0.22971537300E+04  0.25500000920E-02 0.  1.
       -2   -1    0    0    0  501  0.00000000000E+00  0.00000000000E+00 -0.86991383248E+03  0.86991383249E+03  0.25500000920E-02 0. -1.
    10030    2    1    2    0    0  0.00000000000E+00  0.00000000000E+00  0.14272398976E+04  0.31670675625E+04  0.28272430423E+04 0.  0.
        4    1    3    3  502    0 -0.10554116327E+04 -0.84093993130E+03  0.11852352973E+04  0.17960673722E+04  0.12699999809E+01 0.  1.
       -4    1    3    3    0  502  0.10554116327E+04  0.84093993130E+03  0.24200460022E+03  0.13710001903E+04  0.12699999809E+01 0. -1.
</event>
<event>
 5   0  0.1680194E-06  0.3661309E+04  0.7818609E-02  0.8076591E-01
        2   -1    0    0  501    0  0.00000000000E+00  0.00000000000E+00  0.25458541127E+04  0.25458541127E+04  0.25500000920E-02 0.  1.
       -2   -1    0    0    0  501  0.00000000000E+00  0.00000000000E+00 -0.13163738089E+04  0.13163738089E+04  0.25500000920E-02 0. -1.
    10030    2    1    2    0    0  0.00000000000E+00  0.00000000000E+00  0.12294803038E+04  0.38622279216E+04  0.36613088781E+04 0.  0.
        2    1    3    3  502    0  0.45478038885E+03  0.47357770310E+02 -0.12551683573E+04  0.13358576143E+04  0.25500000920E-02 0. -1.
       -2    1    3    3    0  502 -0.45478038885E+03 -0.47357770310E+02  0.24846486611E+04  0.25263703073E+04  0.25500000920E-02 0.  1.
</event>
<event>
 5   0  0.5875011E-07  0.2863881E+04  0.7818609E-02  0.8283706E-01
        1   -1    0    0  501    0  0.00000000000E+00  0.00000000000E+00  0.22428847297E+04  0.22428847297E+04  0.50400001928E-02 0.  1.
       -1   -1    0    0    0  501  0.00000000000E+00  0.00000000000E+00 -0.91420400971E+03  0.91420400972E+03  0.50400001928E-02 0. -1.
    10030    2    1    2    0    0  0.00000000000E+00  0.00000000000E+00  0.13286807200E+04  0.31570887394E+04  0.28638814313E+04 0.  0.
        2    1    3    3  502    0 -0.10514520977E+03  0.55840052941E+03  0.21132849845E+04  0.21883418590E+04  0.25500000920E-02 0.  1.
       -2    1    3    3    0  502  0.10514520977E+03 -0.55840052941E+03 -0.78460426449E+03  0.96874688038E+03  0.25500000920E-02 0. -1.
</event>
<event>
 5   0  0.1151180E-06  0.2463395E+04  0.7818609E-02  0.8416143E-01
        2   -1    0    0  501    0  0.00000000000E+00  0.00000000000E+00  0.16981807303E+04  0.16981807303E+04  0.25500000920E-02 0.  1.
       -2   -1    0    0    0  501  0.00000000000E+00  0.00000000000E+00 -0.89335555323E+03  0.89335555323E+03  0.25500000920E-02 0. -1.
    10030    2    1    2    0    0  0.00000000000E+00  0.00000000000E+00  0.80482517703E+03  0.25915362835E+04  0.24633953688E+04 0.  0.
        5    1    3    3  502    0 -0.44940298097E+03  0.25916569796E+03 -0.77280368877E+03  0.93079403182E+03  0.46999998093E+01 0. -1.
       -5    1    3    3    0  502  0.44940298097E+03 -0.25916569796E+03  0.15776288658E+04  0.16607422517E+04  0.46999998093E+01 0.  1.
</event>
<event>
 5   0  0.1151180E-06  0.3621132E+04  0.7818609E-02  0.8085668E-01
        2   -1    0    0  501    0  0.00000000000E+00  0.00000000000E+00  0.21240431502E+04  0.21240431502E+04  0.25500000920E-02 0. -1.
       -2   -1    0    0    0  501  0.00000000000E+00  0.00000000000E+00 -0.15433537563E+04  0.15433537563E+04  0.25500000920E-02 0.  1.
    10030    2    1    2    0    0  0.00000000000E+00  0.00000000000E+00  0.58068939389E+03  0.36673969065E+04  0.36211324054E+04 0.  0.
        5    1    3    3  502    0 -0.65793475946E+03 -0.10043023439E+04 -0.10821919124E+04  0.16163733390E+04  0.46999998093E+01 0.  1.
       -5    1    3    3    0  502  0.65793475946E+03  0.10043023439E+04  0.16628813063E+04  0.20510235675E+04  0.46999998093E+01 0. -1.
</event>
<event>
 5   0  0.5679750E-07  0.1818450E+04  0.7818609E-02  0.8696549E-01
       -1   -1    0    0    0  501  0.00000000000E+00  0.00000000000E+00  0.47399408301E+03  0.47399408304E+03  0.50400001928E-02 0.  1.
        1   -1    0    0  501    0  0.00000000000E+00  0.00000000000E+00 -0.17440945271E+04  0.17440945271E+04  0.50400001928E-02 0. -1.
    10030    2    1    2    0    0  0.00000000000E+00  0.00000000000E+00 -0.12701004441E+04  0.22180886102E+04  0.18184504240E+04 0.  0.
        4    1    3    3  502    0 -0.79664558200E+02  0.90201281955E+03 -0.53509389505E+03  0.10518082800E+04  0.12699999809E+01 0.  1.
       -4    1    3    3    0  502  0.79664558200E+02 -0.90201281955E+03 -0.73500654906E+03  0.11662803302E+04  0.12699999809E+01 0. -1.
</event>
<event>
 5   0  0.6186440E-07  0.3663330E+04  0.7818609E-02  0.8076137E-01
        1   -1    0    0  501    0  0.00000000000E+00  0.00000000000E+00  0.18396596766E+04  0.18396596766E+04  0.50400001928E-02 0.  1.
       -1   -1    0    0    0  501  0.00000000000E+00  0.00000000000E+00 -0.18237046304E+04  0.18237046304E+04  0.50400001928E-02 0. -1.
    10030    2    1    2    0    0  0.00000000000E+00  0.00000000000E+00  0.15955046164E+02  0.36633643070E+04  0.36633295623E+04 0.  0.
        3    1    3    3  502    0 -0.83586679506E+03 -0.10220518825E+04 -0.12615747931E+04  0.18261528738E+04  0.10100000352E+00 0. -1.
       -3    1    3    3    0  502  0.83586679506E+03  0.10220518825E+04  0.12775298393E+04  0.18372114332E+04  0.10100000352E+00 0.  1.
</event>
<event>
 5   0  0.5679750E-07  0.2573635E+04  0.7818609E-02  0.8377212E-01
       -3   -1    0    0    0  501  0.00000000000E+00  0.00000000000E+00  0.20815217530E+04  0.20815217555E+04  0.10100000352E+00 0. -1.
        3   -1    0    0  501    0  0.00000000000E+00  0.00000000000E+00 -0.79552345498E+03  0.79552346140E+03  0.10100000352E+00 0.  1.
    10030    2    1    2    0    0  0.00000000000E+00  0.00000000000E+00  0.12859982980E+04  0.28770452169E+04  0.25736350863E+04 0.  0.
        3    1    3    3  502    0  0.36446924657E+03 -0.39920758523E+03 -0.66244506965E+03  0.85500760716E+03  0.10100000352E+00 0.  1.
       -3    1    3    3    0  502 -0.36446924657E+03  0.39920758523E+03  0.19484433677E+04  0.20220376097E+04  0.10100000352E+00 0. -1.
</event>
<event>
 5   0  0.5875011E-07  0.3845064E+04  0.7818609E-02  0.8036553E-01
       -1   -1    0    0    0  501  0.00000000000E+00  0.00000000000E+00  0.14078911721E+04  0.14078911721E+04  0.50400001928E-02 0.  1.
        1   -1    0    0  501    0  0.00000000000E+00  0.00000000000E+00 -0.26252952977E+04  0.26252952977E+04  0.50400001928E-02 0. -1.
    10030    2    1    2    0    0  0.00000000000E+00  0.00000000000E+00 -0.12174041256E+04  0.40331864698E+04  0.38450644071E+04 0.  0.
        2    1    3    3  502    0  0.33025699541E+03  0.13429782210E+04 -0.20095067083E+04  0.24394215289E+04  0.25500000920E-02 0. -1.
       -2    1    3    3    0  502 -0.33025699541E+03 -0.13429782210E+04  0.79210258271E+03  0.15937649408E+04  0.25500000920E-02 0.  1.
</event>
<event>
 5   0  0.1724503E-06  0.3668379E+04  0.7818609E-02  0.8075006E-01
       -2   -1    0    0    0  501  0.00000000000E+00  0.00000000000E+00  0.20614451484E+04  0.20614451484E+04  0.25500000920E-02 0.  1.
        2   -1    0    0  501    0  0.00000000000E+00  0.00000000000E+00 -0.16319864344E+04  0.16319864344E+04  0.25500000920E-02 0. -1.
    10030    2    1    2    0    0  0.00000000000E+00  0.00000000000E+00  0.42945871399E+03  0.36934315828E+04  0.36683786705E+04 0.  0.
        1    1    3    3  502    0  0.71768340324E+03 -0.16708355340E+04  0.45613688089E+03  0.18747857752E+04  0.50400001928E-02 0.  1.
       -1    1    3    3    0  502 -0.71768340324E+03  0.16708355340E+04 -0.26678166897E+02  0.18186458076E+04  0.50400001928E-02 0. -1.
</event>
<event>
 5   0  0.5679750E-07  0.3645895E+04  0.7818609E-02  0.8080059E-01
       -1   -1    0    0    0  501  0.00000000000E+00  0.00000000000E+00  0.15616783861E+04  0.15616783861E+04  0.50400001928E-02 0.  1.
        1   -1    0    0  501    0  0.00000000000E+00  0.00000000000E+00 -0.21279272916E+04  0.21279272917E+04  0.50400001928E-02 0. -1.
    10030    2    1    2    0    0  0.00000000000E+00  0.00000000000E+00 -0.56624890558E+03  0.36896056777E+04  0.36458952582E+04 0.  0.
        4    1    3    3  502    0 -0.10965374543E+04 -0.70178640107E+03 -0.15744468879E+04  0.20429838857E+04  0.12699999809E+01 0. -1.
       -4    1    3    3    0  502  0.10965374543E+04  0.70178640107E+03  0.10081979824E+04  0.16466217920E+04  0.12699999809E+01 0.  1.
</event>
<event>
 5   0  0.1724503E-06  0.3808189E+04  0.7818609E-02  0.8044400E-01
       -2   -1    0    0    0  501  0.00000000000E+00  0.00000000000E+00  0.33694722797E+04  0.33694722797E+04  0.25500000920E-02 0.  1.
        2   -1    0    0  501    0  0.00000000000E+00  0.00000000000E+00 -0.10760070743E+04  0.10760070743E+04  0.25500000920E-02 0. -1.
    10030    2    1    2    0    0  0.00000000000E+00  0.00000000000E+00  0.22934652054E+04  0.44454793540E+04  0.38081890760E+04 0.  0.
        1    1    3    3  502    0  0.97281609499E+03 -0.12733867991E+04 -0.53815267548E+02  0.16033655784E+04  0.50400001928E-02 0.  1.
       -1    1    3    3    0  502 -0.97281609499E+03  0.12733867991E+04  0.23472804730E+04  0.28421137756E+04  0.50400001928E-02 0. -1.
</event>
<event>
 5   0  0.1724503E-06  0.3898487E+04  0.7818609E-02  0.8025344E-01
        2   -1    0    0  501    0  0.00000000000E+00  0.00000000000E+00  0.17169847882E+04  0.17169847882E+04  0.25500000920E-02 0.  1.
       -2   -1    0    0    0  501  0.00000000000E+00  0.00000000000E+00 -0.22129197351E+04  0.22129197351E+04  0.25500000920E-02 0. -1.
    10030    2    1    2    0    0  0.00000000000E+00  0.00000000000E+00 -0.49593494687E+03  0.39299045233E+04  0.38984866411E+04 0.  0.
        1    1    3    3  502    0  0.31633557122E+03  0.12077685710E+04 -0.17569534739E+04  0.21553789979E+04  0.50400001928E-02 0. -1.
       -1    1    3    3    0  502 -0.31633557122E+03 -0.12077685710E+04  0.12610185271E+04  0.17745255254E+04  0.50400001928E-02 0.  1.
</event>
<event>
 5   0  0.1184684E-06  0.3029003E+04  0.7818609E-02  0.8235497E-01
        2   -1    0    0  501    0  0.00000000000E+00  0.00000000000E+00  0.12975234738E+04  0.12975234738E+04  0.25500000920E-02 0.  1.
       -2   -1    0    0    0  501  0.00000000000E+00  0.00000000000E+00 -0.17677639147E+04  0.17677639147E+04  0.25500000920E-02 0. -1.
    10030    2    1    2    0    0  0.00000000000E+00  0.00000000000E+00 -0.47024044094E+03  0.30652873885E+04  0.30290032522E+04 0.  0.
        4    1    3    3  502    0 -0.15047383492E+04 -0.65068226592E+02 -0.74339131862E+02  0.15079785453E+04  0.12699999809E+01 0.  1.
       -4    1    3    3    0  502  0.15047383492E+04  0.65068226592E+02 -0.39590130907E+03  0.15573088432E+04  0.12699999809E+01 0. -1.
</event>
<event>
 5   0  0.1685793E-06  0.3667460E+04  0.7818609E-02  0.8075212E-01
        2   -1    0    0  501    0  0.00000000000E+00  0.00000000000E+00  0.17827609530E+04  0.17827609530E+04  0.25500000920E-02 0.  1.
       -2   -1    0    0    0  501  0.00000000000E+00  0.00000000000E+00 -0.18861564660E+04  0.18861564660E+04  0.25500000920E-02 0. -1.
    10030    2    1    2    0    0  0.00000000000E+00  0.00000000000E+00 -0.10339551304E+03  0.36689174190E+04  0.36674602105E+04 0.  0.
        3    1    3    3  502    0  0.87560438933E+03 -0.64981500373E+03 -0.15266049256E+04  0.18760237725E+04  0.10100000352E+00 0. -1.
       -3    1    3    3    0  502 -0.87560438933E+03  0.64981500373E+03  0.14232094126E+04  0.17928936466E+04  0.10100000352E+00 0.  1.
</event>
<event>
 5   0  0.6186440E-07  0.3484563E+04  0.7818609E-02  0.8117458E-01
        1   -1    0    0  501    0  0.00000000000E+00  0.00000000000E+00  0.29941458005E+04  0.29941458005E+04  0.50400001928E-02 0. -1.
       -1   -1    0    0    0  501  0.00000000000E+00  0.00000000000E+00 -0.10138268080E+04  0.10138268080E+04  0.50400001928E-02 0.  1.
    10030    2    1    2    0    0  0.00000000000E+00  0.00000000000E+00  0.19803189925E+04  0.40079726085E+04  0.34845632607E+04 0.  0.
        3    1    3    3  502    0  0.69933638424E+03  0.15439089846E+04  0.52604102757E+03  0.17746677165E+04  0.10100000352E+00 0.  1.
       -3    1    3    3    0  502 -0.69933638424E+03 -0.15439089846E+04  0.14542779649E+04  0.22333048920E+04  0.10100000352E+00 0. -1.
</event>
<event>
 5   0  0.1724503E-06  0.2719887E+04  0.7818609E-02  0.8328581E-01
       -2   -1    0    0    0  501  0.00000000000E+00  0.00000000000E+00  0.15925961079E+04  0.15925961079E+04  0.25500000920E-02 0. -1.
        2   -1    0    0  501    0  0.00000000000E+00  0.00000000000E+00 -0.11612776245E+04  0.11612776245E+04  0.25500000920E-02 0.  1.
    10030    2    1    2    0    0  0.00000000000E+00  0.00000000000E+00  0.43131848346E+03  0.27538737324E+04  0.27198869277E+04 0.  0.
        1    1    3    3  502    0 -0.82443444157E+03 -0.66908096202E+03  0.10760332029E+04  0.15116907540E+04  0.50400001928E-02 0. -1.
       -1    1    3    3    0  502  0.82443444157E+03  0.66908096202E+03 -0.64471471941E+03  0.12421829783E+04  0.50400001928E-02 0.  1.
</event>
<event>
 5   0  0.1151180E-06  0.3730876E+04  0.7818609E-02  0.8061154E-01
       -2   -1    0    0    0  501  0.00000000000E+00  0.00000000000E+00  0.14602971287E+04  0.14602971287E+04  0.25500000920E-02 0.  1.
        2   -1    0    0  501    0  0.00000000000E+00  0.00000000000E+00 -0.23829794477E+04  0.23829794477E+04  0.25500000920E-02 0. -1.
    10030    2    1    2    0    0  0.00000000000E+00  0.00000000000E+00 -0.92268231898E+03  0.38432765763E+04  0.37308755247E+04 0.  0.
        5    1    3    3  502    0  0.91363934639E+03  0.53677632359E+02  0.12131204207E+04  0.15196385717E+04  0.46999998093E+01 0.  1.
       -5    1    3    3    0  502 -0.91363934639E+03 -0.53677632359E+02 -0.21358027397E+04  0.23236380046E+04  0.46999998093E+01 0. -1.
</event>
<event>
 5   0  0.5679750E-07  0.3747313E+04  0.7818609E-02  0.8057557E-01
       -1   -1    0    0    0  501  0.00000000000E+00  0.00000000000E+00  0.15998383977E+04  0.15998383977E+04  0.50400001928E-02 0. -1.
        1   -1    0    0  501    0  0.00000000000E+00  0.00000000000E+00 -0.21943398618E+04  0.21943398618E+04  0.50400001928E-02 0.  1.
    10030    2    1    2    0    0  0.00000000000E+00  0.00000000000E+00 -0.59450146411E+03  0.37941782595E+04  0.37473132607E+04 0.  0.
        4    1    3    3  502    0 -0.10446800183E+04  0.77957089379E+03 -0.16600031234E+04  0.21106158110E+04  0.12699999809E+01 0.  1.
       -4    1    3    3    0  502  0.10446800183E+04 -0.77957089379E+03  0.10655016593E+04  0.16835624485E+04  0.12699999809E+01 0. -1.
</event>
<event>
 5   0  0.6261598E-07  0.3712062E+04  0.7818609E-02  0.8065294E-01
       -1   -1    0    0    0  501  0.00000000000E+00  0.00000000000E+00  0.12954107226E+04  0.12954107226E+04  0.50400001928E-02 0. -1.
        1   -1    0    0  501    0  0.00000000000E+00  0.00000000000E+00 -0.26592739514E+04  0.26592739515E+04  0.50400001928E-02 0.  1.
    10030    2    1    2    0    0  0.00000000000E+00  0.00000000000E+00 -0.13638632288E+04  0.39546846741E+04  0.37120624947E+04 0.  0.
        1    1    3    3  502    0  0.41970159694E+03  0.16639605607E+04 -0.14352083845E+04  0.22371270158E+04  0.50400001928E-02 0.  1.
       -1    1    3    3    0  502 -0.41970159694E+03 -0.16639605607E+04  0.71345155622E+02  0.17175576582E+04  0.50400001928E-02 0. -1.
</event>
<event>
 5   0  0.6261598E-07  0.2239105E+04  0.7818609E-02  0.8502326E-01
       -1   -1    0    0    0  501  0.00000000000E+00  0.00000000000E+00  0.19856472991E+04  0.19856472991E+04  0.50400001928E-02 0.  1.
        1   -1    0    0  501    0  0.00000000000E+00  0.00000000000E+00 -0.63122859183E+03  0.63122859185E+03  0.50400001928E-02 0. -1.
    10030    2    1    2    0    0  0.00000000000E+00  0.00000000000E+00  0.13544187073E+04  0.26168758910E+04  0.22391045965E+04 0.  0.
        1    1    3    3  502    0 -0.53008581827E+02  0.65985845845E+03  0.17324073839E+04  0.18545776983E+04  0.50400001928E-02 0.  1.
       -1    1    3    3    0  502  0.53008581827E+02 -0.65985845845E+03 -0.37798867664E+03  0.76229819272E+03  0.50400001928E-02 0. -1.
</event>
<event>
 5   0  0.1680194E-06  0.3688337E+04  0.7818609E-02  0.8070551E-01
        2   -1    0    0  501    0  0.00000000000E+00  0.00000000000E+00  0.13835380679E+04  0.13835380679E+04  0.25500000920E-02 0.  1.
       -2   -1    0    0    0  501  0.00000000000E+00  0.00000000000E+00 -0.24581591861E+04  0.24581591861E+04  0.25500000920E-02 0. -1.
    10030    2    1    2    0    0  0.00000000000E+00  0.00000000000E+00 -0.10746211181E+04  0.38416972540E+04  0.36883366500E+04 0.  0.
        2    1    3    3  502    0  0.41433369195E+03  0.17525875044E+04 -0.12365586906E+03  0.18051388154E+04  0.25500000920E-02 0. -1.
       -2    1    3    3    0  502 -0.41433369195E+03 -0.17525875044E+04 -0.95096524908E+03  0.20365584386E+04  0.25500000920E-02 0.  1.
</event>
<event>
 5   0  0.6186440E-07  0.3601993E+04  0.7818609E-02  0.8090035E-01
       -1   -1    0    0    0  501  0.00000000000E+00  0.00000000000E+00  0.17640339694E+04  0.17640339694E+04  0.50400001928E-02 0. -1.
        1   -1    0    0  501    0  0.00000000000E+00  0.00000000000E+00 -0.18387332960E+04  0.18387332960E+04  0.50400001928E-02 0.  1.
    10030    2    1    2    0    0  0.00000000000E+00  0.00000000000E+00 -0.74699326617E+02  0.36027672654E+04  0.36019927789E+04 0.  0.
        3    1    3    3  502    0  0.12911808450E+04 -0.12485360620E+04  0.95335228382E+02  0.17986325607E+04  0.10100000352E+00 0. -1.
       -3    1    3    3    0  502 -0.12911808450E+04  0.12485360620E+04 -0.17003455500E+03  0.18041347047E+04  0.10100000352E+00 0.  1.
</event>
<event>
 5   0  0.1151180E-06  0.2347268E+04  0.7818609E-02  0.8459514E-01
        2   -1    0    0  501    0  0.00000000000E+00  0.00000000000E+00  0.75704456961E+03  0.75704456961E+03  0.25500000920E-02 0. -1.
       -2   -1    0    0    0  501  0.00000000000E+00  0.00000000000E+00 -0.18194662016E+04  0.18194662016E+04  0.25500000920E-02 0.  1.
    10030    2    1    2    0    0  0.00000000000E+00  0.00000000000E+00 -0.10624216320E+04  0.25765107712E+04  0.23472682058E+04 0.  0.
        5    1    3    3  502    0 -0.11354520306E+04  0.26953769620E+03 -0.39458351665E+03  0.12319172558E+04  0.46999998093E+01 0. -1.
       -5    1    3    3    0  502  0.11354520306E+04 -0.26953769620E+03 -0.66783811534E+03  0.13445935154E+04  0.46999998093E+01 0.  1.
</event>
<event>
 5   0  0.1151180E-06  0.2112023E+04  0.7818609E-02  0.8555966E-01
       -2   -1    0    0    0  501  0.00000000000E+00  0.00000000000E+00  0.10004989113E+04  0.10004989113E+04  0.25500000920E-02 0.  1.
        2   -1    0    0  501    0  0.00000000000E+00  0.00000000000E+00 -0.11146043389E+04  0.11146043389E+04  0.25500000920E-02 0. -1.
    10030    2    1    2    0    0  0.00000000000E+00  0.00000000000E+00 -0.11410542756E+03  0.21151032502E+04  0.21120231321E+04 0.  0.
        5    1    3    3  502    0  0.42300555325E+03 -0.80094999454E+03  0.48658677183E+03  0.10282234039E+04  0.46999998093E+01 0.  1.
       -5    1    3    3    0  502 -0.42300555325E+03  0.80094999454E+03 -0.60069219939E+03  0.10868798463E+04  0.46999998093E+01 0. -1.
</event>
<event>
 5   0  0.1151180E-06  0.3648128E+04  0.7818609E-02  0.8079555E-01
        2   -1    0    0  501    0  0.00000000000E+00  0.00000000000E+00  0.22523384263E+04  0.22523384263E+04  0.25500000920E-02 0. -1.
       -2   -1    0    0    0  501  0.00000000000E+00  0.00000000000E+00 -0.14772246863E+04  0.14772246863E+04  0.25500000920E-02 0.  1.
    10030    2    1    2    0    0  0.00000000000E+00  0.00000000000E+00  0.77511374001E+03  0.37295631126E+04  0.36481282462E+04 0.  0.
        5    1    3    3  502    0  0.15921928544E+03  0.17670803632E+04 -0.45290176717E+02  0.17748231126E+04  0.46999998093E+01 0.  1.
       -5    1    3    3    0  502 -0.15921928544E+03 -0.17670803632E+04  0.82040391672E+03  0.19547400000E+04  0.46999998093E+01 0. -1.
</event>
<event>
 5   0  0.5679750E-07  0.3631588E+04  0.7818609E-02  0.8083294E-01
       -1   -1    0    0    0  501  0.00000000000E+00  0.00000000000E+00  0.14942480247E+04  0.14942480247E+04  0.50400001928E-02 0.  1.
        1   -1    0    0  501    0  0.00000000000E+00  0.00000000000E+00 -0.22065336507E+04  0.22065336508E+04  0.50400001928E-02 0. -1.
    10030    2    1    2    0    0  0.00000000000E+00  0.00000000000E+00 -0.71228562609E+03  0.37007816754E+04  0.36315883847E+04 0.  0.
        4    1    3    3  502    0 -0.10169267578E+04  0.13405194459E+04  0.33948659185E+03  0.17165037647E+04  0.12699999809E+01 0. -1.
       -4    1    3    3    0  502  0.10169267578E+04 -0.13405194459E+04 -0.10517722179E+04  0.19842779107E+04  0.12699999809E+01 0.  1.
</event>
<event>
 5   0  0.1151180E-06  0.3380635E+04  0.7818609E-02  0.8142675E-01
       -2   -1    0    0    0  501  0.00000000000E+00  0.00000000000E+00  0.18659764191E+04  0.18659764191E+04  0.25500000920E-02 0. -1.
        2   -1    0    0  501    0  0.00000000000E+00  0.00000000000E+00 -0.15311949118E+04  0.15311949118E+04  0.25500000920E-02 0.  1.
    10030    2    1    2    0    0  0.00000000000E+00  0.00000000000E+00  0.33478150731E+03  0.33971713308E+04  0.33806352056E+04 0.  0.
        5    1    3    3  502    0 -0.11697412293E+04 -0.67811760301E+02  0.13916514786E+04  0.18192330544E+04  0.46999998093E+01 0. -1.
       -5    1    3    3    0  502  0.11697412293E+04  0.67811760301E+02 -0.10568699713E+04  0.15779382765E+04  0.46999998093E+01 0.  1.
</event>
<event>
 5   0  0.1184684E-06  0.3589524E+04  0.7818609E-02  0.8092896E-01
        2   -1    0    0  501    0  0.00000000000E+00  0.00000000000E+00  0.15321028600E+04  0.15321028600E+04  0.25500000920E-02 0. -1.
       -2   -1    0    0    0  501  0.00000000000E+00  0.00000000000E+00 -0.21024502088E+04  0.21024502088E+04  0.25500000920E-02 0.  1.
    10030    2    1    2    0    0  0.00000000000E+00  0.00000000000E+00 -0.57034734888E+03  0.36345530688E+04  0.35895236330E+04 0.  0.
        4    1    3    3  502    0  0.13638034451E+03  0.27576590397E+03 -0.20755525180E+04  0.20982293249E+04  0.12699999809E+01 0.  1.
       -4    1    3    3    0  502 -0.13638034451E+03 -0.27576590397E+03  0.15052051691E+04  0.15363237439E+04  0.12699999809E+01 0. -1.
</event>
<event>
 5   0  0.1724503E-06  0.3689088E+04  0.7818609E-02  0.8070384E-01
       -2   -1    0    0    0  501  0.00000000000E+00  0.00000000000E+00  0.15139438737E+04  0.15139438737E+04  0.25500000920E-02 0.  1.
        2   -1    0    0  501    0  0.00000000000E+00  0.00000000000E+00 -0.22473371488E+04  0.22473371488E+04  0.25500000920E-02 0. -1.
    10030    2    1    2    0    0  0.00000000000E+00  0.00000000000E+00 -0.73339327508E+03  0.37612810225E+04  0.36890878594E+04 0.  0.
        1    1    3    3  502    0  0.12433723884E+04 -0.24822826535E+03 -0.17325962514E+04  0.21469704093E+04  0.50400001928E-02 0. -1.
       -1    1    3    3    0  502 -0.12433723884E+04  0.24822826535E+03  0.99920297631E+03  0.16143106132E+04  0.50400001928E-02 0.  1.
</event>
<event>
 5   0  0.6287345E-07  0.3735861E+04  0.7818609E-02  0.8060061E-01
        1   -1    0    0  501    0  0.00000000000E+00  0.00000000000E+00  0.20826555313E+04  0.20826555313E+04  0.50400001928E-02 0. -1.
       -1   -1    0    0    0  501  0.00000000000E+00  0.00000000000E+00 -0.16753441826E+04  0.16753441826E+04  0.50400001928E-02 0.  1.
    10030    2    1    2    0    0  0.00000000000E+00  0.00000000000E+00  0.40731134864E+03  0.37579997139E+04  0.37358612548E+04 0.  0.
        5    1    3    3  502    0 -0.58235376627E+03 -0.16236325311E+04  0.92471881455E+03  0.19571523909E+04  0.46999998093E+01 0. -1.
       -5    1    3    3    0  502  0.58235376627E+03  0.16236325311E+04 -0.51740746591E+03  0.18008473230E+04  0.46999998093E+01 0.  1.
</event>
<event>
 5   0  0.5875011E-07  0.3688281E+04  0.7818609E-02  0.8070564E-01
        1   -1    0    0  501    0  0.00000000000E+00  0.00000000000E+00  0.13347440597E+04  0.13347440598E+04  0.50400001928E-02 0.  1.
       -1   -1    0    0    0  501  0.00000000000E+00  0.00000000000E+00 -0.25479443741E+04  0.25479443741E+04  0.50400001928E-02 0. -1.
    10030    2    1    2    0    0  0.00000000000E+00  0.00000000000E+00 -0.12132003143E+04  0.38826884339E+04  0.36882806932E+04 0.  0.
        2    1    3    3  502    0  0.37857024428E+03 -0.77639337552E+03  0.11086225417E+04  0.14053988912E+04  0.25500000920E-02 0.  1.
       -2    1    3    3    0  502 -0.37857024428E+03  0.77639337552E+03 -0.23218228560E+04  0.24772895427E+04  0.25500000920E-02 0. -1.
</event>
<event>
 5   0  0.1685793E-06  0.3658761E+04  0.7818609E-02  0.8077163E-01
       -2   -1    0    0    0  501  0.00000000000E+00  0.00000000000E+00  0.11949139159E+04  0.11949139159E+04  0.25500000920E-02 0. -1.
        2   -1    0    0  501    0  0.00000000000E+00  0.00000000000E+00 -0.28007316795E+04  0.28007316795E+04  0.25500000920E-02 0.  1.
    10030    2    1    2    0    0  0.00000000000E+00  0.00000000000E+00 -0.16058177636E+04  0.39956455954E+04  0.36587611338E+04 0.  0.
        3    1    3    3  502    0 -0.26343217651E+03 -0.72031717387E+02  0.11725261334E+04  0.12039113853E+04  0.10100000352E+00 0. -1.
       -3    1    3    3    0  502  0.26343217651E+03  0.72031717387E+02 -0.27783438970E+04  0.27917342101E+04  0.10100000352E+00 0.  1.
</event>
<event>
 5   0  0.6186440E-07  0.3663314E+04  0.7818609E-02  0.8076141E-01
       -1   -1    0    0    0  501  0.00000000000E+00  0.00000000000E+00  0.28482918046E+04  0.28482918046E+04  0.50400001928E-02 0.  1.
        1   -1    0    0  501    0  0.00000000000E+00  0.00000000000E+00 -0.11778874569E+04  0.11778874569E+04  0.50400001928E-02 0. -1.
    10030    2    1    2    0    0  0.00000000000E+00  0.00000000000E+00  0.16704043477E+04  0.40261792615E+04  0.36633139043E+04 0.  0.
        3    1    3    3  502    0  0.13994813034E+04  0.85697078856E+03 -0.59038945941E+02  0.16420817453E+04  0.10100000352E+00 0. -1.
       -3    1    3    3    0  502 -0.13994813034E+04 -0.85697078856E+03  0.17294432936E+04  0.23840975162E+04  0.10100000352E+00 0.  1.
</event>
<event>
 5   0  0.1151180E-06  0.3618032E+04  0.7818609E-02  0.8086374E-01
       -2   -1    0    0    0  501  0.00000000000E+00  0.00000000000E+00  0.14884191945E+04  0.14884191945E+04  0.25500000920E-02 0. -1.
        2   -1    0    0  501    0  0.00000000000E+00  0.00000000000E+00 -0.21986671061E+04  0.21986671061E+04  0.25500000920E-02 0.  1.
    10030    2    1    2    0    0  0.00000000000E+00  0.00000000000E+00 -0.71024791158E+03  0.36870863006E+04  0.36180316875E+04 0.  0.
        5    1    3    3  502    0 -0.12138337901E+04 -0.78848802051E+03 -0.14609195909E+04  0.20565539063E+04  0.46999998093E+01 0.  1.
       -5    1    3    3    0  502  0.12138337901E+04  0.78848802051E+03  0.75067167934E+03  0.16305323943E+04  0.46999998093E+01 0. -1.
</event>
<event>
 5   0  0.1151180E-06  0.3687163E+04  0.7818609E-02  0.8070813E-01
        2   -1    0    0  501    0  0.00000000000E+00  0.00000000000E+00  0.18405707335E+04  0.18405707335E+04  0.25500000920E-02 0. -1.
       -2   -1    0    0    0  501  0.00000000000E+00  0.00000000000E+00 -0.18465976824E+04  0.18465976824E+04  0.25500000920E-02 0.  1.
    10030    2    1    2    0    0  0.00000000000E+00  0.00000000000E+00 -0.60269488378E+01  0.36871684159E+04  0.36871634901E+04 0.  0.
        5    1    3    3  502    0  0.86357264934E+03 -0.70137867919E+03  0.14670503210E+04  0.18411812802E+04  0.46999998093E+01 0. -1.
       -5    1    3    3    0  502 -0.86357264934E+03  0.70137867919E+03 -0.14730772698E+04  0.18459871357E+04  0.46999998093E+01 0.  1.
</event>
<event>
 5   0  0.1724503E-06  0.3611689E+04  0.7818609E-02  0.8087819E-01
       -2   -1    0    0    0  501  0.00000000000E+00  0.00000000000E+00  0.14714390627E+04  0.14714390627E+04  0.25500000920E-02 0. -1.
        2   -1    0    0  501    0  0.00000000000E+00  0.00000000000E+00 -0.22162482106E+04  0.22162482106E+04  0.25500000920E-02 0.  1.
    10030    2    1    2    0    0  0.00000000000E+00  0.00000000000E+00 -0.74480914788E+03  0.36876872734E+04  0.36116889068E+04 0.  0.
        1    1    3    3  502    0  0.15412829273E+04  0.58318407014E+03  0.38165953595E+03  0.16915438874E+04  0.50400001928E-02 0.  1.
       -1    1    3    3    0  502 -0.15412829273E+04 -0.58318407014E+03 -0.11264686838E+04  0.19961433860E+04  0.50400001928E-02 0. -1.
</event>
<event>
 5   0  0.1151180E-06  0.3608394E+04  0.7818609E-02  0.8088572E-01
       -2   -1    0    0    0  501  0.00000000000E+00  0.00000000000E+00  0.17113565219E+04  0.17113565219E+04  0.25500000920E-02 0. -1.
        2   -1    0    0  501    0  0.00000000000E+00  0.00000000000E+00 -0.19020737240E+04  0.19020737240E+04  0.25500000920E-02 0.  1.
    10030    2    1    2    0    0  0.00000000000E+00  0.00000000000E+00 -0.19071720213E+03  0.36134302459E+04  0.36083936995E+04 0.  0.
        5    1    3    3  502    0 -0.81302098318E+03 -0.40625273787E+03  0.14653609142E+04  0.17243401941E+04  0.46999998093E+01 0. -1.
       -5    1    3    3    0  502  0.81302098318E+03  0.40625273787E+03 -0.16560781164E+04  0.18890900517E+04  0.46999998093E+01 0.  1.
</event>
<event>
 5   0  0.6287345E-07  0.2093044E+04  0.7818609E-02  0.8564314E-01
        1   -1    0    0  501    0  0.00000000000E+00  0.00000000000E+00  0.28090443296E+04  0.28090443296E+04  0.50400001928E-02 0. -1.
       -1   -1    0    0    0  501  0.00000000000E+00  0.00000000000E+00 -0.38988625764E+03  0.38988625767E+03  0.50400001928E-02 0.  1.
    10030    2    1    2    0    0  0.00000000000E+00  0.00000000000E+00  0.24191580720E+04  0.31989305873E+04  0.20930435077E+04 0.  0.
        5    1    3    3  502    0 -0.20309538861E+03  0.78017648239E+02  0.27740819208E+04  0.27826043706E+04  0.46999998093E+01 0. -1.
       -5    1    3    3    0  502  0.20309538861E+03 -0.78017648239E+02 -0.35492384875E+03  0.41632621671E+03  0.46999998093E+01 0.  1.
</event>
<event>
 5   0  0.6186440E-07  0.2123923E+04  0.7818609E-02  0.8550778E-01
       -1   -1    0    0    0  501  0.00000000000E+00  0.00000000000E+00  0.79940789305E+03  0.79940789307E+03  0.50400001928E-02 0. -1.
        1   -1    0    0  501    0  0.00000000000E+00  0.00000000000E+00 -0.14107463666E+04  0.14107463666E+04  0.50400001928E-02 0.  1.
    10030    2    1    2    0    0  0.00000000000E+00  0.00000000000E+00 -0.61133847351E+03  0.22101542596E+04  0.21239225792E+04 0.  0.
        3    1    3    3  502    0  0.81169247083E+03 -0.34843648758E+03  0.30776358112E+03  0.93539889092E+03  0.10100000352E+00 0. -1.
       -3    1    3    3    0  502 -0.81169247083E+03  0.34843648758E+03 -0.91910205463E+03  0.12747553687E+04  0.10100000352E+00 0.  1.
</event>
<event>
 5   0  0.6261598E-07  0.2686664E+04  0.7818609E-02  0.8339345E-01
       -1   -1    0    0    0  501  0.00000000000E+00  0.00000000000E+00  0.76657620807E+03  0.76657620809E+03  0.50400001928E-02 0.  1.
        1   -1    0    0  501    0  0.00000000000E+00  0.00000000000E+00 -0.23540274811E+04  0.23540274811E+04  0.50400001928E-02 0. -1.
    10030    2    1    2    0    0  0.00000000000E+00  0.00000000000E+00 -0.15874512730E+04  0.31206036892E+04  0.26866644451E+04 0.  0.
        1    1    3    3  502    0 -0.12413018329E+04 -0.22937502484E+03 -0.13273892296E+04  0.18317765445E+04  0.50400001928E-02 0.  1.
       -1    1    3    3    0  502  0.12413018329E+04  0.22937502484E+03 -0.26006204340E+03  0.12888271446E+04  0.50400001928E-02 0. -1.
</event>
<event>
 5   0  0.6261598E-07  0.2320653E+04  0.7818609E-02  0.8469822E-01
        1   -1    0    0  501    0  0.00000000000E+00  0.00000000000E+00  0.18892544255E+04  0.18892544255E+04  0.50400001928E-02 0. -1.
       -1   -1    0    0    0  501  0.00000000000E+00  0.00000000000E+00 -0.71263960177E+03  0.71263960178E+03  0.50400001928E-02 0.  1.
    10030    2    1    2    0    0  0.00000000000E+00  0.00000000000E+00  0.11766148237E+04  0.26018940273E+04  0.23206529439E+04 0.  0.
        1    1    3    3  502    0  0.81487299858E+03 -0.26101973768E+03 -0.29038569237E+03  0.90358904245E+03  0.50400001928E-02 0. -1.
       -1    1    3    3    0  502 -0.81487299858E+03  0.26101973768E+03  0.14670005161E+04  0.16983049848E+04  0.50400001928E-02 0.  1.
</event>
<event>
 5   0  0.6186440E-07  0.3596859E+04  0.7818609E-02  0.8091211E-01
        1   -1    0    0  501    0  0.00000000000E+00  0.00000000000E+00  0.22156387495E+04  0.22156387495E+04  0.50400001928E-02 0.  1.
       -1   -1    0    0    0  501  0.00000000000E+00  0.00000000000E+00 -0.14597819614E+04  0.14597819614E+04  0.50400001928E-02 0. -1.
    10030    2    1    2    0    0  0.00000000000E+00  0.00000000000E+00  0.75585678813E+03  0.36754207108E+04  0.35968594520E+04 0.  0.
        3    1    3    3  502    0 -0.48158026858E+03 -0.46646782220E+03  0.20831606294E+04  0.21883943891E+04  0.10100000352E+00 0.  1.
       -3    1    3    3    0  502  0.48158026858E+03  0.46646782220E+03 -0.13273038413E+04  0.14870263217E+04  0.10100000352E+00 0. -1.
</event>
<event>
 5   0  0.5875011E-07  0.3786960E+04  0.7818609E-02  0.8048959E-01
        1   -1    0    0  501    0  0.00000000000E+00  0.00000000000E+00  0.21239049457E+04  0.21239049457E+04  0.50400001928E-02 0. -1.
       -1   -1    0    0    0  501  0.00000000000E+00  0.00000000000E+00 -0.16880537192E+04  0.16880537192E+04  0.50400001928E-02 0.  1.
    10030    2    1    2    0    0  0.00000000000E+00  0.00000000000E+00  0.43585122649E+03  0.38119586649E+04  0.37869595418E+04 0.  0.
        2    1    3    3  502    0 -0.14742450722E+04  0.91057851907E+03 -0.55047056356E+03  0.18181225519E+04  0.25500000920E-02 0. -1.
       -2    1    3    3    0  502  0.14742450722E+04 -0.91057851907E+03  0.98632179005E+03  0.19938361131E+04  0.25500000920E-02 0.  1.
</event>
<event>
 5   0  0.6186440E-07  0.3716350E+04  0.7818609E-02  0.8064348E-01
        1   -1    0    0  501    0  0.00000000000E+00  0.00000000000E+00  0.24120332024E+04  0.24120332024E+04  0.50400001928E-02 0.  1.
       -1   -1    0    0    0  501  0.00000000000E+00  0.00000000000E+00 -0.14314950192E+04  0.14314950192E+04  0.50400001928E-02 0. -1.
    10030    2    1    2    0    0  0.00000000000E+00  0.00000000000E+00  0.98053818319E+03  0.38435282216E+04  0.37163495613E+04 0.  0.
        3    1    3    3  502    0 -0.48227729404E+03  0.10885155852E+04  0.19657503633E+04  0.22981801645E+04  0.10100000352E+00 0.  1.
       -3    1    3    3    0  502  0.48227729404E+03 -0.10885155852E+04 -0.98521218012E+03  0.15453480571E+04  0.10100000352E+00 0. -1.
</event>
<event>
 5   0  0.1184684E-06  0.2543112E+04  0.7818609E-02  0.8387786E-01
       -2   -1    0    0    0  501  0.00000000000E+00  0.00000000000E+00  0.11308814778E+04  0.11308814778E+04  0.25500000920E-02 0. -1.
        2   -1    0    0  501    0  0.00000000000E+00  0.00000000000E+00 -0.14297298802E+04  0.14297298802E+04  0.25500000920E-02 0.  1.
    10030    2    1    2    0    0  0.00000000000E+00  0.00000000000E+00 -0.29884840240E+03  0.25606113581E+04  0.25431122978E+04 0.  0.
        4    1    3    3  502    0  0.44086444340E+03  0.71007571661E+02  0.10493350933E+04  0.11403987389E+04  0.12699999809E+01 0. -1.
       -4    1    3    3    0  502 -0.44086444340E+03 -0.71007571661E+02 -0.13481834957E+04  0.14202126192E+04  0.12699999809E+01 0.  1.
</event>
<event>
 5   0  0.6261598E-07  0.3679521E+04  0.7818609E-02  0.8072515E-01
        1   -1    0    0  501    0  0.00000000000E+00  0.00000000000E+00  0.18881099652E+04  0.18881099652E+04  0.50400001928E-02 0.  1.
       -1   -1    0    0    0  501  0.00000000000E+00  0.00000000000E+00 -0.17926491690E+04  0.17926491690E+04  0.50400001928E-02 0. -1.
    10030    2    1    2    0    0  0.00000000000E+00  0.00000000000E+00  0.95460796136E+02  0.36807591342E+04  0.36795210341E+04 0.  0.
        1    1    3    3  502    0 -0.23110401445E+03  0.63964330660E+03  0.17577400443E+04  0.18847288104E+04  0.50400001928E-02 0.  1.
       -1    1    3    3    0  502  0.23110401445E+03 -0.63964330660E+03 -0.16622792482E+04  0.17960303238E+04  0.50400001928E-02 0. -1.
</event>
<event>
 5   0  0.1685793E-06  0.3665388E+04  0.7818609E-02  0.8075676E-01
        2   -1    0    0  501    0  0.00000000000E+00  0.00000000000E+00  0.32251017250E+04  0.32251017250E+04  0.25500000920E-02 0.  1.
       -2   -1    0    0    0  501  0.00000000000E+00  0.00000000000E+00 -0.10414451935E+04  0.10414451935E+04  0.25500000920E-02 0. -1.
    10030    2    1    2    0    0  0.00000000000E+00  0.00000000000E+00  0.21836565315E+04  0.42665469185E+04  0.36653876685E+04 0.  0.
        3    1    3    3  502    0  0.15150591543E+04 -0.45583195788E+02  0.22909755960E+04  0.27470076921E+04  0.10100000352E+00 0.  1.
       -3    1    3    3    0  502 -0.15150591543E+04  0.45583195788E+02 -0.10731906451E+03  0.15195392264E+04  0.10100000352E+00 0. -1.
</event>
<event>
 5   0  0.1685793E-06  0.3697159E+04  0.7818609E-02  0.8068592E-01
        2   -1    0    0  501    0  0.00000000000E+00  0.00000000000E+00  0.21207431653E+04  0.21207431653E+04  0.25500000920E-02 0. -1.
       -2   -1    0    0    0  501  0.00000000000E+00  0.00000000000E+00 -0.16113434507E+04  0.16113434507E+04  0.25500000920E-02 0.  1.
    10030    2    1    2    0    0  0.00000000000E+00  0.00000000000E+00  0.50939971458E+03  0.37320866159E+04  0.36971586982E+04 0.  0.
        3    1    3    3  502    0  0.16269425598E+04 -0.87644102265E+03  0.20784322840E+03  0.18596477561E+04  0.10100000352E+00 0.  1.
       -3    1    3    3    0  502 -0.16269425598E+04  0.87644102265E+03  0.30155648618E+03  0.18724388598E+04  0.10100000352E+00 0. -1.
</event>
<event>
 5   0  0.1151180E-06  0.2562752E+04  0.7818609E-02  0.8380965E-01
       -2   -1    0    0    0  501  0.00000000000E+00  0.00000000000E+00  0.11978064044E+04  0.11978064044E+04  0.25500000920E-02 0.  1.
        2   -1    0    0  501    0  0.00000000000E+00  0.00000000000E+00 -0.13707763455E+04  0.13707763455E+04  0.25500000920E-02 0. -1.
    10030    2    1    2    0    0  0.00000000000E+00  0.00000000000E+00 -0.17296994109E+03  0.25685827500E+04  0.25627521813E+04 0.  0.
        5    1    3    3  502    0  0.20069441973E+03 -0.45113715041E+03 -0.12715877267E+04  0.13640969230E+04  0.46999998093E+01 0. -1.
       -5    1    3    3    0  502 -0.20069441973E+03  0.45113715041E+03  0.10986177856E+04  0.12044858270E+04  0.46999998093E+01 0.  1.
</event>
<event>
 5   0  0.1230061E-06  0.1942074E+04  0.7818609E-02  0.8634192E-01
       -2   -1    0    0    0  501  0.00000000000E+00  0.00000000000E+00  0.37957174073E+03  0.37957174073E+03  0.25500000920E-02 0.  1.
        2   -1    0    0  501    0  0.00000000000E+00  0.00000000000E+00 -0.24841483835E+04  0.24841483835E+04  0.25500000920E-02 0. -1.
    10030    2    1    2    0    0  0.00000000000E+00  0.00000000000E+00 -0.21045766428E+04  0.28637201243E+04  0.19420736610E+04 0.  0.
        5    1    3    3  502    0 -0.26234334939E+03 -0.16285787956E+03  0.30523071020E+03  0.43420570972E+03  0.46999998093E+01 0.  1.
       -5    1    3    3    0  502  0.26234334939E+03  0.16285787956E+03 -0.24098073530E+04  0.24295144145E+04  0.46999998093E+01 0. -1.
</event>
<event>
 5   0  0.6186440E-07  0.3916004E+04  0.7818609E-02  0.8021709E-01
        1   -1    0    0  501    0  0.00000000000E+00  0.00000000000E+00  0.16030479038E+04  0.16030479038E+04  0.50400001928E-02 0. -1.
       -1   -1    0    0    0  501  0.00000000000E+00  0.00000000000E+00 -0.23915515766E+04  0.23915515766E+04  0.50400001928E-02 0.  1.
    10030    2    1    2    0    0  0.00000000000E+00  0.00000000000E+00 -0.78850367280E+03  0.39945994804E+04  0.39160039539E+04 0.  0.
        3    1    3    3  502    0 -0.15285441782E+04 -0.12141454296E+04 -0.23896207352E+03  0.19666467176E+04  0.10100000352E+00 0. -1.
       -3    1    3    3    0  502  0.15285441782E+04  0.12141454296E+04 -0.54954159928E+03  0.20279527629E+04  0.10100000352E+00 0.  1.
</event>
<event>
 5   0  0.1151180E-06  0.3655826E+04  0.7818609E-02  0.8077822E-01
        2   -1    0    0  501    0  0.00000000000E+00  0.00000000000E+00  0.24386739814E+04  0.24386739814E+04  0.25500000920E-02 0. -1.
       -2   -1    0    0    0  501  0.00000000000E+00  0.00000000000E+00 -0.13701161343E+04  0.13701161343E+04  0.25500000920E-02 0.  1.
    10030    2    1    2    0    0  0.00000000000E+00  0.00000000000E+00  0.10685578471E+04  0.38087901157E+04  0.36558263461E+04 0.  0.
        5    1    3    3  502    0  0.17165107605E+04  0.28153347790E+03 -0.50985627288E+02  0.17401988146E+04  0.46999998093E+01 0.  1.
       -5    1    3    3    0  502 -0.17165107605E+04 -0.28153347790E+03  0.11195434744E+04  0.20685913011E+04  0.46999998093E+01 0. -1.
</event>
<event>
 5   0  0.1151180E-06  0.2116089E+04  0.7818609E-02  0.8554189E-01
        2   -1    0    0  501    0  0.00000000000E+00  0.00000000000E+00  0.10478186039E+04  0.10478186039E+04  0.25500000920E-02 0.  1.
       -2   -1    0    0    0  501  0.00000000000E+00  0.00000000000E+00 -0.10683704682E+04  0.10683704682E+04  0.25500000920E-02 0. -1.
    10030    2    1    2    0    0  0.00000000000E+00  0.00000000000E+00 -0.20551864245E+02  0.21161890721E+04  0.21160892726E+04 0.  0.
        5    1    3    3  502    0 -0.19855350301E+03 -0.34786131386E+03  0.96905845151E+03  0.10485835015E+04  0.46999998093E+01 0.  1.
       -5    1    3    3    0  502  0.19855350301E+03  0.34786131386E+03 -0.98961031575E+03  0.10676055706E+04  0.46999998093E+01 0. -1.
</event>
<event>
 5   0  0.1184684E-06  0.3680196E+04  0.7818609E-02  0.8072365E-01
       -2   -1    0    0    0  501  0.00000000000E+00  0.00000000000E+00  0.17002400692E+04  0.17002400692E+04  0.25500000920E-02 0.  1.
        2   -1    0    0  501    0  0.00000000000E+00  0.00000000000E+00 -0.19914601361E+04  0.19914601361E+04  0.25500000920E-02 0. -1.
    10030    2    1    2    0    0  0.00000000000E+00  0.00000000000E+00 -0.29122006695E+03  0.36917002053E+04  0.36801958206E+04 0.  0.
        4    1    3    3  502    0 -0.17654056190E+04 -0.11193398843E+03  0.36270124213E+03  0.18057519269E+04  0.12699999809E+01 0.  1.
       -4    1    3    3    0  502  0.17654056190E+04  0.11193398843E+03 -0.65392130908E+03  0.18859482784E+04  0.12699999809E+01 0. -1.
</event>
<event>
 5   0  0.1151180E-06  0.3760902E+04  0.7818609E-02  0.8054598E-01
        2   -1    0    0  501    0  0.00000000000E+00  0.00000000000E+00  0.24218905773E+04  0.24218905773E+04  0.25500000920E-02 0. -1.
       -2   -1    0    0    0  501  0.00000000000E+00  0.00000000000E+00 -0.14600557208E+04  0.14600557208E+04  0.25500000920E-02 0.  1.
    10030    2    1    2    0    0  0.00000000000E+00  0.00000000000E+00  0.96183485647E+03  0.38819462981E+04  0.37609015901E+04 0.  0.
        5    1    3    3  502    0  0.77340008639E+03 -0.57421903566E+03 -0.11860527280E+04  0.15279457968E+04  0.46999998093E+01 0.  1.
       -5    1    3    3    0  502 -0.77340008639E+03  0.57421903566E+03  0.21478875844E+04  0.23540005013E+04  0.46999998093E+01 0. -1.
</event>
<event>
 5   0  0.1724503E-06  0.1839292E+04  0.7818609E-02  0.8685679E-01
       -2   -1    0    0    0  501  0.00000000000E+00  0.00000000000E+00  0.41535033378E+03  0.41535033379E+03  0.25500000920E-02 0. -1.
        2   -1    0    0  501    0  0.00000000000E+00  0.00000000000E+00 -0.20362309608E+04  0.20362309608E+04  0.25500000920E-02 0.  1.
    10030    2    1    2    0    0  0.00000000000E+00  0.00000000000E+00 -0.16208806270E+04  0.24515812946E+04  0.18392924827E+04 0.  0.
        1    1    3    3  502    0 -0.20608700590E+03 -0.15425136164E+03 -0.19872305873E+04  0.20038340110E+04  0.50400001928E-02 0.  1.
       -1    1    3    3    0  502  0.20608700590E+03  0.15425136164E+03  0.36634996026E+03  0.44774728360E+03  0.50400001928E-02 0. -1.
</event>
<event>
 5   0  0.5875011E-07  0.3763651E+04  0.7818609E-02  0.8054001E-01
       -1   -1    0    0    0  501  0.00000000000E+00  0.00000000000E+00  0.15607565294E+04  0.15607565294E+04  0.50400001928E-02 0.  1.
        1   -1    0    0  501    0  0.00000000000E+00  0.00000000000E+00 -0.22689421684E+04  0.22689421684E+04  0.50400001928E-02 0. -1.
    10030    2    1    2    0    0  0.00000000000E+00  0.00000000000E+00 -0.70818563894E+03  0.38296986978E+04  0.37636505174E+04 0.  0.
        2    1    3    3  502    0  0.14367653921E+04 -0.37790660718E+03 -0.15294205094E+04  0.21321902566E+04  0.25500000920E-02 0. -1.
       -2    1    3    3    0  502 -0.14367653921E+04  0.37790660718E+03  0.82123487045E+03  0.16975084412E+04  0.25500000920E-02 0.  1.
</event>
<event>
 5   0  0.6287345E-07  0.3790371E+04  0.7818609E-02  0.8048224E-01
        1   -1    0    0  501    0  0.00000000000E+00  0.00000000000E+00  0.22147699974E+04  0.22147699975E+04  0.50400001928E-02 0.  1.
       -1   -1    0    0    0  501  0.00000000000E+00  0.00000000000E+00 -0.16217163352E+04  0.16217163352E+04  0.50400001928E-02 0. -1.
    10030    2    1    2    0    0  0.00000000000E+00  0.00000000000E+00  0.59305366227E+03  0.38364863326E+04  0.37903713188E+04 0.  0.
        5    1    3    3  502    0 -0.98703582537E+02  0.14040767959E+04 -0.98798068915E+03  0.17196807780E+04  0.46999998093E+01 0. -1.
       -5    1    3    3    0  502  0.98703582537E+02 -0.14040767959E+04  0.15810343514E+04  0.21168055547E+04  0.46999998093E+01 0.  1.
</event>
<event>
 5   0  0.1685793E-06  0.3701245E+04  0.7818609E-02  0.8067686E-01
        2   -1    0    0  501    0  0.00000000000E+00  0.00000000000E+00  0.18467214815E+04  0.18467214815E+04  0.25500000920E-02 0. -1.
       -2   -1    0    0    0  501  0.00000000000E+00  0.00000000000E+00 -0.18545319389E+04  0.18545319389E+04  0.25500000920E-02 0.  1.
    10030    2    1    2    0    0  0.00000000000E+00  0.00000000000E+00 -0.78104573654E+01  0.37012534205E+04  0.37012451796E+04 0.  0.
        3    1    3    3  502    0 -0.47225762269E+03  0.30124592217E+03 -0.17677196876E+04  0.18543487460E+04  0.10100000352E+00 0.  1.
       -3    1    3    3    0  502  0.47225762269E+03 -0.30124592217E+03  0.17599092302E+04  0.18469046745E+04  0.10100000352E+00 0. -1.
</event>
<event>
 5   0  0.7285272E-07  0.1860391E+04  0.7818609E-02  0.8674827E-01
        1   -1    0    0  501    0  0.00000000000E+00  0.00000000000E+00  0.83097001552E+03  0.83097001554E+03  0.50400001928E-02 0. -1.
       -1   -1    0    0    0  501  0.00000000000E+00  0.00000000000E+00 -0.10412699108E+04  0.10412699108E+04  0.50400001928E-02 0.  1.
    10030    2    1    2    0    0  0.00000000000E+00  0.00000000000E+00 -0.21029989525E+03  0.18722399263E+04  0.18603914362E+04 0.  0.
        2    1    3    3  502    0  0.50697472265E+03  0.51093395641E+02  0.67802884981E+03  0.84814917654E+03  0.25500000920E-02 0. -1.
       -2    1    3    3    0  502 -0.50697472265E+03 -0.51093395641E+02 -0.88832874506E+03  0.10240907498E+04  0.25500000920E-02 0.  1.
</event>
<event>
 5   0  0.1723187E-06  0.2013822E+04  0.7818609E-02  0.8600185E-01
        2   -1    0    0  501    0  0.00000000000E+00  0.00000000000E+00  0.21686807993E+04  0.21686807994E+04  0.25500000920E-02 0. -1.
       -2   -1    0    0    0  501  0.00000000000E+00  0.00000000000E+00 -0.46750550849E+03  0.46750550850E+03  0.25500000920E-02 0.  1.
    10030    2    1    2    0    0  0.00000000000E+00  0.00000000000E+00  0.17011752909E+04  0.26361863078E+04  0.20138224548E+04 0.  0.
        3    1    3    3  502    0 -0.89797918819E+03 -0.35844551404E+03  0.48260737456E+03  0.10806293061E+04  0.10100000352E+00 0.  1.
       -3    1    3    3    0  502  0.89797918819E+03  0.35844551404E+03  0.12185679163E+04  0.15555570018E+04  0.10100000352E+00 0. -1.
</event>
<event>
 5   0  0.1184684E-06  0.2320062E+04  0.7818609E-02  0.8470053E-01
        2   -1    0    0  501    0  0.00000000000E+00  0.00000000000E+00  0.16521905961E+04  0.16521905961E+04  0.25500000920E-02 0. -1.
       -2   -1    0    0    0  501  0.00000000000E+00  0.00000000000E+00 -0.81447715221E+03  0.81447715222E+03  0.25500000920E-02 0.  1.
    10030    2    1    2    0    0  0.00000000000E+00  0.00000000000E+00  0.83771344388E+03  0.24666677483E+04  0.23200616299E+04 0.  0.
        4    1    3    3  502    0  0.33105218840E+03 -0.26653018463E+03  0.15664309973E+04  0.16230654864E+04  0.12699999809E+01 0. -1.
       -4    1    3    3    0  502 -0.33105218840E+03  0.26653018463E+03 -0.72871755344E+03  0.84360226194E+03  0.12699999809E+01 0.  1.
</event>
<event>
 5   0  0.1680194E-06  0.2325023E+04  0.7818609E-02  0.8468120E-01
       -2   -1    0    0    0  501  0.00000000000E+00  0.00000000000E+00  0.11542578720E+04  0.11542578720E+04  0.25500000920E-02 0.  1.
        2   -1    0    0  501    0  0.00000000000E+00  0.00000000000E+00 -0.11708243919E+04  0.11708243919E+04  0.25500000920E-02 0. -1.
    10030    2    1    2    0    0  0.00000000000E+00  0.00000000000E+00 -0.16566519870E+02  0.23250822640E+04  0.23250232439E+04 0.  0.
        2    1    3    3  502    0  0.75109680575E+03 -0.67747264006E+03 -0.58128792851E+03  0.11666238663E+04  0.25500000920E-02 0. -1.
       -2    1    3    3    0  502 -0.75109680575E+03  0.67747264006E+03  0.56472140864E+03  0.11584583976E+04  0.25500000920E-02 0.  1.
</event>
<event>
 5   0  0.1680194E-06  0.2155571E+04  0.7818609E-02  0.8537151E-01
       -2   -1    0    0    0  501  0.00000000000E+00  0.00000000000E+00  0.15095579889E+04  0.15095579889E+04  0.25500000920E-02 0.  1.
        2   -1    0    0  501    0  0.00000000000E+00  0.00000000000E+00 -0.76951086064E+03  0.76951086064E+03  0.25500000920E-02 0. -1.
    10030    2    1    2    0    0  0.00000000000E+00  0.00000000000E+00  0.74004712827E+03  0.22790688496E+04  0.21555707061E+04 0.  0.
        2    1    3    3  502    0  0.91899116772E+02  0.33751818113E+03  0.14478695620E+04  0.14895268507E+04  0.25500000920E-02 0.  1.
       -2    1    3    3    0  502 -0.91899116772E+02 -0.33751818113E+03 -0.70782243375E+03  0.78954199887E+03  0.25500000920E-02 0. -1.
</event>
<event>
 5   0  0.6457835E-07  0.2038674E+04  0.7818609E-02  0.8588750E-01
        1   -1    0    0  501    0  0.00000000000E+00  0.00000000000E+00  0.97937407328E+03  0.97937407329E+03  0.50400001928E-02 0. -1.
       -1   -1    0    0    0  501  0.00000000000E+00  0.00000000000E+00 -0.10609309114E+04  0.10609309114E+04  0.50400001928E-02 0.  1.
    10030    2    1    2    0    0  0.00000000000E+00  0.00000000000E+00 -0.81556838073E+02  0.20403049847E+04  0.20386743027E+04 0.  0.
        2    1    3    3  502    0  0.74128831471E+03  0.12671577972E+03  0.64787296582E+03  0.99262512269E+03  0.25500000920E-02 0. -1.
       -2    1    3    3    0  502 -0.74128831471E+03 -0.12671577972E+03 -0.72942980389E+03  0.10476798620E+04  0.25500000920E-02 0.  1.
</event>
<event>
 5   0  0.1680194E-06  0.3646609E+04  0.7818609E-02  0.8079898E-01
        2   -1    0    0  501    0  0.00000000000E+00  0.00000000000E+00  0.13841285177E+04  0.13841285177E+04  0.25500000920E-02 0.  1.
       -2   -1    0    0    0  501  0.00000000000E+00  0.00000000000E+00 -0.24018285539E+04  0.24018285539E+04  0.25500000920E-02 0. -1.
    10030    2    1    2    0    0  0.00000000000E+00  0.00000000000E+00 -0.10177000362E+04  0.37859570717E+04  0.36466090529E+04 0.  0.
        2    1    3    3  502    0 -0.10588020536E+04  0.14654886076E+04 -0.26377730990E+03  0.18271007408E+04  0.25500000920E-02 0.  1.
       -2    1    3    3    0  502  0.10588020536E+04 -0.14654886076E+04 -0.75392272629E+03  0.19588563309E+04  0.25500000920E-02 0. -1.
</event>
<event>
 5   0  0.1151180E-06  0.3711440E+04  0.7818609E-02  0.8065431E-01
       -2   -1    0    0    0  501  0.00000000000E+00  0.00000000000E+00  0.19999472006E+04  0.19999472006E+04  0.25500000920E-02 0.  1.
        2   -1    0    0  501    0  0.00000000000E+00  0.00000000000E+00 -0.17218937596E+04  0.17218937596E+04  0.25500000920E-02 0. -1.
    10030    2    1    2    0    0  0.00000000000E+00  0.00000000000E+00  0.27805344093E+03  0.37218409602E+04  0.37114399385E+04 0.  0.
        5    1    3    3  502    0  0.14460180981E+04 -0.76097838079E+03  0.10210472207E+04  0.19268149763E+04  0.46999998093E+01 0.  1.
       -5    1    3    3    0  502 -0.14460180981E+04  0.76097838079E+03 -0.74299377978E+03  0.17950259839E+04  0.46999998093E+01 0. -1.
</event>
<event>
 5   0  0.1685793E-06  0.4008124E+04  0.7818609E-02  0.8002910E-01
        2   -1    0    0  501    0  0.00000000000E+00  0.00000000000E+00  0.23275837151E+04  0.23275837151E+04  0.25500000920E-02 0. -1.
       -2   -1    0    0    0  501  0.00000000000E+00  0.00000000000E+00 -0.17255081031E+04  0.17255081031E+04  0.25500000920E-02 0.  1.
    10030    2    1    2    0    0  0.00000000000E+00  0.00000000000E+00  0.60207561202E+03  0.40530918182E+04  0.40081240305E+04 0.  0.
        3    1    3    3  502    0  0.22275723450E+03 -0.18678267660E+04  0.10000725822E+04  0.21303855973E+04  0.10100000352E+00 0.  1.
       -3    1    3    3    0  502 -0.22275723450E+03  0.18678267660E+04 -0.39799697017E+03  0.19227062209E+04  0.10100000352E+00 0. -1.
</event>
<event>
 5   0  0.1724503E-06  0.3736771E+04  0.7818609E-02  0.8059861E-01
        2   -1    0    0  501    0  0.00000000000E+00  0.00000000000E+00  0.24625993652E+04  0.24625993652E+04  0.25500000920E-02 0. -1.
       -2   -1    0    0    0  501  0.00000000000E+00  0.00000000000E+00 -0.14175528241E+04  0.14175528241E+04  0.25500000920E-02 0.  1.
    10030    2    1    2    0    0  0.00000000000E+00  0.00000000000E+00  0.10450465410E+04  0.38801521893E+04  0.37367711650E+04 0.  0.
        1    1    3    3  502    0  0.19924230637E+01  0.18683322577E+04  0.50801244559E+03  0.19361678749E+04  0.50400001928E-02 0. -1.
       -1    1    3    3    0  502 -0.19924230637E+01 -0.18683322577E+04  0.53703409545E+03  0.19439843144E+04  0.50400001928E-02 0.  1.
</event>
<event>
 5   0  0.6186440E-07  0.3005157E+04  0.7818609E-02  0.8242260E-01
       -1   -1    0    0    0  501  0.00000000000E+00  0.00000000000E+00  0.14556301757E+04  0.14556301758E+04  0.50400001928E-02 0.  1.
        1   -1    0    0  501    0  0.00000000000E+00  0.00000000000E+00 -0.15510406383E+04  0.15510406383E+04  0.50400001928E-02 0. -1.
    10030    2    1    2    0    0  0.00000000000E+00  0.00000000000E+00 -0.95410462594E+02  0.30066708141E+04  0.30051566062E+04 0.  0.
        3    1    3    3  502    0 -0.13881564849E+04  0.51790097870E+03 -0.29791462003E+03  0.15112752831E+04  0.10100000352E+00 0. -1.
       -3    1    3    3    0  502  0.13881564849E+04 -0.51790097870E+03  0.20250415744E+03  0.14953955310E+04  0.10100000352E+00 0.  1.
</event>
<event>
 5   0  0.6287345E-07  0.3793460E+04  0.7818609E-02  0.8047560E-01
       -1   -1    0    0    0  501  0.00000000000E+00  0.00000000000E+00  0.16869282610E+04  0.16869282610E+04  0.50400001928E-02 0.  1.
        1   -1    0    0  501    0  0.00000000000E+00  0.00000000000E+00 -0.21326246930E+04  0.21326246930E+04  0.50400001928E-02 0. -1.
    10030    2    1    2    0    0  0.00000000000E+00  0.00000000000E+00 -0.44569643205E+03  0.38195529540E+04  0.37934600906E+04 0.  0.
        5    1    3    3  502    0  0.62904210529E+03 -0.63962165497E+03  0.14597997896E+04  0.17134314540E+04  0.46999998093E+01 0.  1.
       -5    1    3    3    0  502 -0.62904210529E+03  0.63962165497E+03 -0.19054962217E+04  0.21061215000E+04  0.46999998093E+01 0. -1.
</event>
<event>
 5   0  0.5679750E-07  0.2029369E+04  0.7818609E-02  0.8593012E-01
        1   -1    0    0  501    0  0.00000000000E+00  0.00000000000E+00  0.23345365609E+04  0.23345365609E+04  0.50400001928E-02 0.  1.
       -1   -1    0    0    0  501  0.00000000000E+00  0.00000000000E+00 -0.44102293884E+03  0.44102293887E+03  0.50400001928E-02 0. -1.
    10030    2    1    2    0    0  0.00000000000E+00  0.00000000000E+00  0.18935136220E+04  0.27755594997E+04  0.20293685471E+04 0.  0.
        4    1    3    3  502    0  0.12387428606E+03 -0.98635468040E+03  0.66866625577E+03  0.11980636748E+04  0.12699999809E+01 0.  1.
       -4    1    3    3    0  502 -0.12387428606E+03  0.98635468040E+03  0.12248473663E+04  0.15774958250E+04  0.12699999809E+01 0. -1.
</event>
<event>
 5   0  0.1724503E-06  0.2639151E+04  0.7818609E-02  0.8355023E-01
       -2   -1    0    0    0  501  0.00000000000E+00  0.00000000000E+00  0.72354878206E+03  0.72354878206E+03  0.25500000920E-02 0. -1.
        2   -1    0    0  501    0  0.00000000000E+00  0.00000000000E+00 -0.24065812843E+04  0.24065812843E+04  0.25500000920E-02 0.  1.
    10030    2    1    2    0    0  0.00000000000E+00  0.00000000000E+00 -0.16830325022E+04  0.31301300664E+04  0.26391505885E+04 0.  0.
        1    1    3    3  502    0 -0.11752942386E+04 -0.31662016883E+03 -0.23708632469E+03  0.12400704834E+04  0.50400001928E-02 0. -1.
       -1    1    3    3    0  502  0.11752942386E+04  0.31662016883E+03 -0.14459461775E+04  0.18900595829E+04  0.50400001928E-02 0.  1.
</event>
<event>
 5   0  0.1151180E-06  0.3657728E+04  0.7818609E-02  0.8077395E-01
        2   -1    0    0  501    0  0.00000000000E+00  0.00000000000E+00  0.32141472985E+04  0.32141472985E+04  0.25500000920E-02 0.  1.
       -2   -1    0    0    0  501  0.00000000000E+00  0.00000000000E+00 -0.10406315915E+04  0.10406315915E+04  0.25500000920E-02 0. -1.
    10030    2    1    2    0    0  0.00000000000E+00  0.00000000000E+00  0.21735157070E+04  0.42547788900E+04  0.36577278295E+04 0.  0.
        5    1    3    3  502    0  0.17890927135E+04  0.14642420320E+03  0.67974643178E+03  0.19194713038E+04  0.46999998093E+01 0.  1.
       -5    1    3    3    0  502 -0.17890927135E+04 -0.14642420320E+03  0.14937692752E+04  0.23353075862E+04  0.46999998093E+01 0. -1.
</event>
<event>
 5   0  0.1184684E-06  0.3707826E+04  0.7818609E-02  0.8066230E-01
        2   -1    0    0  501    0  0.00000000000E+00  0.00000000000E+00  0.15101288385E+04  0.15101288385E+04  0.25500000920E-02 0.  1.
       -2   -1    0    0    0  501  0.00000000000E+00  0.00000000000E+00 -0.22759600009E+04  0.22759600009E+04  0.25500000920E-02 0. -1.
    10030    2    1    2    0    0  0.00000000000E+00  0.00000000000E+00 -0.76583116242E+03  0.37860888394E+04  0.37078256877E+04 0.  0.
        4    1    3    3  502    0 -0.82993342749E+03 -0.11017417836E+03  0.13061035464E+04  0.15513980567E+04  0.12699999809E+01 0.  1.
       -4    1    3    3    0  502  0.82993342749E+03  0.11017417836E+03 -0.20719347088E+04  0.22346907826E+04  0.12699999809E+01 0. -1.
</event>
<event>
 5   0  0.6287345E-07  0.2612360E+04  0.7818609E-02  0.8364015E-01
       -1   -1    0    0    0  501  0.00000000000E+00  0.00000000000E+00  0.11626353773E+04  0.11626353773E+04  0.50400001928E-02 0. -1.
        1   -1    0    0  501    0  0.00000000000E+00  0.00000000000E+00 -0.14674477183E+04  0.14674477183E+04  0.50400001928E-02 0.  1.
    10030    2    1    2    0    0  0.00000000000E+00  0.00000000000E+00 -0.30481234101E+03  0.26300830956E+04  0.26123603363E+04 0.  0.
        5    1    3    3  502    0 -0.40117371398E+03  0.89682681139E+03 -0.10189695236E+04  0.14154715322E+04  0.46999998093E+01 0.  1.
       -5    1    3    3    0  502  0.40117371398E+03 -0.89682681139E+03  0.71415718261E+03  0.12146115634E+04  0.46999998093E+01 0. -1.
</event>
<event>
 5   0  0.5875011E-07  0.3729486E+04  0.7818609E-02  0.8061459E-01
        1   -1    0    0  501    0  0.00000000000E+00  0.00000000000E+00  0.24811242403E+04  0.24811242403E+04  0.50400001928E-02 0.  1.
       -1   -1    0    0    0  501  0.00000000000E+00  0.00000000000E+00 -0.14014880288E+04  0.14014880288E+04  0.50400001928E-02 0. -1.
    10030    2    1    2    0    0  0.00000000000E+00  0.00000000000E+00  0.10796362115E+04  0.38826122691E+04  0.37294857129E+04 0.  0.
        2    1    3    3  502    0  0.52533053144E+03 -0.52479797984E+03  0.23205699051E+04  0.24364789700E+04  0.25500000920E-02 0.  1.
       -2    1    3    3    0  502 -0.52533053144E+03  0.52479797984E+03 -0.12409336936E+04  0.14461332991E+04  0.25500000920E-02 0. -1.
</event>
<event>
 5   0  0.1184684E-06  0.3410257E+04  0.7818609E-02  0.8135393E-01
       -2   -1    0    0    0  501  0.00000000000E+00  0.00000000000E+00  0.15977464317E+04  0.15977464317E+04  0.25500000920E-02 0.  1.
        2   -1    0    0  501    0  0.00000000000E+00  0.00000000000E+00 -0.18197278841E+04  0.18197278841E+04  0.25500000920E-02 0. -1.
    10030    2    1    2    0    0  0.00000000000E+00  0.00000000000E+00 -0.22198145240E+03  0.34174743159E+04  0.34102573121E+04 0.  0.
        4    1    3    3  502    0 -0.16838703040E+04 -0.22967958823E+03  0.28192388907E+02  0.16996965428E+04  0.12699999809E+01 0. -1.
       -4    1    3    3    0  502  0.16838703040E+04  0.22967958823E+03 -0.25017384131E+03  0.17177777731E+04  0.12699999809E+01 0.  1.
</event>
<event>
 5   0  0.1184684E-06  0.3671992E+04  0.7818609E-02  0.8074197E-01
        2   -1    0    0  501    0  0.00000000000E+00  0.00000000000E+00  0.19632481405E+04  0.19632481405E+04  0.25500000920E-02 0. -1.
       -2   -1    0    0    0  501  0.00000000000E+00  0.00000000000E+00 -0.17169919997E+04  0.17169919997E+04  0.25500000920E-02 0.  1.
    10030    2    1    2    0    0  0.00000000000E+00  0.00000000000E+00  0.24625614082E+03  0.36802401402E+04  0.36719920210E+04 0.  0.
        4    1    3    3  502    0  0.54584584432E+03 -0.26530310884E+03 -0.16135498644E+04  0.17239136298E+04  0.12699999809E+01 0.  1.
       -4    1    3    3    0  502 -0.54584584432E+03  0.26530310884E+03  0.18598060052E+04  0.19563265104E+04  0.12699999809E+01 0. -1.
</event>
<event>
 5   0  0.1680194E-06  0.3602563E+04  0.7818609E-02  0.8089905E-01
       -2   -1    0    0    0  501  0.00000000000E+00  0.00000000000E+00  0.17173967428E+04  0.17173967428E+04  0.25500000920E-02 0.  1.
        2   -1    0    0  501    0  0.00000000000E+00  0.00000000000E+00 -0.18892640443E+04  0.18892640443E+04  0.25500000920E-02 0. -1.
    10030    2    1    2    0    0  0.00000000000E+00  0.00000000000E+00 -0.17186730151E+03  0.36066607871E+04  0.36025634851E+04 0.  0.
        2    1    3    3  502    0 -0.15054308768E+04  0.82902793993E+03 -0.62599733496E+03  0.18290659128E+04  0.25500000920E-02 0. -1.
       -2    1    3    3    0  502  0.15054308768E+04 -0.82902793993E+03  0.45413003345E+03  0.17775948743E+04  0.25500000920E-02 0.  1.
</event>
<event>
 5   0  0.6261598E-07  0.3750291E+04  0.7818609E-02  0.8056907E-01
       -1   -1    0    0    0  501  0.00000000000E+00  0.00000000000E+00  0.15381887389E+04  0.15381887389E+04  0.50400001928E-02 0. -1.
        1   -1    0    0  501    0  0.00000000000E+00  0.00000000000E+00 -0.22859160815E+04  0.22859160815E+04  0.50400001928E-02 0.  1.
    10030    2    1    2    0    0  0.00000000000E+00  0.00000000000E+00 -0.74772734263E+03  0.38241048205E+04  0.37502908552E+04 0.  0.
        1    1    3    3  502    0 -0.93037384693E+03  0.51976038592E+03 -0.19470928733E+04  0.22196659684E+04  0.50400001928E-02 0.  1.
       -1    1    3    3    0  502  0.93037384693E+03 -0.51976038592E+03  0.11993655307E+04  0.16044388521E+04  0.50400001928E-02 0. -1.
</event>
<event>
 5   0  0.6287345E-07  0.2010197E+04  0.7818609E-02  0.8601868E-01
       -1   -1    0    0    0  501  0.00000000000E+00  0.00000000000E+00  0.73032483433E+03  0.73032483435E+03  0.50400001928E-02 0. -1.
        1   -1    0    0  501    0  0.00000000000E+00  0.00000000000E+00 -0.13832509769E+04  0.13832509769E+04  0.50400001928E-02 0.  1.
    10030    2    1    2    0    0  0.00000000000E+00  0.00000000000E+00 -0.65292614255E+03  0.21135758112E+04  0.20101965482E+04 0.  0.
        5    1    3    3  502    0  0.13750675056E+03 -0.83005511965E+03 -0.90455776876E+03  0.12353730024E+04  0.46999998093E+01 0.  1.
       -5    1    3    3    0  502 -0.13750675056E+03  0.83005511965E+03  0.25163162621E+03  0.87820280882E+03  0.46999998093E+01 0. -1.
</event>
<event>
 5   0  0.5679750E-07  0.3740543E+04  0.7818609E-02  0.8059036E-01
       -1   -1    0    0    0  501  0.00000000000E+00  0.00000000000E+00  0.31796659801E+04  0.31796659801E+04  0.50400001928E-02 0. -1.
        1   -1    0    0  501    0  0.00000000000E+00  0.00000000000E+00 -0.11000891308E+04  0.11000891308E+04  0.50400001928E-02 0.  1.
    10030    2    1    2    0    0  0.00000000000E+00  0.00000000000E+00  0.20795768493E+04  0.42797551110E+04  0.37405432677E+04 0.  0.
        4    1    3    3  502    0 -0.98519495928E+03 -0.15801095613E+04  0.83977733535E+03  0.20426901183E+04  0.12699999809E+01 0.  1.
       -4    1    3    3    0  502  0.98519495928E+03  0.15801095613E+04  0.12397995139E+04  0.22370649926E+04  0.12699999809E+01 0. -1.
</event>
<event>
 5   0  0.1151180E-06  0.2554306E+04  0.7818609E-02  0.8383890E-01
       -2   -1    0    0    0  501  0.00000000000E+00  0.00000000000E+00  0.10294043721E+04  0.10294043721E+04  0.25500000920E-02 0.  1.
        2   -1    0    0  501    0  0.00000000000E+00  0.00000000000E+00 -0.15845277286E+04  0.15845277286E+04  0.25500000920E-02 0. -1.
    10030    2    1    2    0    0  0.00000000000E+00  0.00000000000E+00 -0.55512335648E+03  0.26139321006E+04  0.25543059891E+04 0.  0.
        5    1    3    3  502    0 -0.76046993401E+03 -0.11292658538E+03 -0.13211866684E+04  0.15286017260E+04  0.46999998093E+01 0. -1.
       -5    1    3    3    0  502  0.76046993401E+03  0.11292658538E+03  0.76606331187E+03  0.10853303746E+04  0.46999998093E+01 0.  1.
</event>
<event>
 5   0  0.1680194E-06  0.3692265E+04  0.7818609E-02  0.8069678E-01
       -2   -1    0    0    0  501  0.00000000000E+00  0.00000000000E+00  0.15254323937E+04  0.15254323937E+04  0.25500000920E-02 0.  1.
        2   -1    0    0  501    0  0.00000000000E+00  0.00000000000E+00 -0.22342549265E+04  0.22342549265E+04  0.25500000920E-02 0. -1.
    10030    2    1    2    0    0  0.00000000000E+00  0.00000000000E+00 -0.70882253284E+03  0.37596873202E+04  0.36922648012E+04 0.  0.
        2    1    3    3  502    0  0.16432655563E+04 -0.46818806266E+03 -0.10662351298E+04  0.20140454569E+04  0.25500000920E-02 0. -1.
       -2    1    3    3    0  502 -0.16432655563E+04  0.46818806266E+03  0.35741259693E+03  0.17456418633E+04  0.25500000920E-02 0.  1.
</event>
<event>
 5   0  0.1151180E-06  0.3178536E+04  0.7818609E-02  0.8194509E-01
        2   -1    0    0  501    0  0.00000000000E+00  0.00000000000E+00  0.21022595583E+04  0.21022595583E+04  0.25500000920E-02 0. -1.
       -2   -1    0    0    0  501  0.00000000000E+00  0.00000000000E+00 -0.12014559607E+04  0.12014559607E+04  0.25500000920E-02 0.  1.
    10030    2    1    2    0    0  0.00000000000E+00  0.00000000000E+00  0.90080359756E+03  0.33037155190E+04  0.31785356864E+04 0.  0.
        5    1    3    3  502    0  0.13976093686E+04  0.70589909646E+03  0.16738277729E+03  0.15746887202E+04  0.46999998093E+01 0. -1.
       -5    1    3    3    0  502 -0.13976093686E+04 -0.70589909646E+03  0.73342082027E+03  0.17290267988E+04  0.46999998093E+01 0.  1.
</event>
<event>
 5   0  0.5679750E-07  0.3623937E+04  0.7818609E-02  0.8085031E-01
        1   -1    0    0  501    0  0.00000000000E+00  0.00000000000E+00  0.12218449276E+04  0.12218449277E+04  0.50400001928E-02 0. -1.
       -1   -1    0    0    0  501  0.00000000000E+00  0.00000000000E+00 -0.26871085081E+04  0.26871085081E+04  0.50400001928E-02 0.  1.
    10030    2    1    2    0    0  0.00000000000E+00  0.00000000000E+00 -0.14652635805E+04  0.39089534358E+04  0.36239370307E+04 0.  0.
        4    1    3    3  502    0  0.54474696422E+03 -0.11030991744E+04 -0.21675386016E+04  0.24923487408E+04  0.12699999809E+01 0.  1.
       -4    1    3    3    0  502 -0.54474696422E+03  0.11030991744E+04  0.70227502114E+03  0.14166046949E+04  0.12699999809E+01 0. -1.
</event>
<event>
 5   0  0.1184684E-06  0.2583864E+04  0.7818609E-02  0.8373703E-01
       -2   -1    0    0    0  501  0.00000000000E+00  0.00000000000E+00  0.13701861619E+04  0.13701861619E+04  0.25500000920E-02 0.  1.
        2   -1    0    0  501    0  0.00000000000E+00  0.00000000000E+00 -0.12181466317E+04  0.12181466317E+04  0.25500000920E-02 0. -1.
    10030    2    1    2    0    0  0.00000000000E+00  0.00000000000E+00  0.15203953017E+03  0.25883327936E+04  0.25838635088E+04 0.  0.
        4    1    3    3  502    0  0.51021930222E+03  0.10055505052E+04  0.70768996028E+03  0.13312709144E+04  0.12699999809E+01 0.  1.
       -4    1    3    3    0  502 -0.51021930222E+03 -0.10055505052E+04 -0.55565043011E+03  0.12570618792E+04  0.12699999809E+01 0. -1.
</event>
<event>
 5   0  0.5679750E-07  0.3675973E+04  0.7818609E-02  0.8073308E-01
        1   -1    0    0  501    0  0.00000000000E+00  0.00000000000E+00  0.21644362936E+04  0.21644362936E+04  0.50400001928E-02 0.  1.
       -1   -1    0    0    0  501  0.00000000000E+00  0.00000000000E+00 -0.15607729434E+04  0.15607729434E+04  0.50400001928E-02 0. -1.
    10030    2    1    2    0    0  0.00000000000E+00  0.00000000000E+00  0.60366335013E+03  0.37252092370E+04  0.36759725814E+04 0.  0.
        4    1    3    3  502    0 -0.13852629813E+04  0.12074159512E+04  0.26411509207E+03  0.18564927151E+04  0.12699999809E+01 0. -1.
       -4    1    3    3    0  502  0.13852629813E+04 -0.12074159512E+04  0.33954825806E+03  0.18687165219E+04  0.12699999809E+01 0.  1.
</event>
<event>
 5   0  0.1706758E-06  0.1992538E+04  0.7818609E-02  0.8610117E-01
       -2   -1    0    0    0  501  0.00000000000E+00  0.00000000000E+00  0.89236557531E+03  0.89236557532E+03  0.25500000920E-02 0.  1.
        2   -1    0    0  501    0  0.00000000000E+00  0.00000000000E+00 -0.11122704941E+04  0.11122704941E+04  0.25500000920E-02 0. -1.
    10030    2    1    2    0    0  0.00000000000E+00  0.00000000000E+00 -0.21990491876E+03  0.20046360694E+04  0.19925379789E+04 0.  0.
        3    1    3    3  502    0  0.21344395744E+02  0.71770497640E+03 -0.80479474943E+03  0.10785409660E+04  0.10100000352E+00 0. -1.
       -3    1    3    3    0  502 -0.21344395744E+02 -0.71770497640E+03  0.58488983066E+03  0.92609510342E+03  0.10100000352E+00 0.  1.
</event>
<event>
 5   0  0.1184684E-06  0.3288290E+04  0.7818609E-02  0.8165881E-01
        2   -1    0    0  501    0  0.00000000000E+00  0.00000000000E+00  0.19654713143E+04  0.19654713143E+04  0.25500000920E-02 0. -1.
       -2   -1    0    0    0  501  0.00000000000E+00  0.00000000000E+00 -0.13753511617E+04  0.13753511617E+04  0.25500000920E-02 0.  1.
    10030    2    1    2    0    0  0.00000000000E+00  0.00000000000E+00  0.59012015260E+03  0.33408224760E+04  0.32882902885E+04 0.  0.
        4    1    3    3  502    0 -0.10839831248E+01 -0.85864955996E+03 -0.11294562423E+04  0.14187858394E+04  0.12699999809E+01 0.  1.
       -4    1    3    3    0  502  0.10839831248E+01  0.85864955996E+03  0.17195763949E+04  0.19220366366E+04  0.12699999809E+01 0. -1.
</event>
<event>
 5   0  0.1685793E-06  0.3820530E+04  0.7818609E-02  0.8041764E-01
       -2   -1    0    0    0  501  0.00000000000E+00  0.00000000000E+00  0.16441733905E+04  0.16441733905E+04  0.25500000920E-02 0.  1.
        2   -1    0    0  501    0  0.00000000000E+00  0.00000000000E+00 -0.22194203590E+04  0.22194203590E+04  0.25500000920E-02 0. -1.
    10030    2    1    2    0    0  0.00000000000E+00  0.00000000000E+00 -0.57524696849E+03  0.38635937495E+04  0.38205297521E+04 0.  0.
        3    1    3    3  502    0 -0.48346539198E+03 -0.87414454811E+03  0.13589941104E+04  0.16866334748E+04  0.10100000352E+00 0.  1.
       -3    1    3    3    0  502  0.48346539198E+03  0.87414454811E+03 -0.19342410789E+04  0.21769602747E+04  0.10100000352E+00 0. -1.
</event>
<event>
 5   0  0.1151180E-06  0.3604986E+04  0.7818609E-02  0.8089351E-01
       -2   -1    0    0    0  501  0.00000000000E+00  0.00000000000E+00  0.16937410292E+04  0.16937410292E+04  0.25500000920E-02 0.  1.
        2   -1    0    0  501    0  0.00000000000E+00  0.00000000000E+00 -0.19182272517E+04  0.19182272517E+04  0.25500000920E-02 0. -1.
    10030    2    1    2    0    0  0.00000000000E+00  0.00000000000E+00 -0.22448622247E+03  0.36119682809E+04  0.36049855476E+04 0.  0.
        5    1    3    3  502    0  0.64405718568E+03 -0.15477542922E+04  0.55131236774E+03  0.17647437277E+04  0.46999998093E+01 0.  1.
       -5    1    3    3    0  502 -0.64405718568E+03  0.15477542922E+04 -0.77579859020E+03  0.18472245533E+04  0.46999998093E+01 0. -1.
</event>
<event>
 5   0  0.1151180E-06  0.3643928E+04  0.7818609E-02  0.8080503E-01
        2   -1    0    0  501    0  0.00000000000E+00  0.00000000000E+00  0.12764045849E+04  0.12764045849E+04  0.25500000920E-02 0. -1.
       -2   -1    0    0    0  501  0.00000000000E+00  0.00000000000E+00 -0.26007057853E+04  0.26007057853E+04  0.25500000920E-02 0.  1.
    10030    2    1    2    0    0  0.00000000000E+00  0.00000000000E+00 -0.13243012004E+04  0.38771103702E+04  0.36439279841E+04 0.  0.
        5    1    3    3  502    0  0.13858041747E+04  0.24849604636E+03 -0.18925814697E+04  0.23588323817E+04  0.46999998093E+01 0.  1.
       -5    1    3    3    0  502 -0.13858041747E+04 -0.24849604636E+03  0.56828026925E+03  0.15182779885E+04  0.46999998093E+01 0. -1.
</event>
<event>
 5   0  0.1724503E-06  0.3695165E+04  0.7818609E-02  0.8069034E-01
        2   -1    0    0  501    0  0.00000000000E+00  0.00000000000E+00  0.12927239790E+04  0.12927239790E+04  0.25500000920E-02 0. -1.
       -2   -1    0    0    0  501  0.00000000000E+00  0.00000000000E+00 -0.26405959804E+04  0.26405959804E+04  0.25500000920E-02 0.  1.
    10030    2    1    2    0    0  0.00000000000E+00  0.00000000000E+00 -0.13478720014E+04  0.39333199594E+04  0.36951653509E+04 0.  0.
        1    1    3    3  502    0 -0.10644189065E+04  0.11755323637E+04 -0.16830314260E+04  0.23124572920E+04  0.50400001928E-02 0.  1.
       -1    1    3    3    0  502  0.10644189065E+04 -0.11755323637E+04  0.33515942453E+03  0.16208626674E+04  0.50400001928E-02 0. -1.
</event>
<event>
 5   0  0.1151180E-06  0.3576713E+04  0.7818609E-02  0.8095847E-01
       -2   -1    0    0    0  501  0.00000000000E+00  0.00000000000E+00  0.14544513265E+04  0.14544513265E+04  0.25500000920E-02 0.  1.
        2   -1    0    0  501    0  0.00000000000E+00  0.00000000000E+00 -0.21989184217E+04  0.21989184217E+04  0.25500000920E-02 0. -1.
    10030    2    1    2    0    0  0.00000000000E+00  0.00000000000E+00 -0.74446709519E+03  0.36533697482E+04  0.35767134721E+04 0.  0.
        5    1    3    3  502    0 -0.10765702336E+04 -0.18434183717E+03  0.10741706135E+04  0.15319432031E+04  0.46999998093E+01 0.  1.
       -5    1    3    3    0  502  0.10765702336E+04  0.18434183717E+03 -0.18186377087E+04  0.21214265451E+04  0.46999998093E+01 0. -1.
</event>
<event>
 5   0  0.1184684E-06  0.3711306E+04  0.7818609E-02  0.8065461E-01
        2   -1    0    0  501    0  0.00000000000E+00  0.00000000000E+00  0.25363466014E+04  0.25363466014E+04  0.25500000920E-02 0.  1.
       -2   -1    0    0    0  501  0.00000000000E+00  0.00000000000E+00 -0.13576408539E+04  0.13576408539E+04  0.25500000920E-02 0. -1.
    10030    2    1    2    0    0  0.00000000000E+00  0.00000000000E+00  0.11787057475E+04  0.38939874552E+04  0.37113058433E+04 0.  0.
        4    1    3    3  502    0 -0.24114582815E+03 -0.79296925440E+03  0.23313457553E+04  0.24742930693E+04  0.12699999809E+01 0.  1.
       -4    1    3    3    0  502  0.24114582815E+03  0.79296925440E+03 -0.11526400079E+04  0.14196943859E+04  0.12699999809E+01 0. -1.
</event>
<event>
 5   0  0.6261598E-07  0.3485487E+04  0.7818609E-02  0.8117238E-01
        1   -1    0    0  501    0  0.00000000000E+00  0.00000000000E+00  0.19450886350E+04  0.19450886350E+04  0.50400001928E-02 0. -1.
       -1   -1    0    0    0  501  0.00000000000E+00  0.00000000000E+00 -0.15614484130E+04  0.15614484130E+04  0.50400001928E-02 0.  1.
    10030    2    1    2    0    0  0.00000000000E+00  0.00000000000E+00  0.38364022203E+03  0.35065370479E+04  0.34854873761E+04 0.  0.
        1    1    3    3  502    0  0.84352523101E+02 -0.10267888038E+04 -0.12222806621E+04  0.15985557897E+04  0.50400001928E-02 0.  1.
       -1    1    3    3    0  502 -0.84352523101E+02  0.10267888038E+04  0.16059208842E+04  0.19079812583E+04  0.50400001928E-02 0. -1.
</event>
<event>
 5   0  0.1685793E-06  0.3444453E+04  0.7818609E-02  0.8127081E-01
       -2   -1    0    0    0  501  0.00000000000E+00  0.00000000000E+00  0.23540224945E+04  0.23540224945E+04  0.25500000920E-02 0.  1.
        2   -1    0    0  501    0  0.00000000000E+00  0.00000000000E+00 -0.12599985074E+04  0.12599985074E+04  0.25500000920E-02 0. -1.
    10030    2    1    2    0    0  0.00000000000E+00  0.00000000000E+00  0.10940239871E+04  0.36140210020E+04  0.34444534136E+04 0.  0.
        3    1    3    3  502    0 -0.35840244143E+03  0.11901433610E+04  0.17978284010E+04  0.21856533347E+04  0.10100000352E+00 0.  1.
       -3    1    3    3    0  502  0.35840244143E+03 -0.11901433610E+04 -0.70380441383E+03  0.14283676673E+04  0.10100000352E+00 0. -1.
</event>
<event>
 5   0  0.5875011E-07  0.3522111E+04  0.7818609E-02  0.8108570E-01
        1   -1    0    0  501    0  0.00000000000E+00  0.00000000000E+00  0.25574481787E+04  0.25574481787E+04  0.50400001928E-02 0.  1.
       -1   -1    0    0    0  501  0.00000000000E+00  0.00000000000E+00 -0.12126606023E+04  0.12126606023E+04  0.50400001928E-02 0. -1.
    10030    2    1    2    0    0  0.00000000000E+00  0.00000000000E+00  0.13447875764E+04  0.37701087810E+04  0.35221110992E+04 0.  0.
        2    1    3    3  502    0 -0.13019892768E+04 -0.33663308796E+02  0.19411849040E+04  0.23376287401E+04  0.25500000920E-02 0. -1.
       -2    1    3    3    0  502  0.13019892768E+04  0.33663308796E+02 -0.59639732757E+03  0.14324800409E+04  0.25500000920E-02 0.  1.
</event>
<event>
 5   0  0.1724503E-06  0.3706368E+04  0.7818609E-02  0.8066552E-01
        2   -1    0    0  501    0  0.00000000000E+00  0.00000000000E+00  0.16801583500E+04  0.16801583500E+04  0.25500000920E-02 0. -1.
       -2   -1    0    0    0  501  0.00000000000E+00  0.00000000000E+00 -0.20440277477E+04  0.20440277477E+04  0.25500000920E-02 0.  1.
    10030    2    1    2    0    0  0.00000000000E+00  0.00000000000E+00 -0.36386939762E+03  0.37241860977E+04  0.37063676493E+04 0.  0.
        1    1    3    3  502    0  0.54939338931E+03 -0.73373049700E+03  0.14364283833E+04  0.17039718421E+04  0.50400001928E-02 0. -1.
       -1    1    3    3    0  502 -0.54939338931E+03  0.73373049700E+03 -0.18002977809E+04  0.20202142556E+04  0.50400001928E-02 0.  1.
</event>
<event>
 5   0  0.6186440E-07  0.2063979E+04  0.7818609E-02  0.8577279E-01
        1   -1    0    0  501    0  0.00000000000E+00  0.00000000000E+00  0.24935551483E+04  0.24935551484E+04  0.50400001928E-02 0.  1.
       -1   -1    0    0    0  501  0.00000000000E+00  0.00000000000E+00 -0.42710212908E+03  0.42710212911E+03  0.50400001928E-02 0. -1.
    10030    2    1    2    0    0  0.00000000000E+00  0.00000000000E+00  0.20664530193E+04  0.29206572775E+04  0.20639793729E+04 0.  0.
        3    1    3    3  502    0  0.31618084628E+03  0.96234417989E+03  0.13124136683E+04  0.16578619650E+04  0.10100000352E+00 0. -1.
       -3    1    3    3    0  502 -0.31618084628E+03 -0.96234417989E+03  0.75403935098E+03  0.12627953125E+04  0.10100000352E+00 0.  1.
</event>
<event>
 5   0  0.5875011E-07  0.2189115E+04  0.7818609E-02  0.8522972E-01
       -1   -1    0    0    0  501  0.00000000000E+00  0.00000000000E+00  0.17689734986E+04  0.17689734986E+04  0.50400001928E-02 0.  1.
        1   -1    0    0  501    0  0.00000000000E+00  0.00000000000E+00 -0.67726078367E+03  0.67726078368E+03  0.50400001928E-02 0. -1.
    10030    2    1    2    0    0  0.00000000000E+00  0.00000000000E+00  0.10917127150E+04  0.24462342823E+04  0.21891152350E+04 0.  0.
        2    1    3    3  502    0  0.19968749939E+03  0.97363569167E+03  0.33513023052E+02  0.99446703325E+03  0.25500000920E-02 0. -1.
       -2    1    3    3    0  502 -0.19968749939E+03 -0.97363569167E+03  0.10581996919E+04  0.14517672491E+04  0.25500000920E-02 0.  1.
</event>
<event>
 5   0  0.1685793E-06  0.3740606E+04  0.7818609E-02  0.8059022E-01
       -2   -1    0    0    0  501  0.00000000000E+00  0.00000000000E+00  0.13404853450E+04  0.13404853450E+04  0.25500000920E-02 0.  1.
        2   -1    0    0  501    0  0.00000000000E+00  0.00000000000E+00 -0.26095277767E+04  0.26095277767E+04  0.25500000920E-02 0. -1.
    10030    2    1    2    0    0  0.00000000000E+00  0.00000000000E+00 -0.12690424317E+04  0.39500131218E+04  0.37406062301E+04 0.  0.
        3    1    3    3  502    0  0.16109715650E+03 -0.77301088333E+03 -0.24248813225E+04  0.25502053953E+04  0.10100000352E+00 0. -1.
       -3    1    3    3    0  502 -0.16109715650E+03  0.77301088333E+03  0.11558388908E+04  0.13998077265E+04  0.10100000352E+00 0.  1.
</event>
<event>
 5   0  0.6186440E-07  0.1889468E+04  0.7818609E-02  0.8660117E-01
       -1   -1    0    0    0  501  0.00000000000E+00  0.00000000000E+00  0.49750252156E+03  0.49750252159E+03  0.50400001928E-02 0. -1.
        1   -1    0    0  501    0  0.00000000000E+00  0.00000000000E+00 -0.17940057021E+04  0.17940057021E+04  0.50400001928E-02 0.  1.
    10030    2    1    2    0    0  0.00000000000E+00  0.00000000000E+00 -0.12965031805E+04  0.22915082237E+04  0.18894680315E+04 0.  0.
        3    1    3    3  502    0  0.80815082085E+03  0.37567364525E+03 -0.10284612023E+04  0.13608713722E+04  0.10100000352E+00 0.  1.
       -3    1    3    3    0  502 -0.80815082085E+03 -0.37567364525E+03 -0.26804197826E+03  0.93063685145E+03  0.10100000352E+00 0. -1.
</event>
<event>
 5   0  0.6261598E-07  0.2625549E+04  0.7818609E-02  0.8359574E-01
        1   -1    0    0  501    0  0.00000000000E+00  0.00000000000E+00  0.16764675027E+04  0.16764675027E+04  0.50400001928E-02 0. -1.
       -1   -1    0    0    0  501  0.00000000000E+00  0.00000000000E+00 -0.10279808519E+04  0.10279808519E+04  0.50400001928E-02 0.  1.
    10030    2    1    2    0    0  0.00000000000E+00  0.00000000000E+00  0.64848665078E+03  0.27044483546E+04  0.26255486982E+04 0.  0.
        1    1    3    3  502    0  0.11495676830E+04 -0.58408595918E+03  0.57805047195E+03  0.14130833711E+04  0.50400001928E-02 0. -1.
       -1    1    3    3    0  502 -0.11495676830E+04  0.58408595918E+03  0.70436178834E+02  0.12913649836E+04  0.50400001928E-02 0.  1.
</event>
<event>
 5   0  0.1151180E-06  0.3291982E+04  0.7818609E-02  0.8164938E-01
        2   -1    0    0  501    0  0.00000000000E+00  0.00000000000E+00  0.28122460567E+04  0.28122460567E+04  0.25500000920E-02 0.  1.
       -2   -1    0    0    0  501  0.00000000000E+00  0.00000000000E+00 -0.96338899465E+03  0.96338899465E+03  0.25500000920E-02 0. -1.
    10030    2    1    2    0    0  0.00000000000E+00  0.00000000000E+00  0.18488570620E+04  0.37756350513E+04  0.32919823215E+04 0.  0.
        5    1    3    3  502    0 -0.11302978933E+04 -0.45767854850E+03  0.21923943115E+04  0.25087163826E+04  0.46999998093E+01 0.  1.
       -5    1    3    3    0  502  0.11302978933E+04  0.45767854850E+03 -0.34353724947E+03  0.12669186687E+04  0.46999998093E+01 0. -1.
</event>
<event>
 5   0  0.1680194E-06  0.4037734E+04  0.7818609E-02  0.7996977E-01
       -2   -1    0    0    0  501  0.00000000000E+00  0.00000000000E+00  0.17091072417E+04  0.17091072417E+04  0.25500000920E-02 0. -1.
        2   -1    0    0  501    0  0.00000000000E+00  0.00000000000E+00 -0.23847677722E+04  0.23847677722E+04  0.25500000920E-02 0.  1.
    10030    2    1    2    0    0  0.00000000000E+00  0.00000000000E+00 -0.67566053054E+03  0.40938750139E+04  0.40377339532E+04 0.  0.
        2    1    3    3  502    0  0.28531778208E+03 -0.48474531302E+03 -0.23037167473E+04  0.23713909646E+04  0.25500000920E-02 0.  1.
       -2    1    3    3    0  502 -0.28531778208E+03  0.48474531302E+03  0.16280562167E+04  0.17224840493E+04  0.25500000920E-02 0. -1.
</event>
<event>
 5   0  0.1151180E-06  0.3579979E+04  0.7818609E-02  0.8095093E-01
       -2   -1    0    0    0  501  0.00000000000E+00  0.00000000000E+00  0.13337925019E+04  0.13337925020E+04  0.25500000920E-02 0.  1.
        2   -1    0    0  501    0  0.00000000000E+00  0.00000000000E+00 -0.24022200541E+04  0.24022200541E+04  0.25500000920E-02 0. -1.
    10030    2    1    2    0    0  0.00000000000E+00  0.00000000000E+00 -0.10684275522E+04  0.37360125561E+04  0.35799793833E+04 0.  0.
        5    1    3    3  502    0  0.17800635423E+04 -0.14106911637E+03 -0.40422859652E+03  0.18308330231E+04  0.46999998093E+01 0.  1.
       -5    1    3    3    0  502 -0.17800635423E+04  0.14106911637E+03 -0.66419895567E+03  0.19051795330E+04  0.46999998093E+01 0. -1.
</event>
<event>
 5   0  0.1151180E-06  0.2155731E+04  0.7818609E-02  0.8537083E-01
        2   -1    0    0  501    0  0.00000000000E+00  0.00000000000E+00  0.15599417536E+04  0.15599417536E+04  0.25500000920E-02 0.  1.
       -2   -1    0    0    0  501  0.00000000000E+00  0.00000000000E+00 -0.74476749647E+03  0.74476749648E+03  0.25500000920E-02 0. -1.
    10030    2    1    2    0    0  0.00000000000E+00  0.00000000000E+00  0.81517425712E+03  0.23047092501E+04  0.21557308872E+04 0.  0.
        5    1    3    3  502    0  0.88823629483E+02 -0.81675025057E+03  0.11535160181E+04  0.14161892187E+04  0.46999998093E+01 0.  1.
       -5    1    3    3    0  502 -0.88823629483E+02  0.81675025057E+03 -0.33834176102E+03  0.88852003140E+03  0.46999998093E+01 0. -1.
</event>
<event>
 5   0  0.6261598E-07  0.2648083E+04  0.7818609E-02  0.8352050E-01
       -1   -1    0    0    0  501  0.00000000000E+00  0.00000000000E+00  0.10012092750E+04  0.10012092750E+04  0.50400001928E-02 0.  1.
        1   -1    0    0  501    0  0.00000000000E+00  0.00000000000E+00 -0.17509685383E+04  0.17509685383E+04  0.50400001928E-02 0. -1.
    10030    2    1    2    0    0  0.00000000000E+00  0.00000000000E+00 -0.74975926333E+03  0.27521778133E+04  0.26480830355E+04 0.  0.
        1    1    3    3  502    0  0.32821752128E+03  0.52979700116E+03  0.83923418852E+03  0.10453351744E+04  0.50400001928E-02 0.  1.
       -1    1    3    3    0  502 -0.32821752128E+03 -0.52979700116E+03 -0.15889934518E+04  0.17068426388E+04  0.50400001928E-02 0. -1.
</event>
<event>
 5   0  0.5679750E-07  0.3728214E+04  0.7818609E-02  0.8061738E-01
        3   -1    0    0  501    0  0.00000000000E+00  0.00000000000E+00  0.14607100499E+04  0.14607100534E+04  0.10100000352E+00 0. -1.
       -3   -1    0    0    0  501  0.00000000000E+00  0.00000000000E+00 -0.23789076605E+04  0.23789076627E+04  0.10100000352E+00 0.  1.
    10030    2    1    2    0    0  0.00000000000E+00  0.00000000000E+00 -0.91819761061E+03  0.38396177161E+04  0.37282136947E+04 0.  0.
        2    1    3    3  502    0  0.38553380878E+03  0.69642144121E+03 -0.21950691863E+04  0.23349449403E+04  0.25500000920E-02 0.  1.
       -2    1    3    3    0  502 -0.38553380878E+03 -0.69642144121E+03  0.12768715757E+04  0.15046727758E+04  0.25500000920E-02 0. -1.
</event>
<event>
 5   0  0.1724503E-06  0.3102494E+04  0.7818609E-02  0.8215054E-01
        2   -1    0    0  501    0  0.00000000000E+00  0.00000000000E+00  0.21318361095E+04  0.21318361095E+04  0.25500000920E-02 0. -1.
       -2   -1    0    0    0  501  0.00000000000E+00  0.00000000000E+00 -0.11287766389E+04  0.11287766389E+04  0.25500000920E-02 0.  1.
    10030    2    1    2    0    0  0.00000000000E+00  0.00000000000E+00  0.10030594705E+04  0.32606127484E+04  0.31024937057E+04 0.  0.
        1    1    3    3  502    0  0.51003071836E+02 -0.27155347370E+02 -0.11276452578E+04  0.11291246847E+04  0.50400001928E-02 0.  1.
       -1    1    3    3    0  502 -0.51003071836E+02  0.27155347370E+02  0.21307047283E+04  0.21314880637E+04  0.50400001928E-02 0. -1.
</event>
<event>
 5   0  0.6287345E-07  0.3738725E+04  0.7818609E-02  0.8059434E-01
       -1   -1    0    0    0  501  0.00000000000E+00  0.00000000000E+00  0.24425870008E+04  0.24425870008E+04  0.50400001928E-02 0.  1.
        1   -1    0    0  501    0  0.00000000000E+00  0.00000000000E+00 -0.14306617448E+04  0.14306617448E+04  0.50400001928E-02 0. -1.
    10030    2    1    2    0    0  0.00000000000E+00  0.00000000000E+00  0.10119252560E+04  0.38732487456E+04  0.37387247988E+04 0.  0.
        5    1    3    3  502    0  0.10656286634E+04 -0.14104992005E+04  0.11356323717E+04  0.21011319370E+04  0.46999998093E+01 0. -1.
       -5    1    3    3    0  502 -0.10656286634E+04  0.14104992005E+04 -0.12370711562E+03  0.17721168086E+04  0.46999998093E+01 0.  1.
</event>
<event>
 5   0  0.1184684E-06  0.3089045E+04  0.7818609E-02  0.8218751E-01
        2   -1    0    0  501    0  0.00000000000E+00  0.00000000000E+00  0.13471672072E+04  0.13471672072E+04  0.25500000920E-02 0.  1.
       -2   -1    0    0    0  501  0.00000000000E+00  0.00000000000E+00 -0.17707898321E+04  0.17707898321E+04  0.25500000920E-02 0. -1.
    10030    2    1    2    0    0  0.00000000000E+00  0.00000000000E+00 -0.42362262490E+03  0.31179570392E+04  0.30890451551E+04 0.  0.
        4    1    3    3  502    0  0.43068122020E+03 -0.95960564860E+02  0.12821954131E+04  0.13559946290E+04  0.12699999809E+01 0.  1.
       -4    1    3    3    0  502 -0.43068122020E+03  0.95960564860E+02 -0.17058180380E+04  0.17619624103E+04  0.12699999809E+01 0. -1.
</event>
<event>
 5   0  0.5679750E-07  0.2173786E+04  0.7818609E-02  0.8529419E-01
       -1   -1    0    0    0  501  0.00000000000E+00  0.00000000000E+00  0.10730901832E+04  0.10730901832E+04  0.50400001928E-02 0. -1.
        1   -1    0    0  501    0  0.00000000000E+00  0.00000000000E+00 -0.11008732430E+04  0.11008732430E+04  0.50400001928E-02 0.  1.
    10030    2    1    2    0    0  0.00000000000E+00  0.00000000000E+00 -0.27783059756E+02  0.21739634262E+04  0.21737858865E+04 0.  0.
        4    1    3    3  502    0  0.49900643468E+02  0.90343132232E+03 -0.61615033615E+03  0.10946785272E+04  0.12699999809E+01 0.  1.
       -4    1    3    3    0  502 -0.49900643468E+02 -0.90343132232E+03  0.58836727639E+03  0.10792848990E+04  0.12699999809E+01 0. -1.
</event>
<event>
 5   0  0.1184684E-06  0.3491916E+04  0.7818609E-02  0.8115708E-01
        2   -1    0    0  501    0  0.00000000000E+00  0.00000000000E+00  0.15532553135E+04  0.15532553135E+04  0.25500000920E-02 0.  1.
       -2   -1    0    0    0  501  0.00000000000E+00  0.00000000000E+00 -0.19625678961E+04  0.19625678961E+04  0.25500000920E-02 0. -1.
    10030    2    1    2    0    0  0.00000000000E+00  0.00000000000E+00 -0.40931258256E+03  0.35158232096E+04  0.34919158138E+04 0.  0.
        4    1    3    3  502    0 -0.14033646572E+04  0.33792282764E+03 -0.11935944332E+04  0.18730439083E+04  0.12699999809E+01 0. -1.
       -4    1    3    3    0  502  0.14033646572E+04 -0.33792282764E+03  0.78428185060E+03  0.16427793013E+04  0.12699999809E+01 0.  1.
</event>
<event>
 5   0  0.6287345E-07  0.3668910E+04  0.7818609E-02  0.8074887E-01
       -1   -1    0    0    0  501  0.00000000000E+00  0.00000000000E+00  0.19001800504E+04  0.19001800504E+04  0.50400001928E-02 0.  1.
        1   -1    0    0  501    0  0.00000000000E+00  0.00000000000E+00 -0.17710032131E+04  0.17710032131E+04  0.50400001928E-02 0. -1.
    10030    2    1    2    0    0  0.00000000000E+00  0.00000000000E+00  0.12917683735E+03  0.36711832635E+04  0.36689099061E+04 0.  0.
        5    1    3    3  502    0  0.43646899580E+03  0.16134069312E+04  0.82110964907E+03  0.18622111200E+04  0.46999998093E+01 0.  1.
       -5    1    3    3    0  502 -0.43646899580E+03 -0.16134069312E+04 -0.69193281172E+03  0.18089721434E+04  0.46999998093E+01 0. -1.
</event>
<event>
 5   0  0.1184684E-06  0.3674390E+04  0.7818609E-02  0.8073661E-01
       -2   -1    0    0    0  501  0.00000000000E+00  0.00000000000E+00  0.15372444910E+04  0.15372444910E+04  0.25500000920E-02 0. -1.
        2   -1    0    0  501    0  0.00000000000E+00  0.00000000000E+00 -0.21956729524E+04  0.21956729524E+04  0.25500000920E-02 0.  1.
    10030    2    1    2    0    0  0.00000000000E+00  0.00000000000E+00 -0.65842846142E+03  0.37329174435E+04  0.36743903713E+04 0.  0.
        4    1    3    3  502    0 -0.13421963164E+04 -0.82613829558E+03 -0.12883329982E+04  0.20356323249E+04  0.12699999809E+01 0.  1.
       -4    1    3    3    0  502  0.13421963164E+04  0.82613829558E+03  0.62990453682E+03  0.16972851185E+04  0.12699999809E+01 0. -1.
</event>
<event>
 5   0  0.1151180E-06  0.3583029E+04  0.7818609E-02  0.8094390E-01
        2   -1    0    0  501    0  0.00000000000E+00  0.00000000000E+00  0.21426193372E+04  0.21426193372E+04  0.25500000920E-02 0.  1.
       -2   -1    0    0    0  501  0.00000000000E+00  0.00000000000E+00 -0.14979443181E+04  0.14979443181E+04  0.25500000920E-02 0. -1.
    10030    2    1    2    0    0  0.00000000000E+00  0.00000000000E+00  0.64467501910E+03  0.36405636553E+04  0.35830291442E+04 0.  0.
        5    1    3    3  502    0 -0.99897348144E+03  0.12700771604E+04 -0.46368549770E+03  0.16810920084E+04  0.46999998093E+01 0. -1.
       -5    1    3    3    0  502  0.99897348144E+03 -0.12700771604E+04  0.11083605168E+04  0.19594716469E+04  0.46999998093E+01 0.  1.
</event>
<event>
 5   0  0.1184684E-06  0.3647836E+04  0.7818609E-02  0.8079621E-01
       -2   -1    0    0    0  501  0.00000000000E+00  0.00000000000E+00  0.15133006024E+04  0.15133006024E+04  0.25500000920E-02 0.  1.
        2   -1    0    0  501    0  0.00000000000E+00  0.00000000000E+00 -0.21982918502E+04  0.21982918502E+04  0.25500000920E-02 0. -1.
    10030    2    1    2    0    0  0.00000000000E+00  0.00000000000E+00 -0.68499124783E+03  0.37115924526E+04  0.36478357316E+04 0.  0.
        4    1    3    3  502    0  0.73764771728E+03 -0.12590940433E+04  0.77080977137E+03  0.16503306582E+04  0.12699999809E+01 0.  1.
       -4    1    3    3    0  502 -0.73764771728E+03  0.12590940433E+04 -0.14558010192E+04  0.20612617944E+04  0.12699999809E+01 0. -1.
</event>
<event>
 5   0  0.1685793E-06  0.3672722E+04  0.7818609E-02  0.8074034E-01
       -2   -1    0    0    0  501  0.00000000000E+00  0.00000000000E+00  0.12863337625E+04  0.12863337625E+04  0.25500000920E-02 0.  1.
        2   -1    0    0  501    0  0.00000000000E+00  0.00000000000E+00 -0.26215752946E+04  0.26215752946E+04  0.25500000920E-02 0. -1.
    10030    2    1    2    0    0  0.00000000000E+00  0.00000000000E+00 -0.13352415320E+04  0.39079090571E+04  0.36727215045E+04 0.  0.
        3    1    3    3  502    0  0.89198878115E+03  0.11799336283E+04 -0.18255804745E+04  0.23496023987E+04  0.10100000352E+00 0. -1.
       -3    1    3    3    0  502 -0.89198878115E+03 -0.11799336283E+04  0.49033894249E+03  0.15583066584E+04  0.10100000352E+00 0.  1.
</event>
<event>
 5   0  0.1724503E-06  0.3692802E+04  0.7818609E-02  0.8069559E-01
        2   -1    0    0  501    0  0.00000000000E+00  0.00000000000E+00  0.20828329002E+04  0.20828329002E+04  0.25500000920E-02 0.  1.
       -2   -1    0    0    0  501  0.00000000000E+00  0.00000000000E+00 -0.16368079573E+04  0.16368079573E+04  0.25500000920E-02 0. -1.
    10030    2    1    2    0    0  0.00000000000E+00  0.00000000000E+00  0.44602494285E+03  0.37196408575E+04  0.36928024398E+04 0.  0.
        1    1    3    3  502    0  0.81098970045E+03 -0.16539430284E+04  0.35028596275E+03  0.18750818892E+04  0.50400001928E-02 0. -1.
       -1    1    3    3    0  502 -0.81098970045E+03  0.16539430284E+04  0.95738980094E+02  0.18445589684E+04  0.50400001928E-02 0.  1.
</event>
<event>
 5   0  0.5875011E-07  0.2005019E+04  0.7818609E-02  0.8604278E-01
        1   -1    0    0  501    0  0.00000000000E+00  0.00000000000E+00  0.72658545434E+03  0.72658545435E+03  0.50400001928E-02 0.  1.
       -1   -1    0    0    0  501  0.00000000000E+00  0.00000000000E+00 -0.13832173482E+04  0.13832173482E+04  0.50400001928E-02 0. -1.
    10030    2    1    2    0    0  0.00000000000E+00  0.00000000000E+00 -0.65663189387E+03  0.21098028026E+04  0.20050193071E+04 0.  0.
        2    1    3    3  502    0 -0.37883859223E+03 -0.92223034962E+03 -0.21796341305E+03  0.10205564885E+04  0.25500000920E-02 0. -1.
       -2    1    3    3    0  502  0.37883859223E+03  0.92223034962E+03 -0.43866848082E+03  0.10892463141E+04  0.25500000920E-02 0.  1.
</event>
<event>
 5   0  0.6261598E-07  0.2948781E+04  0.7818609E-02  0.8258510E-01
        1   -1    0    0  501    0  0.00000000000E+00  0.00000000000E+00  0.20554411556E+04  0.20554411556E+04  0.50400001928E-02 0.  1.
       -1   -1    0    0    0  501  0.00000000000E+00  0.00000000000E+00 -0.10575962319E+04  0.10575962319E+04  0.50400001928E-02 0. -1.
    10030    2    1    2    0    0  0.00000000000E+00  0.00000000000E+00  0.99784492368E+03  0.31130373875E+04  0.29487806437E+04 0.  0.
        1    1    3    3  502    0  0.13604355223E+04 -0.55298215109E+03  0.36025612203E+03  0.15120709451E+04  0.50400001928E-02 0. -1.
       -1    1    3    3    0  502 -0.13604355223E+04  0.55298215109E+03  0.63758880165E+03  0.16009664424E+04  0.50400001928E-02 0.  1.
</event>
<event>
 5   0  0.1724503E-06  0.3692510E+04  0.7818609E-02  0.8069624E-01
       -2   -1    0    0    0  501  0.00000000000E+00  0.00000000000E+00  0.15042443924E+04  0.15042443924E+04  0.25500000920E-02 0.  1.
        2   -1    0    0  501    0  0.00000000000E+00  0.00000000000E+00 -0.22660258801E+04  0.22660258801E+04  0.25500000920E-02 0. -1.
    10030    2    1    2    0    0  0.00000000000E+00  0.00000000000E+00 -0.76178148764E+03  0.37702702725E+04  0.36925095657E+04 0.  0.
        1    1    3    3  502    0 -0.33681053413E+02  0.17893989152E+04  0.82059983165E+02  0.17915961409E+04  0.50400001928E-02 0.  1.
       -1    1    3    3    0  502  0.33681053413E+02 -0.17893989152E+04 -0.84384147081E+03  0.19786741316E+04  0.50400001928E-02 0. -1.
</event>
<event>
 5   0  0.1151180E-06  0.3591061E+04  0.7818609E-02  0.8092542E-01
       -2   -1    0    0    0  501  0.00000000000E+00  0.00000000000E+00  0.20179087641E+04  0.20179087641E+04  0.25500000920E-02 0. -1.
        2   -1    0    0  501    0  0.00000000000E+00  0.00000000000E+00 -0.15976589781E+04  0.15976589781E+04  0.25500000920E-02 0.  1.
    10030    2    1    2    0    0  0.00000000000E+00  0.00000000000E+00  0.42024978598E+03  0.36155677422E+04  0.35910611546E+04 0.  0.
        5    1    3    3  502    0 -0.24568825391E+03 -0.14246707269E+04  0.12822195820E+04  0.19323970981E+04  0.46999998093E+01 0. -1.
       -5    1    3    3    0  502  0.24568825391E+03  0.14246707269E+04 -0.86196979600E+03  0.16831706442E+04  0.46999998093E+01 0.  1.
</event>
<event>
 5   0  0.1680194E-06  0.3664632E+04  0.7818609E-02  0.8075845E-01
        2   -1    0    0  501    0  0.00000000000E+00  0.00000000000E+00  0.24231587120E+04  0.24231587120E+04  0.25500000920E-02 0. -1.
       -2   -1    0    0    0  501  0.00000000000E+00  0.00000000000E+00 -0.13855390660E+04  0.13855390660E+04  0.25500000920E-02 0.  1.
    10030    2    1    2    0    0  0.00000000000E+00  0.00000000000E+00  0.10376196460E+04  0.38086977781E+04  0.36646315278E+04 0.  0.
        2    1    3    3  502    0  0.41310677011E+03  0.24628850176E+03 -0.13187659590E+04  0.14037303460E+04  0.25500000920E-02 0.  1.
       -2    1    3    3    0  502 -0.41310677011E+03 -0.24628850176E+03  0.23563856051E+04  0.24049674321E+04  0.25500000920E-02 0. -1.
</event>
<event>
 5   0  0.5875011E-07  0.3605843E+04  0.7818609E-02  0.8089155E-01
       -1   -1    0    0    0  501  0.00000000000E+00  0.00000000000E+00  0.15673141192E+04  0.15673141192E+04  0.50400001928E-02 0.  1.
        1   -1    0    0  501    0  0.00000000000E+00  0.00000000000E+00 -0.20739463898E+04  0.20739463898E+04  0.50400001928E-02 0. -1.
    10030    2    1    2    0    0  0.00000000000E+00  0.00000000000E+00 -0.50663227059E+03  0.36412605089E+04  0.36058427359E+04 0.  0.
        2    1    3    3  502    0 -0.11422670296E+04  0.11403341930E+04 -0.10645683406E+04  0.19335050531E+04  0.25500000920E-02 0. -1.
       -2    1    3    3    0  502  0.11422670296E+04 -0.11403341930E+04  0.55793607006E+03  0.17077554558E+04  0.25500000920E-02 0.  1.
</event>
<event>
 5   0  0.1685793E-06  0.3420010E+04  0.7818609E-02  0.8133013E-01
       -2   -1    0    0    0  501  0.00000000000E+00  0.00000000000E+00  0.13252493577E+04  0.13252493577E+04  0.25500000920E-02 0. -1.
        2   -1    0    0  501    0  0.00000000000E+00  0.00000000000E+00 -0.22064656197E+04  0.22064656197E+04  0.25500000920E-02 0.  1.
    10030    2    1    2    0    0  0.00000000000E+00  0.00000000000E+00 -0.88121626196E+03  0.35317149774E+04  0.34200100264E+04 0.  0.
        3    1    3    3  502    0 -0.20580957699E+03  0.37891046283E+03 -0.21494023792E+04  0.21922274788E+04  0.10100000352E+00 0.  1.
       -3    1    3    3    0  502  0.20580957699E+03 -0.37891046283E+03  0.12681861172E+04  0.13394874986E+04  0.10100000352E+00 0. -1.
</event>
<event>
 5   0  0.5875011E-07  0.3600777E+04  0.7818609E-02  0.8090314E-01
        1   -1    0    0  501    0  0.00000000000E+00  0.00000000000E+00  0.21146636873E+04  0.21146636873E+04  0.50400001928E-02 0.  1.
       -1   -1    0    0    0  501  0.00000000000E+00  0.00000000000E+00 -0.15328198353E+04  0.15328198353E+04  0.50400001928E-02 0. -1.
    10030    2    1    2    0    0  0.00000000000E+00  0.00000000000E+00  0.58184385199E+03  0.36474835226E+04  0.36007768300E+04 0.  0.
        2    1    3    3  502    0  0.14745857760E+04 -0.33612976427E+03  0.12803268231E+04  0.19815708928E+04  0.25500000920E-02 0.  1.
       -2    1    3    3    0  502 -0.14745857760E+04  0.33612976427E+03 -0.69848297112E+03  0.16659126298E+04  0.25500000920E-02 0. -1.
</event>
<event>
 5   0  0.1724503E-06  0.3797123E+04  0.7818609E-02  0.8046773E-01
       -2   -1    0    0    0  501  0.00000000000E+00  0.00000000000E+00  0.15820302186E+04  0.15820302186E+04  0.25500000920E-02 0. -1.
        2   -1    0    0  501    0  0.00000000000E+00  0.00000000000E+00 -0.22784239734E+04  0.22784239734E+04  0.25500000920E-02 0.  1.
    10030    2    1    2    0    0  0.00000000000E+00  0.00000000000E+00 -0.69639375481E+03  0.38604541919E+04  0.37971228985E+04 0.  0.
        1    1    3    3  502    0  0.13865759906E+03  0.18342914035E+04 -0.82580296738E+03  0.20163832532E+04  0.50400001928E-02 0.  1.
       -1    1    3    3    0  502 -0.13865759906E+03 -0.18342914035E+04  0.12940921256E+03  0.18440709388E+04  0.50400001928E-02 0. -1.
</event>
<event>
 5   0  0.1151180E-06  0.3643897E+04  0.7818609E-02  0.8080510E-01
       -2   -1    0    0    0  501  0.00000000000E+00  0.00000000000E+00  0.17643477113E+04  0.17643477113E+04  0.25500000920E-02 0. -1.
        2   -1    0    0  501    0  0.00000000000E+00  0.00000000000E+00 -0.18814300174E+04  0.18814300174E+04  0.25500000920E-02 0.  1.
    10030    2    1    2    0    0  0.00000000000E+00  0.00000000000E+00 -0.11708230615E+03  0.36457777287E+04  0.36438972242E+04 0.  0.
        5    1    3    3  502    0  0.66322248599E+03 -0.14831996533E+04  0.76634134399E+03  0.17963981805E+04  0.46999998093E+01 0. -1.
       -5    1    3    3    0  502 -0.66322248599E+03  0.14831996533E+04 -0.88342365014E+03  0.18493795481E+04  0.46999998093E+01 0.  1.
</event>
<event>
 5   0  0.1151180E-06  0.3686427E+04  0.7818609E-02  0.8070977E-01
       -2   -1    0    0    0  501  0.00000000000E+00  0.00000000000E+00  0.16519650306E+04  0.16519650306E+04  0.25500000920E-02 0.  1.
        2   -1    0    0  501    0  0.00000000000E+00  0.00000000000E+00 -0.20566023587E+04  0.20566023587E+04  0.25500000920E-02 0. -1.
    10030    2    1    2    0    0  0.00000000000E+00  0.00000000000E+00 -0.40463732811E+03  0.37085673892E+04  0.36864265506E+04 0.  0.
        5    1    3    3  502    0  0.84683613148E+03  0.46188217747E+03 -0.17824036853E+04  0.20266848712E+04  0.46999998093E+01 0. -1.
       -5    1    3    3    0  502 -0.84683613148E+03 -0.46188217747E+03  0.13777663572E+04  0.16818825181E+04  0.46999998093E+01 0.  1.
</event>
<event>
 5   0  0.6261598E-07  0.3019247E+04  0.7818609E-02  0.8238256E-01
       -1   -1    0    0    0  501  0.00000000000E+00  0.00000000000E+00  0.19596363190E+04  0.19596363190E+04  0.50400001928E-02 0.  1.
        1   -1    0    0  501    0  0.00000000000E+00  0.00000000000E+00 -0.11629518604E+04  0.11629518605E+04  0.50400001928E-02 0. -1.
    10030    2    1    2    0    0  0.00000000000E+00  0.00000000000E+00  0.79668445851E+03  0.31225881794E+04  0.30192467292E+04 0.  0.
        1    1    3    3  502    0  0.12753709253E+04  0.20348366869E+03  0.12067524074E+04  0.17675485773E+04  0.50400001928E-02 0.  1.
       -1    1    3    3    0  502 -0.12753709253E+04 -0.20348366869E+03 -0.41006794885E+03  0.13550396021E+04  0.50400001928E-02 0. -1.
</event>
<event>
 5   0  0.5679750E-07  0.2557155E+04  0.7818609E-02  0.8382902E-01
        3   -1    0    0  501    0  0.00000000000E+00  0.00000000000E+00  0.16072450606E+04  0.16072450637E+04  0.10100000352E+00 0. -1.
       -3   -1    0    0    0  501  0.00000000000E+00  0.00000000000E+00 -0.10171197890E+04  0.10171197940E+04  0.10100000352E+00 0.  1.
    10030    2    1    2    0    0  0.00000000000E+00  0.00000000000E+00  0.59012527153E+03  0.26243648578E+04  0.25571552692E+04 0.  0.
        3    1    3    3  502    0  0.12358982186E+04  0.26584832827E+03  0.98613159520E+02  0.12680080070E+04  0.10100000352E+00 0.  1.
       -3    1    3    3    0  502 -0.12358982186E+04 -0.26584832827E+03  0.49151211202E+03  0.13563568508E+04  0.10100000352E+00 0. -1.
</event>
<event>
 5   0  0.6186440E-07  0.3664277E+04  0.7818609E-02  0.8075925E-01
        1   -1    0    0  501    0  0.00000000000E+00  0.00000000000E+00  0.22814863927E+04  0.22814863927E+04  0.50400001928E-02 0.  1.
       -1   -1    0    0    0  501  0.00000000000E+00  0.00000000000E+00 -0.14712917541E+04  0.14712917541E+04  0.50400001928E-02 0. -1.
    10030    2    1    2    0    0  0.00000000000E+00  0.00000000000E+00  0.81019463860E+03  0.37527781469E+04  0.36642773459E+04 0.  0.
        3    1    3    3  502    0  0.92832566644E+03 -0.14902095108E+03 -0.12053757146E+04  0.15287008898E+04  0.10100000352E+00 0. -1.
       -3    1    3    3    0  502 -0.92832566644E+03  0.14902095108E+03  0.20155703532E+04  0.22240772571E+04  0.10100000352E+00 0.  1.
</event>
<event>
 5   0  0.5875011E-07  0.3623492E+04  0.7818609E-02  0.8085132E-01
       -1   -1    0    0    0  501  0.00000000000E+00  0.00000000000E+00  0.17949227038E+04  0.17949227038E+04  0.50400001928E-02 0.  1.
        1   -1    0    0  501    0  0.00000000000E+00  0.00000000000E+00 -0.18287267173E+04  0.18287267173E+04  0.50400001928E-02 0. -1.
    10030    2    1    2    0    0  0.00000000000E+00  0.00000000000E+00 -0.33804013484E+02  0.36236494211E+04  0.36234917436E+04 0.  0.
        2    1    3    3  502    0 -0.20192282133E+03 -0.17798123154E+04 -0.28879322285E+03  0.18143611078E+04  0.25500000920E-02 0. -1.
       -2    1    3    3    0  502  0.20192282133E+03  0.17798123154E+04  0.25498920937E+03  0.18092883133E+04  0.25500000920E-02 0.  1.
</event>
<event>
 5   0  0.1184684E-06  0.3757198E+04  0.7818609E-02  0.8055403E-01
        2   -1    0    0  501    0  0.00000000000E+00  0.00000000000E+00  0.19651130951E+04  0.19651130951E+04  0.25500000920E-02 0. -1.
       -2   -1    0    0    0  501  0.00000000000E+00  0.00000000000E+00 -0.17958940319E+04  0.17958940320E+04  0.25500000920E-02 0.  1.
    10030    2    1    2    0    0  0.00000000000E+00  0.00000000000E+00  0.16921906317E+03  0.37610071271E+04  0.37571983603E+04 0.  0.
        4    1    3    3  502    0  0.37019635167E+03 -0.10864950096E+04  0.15732675641E+04  0.19474827819E+04  0.12699999809E+01 0. -1.
       -4    1    3    3    0  502 -0.37019635167E+03  0.10864950096E+04 -0.14040485009E+04  0.18135243452E+04  0.12699999809E+01 0.  1.
</event>
<event>
 5   0  0.1184684E-06  0.3721591E+04  0.7818609E-02  0.8063194E-01
       -2   -1    0    0    0  501  0.00000000000E+00  0.00000000000E+00  0.15807087285E+04  0.15807087285E+04  0.25500000920E-02 0. -1.
        2   -1    0    0  501    0  0.00000000000E+00  0.00000000000E+00 -0.21905115729E+04  0.21905115729E+04  0.25500000920E-02 0.  1.
    10030    2    1    2    0    0  0.00000000000E+00  0.00000000000E+00 -0.60980284437E+03  0.37712203015E+04  0.37215914678E+04 0.  0.
        4    1    3    3  502    0 -0.45079471879E+03 -0.45445924965E+03 -0.20754306399E+04  0.21719030922E+04  0.12699999809E+01 0.  1.
       -4    1    3    3    0  502  0.45079471879E+03  0.45445924965E+03  0.14656277955E+04  0.15993172093E+04  0.12699999809E+01 0. -1.
</event>
<event>
 5   0  0.1685793E-06  0.3695502E+04  0.7818609E-02  0.8068959E-01
        2   -1    0    0  501    0  0.00000000000E+00  0.00000000000E+00  0.25577341973E+04  0.25577341973E+04  0.25500000920E-02 0.  1.
       -2   -1    0    0    0  501  0.00000000000E+00  0.00000000000E+00 -0.13348470929E+04  0.13348470929E+04  0.25500000920E-02 0. -1.
    10030    2    1    2    0    0  0.00000000000E+00  0.00000000000E+00  0.12228871043E+04  0.38925812902E+04  0.36955021622E+04 0.  0.
        3    1    3    3  502    0 -0.12004339280E+04 -0.44867253782E+03 -0.79064652443E+03  0.15058122720E+04  0.10100000352E+00 0. -1.
       -3    1    3    3    0  502  0.12004339280E+04  0.44867253782E+03  0.20135336288E+04  0.23867690182E+04  0.10100000352E+00 0.  1.
</event>
<event>
 5   0  0.1680194E-06  0.3445404E+04  0.7818609E-02  0.8126852E-01
        2   -1    0    0  501    0  0.00000000000E+00  0.00000000000E+00  0.14395185919E+04  0.14395185919E+04  0.25500000920E-02 0.  1.
       -2   -1    0    0    0  501  0.00000000000E+00  0.00000000000E+00 -0.20615933749E+04  0.20615933749E+04  0.25500000920E-02 0. -1.
    10030    2    1    2    0    0  0.00000000000E+00  0.00000000000E+00 -0.62207478305E+03  0.35011119668E+04  0.34454038904E+04 0.  0.
        2    1    3    3  502    0 -0.32736643001E+03  0.10390323865E+04  0.10450606951E+04  0.15096055565E+04  0.25500000920E-02 0.  1.
       -2    1    3    3    0  502  0.32736643001E+03 -0.10390323865E+04 -0.16671354782E+04  0.19915064103E+04  0.25500000920E-02 0. -1.
</event>
<event>
 5   0  0.1151180E-06  0.3718427E+04  0.7818609E-02  0.8063890E-01
        2   -1    0    0  501    0  0.00000000000E+00  0.00000000000E+00  0.20241463918E+04  0.20241463918E+04  0.25500000920E-02 0.  1.
       -2   -1    0    0    0  501  0.00000000000E+00  0.00000000000E+00 -0.17077198535E+04  0.17077198535E+04  0.25500000920E-02 0. -1.
    10030    2    1    2    0    0  0.00000000000E+00  0.00000000000E+00  0.31642653828E+03  0.37318662453E+04  0.37184270759E+04 0.  0.
        5    1    3    3  502    0  0.80186179318E+03  0.95080788557E+03  0.15451031349E+04  0.19835281087E+04  0.46999998093E+01 0.  1.
       -5    1    3    3    0  502 -0.80186179318E+03 -0.95080788557E+03 -0.12286765966E+04  0.17483381365E+04  0.46999998093E+01 0. -1.
</event>
<event>
 5   0  0.5679750E-07  0.3718783E+04  0.7818609E-02  0.8063812E-01
       -1   -1    0    0    0  501  0.00000000000E+00  0.00000000000E+00  0.21220547674E+04  0.21220547674E+04  0.50400001928E-02 0. -1.
        1   -1    0    0  501    0  0.00000000000E+00  0.00000000000E+00 -0.16292399852E+04  0.16292399852E+04  0.50400001928E-02 0.  1.
    10030    2    1    2    0    0  0.00000000000E+00  0.00000000000E+00  0.49281478219E+03  0.37512947526E+04  0.37187828535E+04 0.  0.
        4    1    3    3  502    0  0.16004678902E+04 -0.11448399205E+03  0.11941589620E+04  0.20001553168E+04  0.12699999809E+01 0. -1.
       -4    1    3    3    0  502 -0.16004678902E+04  0.11448399205E+03 -0.70134417980E+03  0.17511394358E+04  0.12699999809E+01 0.  1.
</event>
<event>
 5   0  0.1685793E-06  0.2052293E+04  0.7818609E-02  0.8582555E-01
       -2   -1    0    0    0  501  0.00000000000E+00  0.00000000000E+00  0.40443466570E+03  0.40443466571E+03  0.25500000920E-02 0.  1.
        2   -1    0    0  501    0  0.00000000000E+00  0.00000000000E+00 -0.26035754622E+04  0.26035754622E+04  0.25500000920E-02 0. -1.
    10030    2    1    2    0    0  0.00000000000E+00  0.00000000000E+00 -0.21991407965E+04  0.30080101279E+04  0.20522925441E+04 0.  0.
        3    1    3    3  502    0  0.86763064782E+03 -0.22230535845E+03 -0.36559603798E+03  0.96740016881E+03  0.10100000352E+00 0.  1.
       -3    1    3    3    0  502 -0.86763064782E+03  0.22230535845E+03 -0.18335447585E+04  0.20406099590E+04  0.10100000352E+00 0. -1.
</event>
<event>
 5   0  0.1724503E-06  0.3724946E+04  0.7818609E-02  0.8062456E-01
        2   -1    0    0  501    0  0.00000000000E+00  0.00000000000E+00  0.15080628206E+04  0.15080628206E+04  0.25500000920E-02 0. -1.
       -2   -1    0    0    0  501  0.00000000000E+00  0.00000000000E+00 -0.23001734300E+04  0.23001734300E+04  0.25500000920E-02 0.  1.
    10030    2    1    2    0    0  0.00000000000E+00  0.00000000000E+00 -0.79211060943E+03  0.38082362506E+04  0.37249461906E+04 0.  0.
        1    1    3    3  502    0 -0.16267784525E+04  0.50128056778E+03  0.37656465755E+03  0.17434136866E+04  0.50400001928E-02 0. -1.
       -1    1    3    3    0  502  0.16267784525E+04 -0.50128056778E+03 -0.11686752670E+04  0.20648225640E+04  0.50400001928E-02 0.  1.
</event>
<event>
 5   0  0.6186440E-07  0.2221082E+04  0.7818609E-02  0.8509704E-01
       -1   -1    0    0    0  501  0.00000000000E+00  0.00000000000E+00  0.57514210639E+03  0.57514210641E+03  0.50400001928E-02 0.  1.
        1   -1    0    0  501    0  0.00000000000E+00  0.00000000000E+00 -0.21443412334E+04  0.21443412334E+04  0.50400001928E-02 0. -1.
    10030    2    1    2    0    0  0.00000000000E+00  0.00000000000E+00 -0.15691991270E+04  0.27194833398E+04  0.22210816589E+04 0.  0.
        3    1    3    3  502    0 -0.24900272333E+03 -0.11871070325E+03  0.53252630135E+03  0.59973232289E+03  0.10100000352E+00 0.  1.
       -3    1    3    3    0  502  0.24900272333E+03  0.11871070325E+03 -0.21017254284E+04  0.21197510170E+04  0.10100000352E+00 0. -1.
</event>
<event>
 5   0  0.6261598E-07  0.3689045E+04  0.7818609E-02  0.8070394E-01
       -1   -1    0    0    0  501  0.00000000000E+00  0.00000000000E+00  0.33269803955E+04  0.33269803955E+04  0.50400001928E-02 0. -1.
        1   -1    0    0  501    0  0.00000000000E+00  0.00000000000E+00 -0.10226279908E+04  0.10226279908E+04  0.50400001928E-02 0.  1.
    10030    2    1    2    0    0  0.00000000000E+00  0.00000000000E+00  0.23043524047E+04  0.43496083863E+04  0.36890450131E+04 0.  0.
        1    1    3    3  502    0 -0.11531074565E+04  0.11839207932E+04  0.21179544207E+04  0.26864579243E+04  0.50400001928E-02 0. -1.
       -1    1    3    3    0  502  0.11531074565E+04 -0.11839207932E+04  0.18639798399E+03  0.16631504620E+04  0.50400001928E-02 0.  1.
</event>
<event>
 5   0  0.1151180E-06  0.2124101E+04  0.7818609E-02  0.8550700E-01
       -2   -1    0    0    0  501  0.00000000000E+00  0.00000000000E+00  0.60996686122E+03  0.60996686123E+03  0.25500000920E-02 0. -1.
        2   -1    0    0  501    0  0.00000000000E+00  0.00000000000E+00 -0.18492013696E+04  0.18492013696E+04  0.25500000920E-02 0.  1.
    10030    2    1    2    0    0  0.00000000000E+00  0.00000000000E+00 -0.12392345084E+04  0.24591682309E+04  0.21241012737E+04 0.  0.
        5    1    3    3  502    0  0.91906664277E+03 -0.36328435130E+03 -0.10699049416E+04  0.14564950010E+04  0.46999998093E+01 0. -1.
       -5    1    3    3    0  502 -0.91906664277E+03  0.36328435130E+03 -0.16932956679E+03  0.10026732299E+04  0.46999998093E+01 0.  1.
</event>
<event>
 5   0  0.6261598E-07  0.3637382E+04  0.7818609E-02  0.8081982E-01
       -1   -1    0    0    0  501  0.00000000000E+00  0.00000000000E+00  0.18271161223E+04  0.18271161223E+04  0.50400001928E-02 0.  1.
        1   -1    0    0  501    0  0.00000000000E+00  0.00000000000E+00 -0.18103045653E+04  0.18103045653E+04  0.50400001928E-02 0. -1.
    10030    2    1    2    0    0  0.00000000000E+00  0.00000000000E+00  0.16811556942E+02  0.36374206876E+04  0.36373818372E+04 0.  0.
        1    1    3    3  502    0  0.50448406131E+03 -0.84988640583E+03  0.15351262431E+04  0.18257665933E+04  0.50400001928E-02 0.  1.
       -1    1    3    3    0  502 -0.50448406131E+03  0.84988640583E+03 -0.15183146862E+04  0.18116540943E+04  0.50400001928E-02 0. -1.
</event>
<event>
 5   0  0.5679750E-07  0.2364386E+04  0.7818609E-02  0.8452958E-01
       -3   -1    0    0    0  501  0.00000000000E+00  0.00000000000E+00  0.83249694236E+03  0.83249694849E+03  0.10100000352E+00 0. -1.
        3   -1    0    0  501    0  0.00000000000E+00  0.00000000000E+00 -0.16787814820E+04  0.16787814851E+04  0.10100000352E+00 0.  1.
    10030    2    1    2    0    0  0.00000000000E+00  0.00000000000E+00 -0.84628453968E+03  0.25112784336E+04  0.23643861463E+04 0.  0.
        2    1    3    3  502    0 -0.11932516390E+03 -0.80560205176E+03 -0.13333221116E+04  0.15623639185E+04  0.25500000920E-02 0.  1.
       -2    1    3    3    0  502  0.11932516390E+03  0.80560205176E+03  0.48703757188E+03  0.94891451510E+03  0.25500000920E-02 0. -1.
</event>
<event>
 5   0  0.1685793E-06  0.3556995E+04  0.7818609E-02  0.8100414E-01
        2   -1    0    0  501    0  0.00000000000E+00  0.00000000000E+00  0.19565756846E+04  0.19565756846E+04  0.25500000920E-02 0.  1.
       -2   -1    0    0    0  501  0.00000000000E+00  0.00000000000E+00 -0.16166275640E+04  0.16166275640E+04  0.25500000920E-02 0. -1.
    10030    2    1    2    0    0  0.00000000000E+00  0.00000000000E+00  0.33994812066E+03  0.35732032486E+04  0.35569954640E+04 0.  0.
        3    1    3    3  502    0  0.11473984269E+04  0.12531636940E+04 -0.35788365722E+03  0.17363821919E+04  0.10100000352E+00 0. -1.
       -3    1    3    3    0  502 -0.11473984269E+04 -0.12531636940E+04  0.69783177788E+03  0.18368210567E+04  0.10100000352E+00 0.  1.
</event>
<event>
 5   0  0.1151180E-06  0.3736150E+04  0.7818609E-02  0.8059998E-01
       -2   -1    0    0    0  501  0.00000000000E+00  0.00000000000E+00  0.20428107300E+04  0.20428107300E+04  0.25500000920E-02 0.  1.
        2   -1    0    0  501    0  0.00000000000E+00  0.00000000000E+00 -0.17082851760E+04  0.17082851760E+04  0.25500000920E-02 0. -1.
    10030    2    1    2    0    0  0.00000000000E+00  0.00000000000E+00  0.33452555407E+03  0.37510959060E+04  0.37361495085E+04 0.  0.
        5    1    3    3  502    0  0.81861108195E+03 -0.53248188367E+03  0.17661221603E+04  0.20181354353E+04  0.46999998093E+01 0.  1.
       -5    1    3    3    0  502 -0.81861108195E+03  0.53248188367E+03 -0.14315966063E+04  0.17329604707E+04  0.46999998093E+01 0. -1.
</event>
<event>
 5   0  0.1184684E-06  0.2315759E+04  0.7818609E-02  0.8471733E-01
       -2   -1    0    0    0  501  0.00000000000E+00  0.00000000000E+00  0.76956537489E+03  0.76956537489E+03  0.25500000920E-02 0. -1.
        2   -1    0    0  501    0  0.00000000000E+00  0.00000000000E+00 -0.17421332735E+04  0.17421332735E+04  0.25500000920E-02 0.  1.
    10030    2    1    2    0    0  0.00000000000E+00  0.00000000000E+00 -0.97256789861E+03  0.25116986484E+04  0.23157594398E+04 0.  0.
        4    1    3    3  502    0 -0.60516436400E+03 -0.24824529030E+03  0.54997916692E+03  0.85459249269E+03  0.12699999809E+01 0. -1.
       -4    1    3    3    0  502  0.60516436400E+03  0.24824529030E+03 -0.15225470655E+04  0.16571061557E+04  0.12699999809E+01 0.  1.
</event>
<event>
 5   0  0.5679750E-07  0.2806997E+04  0.7818609E-02  0.8301099E-01
        3   -1    0    0  501    0  0.00000000000E+00  0.00000000000E+00  0.15604185109E+04  0.15604185142E+04  0.10100000352E+00 0.  1.
       -3   -1    0    0    0  501  0.00000000000E+00  0.00000000000E+00 -0.12623592001E+04  0.12623592041E+04  0.10100000352E+00 0. -1.
    10030    2    1    2    0    0  0.00000000000E+00  0.00000000000E+00  0.29805931081E+03  0.28227777183E+04  0.28069974518E+04 0.  0.
        2    1    3    3  502    0  0.13582566407E+04 -0.34222026412E+03  0.60028650713E+02  0.14019911733E+04  0.25500000920E-02 0.  1.
       -2    1    3    3    0  502 -0.13582566407E+04  0.34222026412E+03  0.23803066009E+03  0.14207865450E+04  0.25500000920E-02 0. -1.
</event>
<event>
 5   0  0.1151180E-06  0.3676207E+04  0.7818609E-02  0.8073255E-01
       -2   -1    0    0    0  501  0.00000000000E+00  0.00000000000E+00  0.15487120788E+04  0.15487120788E+04  0.25500000920E-02 0. -1.
        2   -1    0    0  501    0  0.00000000000E+00  0.00000000000E+00 -0.21815709311E+04  0.21815709311E+04  0.25500000920E-02 0.  1.
    10030    2    1    2    0    0  0.00000000000E+00  0.00000000000E+00 -0.63285885232E+03  0.37302830099E+04  0.36762074217E+04 0.  0.
        5    1    3    3  502    0 -0.10577474863E+03 -0.18212914770E+04 -0.88826146756E+02  0.18265276116E+04  0.46999998093E+01 0.  1.
       -5    1    3    3    0  502  0.10577474863E+03  0.18212914770E+04 -0.54403270556E+03  0.19037553983E+04  0.46999998093E+01 0. -1.
</event>
<event>
 5   0  0.6287345E-07  0.2701876E+04  0.7818609E-02  0.8334396E-01
       -1   -1    0    0    0  501  0.00000000000E+00  0.00000000000E+00  0.14944582550E+04  0.14944582550E+04  0.50400001928E-02 0. -1.
        1   -1    0    0  501    0  0.00000000000E+00  0.00000000000E+00 -0.12212008505E+04  0.12212008505E+04  0.50400001928E-02 0.  1.
    10030    2    1    2    0    0  0.00000000000E+00  0.00000000000E+00  0.27325740443E+03  0.27156591055E+04  0.27018761571E+04 0.  0.
        5    1    3    3  502    0  0.53157049695E+03  0.46319884914E+03 -0.10215913129E+04  0.12412861345E+04  0.46999998093E+01 0.  1.
       -5    1    3    3    0  502 -0.53157049695E+03 -0.46319884914E+03  0.12948487173E+04  0.14743729710E+04  0.46999998093E+01 0. -1.
</event>
<event>
 5   0  0.1184684E-06  0.3744203E+04  0.7818609E-02  0.8058236E-01
        2   -1    0    0  501    0  0.00000000000E+00  0.00000000000E+00  0.30258971185E+04  0.30258971185E+04  0.25500000920E-02 0.  1.
       -2   -1    0    0    0  501  0.00000000000E+00  0.00000000000E+00 -0.11582560260E+04  0.11582560260E+04  0.25500000920E-02 0. -1.
    10030    2    1    2    0    0  0.00000000000E+00  0.00000000000E+00  0.18676410925E+04  0.41841531445E+04  0.37442027571E+04 0.  0.
        4    1    3    3  502    0 -0.99962849728E+03  0.15558391924E+04  0.60826630812E+03  0.19467619884E+04  0.12699999809E+01 0. -1.
       -4    1    3    3    0  502  0.99962849728E+03 -0.15558391924E+04  0.12593747844E+04  0.22373911561E+04  0.12699999809E+01 0.  1.
</event>
<event>
 5   0  0.5875011E-07  0.3656523E+04  0.7818609E-02  0.8077666E-01
       -1   -1    0    0    0  501  0.00000000000E+00  0.00000000000E+00  0.14073917506E+04  0.14073917506E+04  0.50400001928E-02 0.  1.
        1   -1    0    0  501    0  0.00000000000E+00  0.00000000000E+00 -0.23749895246E+04  0.23749895246E+04  0.50400001928E-02 0. -1.
    10030    2    1    2    0    0  0.00000000000E+00  0.00000000000E+00 -0.96759777403E+03  0.37823812752E+04  0.36565233021E+04 0.  0.
        2    1    3    3  502    0 -0.31731771520E+02  0.92126737830E+03  0.11494060831E+04  0.14733888935E+04  0.25500000920E-02 0.  1.
       -2    1    3    3    0  502  0.31731771520E+02 -0.92126737830E+03 -0.21170038571E+04  0.23089923817E+04  0.25500000920E-02 0. -1.
</event>
<event>
 5   0  0.1151180E-06  0.3634062E+04  0.7818609E-02  0.8082734E-01
       -2   -1    0    0    0  501  0.00000000000E+00  0.00000000000E+00  0.16138341313E+04  0.16138341313E+04  0.25500000920E-02 0.  1.
        2   -1    0    0  501    0  0.00000000000E+00  0.00000000000E+00 -0.20458119547E+04  0.20458119547E+04  0.25500000920E-02 0. -1.
    10030    2    1    2    0    0  0.00000000000E+00  0.00000000000E+00 -0.43197782339E+03  0.36596460860E+04  0.36340617269E+04 0.  0.
        5    1    3    3  502    0  0.71398782162E+02  0.37602698047E+03  0.15727720974E+04  0.16186810175E+04  0.46999998093E+01 0.  1.
       -5    1    3    3    0  502 -0.71398782162E+02 -0.37602698047E+03 -0.20047499208E+04  0.20409650685E+04  0.46999998093E+01 0. -1.
</event>
<event>
 5   0  0.6261598E-07  0.3632382E+04  0.7818609E-02  0.8083114E-01
       -1   -1    0    0    0  501  0.00000000000E+00  0.00000000000E+00  0.17256739886E+04  0.17256739886E+04  0.50400001928E-02 0.  1.
        1   -1    0    0  501    0  0.00000000000E+00  0.00000000000E+00 -0.19114563905E+04  0.19114563905E+04  0.50400001928E-02 0. -1.
    10030    2    1    2    0    0  0.00000000000E+00  0.00000000000E+00 -0.18578240189E+03  0.36371303790E+04  0.36323824542E+04 0.  0.
        1    1    3    3  502    0 -0.39194396703E+03 -0.14453963597E+04 -0.11217360175E+04  0.18711179554E+04  0.50400001928E-02 0. -1.
       -1    1    3    3    0  502  0.39194396703E+03  0.14453963597E+04  0.93595361565E+03  0.17660124237E+04  0.50400001928E-02 0.  1.
</event>
<event>
 5   0  0.1151180E-06  0.3806630E+04  0.7818609E-02  0.8044734E-01
       -2   -1    0    0    0  501  0.00000000000E+00  0.00000000000E+00  0.10179962947E+04  0.10179962947E+04  0.25500000920E-02 0.  1.
        2   -1    0    0  501    0  0.00000000000E+00  0.00000000000E+00 -0.35585673216E+04  0.35585673216E+04  0.25500000920E-02 0. -1.
    10030    2    1    2    0    0  0.00000000000E+00  0.00000000000E+00 -0.25405710269E+04  0.45765636163E+04  0.38066301884E+04 0.  0.
        5    1    3    3  502    0  0.17279318303E+04  0.40223626296E+03 -0.44164595923E+03  0.18282821622E+04  0.46999998093E+01 0.  1.
       -5    1    3    3    0  502 -0.17279318303E+04 -0.40223626296E+03 -0.20989250677E+04  0.27482814541E+04  0.46999998093E+01 0. -1.
</event>
<event>
 5   0  0.6261598E-07  0.2844621E+04  0.7818609E-02  0.8289548E-01
        1   -1    0    0  501    0  0.00000000000E+00  0.00000000000E+00  0.15533684507E+04  0.15533684507E+04  0.50400001928E-02 0. -1.
       -1   -1    0    0    0  501  0.00000000000E+00  0.00000000000E+00 -0.13023102153E+04  0.13023102153E+04  0.50400001928E-02 0.  1.
    10030    2    1    2    0    0  0.00000000000E+00  0.00000000000E+00  0.25105823539E+03  0.28556786659E+04  0.28446213114E+04 0.  0.
        1    1    3    3  502    0  0.35323196468E+03  0.60462096549E+02  0.15073020017E+04  0.15493184987E+04  0.50400001928E-02 0. -1.
       -1    1    3    3    0  502 -0.35323196468E+03 -0.60462096549E+02 -0.12562437664E+04  0.13063601672E+04  0.50400001928E-02 0.  1.
</event>
<event>
 5   0  0.6287345E-07  0.3688625E+04  0.7818609E-02  0.8070487E-01
        1   -1    0    0  501    0  0.00000000000E+00  0.00000000000E+00  0.19213574820E+04  0.19213574820E+04  0.50400001928E-02 0.  1.
       -1   -1    0    0    0  501  0.00000000000E+00  0.00000000000E+00 -0.17703572202E+04  0.17703572202E+04  0.50400001928E-02 0. -1.
    10030    2    1    2    0    0  0.00000000000E+00  0.00000000000E+00  0.15100026185E+03  0.36917147022E+04  0.36886252674E+04 0.  0.
        5    1    3    3  502    0  0.47259041122E+03  0.48314178619E+03  0.17929500116E+04  0.19161052989E+04  0.46999998093E+01 0.  1.
       -5    1    3    3    0  502 -0.47259041122E+03 -0.48314178619E+03 -0.16419497498E+04  0.17756094033E+04  0.46999998093E+01 0. -1.
</event>
<event>
 5   0  0.6186440E-07  0.3522301E+04  0.7818609E-02  0.8108525E-01
        1   -1    0    0  501    0  0.00000000000E+00  0.00000000000E+00  0.24381227559E+04  0.24381227559E+04  0.50400001928E-02 0.  1.
       -1   -1    0    0    0  501  0.00000000000E+00  0.00000000000E+00 -0.12721473084E+04  0.12721473084E+04  0.50400001928E-02 0. -1.
    10030    2    1    2    0    0  0.00000000000E+00  0.00000000000E+00  0.11659754475E+04  0.37102700643E+04  0.35223011237E+04 0.  0.
        3    1    3    3  502    0 -0.30406442400E+03  0.13524101093E+04 -0.56134869787E+03  0.14955201933E+04  0.10100000352E+00 0. -1.
       -3    1    3    3    0  502  0.30406442400E+03 -0.13524101093E+04  0.17273241454E+04  0.22147498710E+04  0.10100000352E+00 0.  1.
</event>
<event>
 5   0  0.6186440E-07  0.2637752E+04  0.7818609E-02  0.8355490E-01
        1   -1    0    0  501    0  0.00000000000E+00  0.00000000000E+00  0.12742823895E+04  0.12742823895E+04  0.50400001928E-02 0. -1.
       -1   -1    0    0    0  501  0.00000000000E+00  0.00000000000E+00 -0.13650301228E+04  0.13650301228E+04  0.50400001928E-02 0.  1.
    10030    2    1    2    0    0  0.00000000000E+00  0.00000000000E+00 -0.90747733320E+02  0.26393125123E+04  0.26377519569E+04 0.  0.
        3    1    3    3  502    0 -0.40421108005E+03  0.51809049143E+03  0.10988189438E+04  0.12803153658E+04  0.10100000352E+00 0. -1.
       -3    1    3    3    0  502  0.40421108005E+03 -0.51809049143E+03 -0.11895666771E+04  0.13589971464E+04  0.10100000352E+00 0.  1.
</event>
<event>
 5   0  0.6186440E-07  0.3606487E+04  0.7818609E-02  0.8089007E-01
       -1   -1    0    0    0  501  0.00000000000E+00  0.00000000000E+00  0.14544736618E+04  0.14544736619E+04  0.50400001928E-02 0. -1.
        1   -1    0    0  501    0  0.00000000000E+00  0.00000000000E+00 -0.22356457263E+04  0.22356457263E+04  0.50400001928E-02 0.  1.
    10030    2    1    2    0    0  0.00000000000E+00  0.00000000000E+00 -0.78117206443E+03  0.36901193881E+04  0.36064873914E+04 0.  0.
        3    1    3    3  502    0 -0.88972582012E+03  0.13416715559E+04 -0.12218246953E+04  0.20210270150E+04  0.10100000352E+00 0.  1.
       -3    1    3    3    0  502  0.88972582012E+03 -0.13416715559E+04  0.44065263089E+03  0.16690923732E+04  0.10100000352E+00 0. -1.
</event>
<event>
 5   0  0.1184684E-06  0.3744720E+04  0.7818609E-02  0.8058123E-01
        2   -1    0    0  501    0  0.00000000000E+00  0.00000000000E+00  0.18637821800E+04  0.18637821800E+04  0.25500000920E-02 0.  1.
       -2   -1    0    0    0  501  0.00000000000E+00  0.00000000000E+00 -0.18809774137E+04  0.18809774137E+04  0.25500000920E-02 0. -1.
    10030    2    1    2    0    0  0.00000000000E+00  0.00000000000E+00 -0.17195233640E+02  0.37447595937E+04  0.37447201149E+04 0.  0.
        4    1    3    3  502    0  0.83230332416E+03 -0.59684607514E+03  0.15588296742E+04  0.18651824648E+04  0.12699999809E+01 0.  1.
       -4    1    3    3    0  502 -0.83230332416E+03  0.59684607514E+03 -0.15760249078E+04  0.18795771290E+04  0.12699999809E+01 0. -1.
</event>
<event>
 5   0  0.5679750E-07  0.3659788E+04  0.7818609E-02  0.8076932E-01
        3   -1    0    0  501    0  0.00000000000E+00  0.00000000000E+00  0.20789962644E+04  0.20789962669E+04  0.10100000352E+00 0.  1.
       -3   -1    0    0    0  501  0.00000000000E+00  0.00000000000E+00 -0.16106384130E+04  0.16106384162E+04  0.10100000352E+00 0. -1.
    10030    2    1    2    0    0  0.00000000000E+00  0.00000000000E+00  0.46835785144E+03  0.36896346830E+04  0.36597875645E+04 0.  0.
        4    1    3    3  502    0 -0.12728898484E+04  0.47056899462E+03 -0.10033604573E+04  0.16877255597E+04  0.12699999809E+01 0. -1.
       -4    1    3    3    0  502  0.12728898484E+04 -0.47056899462E+03  0.14717183087E+04  0.20019091233E+04  0.12699999809E+01 0.  1.
</event>
<event>
 5   0  0.5875011E-07  0.3725940E+04  0.7818609E-02  0.8062238E-01
       -1   -1    0    0    0  501  0.00000000000E+00  0.00000000000E+00  0.13569891731E+04  0.13569891731E+04  0.50400001928E-02 0. -1.
        1   -1    0    0  501    0  0.00000000000E+00  0.00000000000E+00 -0.25576153871E+04  0.25576153871E+04  0.50400001928E-02 0.  1.
    10030    2    1    2    0    0  0.00000000000E+00  0.00000000000E+00 -0.12006262139E+04  0.39146045602E+04  0.37259395536E+04 0.  0.
        2    1    3    3  502    0 -0.14286646368E+04  0.11441112846E+04 -0.23547907827E+03  0.18454060996E+04  0.25500000920E-02 0. -1.
       -2    1    3    3    0  502  0.14286646368E+04 -0.11441112846E+04 -0.96514713565E+03  0.20691984606E+04  0.25500000920E-02 0.  1.
</event>
<event>
 5   0  0.1724503E-06  0.3698199E+04  0.7818609E-02  0.8068361E-01
        2   -1    0    0  501    0  0.00000000000E+00  0.00000000000E+00  0.22562884880E+04  0.22562884880E+04  0.25500000920E-02 0. -1.
       -2   -1    0    0    0  501  0.00000000000E+00  0.00000000000E+00 -0.15153951558E+04  0.15153951558E+04  0.25500000920E-02 0.  1.
    10030    2    1    2    0    0  0.00000000000E+00  0.00000000000E+00  0.74089333222E+03  0.37716836437E+04  0.36981988290E+04 0.  0.
        1    1    3    3  502    0 -0.11527581987E+04 -0.85776376091E+03  0.15574279915E+04  0.21190073343E+04  0.50400001928E-02 0. -1.
       -1    1    3    3    0  502  0.11527581987E+04  0.85776376091E+03 -0.81653465924E+03  0.16526763095E+04  0.50400001928E-02 0.  1.
</event>
<event>
 5   0  0.6287345E-07  0.3496577E+04  0.7818609E-02  0.8114602E-01
       -1   -1    0    0    0  501  0.00000000000E+00  0.00000000000E+00  0.15826651665E+04  0.15826651665E+04  0.50400001928E-02 0.  1.
        1   -1    0    0  501    0  0.00000000000E+00  0.00000000000E+00 -0.19312437551E+04  0.19312437551E+04  0.50400001928E-02 0. -1.
    10030    2    1    2    0    0  0.00000000000E+00  0.00000000000E+00 -0.34857858863E+03  0.35139089216E+04  0.34965767368E+04 0.  0.
        5    1    3    3  502    0  0.56027700568E+03  0.88960584447E+03  0.12294816323E+04  0.16177008548E+04  0.46999998093E+01 0.  1.
       -5    1    3    3    0  502 -0.56027700568E+03 -0.88960584447E+03 -0.15780602209E+04  0.18962080667E+04  0.46999998093E+01 0. -1.
</event>
<event>
 5   0  0.1724503E-06  0.3572329E+04  0.7818609E-02  0.8096860E-01
       -2   -1    0    0    0  501  0.00000000000E+00  0.00000000000E+00  0.12034578932E+04  0.12034578932E+04  0.25500000920E-02 0.  1.
        2   -1    0    0  501    0  0.00000000000E+00  0.00000000000E+00 -0.26510136637E+04  0.26510136637E+04  0.25500000920E-02 0. -1.
    10030    2    1    2    0    0  0.00000000000E+00  0.00000000000E+00 -0.14475557705E+04  0.38544715569E+04  0.35723288307E+04 0.  0.
        1    1    3    3  502    0 -0.14923321071E+04  0.16200950477E+02 -0.17826448062E+04  0.23248957168E+04  0.50400001928E-02 0. -1.
       -1    1    3    3    0  502  0.14923321071E+04 -0.16200950477E+02  0.33508903576E+03  0.15295758401E+04  0.50400001928E-02 0.  1.
</event>
<event>
 5   0  0.5875011E-07  0.3005939E+04  0.7818609E-02  0.8242037E-01
       -1   -1    0    0    0  501  0.00000000000E+00  0.00000000000E+00  0.11958757498E+04  0.11958757498E+04  0.50400001928E-02 0.  1.
        1   -1    0    0  501    0  0.00000000000E+00  0.00000000000E+00 -0.18889229206E+04  0.18889229206E+04  0.50400001928E-02 0. -1.
    10030    2    1    2    0    0  0.00000000000E+00  0.00000000000E+00 -0.69304717080E+03  0.30847986704E+04  0.30059388643E+04 0.  0.
        2    1    3    3  502    0  0.66616446885E+03 -0.13200315706E+03 -0.17224885189E+04  0.18515308884E+04  0.25500000920E-02 0. -1.
       -2    1    3    3    0  502 -0.66616446885E+03  0.13200315706E+03  0.10294413481E+04  0.12332677820E+04  0.25500000920E-02 0.  1.
</event>
<event>
 5   0  0.1184684E-06  0.3708705E+04  0.7818609E-02  0.8066035E-01
        2   -1    0    0  501    0  0.00000000000E+00  0.00000000000E+00  0.20738654563E+04  0.20738654563E+04  0.25500000920E-02 0.  1.
       -2   -1    0    0    0  501  0.00000000000E+00  0.00000000000E+00 -0.16580742430E+04  0.16580742430E+04  0.25500000920E-02 0. -1.
    10030    2    1    2    0    0  0.00000000000E+00  0.00000000000E+00  0.41579121336E+03  0.37319396993E+04  0.37087048395E+04 0.  0.
        4    1    3    3  502    0  0.13782575111E+04  0.63390182858E+03  0.12809704320E+04  0.19855256623E+04  0.12699999809E+01 0.  1.
       -4    1    3    3    0  502 -0.13782575111E+04 -0.63390182858E+03 -0.86517921861E+03  0.17464140370E+04  0.12699999809E+01 0. -1.
</event>
<event>
 5   0  0.1724503E-06  0.2350092E+04  0.7818609E-02  0.8458428E-01
        2   -1    0    0  501    0  0.00000000000E+00  0.00000000000E+00  0.23390156365E+04  0.23390156365E+04  0.25500000920E-02 0. -1.
       -2   -1    0    0    0  501  0.00000000000E+00  0.00000000000E+00 -0.59030528323E+03  0.59030528324E+03  0.25500000920E-02 0.  1.
    10030    2    1    2    0    0  0.00000000000E+00  0.00000000000E+00  0.17487103533E+04  0.29293209198E+04  0.23500921580E+04 0.  0.
        1    1    3    3  502    0 -0.51693185956E+03 -0.18675414348E+03 -0.42019784724E+03  0.69185395019E+03  0.50400001928E-02 0.  1.
       -1    1    3    3    0  502  0.51693185956E+03  0.18675414348E+03  0.21689082005E+04  0.22374669696E+04  0.50400001928E-02 0. -1.
</event>
<event>
 5   0  0.1151180E-06  0.3114612E+04  0.7818609E-02  0.8211739E-01
       -2   -1    0    0    0  501  0.00000000000E+00  0.00000000000E+00  0.13067921623E+04  0.13067921623E+04  0.25500000920E-02 0.  1.
        2   -1    0    0  501    0  0.00000000000E+00  0.00000000000E+00 -0.18558434746E+04  0.18558434746E+04  0.25500000920E-02 0. -1.
    10030    2    1    2    0    0  0.00000000000E+00  0.00000000000E+00 -0.54905131235E+03  0.31626356369E+04  0.31146118263E+04 0.  0.
        5    1    3    3  502    0  0.54239450544E+03  0.13948344458E+04 -0.71177484113E+03  0.16572267332E+04  0.46999998093E+01 0. -1.
       -5    1    3    3    0  502 -0.54239450544E+03 -0.13948344458E+04  0.16272352878E+03  0.15054089038E+04  0.46999998093E+01 0.  1.
</event>
<event>
 5   0  0.1724503E-06  0.3574479E+04  0.7818609E-02  0.8096363E-01
       -2   -1    0    0    0  501  0.00000000000E+00  0.00000000000E+00  0.13426754648E+04  0.13426754648E+04  0.25500000920E-02 0.  1.
        2   -1    0    0  501    0  0.00000000000E+00  0.00000000000E+00 -0.23789997971E+04  0.23789997971E+04  0.25500000920E-02 0. -1.
    10030    2    1    2    0    0  0.00000000000E+00  0.00000000000E+00 -0.10363243324E+04  0.37216752619E+04  0.35744787918E+04 0.  0.
        1    1    3    3  502    0  0.98255965443E+03 -0.96830636175E+03 -0.17012576988E+04  0.21902781656E+04  0.50400001928E-02 0. -1.
       -1    1    3    3    0  502 -0.98255965443E+03  0.96830636175E+03  0.66493336646E+03  0.15313970963E+04  0.50400001928E-02 0.  1.
</event>
<event>
 5   0  0.5875011E-07  0.2142804E+04  0.7818609E-02  0.8542619E-01
        1   -1    0    0  501    0  0.00000000000E+00  0.00000000000E+00  0.14549830958E+04  0.14549830958E+04  0.50400001928E-02 0. -1.
       -1   -1    0    0    0  501  0.00000000000E+00  0.00000000000E+00 -0.78894575011E+03  0.78894575012E+03  0.50400001928E-02 0.  1.
    10030    2    1    2    0    0  0.00000000000E+00  0.00000000000E+00  0.66603734565E+03  0.22439288459E+04  0.21428044520E+04 0.  0.
        2    1    3    3  502    0  0.99664016242E+03  0.10094221862E+03 -0.64944510128E+02  0.10038419867E+04  0.25500000920E-02 0.  1.
       -2    1    3    3    0  502 -0.99664016242E+03 -0.10094221862E+03  0.73098185577E+03  0.12400868592E+04  0.25500000920E-02 0. -1.
</event>
<event>
 5   0  0.1151180E-06  0.3803113E+04  0.7818609E-02  0.8045487E-01
       -2   -1    0    0    0  501  0.00000000000E+00  0.00000000000E+00  0.19981121910E+04  0.19981121910E+04  0.25500000920E-02 0. -1.
        2   -1    0    0  501    0  0.00000000000E+00  0.00000000000E+00 -0.18096670259E+04  0.18096670259E+04  0.25500000920E-02 0.  1.
    10030    2    1    2    0    0  0.00000000000E+00  0.00000000000E+00  0.18844516512E+03  0.38077792168E+04  0.38031133278E+04 0.  0.
        5    1    3    3  502    0  0.10390617021E+04  0.17119084994E+03  0.16794970801E+04  0.19823440821E+04  0.46999998093E+01 0. -1.
       -5    1    3    3    0  502 -0.10390617021E+04 -0.17119084994E+03 -0.14910519150E+04  0.18254351347E+04  0.46999998093E+01 0.  1.
</event>
<event>
 5   0  0.5875011E-07  0.2231662E+04  0.7818609E-02  0.8505364E-01
        1   -1    0    0  501    0  0.00000000000E+00  0.00000000000E+00  0.99044111590E+03  0.99044111591E+03  0.50400001928E-02 0. -1.
       -1   -1    0    0    0  501  0.00000000000E+00  0.00000000000E+00 -0.12570957323E+04  0.12570957323E+04  0.50400001928E-02 0.  1.
    10030    2    1    2    0    0  0.00000000000E+00  0.00000000000E+00 -0.26665461642E+03  0.22475368482E+04  0.22316624296E+04 0.  0.
        2    1    3    3  502    0  0.42001967441E+03 -0.10319415613E+04 -0.71577325634E+02  0.11164422181E+04  0.25500000920E-02 0. -1.
       -2    1    3    3    0  502 -0.42001967441E+03  0.10319415613E+04 -0.19507729078E+03  0.11310946301E+04  0.25500000920E-02 0.  1.
</event>
<event>
 5   0  0.1184684E-06  0.2479698E+04  0.7818609E-02  0.8410254E-01
        2   -1    0    0  501    0  0.00000000000E+00  0.00000000000E+00  0.15070099211E+04  0.15070099211E+04  0.25500000920E-02 0.  1.
       -2   -1    0    0    0  501  0.00000000000E+00  0.00000000000E+00 -0.10200500027E+04  0.10200500027E+04  0.25500000920E-02 0. -1.
    10030    2    1    2    0    0  0.00000000000E+00  0.00000000000E+00  0.48695991838E+03  0.25270599238E+04  0.24796979445E+04 0.  0.
        4    1    3    3  502    0 -0.10135643797E+04  0.46264817819E+03  0.79780639354E+03  0.13703476723E+04  0.12699999809E+01 0.  1.
       -4    1    3    3    0  502  0.10135643797E+04 -0.46264817819E+03 -0.31084647515E+03  0.11567122514E+04  0.12699999809E+01 0. -1.
</event>
<event>
 5   0  0.5679750E-07  0.3751080E+04  0.7818609E-02  0.8056735E-01
        1   -1    0    0  501    0  0.00000000000E+00  0.00000000000E+00  0.26517011680E+04  0.26517011680E+04  0.50400001928E-02 0. -1.
       -1   -1    0    0    0  501  0.00000000000E+00  0.00000000000E+00 -0.13265633016E+04  0.13265633016E+04  0.50400001928E-02 0.  1.
    10030    2    1    2    0    0  0.00000000000E+00  0.00000000000E+00  0.13251378664E+04  0.39782644696E+04  0.37510795546E+04 0.  0.
        4    1    3    3  502    0 -0.17070114808E+04  0.61943772379E+03  0.16505582252E+03  0.18234133724E+04  0.12699999809E+01 0. -1.
       -4    1    3    3    0  502  0.17070114808E+04 -0.61943772379E+03  0.11600820439E+04  0.21548510971E+04  0.12699999809E+01 0.  1.
</event>
<event>
 5   0  0.5875011E-07  0.2778214E+04  0.7818609E-02  0.8310064E-01
       -1   -1    0    0    0  501  0.00000000000E+00  0.00000000000E+00  0.11413001206E+04  0.11413001207E+04  0.50400001928E-02 0.  1.
        1   -1    0    0  501    0  0.00000000000E+00  0.00000000000E+00 -0.16907190489E+04  0.16907190489E+04  0.50400001928E-02 0. -1.
    10030    2    1    2    0    0  0.00000000000E+00  0.00000000000E+00 -0.54941892829E+03  0.28320191696E+04  0.27782137100E+04 0.  0.
        2    1    3    3  502    0  0.75563617513E+02  0.13606984322E+04 -0.54900777145E+03  0.14692241547E+04  0.25500000920E-02 0. -1.
       -2    1    3    3    0  502 -0.75563617513E+02 -0.13606984322E+04 -0.41115683248E+00  0.13627950149E+04  0.25500000920E-02 0.  1.
</event>
<event>
 5   0  0.1680194E-06  0.3341343E+04  0.7818609E-02  0.8152455E-01
       -2   -1    0    0    0  501  0.00000000000E+00  0.00000000000E+00  0.13382289474E+04  0.13382289474E+04  0.25500000920E-02 0. -1.
        2   -1    0    0  501    0  0.00000000000E+00  0.00000000000E+00 -0.20856988079E+04  0.20856988079E+04  0.25500000920E-02 0.  1.
    10030    2    1    2    0    0  0.00000000000E+00  0.00000000000E+00 -0.74746986055E+03  0.34239277553E+04  0.33413425567E+04 0.  0.
        2    1    3    3  502    0  0.19211230414E+03  0.16573030262E+04 -0.46296213034E+03  0.17314428642E+04  0.25500000920E-02 0. -1.
       -2    1    3    3    0  502 -0.19211230414E+03 -0.16573030262E+04 -0.28450773021E+03  0.16924848911E+04  0.25500000920E-02 0.  1.
</event>
<event>
 5   0  0.1680194E-06  0.3281904E+04  0.7818609E-02  0.8167515E-01
       -2   -1    0    0    0  501  0.00000000000E+00  0.00000000000E+00  0.13470174334E+04  0.13470174334E+04  0.25500000920E-02 0. -1.
        2   -1    0    0  501    0  0.00000000000E+00  0.00000000000E+00 -0.19990268653E+04  0.19990268653E+04  0.25500000920E-02 0.  1.
    10030    2    1    2    0    0  0.00000000000E+00  0.00000000000E+00 -0.65200943195E+03  0.33460442987E+04  0.32819043480E+04 0.  0.
        2    1    3    3  502    0  0.35796663063E+03  0.80556706340E+03 -0.17371227893E+04  0.19479922966E+04  0.25500000920E-02 0.  1.
       -2    1    3    3    0  502 -0.35796663063E+03 -0.80556706340E+03  0.10851133574E+04  0.13980520021E+04  0.25500000920E-02 0. -1.
</event>
<event>
 5   0  0.1151180E-06  0.3708254E+04  0.7818609E-02  0.8066135E-01
        2   -1    0    0  501    0  0.00000000000E+00  0.00000000000E+00  0.11291938081E+04  0.11291938081E+04  0.25500000920E-02 0. -1.
       -2   -1    0    0    0  501  0.00000000000E+00  0.00000000000E+00 -0.30444609131E+04  0.30444609131E+04  0.25500000920E-02 0.  1.
    10030    2    1    2    0    0  0.00000000000E+00  0.00000000000E+00 -0.19152671050E+04  0.41736547211E+04  0.37082537194E+04 0.  0.
        5    1    3    3  502    0  0.15896620796E+04 -0.37977686305E+03  0.27750469638E+02  0.16346400740E+04  0.46999998093E+01 0. -1.
       -5    1    3    3    0  502 -0.15896620796E+04  0.37977686305E+03 -0.19430175747E+04  0.25390146471E+04  0.46999998093E+01 0.  1.
</event>
<event>
 5   0  0.1184684E-06  0.3691384E+04  0.7818609E-02  0.8069874E-01
        2   -1    0    0  501    0  0.00000000000E+00  0.00000000000E+00  0.16001468730E+04  0.16001468730E+04  0.25500000920E-02 0.  1.
       -2   -1    0    0    0  501  0.00000000000E+00  0.00000000000E+00 -0.21289160465E+04  0.21289160465E+04  0.25500000920E-02 0. -1.
    10030    2    1    2    0    0  0.00000000000E+00  0.00000000000E+00 -0.52876917356E+03  0.37290629195E+04  0.36913836726E+04 0.  0.
        4    1    3    3  502    0 -0.94689118975E+03  0.16086923314E+03  0.13278044029E+04  0.16387641626E+04  0.12699999809E+01 0.  1.
       -4    1    3    3    0  502  0.94689118975E+03 -0.16086923314E+03 -0.18565735764E+04  0.20902987569E+04  0.12699999809E+01 0. -1.
</event>
<event>
 5   0  0.6261598E-07  0.3741295E+04  0.7818609E-02  0.8058872E-01
       -1   -1    0    0    0  501  0.00000000000E+00  0.00000000000E+00  0.19849237160E+04  0.19849237160E+04  0.50400001928E-02 0. -1.
        1   -1    0    0  501    0  0.00000000000E+00  0.00000000000E+00 -0.17629500282E+04  0.17629500282E+04  0.50400001928E-02 0.  1.
    10030    2    1    2    0    0  0.00000000000E+00  0.00000000000E+00  0.22197368779E+03  0.37478737443E+04  0.37412946001E+04 0.  0.
        1    1    3    3  502    0 -0.15438352239E+04  0.94101511882E+02 -0.94302262171E+03  0.18115115120E+04  0.50400001928E-02 0.  1.
       -1    1    3    3    0  502  0.15438352239E+04 -0.94101511882E+02  0.11649963095E+04  0.19363622322E+04  0.50400001928E-02 0. -1.
</event>
<event>
 5   0  0.1184684E-06  0.3348805E+04  0.7818609E-02  0.8150587E-01
        2   -1    0    0  501    0  0.00000000000E+00  0.00000000000E+00  0.19781876845E+04  0.19781876845E+04  0.25500000920E-02 0.  1.
       -2   -1    0    0    0  501  0.00000000000E+00  0.00000000000E+00 -0.14172691747E+04  0.14172691747E+04  0.25500000920E-02 0. -1.
    10030    2    1    2    0    0  0.00000000000E+00  0.00000000000E+00  0.56091850976E+03  0.33954568592E+04  0.33488054150E+04 0.  0.
        4    1    3    3  502    0 -0.52365511932E+03  0.41118389432E+03  0.18382001190E+04  0.19550621906E+04  0.12699999809E+01 0.  1.
       -4    1    3    3    0  502  0.52365511932E+03 -0.41118389432E+03 -0.12772816092E+04  0.14403946685E+04  0.12699999809E+01 0. -1.
</event>
<event>
 5   0  0.1151180E-06  0.3725220E+04  0.7818609E-02  0.8062396E-01
        2   -1    0    0  501    0  0.00000000000E+00  0.00000000000E+00  0.28703403721E+04  0.28703403721E+04  0.25500000920E-02 0. -1.
       -2   -1    0    0    0  501  0.00000000000E+00  0.00000000000E+00 -0.12086776976E+04  0.12086776976E+04  0.25500000920E-02 0.  1.
    10030    2    1    2    0    0  0.00000000000E+00  0.00000000000E+00  0.16616626745E+04  0.40790180697E+04  0.37252202041E+04 0.  0.
        5    1    3    3  502    0 -0.16259368128E+04 -0.88722039270E+03  0.10455795384E+04  0.21269906454E+04  0.46999998093E+01 0. -1.
       -5    1    3    3    0  502  0.16259368128E+04  0.88722039270E+03  0.61608313613E+03  0.19520274243E+04  0.46999998093E+01 0.  1.
</event>
<event>
 5   0  0.1724503E-06  0.1961181E+04  0.7818609E-02  0.8624988E-01
       -2   -1    0    0    0  501  0.00000000000E+00  0.00000000000E+00  0.54093260933E+03  0.54093260933E+03  0.25500000920E-02 0.  1.
        2   -1    0    0  501    0  0.00000000000E+00  0.00000000000E+00 -0.17775915916E+04  0.17775915916E+04  0.25500000920E-02 0. -1.
    10030    2    1    2    0    0  0.00000000000E+00  0.00000000000E+00 -0.12366589822E+04  0.23185242009E+04  0.19611805200E+04 0.  0.
        1    1    3    3  502    0  0.44893461781E+03  0.80947169636E+03 -0.10009900074E+04  0.13633663166E+04  0.50400001928E-02 0. -1.
       -1    1    3    3    0  502 -0.44893461781E+03 -0.80947169636E+03 -0.23566897487E+03  0.95515788434E+03  0.50400001928E-02 0.  1.
</event>
<event>
 5   0  0.5679750E-07  0.3672123E+04  0.7818609E-02  0.8074168E-01
       -1   -1    0    0    0  501  0.00000000000E+00  0.00000000000E+00  0.21603251223E+04  0.21603251223E+04  0.50400001928E-02 0.  1.
        1   -1    0    0  501    0  0.00000000000E+00  0.00000000000E+00 -0.15604697026E+04  0.15604697026E+04  0.50400001928E-02 0. -1.
    10030    2    1    2    0    0  0.00000000000E+00  0.00000000000E+00  0.59985541965E+03  0.37207948249E+04  0.36721230377E+04 0.  0.
        4    1    3    3  502    0  0.32226101932E+03  0.13047237360E+04 -0.96763859915E+03  0.16560441611E+04  0.12699999809E+01 0. -1.
       -4    1    3    3    0  502 -0.32226101932E+03 -0.13047237360E+04  0.15674940188E+04  0.20647506638E+04  0.12699999809E+01 0.  1.
</event>
<event>
 5   0  0.1151180E-06  0.3668930E+04  0.7818609E-02  0.8074882E-01
        2   -1    0    0  501    0  0.00000000000E+00  0.00000000000E+00  0.14817953190E+04  0.14817953190E+04  0.25500000920E-02 0. -1.
       -2   -1    0    0    0  501  0.00000000000E+00  0.00000000000E+00 -0.22710710294E+04  0.22710710294E+04  0.25500000920E-02 0.  1.
    10030    2    1    2    0    0  0.00000000000E+00  0.00000000000E+00 -0.78927571037E+03  0.37528663485E+04  0.36689303186E+04 0.  0.
        5    1    3    3  502    0 -0.18201905382E+04  0.15515491284E+03 -0.56602307691E+03  0.19124776746E+04  0.46999998093E+01 0. -1.
       -5    1    3    3    0  502  0.18201905382E+04 -0.15515491284E+03 -0.22325263346E+03  0.18403886738E+04  0.46999998093E+01 0.  1.
</event>
<event>
 5   0  0.1151180E-06  0.3686565E+04  0.7818609E-02  0.8070946E-01
        2   -1    0    0  501    0  0.00000000000E+00  0.00000000000E+00  0.26328968038E+04  0.26328968038E+04  0.25500000920E-02 0. -1.
       -2   -1    0    0    0  501  0.00000000000E+00  0.00000000000E+00 -0.12904761332E+04  0.12904761332E+04  0.25500000920E-02 0.  1.
    10030    2    1    2    0    0  0.00000000000E+00  0.00000000000E+00  0.13424206706E+04  0.39233729370E+04  0.36865650606E+04 0.  0.
        5    1    3    3  502    0 -0.73743926707E+03 -0.13683580176E+04 -0.38310700561E+03  0.16009414120E+04  0.46999998093E+01 0.  1.
       -5    1    3    3    0  502  0.73743926707E+03  0.13683580176E+04  0.17255276762E+04  0.23224315250E+04  0.46999998093E+01 0. -1.
</event>
<event>
 5   0  0.1680194E-06  0.3722562E+04  0.7818609E-02  0.8062980E-01
        2   -1    0    0  501    0  0.00000000000E+00  0.00000000000E+00  0.12150062289E+04  0.12150062289E+04  0.25500000920E-02 0. -1.
       -2   -1    0    0    0  501  0.00000000000E+00  0.00000000000E+00 -0.28513160591E+04  0.28513160591E+04  0.25500000920E-02 0.  1.
    10030    2    1    2    0    0  0.00000000000E+00  0.00000000000E+00 -0.16363098302E+04  0.40663222880E+04  0.37225618987E+04 0.  0.
        2    1    3    3  502    0  0.84767574416E+03 -0.82625158170E+03  0.75084243949E+03  0.14017882195E+04  0.25500000920E-02 0. -1.
       -2    1    3    3    0  502 -0.84767574416E+03  0.82625158170E+03 -0.23871522697E+04  0.26645340685E+04  0.25500000920E-02 0.  1.
</event>
<event>
 5   0  0.1184684E-06  0.3761963E+04  0.7818609E-02  0.8054367E-01
        2   -1    0    0  501    0  0.00000000000E+00  0.00000000000E+00  0.15273818156E+04  0.15273818156E+04  0.25500000920E-02 0.  1.
       -2   -1    0    0    0  501  0.00000000000E+00  0.00000000000E+00 -0.23164417868E+04  0.23164417868E+04  0.25500000920E-02 0. -1.
    10030    2    1    2    0    0  0.00000000000E+00  0.00000000000E+00 -0.78905997123E+03  0.38438236024E+04  0.37619628186E+04 0.  0.
        4    1    3    3  502    0 -0.16956000363E+04  0.66134360942E+03 -0.87989787617E+03  0.20215481044E+04  0.12699999809E+01 0. -1.
       -4    1    3    3    0  502  0.16956000363E+04 -0.66134360942E+03  0.90837904942E+02  0.18222754981E+04  0.12699999809E+01 0.  1.
</event>
<event>
 5   0  0.1151180E-06  0.2327423E+04  0.7818609E-02  0.8467186E-01
       -2   -1    0    0    0  501  0.00000000000E+00  0.00000000000E+00  0.57910323189E+03  0.57910323189E+03  0.25500000920E-02 0.  1.
        2   -1    0    0  501    0  0.00000000000E+00  0.00000000000E+00 -0.23384855251E+04  0.23384855251E+04  0.25500000920E-02 0. -1.
    10030    2    1    2    0    0  0.00000000000E+00  0.00000000000E+00 -0.17593822932E+04  0.29175887570E+04  0.23274230602E+04 0.  0.
        5    1    3    3  502    0 -0.92549266843E+03  0.67266316225E+03 -0.61320782069E+03  0.12980979665E+04  0.46999998093E+01 0. -1.
       -5    1    3    3    0  502  0.92549266843E+03 -0.67266316225E+03 -0.11461744725E+04  0.16194907905E+04  0.46999998093E+01 0.  1.
</event>
<event>
 5   0  0.5875011E-07  0.3074917E+04  0.7818609E-02  0.8222656E-01
       -1   -1    0    0    0  501  0.00000000000E+00  0.00000000000E+00  0.12382274997E+04  0.12382274997E+04  0.50400001928E-02 0. -1.
        1   -1    0    0  501    0  0.00000000000E+00  0.00000000000E+00 -0.19090018999E+04  0.19090018999E+04  0.50400001928E-02 0.  1.
    10030    2    1    2    0    0  0.00000000000E+00  0.00000000000E+00 -0.67077440020E+03  0.31472293997E+04  0.30749170067E+04 0.  0.
        2    1    3    3  502    0  0.80703661572E+03  0.82636758314E+03  0.70316077105E+03  0.13522671894E+04  0.25500000920E-02 0. -1.
       -2    1    3    3    0  502 -0.80703661572E+03 -0.82636758314E+03 -0.13739351712E+04  0.17949622103E+04  0.25500000920E-02 0.  1.
</event>
<event>
 5   0  0.5875011E-07  0.2291681E+04  0.7818609E-02  0.8481208E-01
        1   -1    0    0  501    0  0.00000000000E+00  0.00000000000E+00  0.10200540466E+04  0.10200540466E+04  0.50400001928E-02 0. -1.
       -1   -1    0    0    0  501  0.00000000000E+00  0.00000000000E+00 -0.12871380525E+04  0.12871380525E+04  0.50400001928E-02 0.  1.
    10030    2    1    2    0    0  0.00000000000E+00  0.00000000000E+00 -0.26708400592E+03  0.23071920990E+04  0.22916809367E+04 0.  0.
        2    1    3    3  502    0  0.66998784114E+03 -0.17224614645E+03  0.78609452783E+03  0.10471375502E+04  0.25500000920E-02 0. -1.
       -2    1    3    3    0  502 -0.66998784114E+03  0.17224614645E+03 -0.10531785337E+04  0.12600545489E+04  0.25500000920E-02 0.  1.
</event>
<event>
 5   0  0.1680194E-06  0.2301910E+04  0.7818609E-02  0.8477168E-01
        2   -1    0    0  501    0  0.00000000000E+00  0.00000000000E+00  0.13729933128E+04  0.13729933128E+04  0.25500000920E-02 0. -1.
       -2   -1    0    0    0  501  0.00000000000E+00  0.00000000000E+00 -0.96482430041E+03  0.96482430041E+03  0.25500000920E-02 0.  1.
    10030    2    1    2    0    0  0.00000000000E+00  0.00000000000E+00  0.40816901239E+03  0.23378176132E+04  0.23019099135E+04 0.  0.
        2    1    3    3  502    0 -0.49790827585E+03  0.63021701750E+03 -0.63316048460E+03  0.10227308246E+04  0.25500000920E-02 0.  1.
       -2    1    3    3    0  502  0.49790827585E+03 -0.63021701750E+03  0.10413294970E+04  0.13150867886E+04  0.25500000920E-02 0. -1.
</event>
<event>
 5   0  0.1724503E-06  0.2259820E+04  0.7818609E-02  0.8493934E-01
        2   -1    0    0  501    0  0.00000000000E+00  0.00000000000E+00  0.13533915064E+04  0.13533915064E+04  0.25500000920E-02 0.  1.
       -2   -1    0    0    0  501  0.00000000000E+00  0.00000000000E+00 -0.94333174342E+03  0.94333174342E+03  0.25500000920E-02 0. -1.
    10030    2    1    2    0    0  0.00000000000E+00  0.00000000000E+00  0.41005976299E+03  0.22967232498E+04  0.22598204967E+04 0.  0.
        1    1    3    3  502    0 -0.41481506688E+03  0.10461443973E+04  0.10234770994E+03  0.11300286251E+04  0.50400001928E-02 0.  1.
       -1    1    3    3    0  502  0.41481506688E+03 -0.10461443973E+04  0.30771205305E+03  0.11666946247E+04  0.50400001928E-02 0. -1.
</event>
<event>
 5   0  0.1184684E-06  0.2082765E+04  0.7818609E-02  0.8568874E-01
       -2   -1    0    0    0  501  0.00000000000E+00  0.00000000000E+00  0.98506609201E+03  0.98506609202E+03  0.25500000920E-02 0. -1.
        2   -1    0    0  501    0  0.00000000000E+00  0.00000000000E+00 -0.11009183675E+04  0.11009183675E+04  0.25500000920E-02 0.  1.
    10030    2    1    2    0    0  0.00000000000E+00  0.00000000000E+00 -0.11585227548E+03  0.20859844595E+04  0.20827648488E+04 0.  0.
        4    1    3    3  502    0  0.30793542874E+03 -0.15976936908E+03 -0.10413427953E+04  0.10976096345E+04  0.12699999809E+01 0.  1.
       -4    1    3    3    0  502 -0.30793542874E+03  0.15976936908E+03  0.92549051980E+03  0.98837482501E+03  0.12699999809E+01 0. -1.
</event>
<event>
 5   0  0.1151180E-06  0.3761449E+04  0.7818609E-02  0.8054479E-01
       -2   -1    0    0    0  501  0.00000000000E+00  0.00000000000E+00  0.14984088101E+04  0.14984088101E+04  0.25500000920E-02 0.  1.
        2   -1    0    0  501    0  0.00000000000E+00  0.00000000000E+00 -0.23605874831E+04  0.23605874831E+04  0.25500000920E-02 0. -1.
    10030    2    1    2    0    0  0.00000000000E+00  0.00000000000E+00 -0.86217867295E+03  0.38589962932E+04  0.37614492323E+04 0.  0.
        5    1    3    3  502    0 -0.85770137126E+03  0.39421724648E+03 -0.20999408496E+04  0.23023536960E+04  0.46999998093E+01 0. -1.
       -5    1    3    3    0  502  0.85770137126E+03 -0.39421724648E+03  0.12377621766E+04  0.15566425973E+04  0.46999998093E+01 0.  1.
</event>
<event>
 5   0  0.1685793E-06  0.2766906E+04  0.7818609E-02  0.8313617E-01
        2   -1    0    0  501    0  0.00000000000E+00  0.00000000000E+00  0.12819309942E+04  0.12819309942E+04  0.25500000920E-02 0.  1.
       -2   -1    0    0    0  501  0.00000000000E+00  0.00000000000E+00 -0.14930153454E+04  0.14930153454E+04  0.25500000920E-02 0. -1.
    10030    2    1    2    0    0  0.00000000000E+00  0.00000000000E+00 -0.21108435114E+03  0.27749463396E+04  0.27669063202E+04 0.  0.
        3    1    3    3  502    0  0.12954538674E+04  0.38031382788E+03 -0.40825247783E+03  0.14104997080E+04  0.10100000352E+00 0. -1.
       -3    1    3    3    0  502 -0.12954538674E+04 -0.38031382788E+03  0.19716812669E+03  0.13644466317E+04  0.10100000352E+00 0.  1.
</event>
<event>
 5   0  0.5875011E-07  0.1985480E+04  0.7818609E-02  0.8613439E-01
       -1   -1    0    0    0  501  0.00000000000E+00  0.00000000000E+00  0.68995764798E+03  0.68995764800E+03  0.50400001928E-02 0. -1.
        1   -1    0    0  501    0  0.00000000000E+00  0.00000000000E+00 -0.14283963982E+04  0.14283963982E+04  0.50400001928E-02 0.  1.
    10030    2    1    2    0    0  0.00000000000E+00  0.00000000000E+00 -0.73843875024E+03  0.21183540462E+04  0.19854803140E+04 0.  0.
        2    1    3    3  502    0  0.45940548434E+03  0.31560273305E+03 -0.12457043627E+04  0.13647116338E+04  0.25500000920E-02 0.  1.
       -2    1    3    3    0  502 -0.45940548434E+03 -0.31560273305E+03  0.50726561249E+03  0.75364241240E+03  0.25500000920E-02 0. -1.
</event>
<event>
 5   0  0.5679750E-07  0.3751032E+04  0.7818609E-02  0.8056746E-01
        1   -1    0    0  501    0  0.00000000000E+00  0.00000000000E+00  0.19868770488E+04  0.19868770488E+04  0.50400001928E-02 0.  1.
       -1   -1    0    0    0  501  0.00000000000E+00  0.00000000000E+00 -0.17703969081E+04  0.17703969081E+04  0.50400001928E-02 0. -1.
    10030    2    1    2    0    0  0.00000000000E+00  0.00000000000E+00  0.21648014071E+03  0.37572739569E+04  0.37510323827E+04 0.  0.
        4    1    3    3  502    0  0.18639953226E+04  0.19181150686E+03  0.28803923698E+02  0.18740601633E+04  0.12699999809E+01 0.  1.
       -4    1    3    3    0  502 -0.18639953226E+04 -0.19181150686E+03  0.18767621702E+03  0.18832137936E+04  0.12699999809E+01 0. -1.
</event>
<event>
 5   0  0.5679750E-07  0.3689895E+04  0.7818609E-02  0.8070205E-01
       -1   -1    0    0    0  501  0.00000000000E+00  0.00000000000E+00  0.13728674976E+04  0.13728674976E+04  0.50400001928E-02 0. -1.
        1   -1    0    0  501    0  0.00000000000E+00  0.00000000000E+00 -0.24793593139E+04  0.24793593140E+04  0.50400001928E-02 0.  1.
    10030    2    1    2    0    0  0.00000000000E+00  0.00000000000E+00 -0.11064918163E+04  0.38522268116E+04  0.36898952923E+04 0.  0.
        4    1    3    3  502    0  0.77749494739E+03 -0.16564558403E+04 -0.30732867242E+03  0.18554775315E+04  0.12699999809E+01 0.  1.
       -4    1    3    3    0  502 -0.77749494739E+03  0.16564558403E+04 -0.79916314391E+03  0.19967492801E+04  0.12699999809E+01 0. -1.
</event>
<event>
 5   0  0.1151180E-06  0.2330101E+04  0.7818609E-02  0.8466146E-01
       -2   -1    0    0    0  501  0.00000000000E+00  0.00000000000E+00  0.55467485415E+03  0.55467485416E+03  0.25500000920E-02 0. -1.
        2   -1    0    0  501    0  0.00000000000E+00  0.00000000000E+00 -0.24470965747E+04  0.24470965747E+04  0.25500000920E-02 0.  1.
    10030    2    1    2    0    0  0.00000000000E+00  0.00000000000E+00 -0.18924217205E+04  0.30017714289E+04  0.23301012301E+04 0.  0.
        5    1    3    3  502    0 -0.42689466778E+03 -0.16106407528E+03  0.43477531267E+03  0.63026371959E+03  0.46999998093E+01 0. -1.
       -5    1    3    3    0  502  0.42689466778E+03  0.16106407528E+03 -0.23271970332E+04  0.23715077093E+04  0.46999998093E+01 0.  1.
</event>
<event>
 5   0  0.6287345E-07  0.2638484E+04  0.7818609E-02  0.8355245E-01
       -1   -1    0    0    0  501  0.00000000000E+00  0.00000000000E+00  0.13013737118E+04  0.13013737118E+04  0.50400001928E-02 0. -1.
        1   -1    0    0  501    0  0.00000000000E+00  0.00000000000E+00 -0.13373551983E+04  0.13373551983E+04  0.50400001928E-02 0.  1.
    10030    2    1    2    0    0  0.00000000000E+00  0.00000000000E+00 -0.35981486554E+02  0.26387289101E+04  0.26384835785E+04 0.  0.
        5    1    3    3  502    0  0.22119704179E+03 -0.24558663543E+03  0.12592873112E+04  0.13019475984E+04  0.46999998093E+01 0. -1.
       -5    1    3    3    0  502 -0.22119704179E+03  0.24558663543E+03 -0.12952687978E+04  0.13367813117E+04  0.46999998093E+01 0.  1.
</event>
<event>
 5   0  0.5679750E-07  0.2955052E+04  0.7818609E-02  0.8256684E-01
       -1   -1    0    0    0  501  0.00000000000E+00  0.00000000000E+00  0.87880238834E+03  0.87880238835E+03  0.50400001928E-02 0.  1.
        1   -1    0    0  501    0  0.00000000000E+00  0.00000000000E+00 -0.24841574849E+04  0.24841574849E+04  0.50400001928E-02 0. -1.
    10030    2    1    2    0    0  0.00000000000E+00  0.00000000000E+00 -0.16053550965E+04  0.33629598732E+04  0.29550523046E+04 0.  0.
        4    1    3    3  502    0 -0.22822708415E+03 -0.11162533534E+04 -0.18732633175E+04  0.21925387615E+04  0.12699999809E+01 0. -1.
       -4    1    3    3    0  502  0.22822708415E+03  0.11162533534E+04  0.26790822099E+03  0.11704211117E+04  0.12699999809E+01 0.  1.
</event>
<event>
 5   0  0.1724503E-06  0.3839863E+04  0.7818609E-02  0.8037654E-01
       -2   -1    0    0    0  501  0.00000000000E+00  0.00000000000E+00  0.18712755908E+04  0.18712755908E+04  0.25500000920E-02 0. -1.
        2   -1    0    0  501    0  0.00000000000E+00  0.00000000000E+00 -0.19698523607E+04  0.19698523607E+04  0.25500000920E-02 0.  1.
    10030    2    1    2    0    0  0.00000000000E+00  0.00000000000E+00 -0.98576769827E+02  0.38411279515E+04  0.38398628309E+04 0.  0.
        1    1    3    3  502    0 -0.10145285664E+04  0.92856210092E+03  0.12907950488E+04  0.18861727506E+04  0.50400001928E-02 0. -1.
       -1    1    3    3    0  502  0.10145285664E+04 -0.92856210092E+03 -0.13893718186E+04  0.19549552009E+04  0.50400001928E-02 0.  1.
</event>
<event>
 5   0  0.6261598E-07  0.3767066E+04  0.7818609E-02  0.8053260E-01
        1   -1    0    0  501    0  0.00000000000E+00  0.00000000000E+00  0.24172413275E+04  0.24172413275E+04  0.50400001928E-02 0. -1.
       -1   -1    0    0    0  501  0.00000000000E+00  0.00000000000E+00 -0.14676630127E+04  0.14676630127E+04  0.50400001928E-02 0.  1.
    10030    2    1    2    0    0  0.00000000000E+00  0.00000000000E+00  0.94957831481E+03  0.38849043402E+04  0.37670655365E+04 0.  0.
        1    1    3    3  502    0  0.10413906709E+04  0.37056486314E+03  0.20475803593E+04  0.23268859394E+04  0.50400001928E-02 0. -1.
       -1    1    3    3    0  502 -0.10413906709E+04 -0.37056486314E+03 -0.10980020445E+04  0.15580184007E+04  0.50400001928E-02 0.  1.
</event>
<event>
 5   0  0.1184684E-06  0.3531705E+04  0.7818609E-02  0.8106317E-01
       -2   -1    0    0    0  501  0.00000000000E+00  0.00000000000E+00  0.13472759410E+04  0.13472759410E+04  0.25500000920E-02 0. -1.
        2   -1    0    0  501    0  0.00000000000E+00  0.00000000000E+00 -0.23144740024E+04  0.23144740024E+04  0.25500000920E-02 0.  1.
    10030    2    1    2    0    0  0.00000000000E+00  0.00000000000E+00 -0.96719806147E+03  0.36617499434E+04  0.35317050497E+04 0.  0.
        4    1    3    3  502    0  0.56041840392E+03  0.13407266786E+04  0.55664761825E+03  0.15561089287E+04  0.12699999809E+01 0. -1.
       -4    1    3    3    0  502 -0.56041840392E+03 -0.13407266786E+04 -0.15238456797E+04  0.21056410147E+04  0.12699999809E+01 0.  1.
</event>
<event>
 5   0  0.1685793E-06  0.3505576E+04  0.7818609E-02  0.8112470E-01
       -2   -1    0    0    0  501  0.00000000000E+00  0.00000000000E+00  0.16709896392E+04  0.16709896392E+04  0.25500000920E-02 0.  1.
        2   -1    0    0  501    0  0.00000000000E+00  0.00000000000E+00 -0.18385900414E+04  0.18385900414E+04  0.25500000920E-02 0. -1.
    10030    2    1    2    0    0  0.00000000000E+00  0.00000000000E+00 -0.16760040225E+03  0.35095796806E+04  0.35055755076E+04 0.  0.
        3    1    3    3  502    0  0.81040493604E+03  0.15486508957E+04 -0.21505732639E+03  0.17610580402E+04  0.10100000352E+00 0.  1.
       -3    1    3    3    0  502 -0.81040493604E+03 -0.15486508957E+04  0.47456924138E+02  0.17485216404E+04  0.10100000352E+00 0. -1.
</event>
<event>
 5   0  0.1680194E-06  0.2622206E+04  0.7818609E-02  0.8360697E-01
        2   -1    0    0  501    0  0.00000000000E+00  0.00000000000E+00  0.20191333618E+04  0.20191333618E+04  0.25500000920E-02 0. -1.
       -2   -1    0    0    0  501  0.00000000000E+00  0.00000000000E+00 -0.85135063637E+03  0.85135063638E+03  0.25500000920E-02 0.  1.
    10030    2    1    2    0    0  0.00000000000E+00  0.00000000000E+00  0.11677827255E+04  0.28704839982E+04  0.26222055393E+04 0.  0.
        2    1    3    3  502    0  0.45139802292E+03 -0.11556308814E+04  0.11978245333E+03  0.12464312036E+04  0.25500000920E-02 0. -1.
       -2    1    3    3    0  502 -0.45139802292E+03  0.11556308814E+04  0.10480002721E+04  0.16240527946E+04  0.25500000920E-02 0.  1.
</event>
<event>
 5   0  0.6186440E-07  0.3623929E+04  0.7818609E-02  0.8085032E-01
       -1   -1    0    0    0  501  0.00000000000E+00  0.00000000000E+00  0.13551681281E+04  0.13551681281E+04  0.50400001928E-02 0.  1.
        1   -1    0    0  501    0  0.00000000000E+00  0.00000000000E+00 -0.24227366415E+04  0.24227366415E+04  0.50400001928E-02 0. -1.
    10030    2    1    2    0    0  0.00000000000E+00  0.00000000000E+00 -0.10675685134E+04  0.37779047696E+04  0.36239290718E+04 0.  0.
        3    1    3    3  502    0 -0.59996472839E+03 -0.31911711761E+03 -0.22848616697E+04  0.23837756333E+04  0.10100000352E+00 0. -1.
       -3    1    3    3    0  502  0.59996472839E+03  0.31911711761E+03  0.12172931563E+04  0.13941291363E+04  0.10100000352E+00 0.  1.
</event>
<event>
 5   0  0.5679750E-07  0.2667050E+04  0.7818609E-02  0.8345776E-01
        1   -1    0    0  501    0  0.00000000000E+00  0.00000000000E+00  0.13694427386E+04  0.13694427386E+04  0.50400001928E-02 0. -1.
       -1   -1    0    0    0  501  0.00000000000E+00  0.00000000000E+00 -0.12985496298E+04  0.12985496298E+04  0.50400001928E-02 0.  1.
    10030    2    1    2    0    0  0.00000000000E+00  0.00000000000E+00  0.70893108792E+02  0.26679923684E+04  0.26670503267E+04 0.  0.
        4    1    3    3  502    0  0.12851198566E+04 -0.32126374235E+03  0.18894230619E+03  0.13380748282E+04  0.12699999809E+01 0. -1.
       -4    1    3    3    0  502 -0.12851198566E+04  0.32126374235E+03 -0.11804919740E+03  0.13299175402E+04  0.12699999809E+01 0.  1.
</event>
<event>
 5   0  0.1184684E-06  0.2958560E+04  0.7818609E-02  0.8255664E-01
        2   -1    0    0  501    0  0.00000000000E+00  0.00000000000E+00  0.16274602658E+04  0.16274602658E+04  0.25500000920E-02 0.  1.
       -2   -1    0    0    0  501  0.00000000000E+00  0.00000000000E+00 -0.13445919154E+04  0.13445919154E+04  0.25500000920E-02 0. -1.
    10030    2    1    2    0    0  0.00000000000E+00  0.00000000000E+00  0.28286835033E+03  0.29720521812E+04  0.29585604040E+04 0.  0.
        4    1    3    3  502    0 -0.10464582321E+04  0.33998504440E+01 -0.90888721060E+03  0.13860605921E+04  0.12699999809E+01 0. -1.
       -4    1    3    3    0  502  0.10464582321E+04 -0.33998504440E+01  0.11917555609E+04  0.15859915890E+04  0.12699999809E+01 0.  1.
</event>
<event>
 5   0  0.1184684E-06  0.3670242E+04  0.7818609E-02  0.8074589E-01
        2   -1    0    0  501    0  0.00000000000E+00  0.00000000000E+00  0.12818019683E+04  0.12818019683E+04  0.25500000920E-02 0. -1.
       -2   -1    0    0    0  501  0.00000000000E+00  0.00000000000E+00 -0.26272927147E+04  0.26272927147E+04  0.25500000920E-02 0.  1.
    10030    2    1    2    0    0  0.00000000000E+00  0.00000000000E+00 -0.13454907465E+04  0.39090946830E+04  0.36702419391E+04 0.  0.
        4    1    3    3  502    0  0.64893737243E+03 -0.17159585515E+04 -0.72077905884E+03  0.19710802947E+04  0.12699999809E+01 0. -1.
       -4    1    3    3    0  502 -0.64893737243E+03  0.17159585515E+04 -0.62471168761E+03  0.19380143883E+04  0.12699999809E+01 0.  1.
</event>
<event>
 5   0  0.1151180E-06  0.3757421E+04  0.7818609E-02  0.8055354E-01
       -2   -1    0    0    0  501  0.00000000000E+00  0.00000000000E+00  0.26858842693E+04  0.26858842693E+04  0.25500000920E-02 0.  1.
        2   -1    0    0  501    0  0.00000000000E+00  0.00000000000E+00 -0.13141123694E+04  0.13141123694E+04  0.25500000920E-02 0. -1.
    10030    2    1    2    0    0  0.00000000000E+00  0.00000000000E+00  0.13717718999E+04  0.39999966387E+04  0.37574213184E+04 0.  0.
        5    1    3    3  502    0 -0.86623832979E+03  0.19433220150E+03  0.24484940494E+04  0.26044728927E+04  0.46999998093E+01 0.  1.
       -5    1    3    3    0  502  0.86623832979E+03 -0.19433220150E+03 -0.10767221495E+04  0.13955237460E+04  0.46999998093E+01 0. -1.
</event>
<event>
 5   0  0.1724503E-06  0.3691419E+04  0.7818609E-02  0.8069866E-01
       -2   -1    0    0    0  501  0.00000000000E+00  0.00000000000E+00  0.23284595308E+04  0.23284595308E+04  0.25500000920E-02 0.  1.
        2   -1    0    0  501    0  0.00000000000E+00  0.00000000000E+00 -0.14630463118E+04  0.14630463118E+04  0.25500000920E-02 0. -1.
    10030    2    1    2    0    0  0.00000000000E+00  0.00000000000E+00  0.86541321899E+03  0.37915058426E+04  0.36914193090E+04 0.  0.
        1    1    3    3  502    0 -0.14660145567E+04 -0.46274190727E+03  0.14818289950E+04  0.21352156621E+04  0.50400001928E-02 0. -1.
       -1    1    3    3    0  502  0.14660145567E+04  0.46274190727E+03 -0.61641577600E+03  0.16562901805E+04  0.50400001928E-02 0.  1.
</event>
<event>
 5   0  0.6287345E-07  0.2250914E+04  0.7818609E-02  0.8497530E-01
        1   -1    0    0  501    0  0.00000000000E+00  0.00000000000E+00  0.14773085987E+04  0.14773085987E+04  0.50400001928E-02 0. -1.
       -1   -1    0    0    0  501  0.00000000000E+00  0.00000000000E+00 -0.85740639330E+03  0.85740639331E+03  0.50400001928E-02 0.  1.
    10030    2    1    2    0    0  0.00000000000E+00  0.00000000000E+00  0.61990220542E+03  0.23347149920E+04  0.22509143364E+04 0.  0.
        5    1    3    3  502    0 -0.86749027777E+02  0.40173606502E+03  0.13966759645E+04  0.14558994126E+04  0.46999998093E+01 0. -1.
       -5    1    3    3    0  502  0.86749027777E+02 -0.40173606502E+03 -0.77677375913E+03  0.87881557941E+03  0.46999998093E+01 0.  1.
</event>
<event>
 5   0  0.1184684E-06  0.2798287E+04  0.7818609E-02  0.8303800E-01
        2   -1    0    0  501    0  0.00000000000E+00  0.00000000000E+00  0.14918550358E+04  0.14918550358E+04  0.25500000920E-02 0.  1.
       -2   -1    0    0    0  501  0.00000000000E+00  0.00000000000E+00 -0.13121935139E+04  0.13121935139E+04  0.25500000920E-02 0. -1.
    10030    2    1    2    0    0  0.00000000000E+00  0.00000000000E+00  0.17966152193E+03  0.28040485497E+04  0.27982869772E+04 0.  0.
        4    1    3    3  502    0 -0.12762946063E+04 -0.15910260446E+03 -0.46208392997E+03  0.13666618938E+04  0.12699999809E+01 0. -1.
       -4    1    3    3    0  502  0.12762946063E+04  0.15910260446E+03  0.64174545191E+03  0.14373866559E+04  0.12699999809E+01 0.  1.
</event>
<event>
 5   0  0.6287345E-07  0.1952458E+04  0.7818609E-02  0.8629177E-01
       -1   -1    0    0    0  501  0.00000000000E+00  0.00000000000E+00  0.82062315818E+03  0.82062315820E+03  0.50400001928E-02 0.  1.
        1   -1    0    0  501    0  0.00000000000E+00  0.00000000000E+00 -0.11613404480E+04  0.11613404481E+04  0.50400001928E-02 0. -1.
    10030    2    1    2    0    0  0.00000000000E+00  0.00000000000E+00 -0.34071728986E+03  0.19819636062E+04  0.19524578010E+04 0.  0.
        5    1    3    3  502    0 -0.12105978352E+03  0.62342262831E+03 -0.92297344164E+03  0.11203630254E+04  0.46999998093E+01 0. -1.
       -5    1    3    3    0  502  0.12105978352E+03 -0.62342262831E+03  0.58225615177E+03  0.86160058087E+03  0.46999998093E+01 0.  1.
</event>
<event>
 5   0  0.6186440E-07  0.2400199E+04  0.7818609E-02  0.8439429E-01
       -1   -1    0    0    0  501  0.00000000000E+00  0.00000000000E+00  0.55710001736E+03  0.55710001739E+03  0.50400001928E-02 0.  1.
        1   -1    0    0  501    0  0.00000000000E+00  0.00000000000E+00 -0.25852419388E+04  0.25852419388E+04  0.50400001928E-02 0. -1.
    10030    2    1    2    0    0  0.00000000000E+00  0.00000000000E+00 -0.20281419214E+04  0.31423419562E+04  0.24001985993E+04 0.  0.
        3    1    3    3  502    0 -0.42172624155E+03 -0.74847988264E+03  0.82976171447E+02  0.86311077664E+03  0.10100000352E+00 0.  1.
       -3    1    3    3    0  502  0.42172624155E+03  0.74847988264E+03 -0.21111180929E+04  0.22792311796E+04  0.10100000352E+00 0. -1.
</event>
<event>
 5   0  0.1151180E-06  0.3562830E+04  0.7818609E-02  0.8099059E-01
       -2   -1    0    0    0  501  0.00000000000E+00  0.00000000000E+00  0.15773843578E+04  0.15773843578E+04  0.25500000920E-02 0.  1.
        2   -1    0    0  501    0  0.00000000000E+00  0.00000000000E+00 -0.20118359903E+04  0.20118359903E+04  0.25500000920E-02 0. -1.
    10030    2    1    2    0    0  0.00000000000E+00  0.00000000000E+00 -0.43445163251E+03  0.35892203481E+04  0.35628295618E+04 0.  0.
        5    1    3    3  502    0  0.60674152250E+03  0.40084534649E+03  0.14210439669E+04  0.15963083389E+04  0.46999998093E+01 0.  1.
       -5    1    3    3    0  502 -0.60674152250E+03 -0.40084534649E+03 -0.18554955994E+04  0.19929120092E+04  0.46999998093E+01 0. -1.
</event>
<event>
 5   0  0.6287345E-07  0.3761368E+04  0.7818609E-02  0.8054496E-01
        1   -1    0    0  501    0  0.00000000000E+00  0.00000000000E+00  0.26407499617E+04  0.26407499617E+04  0.50400001928E-02 0. -1.
       -1   -1    0    0    0  501  0.00000000000E+00  0.00000000000E+00 -0.13393817279E+04  0.13393817279E+04  0.50400001928E-02 0.  1.
    10030    2    1    2    0    0  0.00000000000E+00  0.00000000000E+00  0.13013682338E+04  0.39801316896E+04  0.37613679675E+04 0.  0.
        5    1    3    3  502    0 -0.11567839099E+03 -0.93461646765E+03 -0.10718964079E+04  0.14268403664E+04  0.46999998093E+01 0.  1.
       -5    1    3    3    0  502  0.11567839099E+03  0.93461646765E+03  0.23732646417E+04  0.25532913233E+04  0.46999998093E+01 0. -1.
</event>
<event>
 5   0  0.1184684E-06  0.2103570E+04  0.7818609E-02  0.8559672E-01
       -2   -1    0    0    0  501  0.00000000000E+00  0.00000000000E+00  0.10418689659E+04  0.10418689659E+04  0.25500000920E-02 0.  1.
        2   -1    0    0  501    0  0.00000000000E+00  0.00000000000E+00 -0.10617957992E+04  0.10617957992E+04  0.25500000920E-02 0. -1.
    10030    2    1    2    0    0  0.00000000000E+00  0.00000000000E+00 -0.19926833335E+02  0.21036647651E+04  0.21035703852E+04 0.  0.
        4    1    3    3  502    0 -0.83198620512E+03  0.26005902066E+03 -0.59856330168E+03  0.10574078583E+04  0.12699999809E+01 0. -1.
       -4    1    3    3    0  502  0.83198620512E+03 -0.26005902066E+03  0.57863646834E+03  0.10462569068E+04  0.12699999809E+01 0.  1.
</event>
<event>
 5   0  0.1724503E-06  0.3760072E+04  0.7818609E-02  0.8054778E-01
        2   -1    0    0  501    0  0.00000000000E+00  0.00000000000E+00  0.29219218587E+04  0.29219218587E+04  0.25500000920E-02 0.  1.
       -2   -1    0    0    0  501  0.00000000000E+00  0.00000000000E+00 -0.12096611301E+04  0.12096611301E+04  0.25500000920E-02 0. -1.
    10030    2    1    2    0    0  0.00000000000E+00  0.00000000000E+00  0.17122607285E+04  0.41315829888E+04  0.37600719662E+04 0.  0.
        1    1    3    3  502    0  0.10289343684E+04 -0.75150080767E+03 -0.66287494286E+03  0.14362668931E+04  0.50400001928E-02 0. -1.
       -1    1    3    3    0  502 -0.10289343684E+04  0.75150080767E+03  0.23751356714E+04  0.26953160957E+04  0.50400001928E-02 0.  1.
</event>
<event>
 5   0  0.6287345E-07  0.3646795E+04  0.7818609E-02  0.8079856E-01
       -1   -1    0    0    0  501  0.00000000000E+00  0.00000000000E+00  0.15895502025E+04  0.15895502025E+04  0.50400001928E-02 0. -1.
        1   -1    0    0  501    0  0.00000000000E+00  0.00000000000E+00 -0.20916476997E+04  0.20916476997E+04  0.50400001928E-02 0.  1.
    10030    2    1    2    0    0  0.00000000000E+00  0.00000000000E+00 -0.50209749717E+03  0.36811979023E+04  0.36467953190E+04 0.  0.
        5    1    3    3  502    0 -0.16937839106E+04 -0.48221017266E+03  0.22598352223E+03  0.17755340686E+04  0.46999998093E+01 0. -1.
       -5    1    3    3    0  502  0.16937839106E+04  0.48221017266E+03 -0.72808101940E+03  0.19056638337E+04  0.46999998093E+01 0.  1.
</event>
<event>
 5   0  0.1680194E-06  0.2850165E+04  0.7818609E-02  0.8287861E-01
        2   -1    0    0  501    0  0.00000000000E+00  0.00000000000E+00  0.14580015497E+04  0.14580015497E+04  0.25500000920E-02 0. -1.
       -2   -1    0    0    0  501  0.00000000000E+00  0.00000000000E+00 -0.13929063107E+04  0.13929063107E+04  0.25500000920E-02 0.  1.
    10030    2    1    2    0    0  0.00000000000E+00  0.00000000000E+00  0.65095238999E+02  0.28509078603E+04  0.28501645984E+04 0.  0.
        2    1    3    3  502    0  0.53973969471E+02  0.10080719394E+04  0.10386614713E+04  0.14484266900E+04  0.25500000920E-02 0. -1.
       -2    1    3    3    0  502 -0.53973969471E+02 -0.10080719394E+04 -0.97356623227E+03  0.14024811703E+04  0.25500000920E-02 0.  1.
</event>
<event>
 5   0  0.6287345E-07  0.2311515E+04  0.7818609E-02  0.8473395E-01
       -1   -1    0    0    0  501  0.00000000000E+00  0.00000000000E+00  0.15585614868E+04  0.15585614868E+04  0.50400001928E-02 0.  1.
        1   -1    0    0  501    0  0.00000000000E+00  0.00000000000E+00 -0.85705645003E+03  0.85705645005E+03  0.50400001928E-02 0. -1.
    10030    2    1    2    0    0  0.00000000000E+00  0.00000000000E+00  0.70150503674E+03  0.24156179368E+04  0.23115148064E+04 0.  0.
        5    1    3    3  502    0 -0.16885210338E+02 -0.79772493977E+03  0.12245325516E+04  0.14615581582E+04  0.46999998093E+01 0.  1.
       -5    1    3    3    0  502  0.16885210338E+02  0.79772493977E+03 -0.52302751488E+03  0.95405977862E+03  0.46999998093E+01 0. -1.
</event>
<event>
 5   0  0.1184684E-06  0.3643555E+04  0.7818609E-02  0.8080587E-01
       -2   -1    0    0    0  501  0.00000000000E+00  0.00000000000E+00  0.14963488510E+04  0.14963488510E+04  0.25500000920E-02 0. -1.
        2   -1    0    0  501    0  0.00000000000E+00  0.00000000000E+00 -0.22179813956E+04  0.22179813956E+04  0.25500000920E-02 0.  1.
    10030    2    1    2    0    0  0.00000000000E+00  0.00000000000E+00 -0.72163254458E+03  0.37143302466E+04  0.36435553587E+04 0.  0.
        4    1    3    3  502    0  0.88443699169E+03 -0.63125075006E+03  0.11298343028E+04  0.15675565274E+04  0.12699999809E+01 0. -1.
       -4    1    3    3    0  502 -0.88443699169E+03  0.63125075006E+03 -0.18514668474E+04  0.21467737193E+04  0.12699999809E+01 0.  1.
</event>
<event>
 5   0  0.5679750E-07  0.3411387E+04  0.7818609E-02  0.8135117E-01
        1   -1    0    0  501    0  0.00000000000E+00  0.00000000000E+00  0.11881200334E+04  0.11881200334E+04  0.50400001928E-02 0. -1.
       -1   -1    0    0    0  501  0.00000000000E+00  0.00000000000E+00 -0.24487341938E+04  0.24487341938E+04  0.50400001928E-02 0.  1.
    10030    2    1    2    0    0  0.00000000000E+00  0.00000000000E+00 -0.12606141604E+04  0.36368542273E+04  0.34113869040E+04 0.  0.
        4    1    3    3  502    0  0.15800044983E+04 -0.55834199535E+03 -0.29111445227E+03  0.17008554423E+04  0.12699999809E+01 0.  1.
       -4    1    3    3    0  502 -0.15800044983E+04  0.55834199535E+03 -0.96949970813E+03  0.19359987850E+04  0.12699999809E+01 0. -1.
</event>
<event>
 5   0  0.1680194E-06  0.3461108E+04  0.7818609E-02  0.8123069E-01
        2   -1    0    0  501    0  0.00000000000E+00  0.00000000000E+00  0.23988639136E+04  0.23988639136E+04  0.25500000920E-02 0. -1.
       -2   -1    0    0    0  501  0.00000000000E+00  0.00000000000E+00 -0.12484315310E+04  0.12484315310E+04  0.25500000920E-02 0.  1.
    10030    2    1    2    0    0  0.00000000000E+00  0.00000000000E+00  0.11504323826E+04  0.36472954446E+04  0.34611081163E+04 0.  0.
        2    1    3    3  502    0  0.13252214321E+03 -0.26618760460E+03 -0.12213094709E+04  0.12569863894E+04  0.25500000920E-02 0.  1.
       -2    1    3    3    0  502 -0.13252214321E+03  0.26618760460E+03  0.23717418536E+04  0.23903090552E+04  0.25500000920E-02 0. -1.
</event>
<event>
 5   0  0.6186440E-07  0.2297136E+04  0.7818609E-02  0.8479051E-01
        1   -1    0    0  501    0  0.00000000000E+00  0.00000000000E+00  0.19456524810E+04  0.19456524810E+04  0.50400001928E-02 0. -1.
       -1   -1    0    0    0  501  0.00000000000E+00  0.00000000000E+00 -0.67802871161E+03  0.67802871163E+03  0.50400001928E-02 0.  1.
    10030    2    1    2    0    0  0.00000000000E+00  0.00000000000E+00  0.12676237694E+04  0.26236811927E+04  0.22971358210E+04 0.  0.
        3    1    3    3  502    0  0.59437811401E+03 -0.97155104077E+03  0.46435903084E+03  0.12299699537E+04  0.10100000352E+00 0. -1.
       -3    1    3    3    0  502 -0.59437811401E+03  0.97155104077E+03  0.80326473859E+03  0.13937112390E+04  0.10100000352E+00 0.  1.
</event>
<event>
 5   0  0.6287345E-07  0.1869221E+04  0.7818609E-02  0.8670330E-01
       -1   -1    0    0    0  501  0.00000000000E+00  0.00000000000E+00  0.16889678320E+04  0.16889678320E+04  0.50400001928E-02 0. -1.
        1   -1    0    0  501    0  0.00000000000E+00  0.00000000000E+00 -0.51717808973E+03  0.51717808976E+03  0.50400001928E-02 0.  1.
    10030    2    1    2    0    0  0.00000000000E+00  0.00000000000E+00  0.11717897423E+04  0.22061459218E+04  0.18692213962E+04 0.  0.
        5    1    3    3  502    0 -0.11062925268E+03 -0.87539763285E+03  0.22228018125E+03  0.90993978708E+03  0.46999998093E+01 0.  1.
       -5    1    3    3    0  502  0.11062925268E+03  0.87539763285E+03  0.94950956105E+03  0.12962061347E+04  0.46999998093E+01 0. -1.
</event>
<event>
 5   0  0.5679750E-07  0.2235557E+04  0.7818609E-02  0.8503773E-01
        1   -1    0    0  501    0  0.00000000000E+00  0.00000000000E+00  0.77759487813E+03  0.77759487815E+03  0.50400001928E-02 0.  1.
       -1   -1    0    0    0  501  0.00000000000E+00  0.00000000000E+00 -0.16067861503E+04  0.16067861503E+04  0.50400001928E-02 0. -1.
    10030    2    1    2    0    0  0.00000000000E+00  0.00000000000E+00 -0.82919127212E+03  0.23843810284E+04  0.22355569156E+04 0.  0.
        4    1    3    3  502    0 -0.54421917854E+03  0.85886187376E+03 -0.90984417540E+03  0.13644179231E+04  0.12699999809E+01 0. -1.
       -4    1    3    3    0  502  0.54421917854E+03 -0.85886187376E+03  0.80652903275E+02  0.10199631053E+04  0.12699999809E+01 0.  1.
</event>
<event>
 5   0  0.1151180E-06  0.3633384E+04  0.7818609E-02  0.8082887E-01
        2   -1    0    0  501    0  0.00000000000E+00  0.00000000000E+00  0.11032738321E+04  0.11032738321E+04  0.25500000920E-02 0. -1.
       -2   -1    0    0    0  501  0.00000000000E+00  0.00000000000E+00 -0.29914334347E+04  0.29914334347E+04  0.25500000920E-02 0.  1.
    10030    2    1    2    0    0  0.00000000000E+00  0.00000000000E+00 -0.18881596026E+04  0.40947072667E+04  0.36333842235E+04 0.  0.
        5    1    3    3  502    0  0.14412149383E+03  0.24801308302E+03  0.10775845358E+04  0.11151197318E+04  0.46999998093E+01 0. -1.
       -5    1    3    3    0  502 -0.14412149383E+03 -0.24801308302E+03 -0.29657441384E+04  0.29795875350E+04  0.46999998093E+01 0.  1.
</event>
<event>
 5   0  0.6186440E-07  0.3691999E+04  0.7818609E-02  0.8069737E-01
        1   -1    0    0  501    0  0.00000000000E+00  0.00000000000E+00  0.22586014746E+04  0.22586014746E+04  0.50400001928E-02 0. -1.
       -1   -1    0    0    0  501  0.00000000000E+00  0.00000000000E+00 -0.15087715623E+04  0.15087715623E+04  0.50400001928E-02 0.  1.
    10030    2    1    2    0    0  0.00000000000E+00  0.00000000000E+00  0.74982991234E+03  0.37673730370E+04  0.36919987408E+04 0.  0.
        3    1    3    3  502    0 -0.44253973393E+03 -0.91575872698E+03 -0.11970743102E+04  0.15708094654E+04  0.10100000352E+00 0.  1.
       -3    1    3    3    0  502  0.44253973393E+03  0.91575872698E+03  0.19469042225E+04  0.21965635716E+04  0.10100000352E+00 0. -1.
</event>
<event>
 5   0  0.1724503E-06  0.3631127E+04  0.7818609E-02  0.8083399E-01
       -2   -1    0    0    0  501  0.00000000000E+00  0.00000000000E+00  0.10757009995E+04  0.10757009995E+04  0.25500000920E-02 0.  1.
        2   -1    0    0  501    0  0.00000000000E+00  0.00000000000E+00 -0.30642994408E+04  0.30642994408E+04  0.25500000920E-02 0. -1.
    10030    2    1    2    0    0  0.00000000000E+00  0.00000000000E+00 -0.19885984412E+04  0.41400004403E+04  0.36311265312E+04 0.  0.
        1    1    3    3  502    0  0.13879675369E+04 -0.15674182645E+03 -0.23166911689E+04  0.27051949756E+04  0.50400001928E-02 0. -1.
       -1    1    3    3    0  502 -0.13879675369E+04  0.15674182645E+03  0.32809272770E+03  0.14348054647E+04  0.50400001928E-02 0.  1.
</event>
<event>
 5   0  0.5679750E-07  0.2384042E+04  0.7818609E-02  0.8445502E-01
        1   -1    0    0  501    0  0.00000000000E+00  0.00000000000E+00  0.14924745256E+04  0.14924745256E+04  0.50400001928E-02 0.  1.
       -1   -1    0    0    0  501  0.00000000000E+00  0.00000000000E+00 -0.95205234135E+03  0.95205234137E+03  0.50400001928E-02 0. -1.
    10030    2    1    2    0    0  0.00000000000E+00  0.00000000000E+00  0.54042218428E+03  0.24445268670E+04  0.23840418340E+04 0.  0.
        4    1    3    3  502    0 -0.52444474267E+03 -0.95337202860E+03  0.76933789810E+03  0.13326075669E+04  0.12699999809E+01 0.  1.
       -4    1    3    3    0  502  0.52444474267E+03  0.95337202860E+03 -0.22891571381E+03  0.11119193001E+04  0.12699999809E+01 0. -1.
</event>
<event>
 5   0  0.6261598E-07  0.3754709E+04  0.7818609E-02  0.8055945E-01
       -1   -1    0    0    0  501  0.00000000000E+00  0.00000000000E+00  0.18727990534E+04  0.18727990534E+04  0.50400001928E-02 0. -1.
        1   -1    0    0  501    0  0.00000000000E+00  0.00000000000E+00 -0.18819209280E+04  0.18819209280E+04  0.50400001928E-02 0.  1.
    10030    2    1    2    0    0  0.00000000000E+00  0.00000000000E+00 -0.91218745577E+01  0.37547199814E+04  0.37547089009E+04 0.  0.
        1    1    3    3  502    0  0.16659587345E+04  0.53000446651E+03  0.67964608982E+03  0.18756977494E+04  0.50400001928E-02 0. -1.
       -1    1    3    3    0  502 -0.16659587345E+04 -0.53000446651E+03 -0.68876796438E+03  0.18790222320E+04  0.50400001928E-02 0.  1.
</event>
<event>
 5   0  0.1685793E-06  0.3716143E+04  0.7818609E-02  0.8064394E-01
       -2   -1    0    0    0  501  0.00000000000E+00  0.00000000000E+00  0.17898058683E+04  0.17898058683E+04  0.25500000920E-02 0.  1.
        2   -1    0    0  501    0  0.00000000000E+00  0.00000000000E+00 -0.19289409535E+04  0.19289409535E+04  0.25500000920E-02 0. -1.
    10030    2    1    2    0    0  0.00000000000E+00  0.00000000000E+00 -0.13913508517E+03  0.37187468218E+04  0.37161430749E+04 0.  0.
        3    1    3    3  502    0  0.11014702457E+04  0.32086744460E+03  0.13930437533E+04  0.18046505279E+04  0.10100000352E+00 0.  1.
       -3    1    3    3    0  502 -0.11014702457E+04 -0.32086744460E+03 -0.15321788385E+04  0.19140962939E+04  0.10100000352E+00 0. -1.
</event>
<event>
 5   0  0.1685793E-06  0.3790840E+04  0.7818609E-02  0.8048123E-01
        2   -1    0    0  501    0  0.00000000000E+00  0.00000000000E+00  0.21861848280E+04  0.21861848280E+04  0.25500000920E-02 0. -1.
       -2   -1    0    0    0  501  0.00000000000E+00  0.00000000000E+00 -0.16433271261E+04  0.16433271261E+04  0.25500000920E-02 0.  1.
    10030    2    1    2    0    0  0.00000000000E+00  0.00000000000E+00  0.54285770192E+03  0.38295119541E+04  0.37908399230E+04 0.  0.
        3    1    3    3  502    0 -0.38547698976E+03  0.69786147136E+03 -0.14657104685E+04  0.16685054182E+04  0.10100000352E+00 0.  1.
       -3    1    3    3    0  502  0.38547698976E+03 -0.69786147136E+03  0.20085681704E+04  0.21610065359E+04  0.10100000352E+00 0. -1.
</event>
<event>
 5   0  0.1151180E-06  0.3867971E+04  0.7818609E-02  0.8031724E-01
       -2   -1    0    0    0  501  0.00000000000E+00  0.00000000000E+00  0.15288885582E+04  0.15288885582E+04  0.25500000920E-02 0.  1.
        2   -1    0    0  501    0  0.00000000000E+00  0.00000000000E+00 -0.24464181119E+04  0.24464181119E+04  0.25500000920E-02 0. -1.
    10030    2    1    2    0    0  0.00000000000E+00  0.00000000000E+00 -0.91752955372E+03  0.39753066701E+04  0.38679713855E+04 0.  0.
        5    1    3    3  502    0  0.10441892280E+04 -0.25526203172E+03  0.11935771001E+04  0.16062808698E+04  0.46999998093E+01 0.  1.
       -5    1    3    3    0  502 -0.10441892280E+04  0.25526203172E+03 -0.21111066538E+04  0.23690258003E+04  0.46999998093E+01 0. -1.
</event>
<event>
 5   0  0.5875011E-07  0.3757122E+04  0.7818609E-02  0.8055419E-01
        1   -1    0    0  501    0  0.00000000000E+00  0.00000000000E+00  0.23534786147E+04  0.23534786147E+04  0.50400001928E-02 0. -1.
       -1   -1    0    0    0  501  0.00000000000E+00  0.00000000000E+00 -0.14994789726E+04  0.14994789726E+04  0.50400001928E-02 0.  1.
    10030    2    1    2    0    0  0.00000000000E+00  0.00000000000E+00  0.85399964208E+03  0.38529575873E+04  0.37571221408E+04 0.  0.
        2    1    3    3  502    0  0.88955240256E+03  0.16527969025E+04  0.50610773393E+03  0.19440128899E+04  0.25500000920E-02 0. -1.
       -2    1    3    3    0  502 -0.88955240256E+03 -0.16527969025E+04  0.34789190816E+03  0.19089446974E+04  0.25500000920E-02 0.  1.
</event>
<event>
 5   0  0.6186440E-07  0.1876935E+04  0.7818609E-02  0.8666423E-01
        1   -1    0    0  501    0  0.00000000000E+00  0.00000000000E+00  0.49470753765E+03  0.49470753767E+03  0.50400001928E-02 0. -1.
       -1   -1    0    0    0  501  0.00000000000E+00  0.00000000000E+00 -0.17802871469E+04  0.17802871469E+04  0.50400001928E-02 0.  1.
    10030    2    1    2    0    0  0.00000000000E+00  0.00000000000E+00 -0.12855796092E+04  0.22749946845E+04  0.18769352368E+04 0.  0.
        3    1    3    3  502    0  0.61583815456E+03 -0.87679421013E+02  0.20892969777E+03  0.65619809684E+03  0.10100000352E+00 0. -1.
       -3    1    3    3    0  502 -0.61583815456E+03  0.87679421013E+02 -0.14945093070E+04  0.16187965877E+04  0.10100000352E+00 0.  1.
</event>
<event>
 5   0  0.5875011E-07  0.2900414E+04  0.7818609E-02  0.8272754E-01
        1   -1    0    0  501    0  0.00000000000E+00  0.00000000000E+00  0.16008433576E+04  0.16008433576E+04  0.50400001928E-02 0.  1.
       -1   -1    0    0    0  501  0.00000000000E+00  0.00000000000E+00 -0.13137449765E+04  0.13137449766E+04  0.50400001928E-02 0. -1.
    10030    2    1    2    0    0  0.00000000000E+00  0.00000000000E+00  0.28709838103E+03  0.29145883341E+04  0.29004137079E+04 0.  0.
        2    1    3    3  502    0  0.42452611355E+03  0.11828964905E+04  0.87071079570E+03  0.15289224369E+04  0.25500000920E-02 0. -1.
       -2    1    3    3    0  502 -0.42452611355E+03 -0.11828964905E+04 -0.58361241468E+03  0.13856658972E+04  0.25500000920E-02 0.  1.
</event>
<event>
 5   0  0.5679750E-07  0.3658458E+04  0.7818609E-02  0.8077231E-01
        1   -1    0    0  501    0  0.00000000000E+00  0.00000000000E+00  0.22909718533E+04  0.22909718533E+04  0.50400001928E-02 0.  1.
       -1   -1    0    0    0  501  0.00000000000E+00  0.00000000000E+00 -0.14605496709E+04  0.14605496709E+04  0.50400001928E-02 0. -1.
    10030    2    1    2    0    0  0.00000000000E+00  0.00000000000E+00  0.83042218236E+03  0.37515215243E+04  0.36584577005E+04 0.  0.
        4    1    3    3  502    0  0.11854120220E+04  0.56617775101E+03  0.17205085365E+04  0.21646963170E+04  0.12699999809E+01 0.  1.
       -4    1    3    3    0  502 -0.11854120220E+04 -0.56617775101E+03 -0.89008635413E+03  0.15868252073E+04  0.12699999809E+01 0. -1.
</event>
<event>
 5   0  0.6287345E-07  0.2838194E+04  0.7818609E-02  0.8291508E-01
       -1   -1    0    0    0  501  0.00000000000E+00  0.00000000000E+00  0.14092395760E+04  0.14092395760E+04  0.50400001928E-02 0.  1.
        1   -1    0    0  501    0  0.00000000000E+00  0.00000000000E+00 -0.14290232412E+04  0.14290232412E+04  0.50400001928E-02 0. -1.
    10030    2    1    2    0    0  0.00000000000E+00  0.00000000000E+00 -0.19783665144E+02  0.28382628172E+04  0.28381938669E+04 0.  0.
        5    1    3    3  502    0 -0.30636460286E+03 -0.11533262460E+04  0.75810684836E+03  0.14137781944E+04  0.46999998093E+01 0. -1.
       -5    1    3    3    0  502  0.30636460286E+03  0.11533262460E+04 -0.77789051351E+03  0.14244846228E+04  0.46999998093E+01 0.  1.
</event>
<event>
 5   0  0.5875011E-07  0.2161764E+04  0.7818609E-02  0.8534513E-01
        1   -1    0    0  501    0  0.00000000000E+00  0.00000000000E+00  0.14617009837E+04  0.14617009837E+04  0.50400001928E-02 0.  1.
       -1   -1    0    0    0  501  0.00000000000E+00  0.00000000000E+00 -0.79927834081E+03  0.79927834083E+03  0.50400001928E-02 0. -1.
    10030    2    1    2    0    0  0.00000000000E+00  0.00000000000E+00  0.66242264289E+03  0.22609793245E+04  0.21617640362E+04 0.  0.
        2    1    3    3  502    0 -0.31814818408E+03 -0.81781649766E+03  0.99125662499E+03  0.13238700040E+04  0.25500000920E-02 0.  1.
       -2    1    3    3    0  502  0.31814818408E+03  0.81781649766E+03 -0.32883398209E+03  0.93710932055E+03  0.25500000920E-02 0. -1.
</event>
<event>
 5   0  0.1685793E-06  0.3563119E+04  0.7818609E-02  0.8098992E-01
       -2   -1    0    0    0  501  0.00000000000E+00  0.00000000000E+00  0.17599344517E+04  0.17599344517E+04  0.25500000920E-02 0.  1.
        2   -1    0    0  501    0  0.00000000000E+00  0.00000000000E+00 -0.18034504085E+04  0.18034504085E+04  0.25500000920E-02 0. -1.
    10030    2    1    2    0    0  0.00000000000E+00  0.00000000000E+00 -0.43515956816E+02  0.35633848602E+04  0.35631191425E+04 0.  0.
        3    1    3    3  502    0  0.68147584536E+03 -0.18590978572E+03  0.16139014315E+04  0.17617178029E+04  0.10100000352E+00 0.  1.
       -3    1    3    3    0  502 -0.68147584536E+03  0.18590978572E+03 -0.16574173883E+04  0.18016670573E+04  0.10100000352E+00 0. -1.
</event>
<event>
 5   0  0.6287345E-07  0.3632513E+04  0.7818609E-02  0.8083085E-01
        1   -1    0    0  501    0  0.00000000000E+00  0.00000000000E+00  0.21897836850E+04  0.21897836850E+04  0.50400001928E-02 0. -1.
       -1   -1    0    0    0  501  0.00000000000E+00  0.00000000000E+00 -0.15064442579E+04  0.15064442580E+04  0.50400001928E-02 0.  1.
    10030    2    1    2    0    0  0.00000000000E+00  0.00000000000E+00  0.68333942707E+03  0.36962279430E+04  0.36325126612E+04 0.  0.
        5    1    3    3  502    0  0.50018593336E+03 -0.16857031804E+04  0.80460445566E+03  0.19336989425E+04  0.46999998093E+01 0. -1.
       -5    1    3    3    0  502 -0.50018593336E+03  0.16857031804E+04 -0.12126502859E+03  0.17625290004E+04  0.46999998093E+01 0.  1.
</event>
<event>
 5   0  0.1685793E-06  0.3541239E+04  0.7818609E-02  0.8104086E-01
        2   -1    0    0  501    0  0.00000000000E+00  0.00000000000E+00  0.17355360335E+04  0.17355360335E+04  0.25500000920E-02 0.  1.
       -2   -1    0    0    0  501  0.00000000000E+00  0.00000000000E+00 -0.18064123403E+04  0.18064123403E+04  0.25500000920E-02 0. -1.
    10030    2    1    2    0    0  0.00000000000E+00  0.00000000000E+00 -0.70876306756E+02  0.35419483738E+04  0.35412391662E+04 0.  0.
        3    1    3    3  502    0 -0.14140277676E+04  0.10134748058E+04  0.29400295908E+03  0.17643818917E+04  0.10100000352E+00 0.  1.
       -3    1    3    3    0  502  0.14140277676E+04 -0.10134748058E+04 -0.36487926584E+03  0.17775664821E+04  0.10100000352E+00 0. -1.
</event>
<event>
 5   0  0.1151180E-06  0.3728298E+04  0.7818609E-02  0.8061719E-01
        2   -1    0    0  501    0  0.00000000000E+00  0.00000000000E+00  0.17813663099E+04  0.17813663099E+04  0.25500000920E-02 0. -1.
       -2   -1    0    0    0  501  0.00000000000E+00  0.00000000000E+00 -0.19507790031E+04  0.19507790031E+04  0.25500000920E-02 0.  1.
    10030    2    1    2    0    0  0.00000000000E+00  0.00000000000E+00 -0.16941269312E+03  0.37321453130E+04  0.37282982682E+04 0.  0.
        5    1    3    3  502    0 -0.69538022879E+03  0.71094493266E+03  0.14936366513E+04  0.17944271777E+04  0.46999998093E+01 0. -1.
       -5    1    3    3    0  502  0.69538022879E+03 -0.71094493266E+03 -0.16630493444E+04  0.19377181353E+04  0.46999998093E+01 0.  1.
</event>
<event>
 5   0  0.5679750E-07  0.2557194E+04  0.7818609E-02  0.8382889E-01
       -1   -1    0    0    0  501  0.00000000000E+00  0.00000000000E+00  0.97179148001E+03  0.97179148003E+03  0.50400001928E-02 0.  1.
        1   -1    0    0  501    0  0.00000000000E+00  0.00000000000E+00 -0.16822641419E+04  0.16822641419E+04  0.50400001928E-02 0. -1.
    10030    2    1    2    0    0  0.00000000000E+00  0.00000000000E+00 -0.71047266189E+03  0.26540556219E+04  0.25571937434E+04 0.  0.
        4    1    3    3  502    0 -0.12339024449E+04 -0.23791639258E+03 -0.11031270306E+03  0.12614634195E+04  0.12699999809E+01 0.  1.
       -4    1    3    3    0  502  0.12339024449E+04  0.23791639258E+03 -0.60015995882E+03  0.13925922025E+04  0.12699999809E+01 0. -1.
</event>
<event>
 5   0  0.1184684E-06  0.3740209E+04  0.7818609E-02  0.8059109E-01
       -2   -1    0    0    0  501  0.00000000000E+00  0.00000000000E+00  0.14282249514E+04  0.14282249514E+04  0.25500000920E-02 0.  1.
        2   -1    0    0  501    0  0.00000000000E+00  0.00000000000E+00 -0.24486980064E+04  0.24486980064E+04  0.25500000920E-02 0. -1.
    10030    2    1    2    0    0  0.00000000000E+00  0.00000000000E+00 -0.10204730550E+04  0.38769229578E+04  0.37402094012E+04 0.  0.
        4    1    3    3  502    0 -0.40677126254E+03 -0.33116790839E+03 -0.23708855663E+04  0.24282164288E+04  0.12699999809E+01 0. -1.
       -4    1    3    3    0  502  0.40677126254E+03  0.33116790839E+03  0.13504125113E+04  0.14487065290E+04  0.12699999809E+01 0.  1.
</event>
<event>
 5   0  0.1724503E-06  0.3828484E+04  0.7818609E-02  0.8040070E-01
       -2   -1    0    0    0  501  0.00000000000E+00  0.00000000000E+00  0.17131851077E+04  0.17131851077E+04  0.25500000920E-02 0. -1.
        2   -1    0    0  501    0  0.00000000000E+00  0.00000000000E+00 -0.21388948115E+04  0.21388948115E+04  0.25500000920E-02 0.  1.
    10030    2    1    2    0    0  0.00000000000E+00  0.00000000000E+00 -0.42570970377E+03  0.38520799192E+04  0.38284841585E+04 0.  0.
        1    1    3    3  502    0 -0.95855735658E+03 -0.15831196265E+04 -0.70497336281E+03  0.19804260652E+04  0.50400001928E-02 0.  1.
       -1    1    3    3    0  502  0.95855735658E+03  0.15831196265E+04  0.27926365904E+03  0.18716538539E+04  0.50400001928E-02 0. -1.
</event>
<event>
 5   0  0.5679750E-07  0.2600417E+04  0.7818609E-02  0.8368059E-01
        3   -1    0    0  501    0  0.00000000000E+00  0.00000000000E+00  0.94604528536E+03  0.94604529075E+03  0.10100000352E+00 0. -1.
       -3   -1    0    0    0  501  0.00000000000E+00  0.00000000000E+00 -0.17869571917E+04  0.17869571946E+04  0.10100000352E+00 0.  1.
    10030    2    1    2    0    0  0.00000000000E+00  0.00000000000E+00 -0.84091190639E+03  0.27330024853E+04  0.26004172263E+04 0.  0.
        5    1    3    3  502    0  0.11760159133E+04  0.33155998134E+03 -0.88761296908E+03  0.15102398228E+04  0.46999998093E+01 0.  1.
       -5    1    3    3    0  502 -0.11760159133E+04 -0.33155998134E+03  0.46701062693E+02  0.12227626625E+04  0.46999998093E+01 0. -1.
</event>
<event>
 5   0  0.6261598E-07  0.2408429E+04  0.7818609E-02  0.8436355E-01
       -1   -1    0    0    0  501  0.00000000000E+00  0.00000000000E+00  0.47021075374E+03  0.47021075377E+03  0.50400001928E-02 0.  1.
        1   -1    0    0  501    0  0.00000000000E+00  0.00000000000E+00 -0.30840044242E+04  0.30840044242E+04  0.50400001928E-02 0. -1.
    10030    2    1    2    0    0  0.00000000000E+00  0.00000000000E+00 -0.26137936705E+04  0.35542151780E+04  0.24084285706E+04 0.  0.
        1    1    3    3  502    0  0.93391983270E+03 -0.20089876809E+03 -0.23888927756E+04  0.25728146576E+04  0.50400001928E-02 0. -1.
       -1    1    3    3    0  502 -0.93391983270E+03  0.20089876809E+03 -0.22490089488E+03  0.98140052041E+03  0.50400001928E-02 0.  1.
</event>
<event>
 5   0  0.1184684E-06  0.3718508E+04  0.7818609E-02  0.8063872E-01
        2   -1    0    0  501    0  0.00000000000E+00  0.00000000000E+00  0.23395149466E+04  0.23395149466E+04  0.25500000920E-02 0.  1.
       -2   -1    0    0    0  501  0.00000000000E+00  0.00000000000E+00 -0.14775824490E+04  0.14775824490E+04  0.25500000920E-02 0. -1.
    10030    2    1    2    0    0  0.00000000000E+00  0.00000000000E+00  0.86193249763E+03  0.38170973956E+04  0.37185084237E+04 0.  0.
        4    1    3    3  502    0 -0.11920921368E+04  0.64190089679E+03  0.17389969184E+04  0.22039129563E+04  0.12699999809E+01 0.  1.
       -4    1    3    3    0  502  0.11920921368E+04 -0.64190089679E+03 -0.87706442078E+03  0.16131844393E+04  0.12699999809E+01 0. -1.
</event>
<event>
 5   0  0.1151180E-06  0.3649868E+04  0.7818609E-02  0.8079163E-01
       -2   -1    0    0    0  501  0.00000000000E+00  0.00000000000E+00  0.13911812146E+04  0.13911812146E+04  0.25500000920E-02 0. -1.
        2   -1    0    0  501    0  0.00000000000E+00  0.00000000000E+00 -0.23939252892E+04  0.23939252892E+04  0.25500000920E-02 0.  1.
    10030    2    1    2    0    0  0.00000000000E+00  0.00000000000E+00 -0.10027440746E+04  0.37851065038E+04  0.36498678833E+04 0.  0.
        5    1    3    3  502    0  0.47221678686E+02 -0.53718653071E+03 -0.23094056576E+04  0.23715344900E+04  0.46999998093E+01 0.  1.
       -5    1    3    3    0  502 -0.47221678686E+02  0.53718653071E+03  0.13066615830E+04  0.14135720138E+04  0.46999998093E+01 0. -1.
</event>
<event>
 5   0  0.1680194E-06  0.3582805E+04  0.7818609E-02  0.8094442E-01
        2   -1    0    0  501    0  0.00000000000E+00  0.00000000000E+00  0.13019943100E+04  0.13019943100E+04  0.25500000920E-02 0. -1.
       -2   -1    0    0    0  501  0.00000000000E+00  0.00000000000E+00 -0.24647752358E+04  0.24647752358E+04  0.25500000920E-02 0.  1.
    10030    2    1    2    0    0  0.00000000000E+00  0.00000000000E+00 -0.11627809258E+04  0.37667695458E+04  0.35828052319E+04 0.  0.
        2    1    3    3  502    0 -0.70005442374E+03  0.22850500592E+03 -0.22982854332E+04  0.24133807546E+04  0.25500000920E-02 0.  1.
       -2    1    3    3    0  502  0.70005442374E+03 -0.22850500592E+03  0.11355045074E+04  0.13533887912E+04  0.25500000920E-02 0. -1.
</event>
<event>
 5   0  0.5679750E-07  0.3758518E+04  0.7818609E-02  0.8055116E-01
       -1   -1    0    0    0  501  0.00000000000E+00  0.00000000000E+00  0.14691793562E+04  0.14691793562E+04  0.50400001928E-02 0. -1.
        1   -1    0    0  501    0  0.00000000000E+00  0.00000000000E+00 -0.24038011810E+04  0.24038011810E+04  0.50400001928E-02 0.  1.
    10030    2    1    2    0    0  0.00000000000E+00  0.00000000000E+00 -0.93462182474E+03  0.38729805372E+04  0.37585183632E+04 0.  0.
        4    1    3    3  502    0 -0.92164649168E+03 -0.87341451631E+03 -0.18949001655E+04  0.22809939551E+04  0.12699999809E+01 0.  1.
       -4    1    3    3    0  502  0.92164649168E+03  0.87341451631E+03  0.96027834081E+03  0.15919865821E+04  0.12699999809E+01 0. -1.
</event>
<event>
 5   0  0.1680194E-06  0.2323804E+04  0.7818609E-02  0.8468594E-01
       -2   -1    0    0    0  501  0.00000000000E+00  0.00000000000E+00  0.10640806006E+04  0.10640806006E+04  0.25500000920E-02 0.  1.
        2   -1    0    0  501    0  0.00000000000E+00  0.00000000000E+00 -0.12687164709E+04  0.12687164709E+04  0.25500000920E-02 0. -1.
    10030    2    1    2    0    0  0.00000000000E+00  0.00000000000E+00 -0.20463587027E+03  0.23327970715E+04  0.23238042812E+04 0.  0.
        2    1    3    3  502    0 -0.56509805750E+03  0.77472101119E+03 -0.76097294832E+03  0.12241765754E+04  0.25500000920E-02 0. -1.
       -2    1    3    3    0  502  0.56509805750E+03 -0.77472101119E+03  0.55633707806E+03  0.11086204960E+04  0.25500000920E-02 0.  1.
</event>
<event>
 5   0  0.1685793E-06  0.3581821E+04  0.7818609E-02  0.8094668E-01
       -2   -1    0    0    0  501  0.00000000000E+00  0.00000000000E+00  0.15723126142E+04  0.15723126142E+04  0.25500000920E-02 0. -1.
        2   -1    0    0  501    0  0.00000000000E+00  0.00000000000E+00 -0.20399002643E+04  0.20399002643E+04  0.25500000920E-02 0.  1.
    10030    2    1    2    0    0  0.00000000000E+00  0.00000000000E+00 -0.46758765010E+03  0.36122128784E+04  0.35818212782E+04 0.  0.
        3    1    3    3  502    0 -0.13579728702E+03  0.17040271881E+04 -0.77237705140E+03  0.18758240538E+04  0.10100000352E+00 0.  1.
       -3    1    3    3    0  502  0.13579728702E+03 -0.17040271881E+04  0.30478940130E+03  0.17363888247E+04  0.10100000352E+00 0. -1.
</event>
<event>
 5   0  0.1685793E-06  0.3165476E+04  0.7818609E-02  0.8197995E-01
       -2   -1    0    0    0  501  0.00000000000E+00  0.00000000000E+00  0.13062157407E+04  0.13062157407E+04  0.25500000920E-02 0.  1.
        2   -1    0    0  501    0  0.00000000000E+00  0.00000000000E+00 -0.19177994133E+04  0.19177994133E+04  0.25500000920E-02 0. -1.
    10030    2    1    2    0    0  0.00000000000E+00  0.00000000000E+00 -0.61158367258E+03  0.32240151540E+04  0.31654761292E+04 0.  0.
        3    1    3    3  502    0 -0.10265869587E+04  0.12040927366E+04 -0.26851347841E+03  0.16049360113E+04  0.10100000352E+00 0. -1.
       -3    1    3    3    0  502  0.10265869587E+04 -0.12040927366E+04 -0.34307019416E+03  0.16190791427E+04  0.10100000352E+00 0.  1.
</event>
<event>
 5   0  0.1151180E-06  0.3556488E+04  0.7818609E-02  0.8100532E-01
        2   -1    0    0  501    0  0.00000000000E+00  0.00000000000E+00  0.19802537492E+04  0.19802537492E+04  0.25500000920E-02 0.  1.
       -2   -1    0    0    0  501  0.00000000000E+00  0.00000000000E+00 -0.15968414818E+04  0.15968414818E+04  0.25500000920E-02 0. -1.
    10030    2    1    2    0    0  0.00000000000E+00  0.00000000000E+00  0.38341226740E+03  0.35770952310E+04  0.35564877793E+04 0.  0.
        5    1    3    3  502    0 -0.13629273906E+04  0.25218006449E+03  0.13121462896E+04  0.19086424055E+04  0.46999998093E+01 0.  1.
       -5    1    3    3    0  502  0.13629273906E+04 -0.25218006449E+03 -0.92873402216E+03  0.16684528255E+04  0.46999998093E+01 0. -1.
</event>
<event>
 5   0  0.5679750E-07  0.1850649E+04  0.7818609E-02  0.8679819E-01
       -1   -1    0    0    0  501  0.00000000000E+00  0.00000000000E+00  0.73377946532E+03  0.73377946534E+03  0.50400001928E-02 0. -1.
        1   -1    0    0  501    0  0.00000000000E+00  0.00000000000E+00 -0.11668701948E+04  0.11668701948E+04  0.50400001928E-02 0.  1.
    10030    2    1    2    0    0  0.00000000000E+00  0.00000000000E+00 -0.43309072947E+03  0.19006496601E+04  0.18506489539E+04 0.  0.
        4    1    3    3  502    0  0.87769307582E+03 -0.24278995791E+03 -0.48002754823E+02  0.91191993967E+03  0.12699999809E+01 0. -1.
       -4    1    3    3    0  502 -0.87769307582E+03  0.24278995791E+03 -0.38508797464E+03  0.98872972046E+03  0.12699999809E+01 0.  1.
</event>
<event>
 5   0  0.6287345E-07  0.2493132E+04  0.7818609E-02  0.8405436E-01
        1   -1    0    0  501    0  0.00000000000E+00  0.00000000000E+00  0.16591587544E+04  0.16591587544E+04  0.50400001928E-02 0.  1.
       -1   -1    0    0    0  501  0.00000000000E+00  0.00000000000E+00 -0.93657520189E+03  0.93657520190E+03  0.50400001928E-02 0. -1.
    10030    2    1    2    0    0  0.00000000000E+00  0.00000000000E+00  0.72258355251E+03  0.25957339563E+04  0.24931321228E+04 0.  0.
        5    1    3    3  502    0  0.30555593845E+03  0.10468733250E+04  0.98995959578E+03  0.14728714409E+04  0.46999998093E+01 0.  1.
       -5    1    3    3    0  502 -0.30555593845E+03 -0.10468733250E+04 -0.26737604327E+03  0.11228625154E+04  0.46999998093E+01 0. -1.
</event>
<event>
 5   0  0.5679750E-07  0.2455549E+04  0.7818609E-02  0.8418995E-01
       -1   -1    0    0    0  501  0.00000000000E+00  0.00000000000E+00  0.10443287082E+04  0.10443287082E+04  0.50400001928E-02 0.  1.
        1   -1    0    0  501    0  0.00000000000E+00  0.00000000000E+00 -0.14434439878E+04  0.14434439878E+04  0.50400001928E-02 0. -1.
    10030    2    1    2    0    0  0.00000000000E+00  0.00000000000E+00 -0.39911527952E+03  0.24877726960E+04  0.24555488146E+04 0.  0.
        4    1    3    3  502    0 -0.24597375748E+03 -0.50565234393E+03  0.90620507341E+03  0.10664879888E+04  0.12699999809E+01 0.  1.
       -4    1    3    3    0  502  0.24597375748E+03  0.50565234393E+03 -0.13053203529E+04  0.14212847072E+04  0.12699999809E+01 0. -1.
</event>
<event>
 5   0  0.6261598E-07  0.3645914E+04  0.7818609E-02  0.8080055E-01
       -1   -1    0    0    0  501  0.00000000000E+00  0.00000000000E+00  0.15587907664E+04  0.15587907664E+04  0.50400001928E-02 0. -1.
        1   -1    0    0  501    0  0.00000000000E+00  0.00000000000E+00 -0.21318906589E+04  0.21318906589E+04  0.50400001928E-02 0.  1.
    10030    2    1    2    0    0  0.00000000000E+00  0.00000000000E+00 -0.57309989246E+03  0.36906814253E+04  0.36459135887E+04 0.  0.
        1    1    3    3  502    0 -0.64666971049E+03  0.72546340996E+03  0.12746888996E+04  0.16029069419E+04  0.50400001928E-02 0. -1.
       -1    1    3    3    0  502  0.64666971049E+03 -0.72546340996E+03 -0.18477887920E+04  0.20877744834E+04  0.50400001928E-02 0.  1.
</event>
<event>
 5   0  0.1724503E-06  0.3713096E+04  0.7818609E-02  0.8065066E-01
        2   -1    0    0  501    0  0.00000000000E+00  0.00000000000E+00  0.22125963075E+04  0.22125963075E+04  0.25500000920E-02 0.  1.
       -2   -1    0    0    0  501  0.00000000000E+00  0.00000000000E+00 -0.15577941702E+04  0.15577941702E+04  0.25500000920E-02 0. -1.
    10030    2    1    2    0    0  0.00000000000E+00  0.00000000000E+00  0.65480213730E+03  0.37703904777E+04  0.37130955435E+04 0.  0.
        1    1    3    3  502    0 -0.15226152576E+04 -0.99150494233E+03  0.71450570529E+03  0.19524235392E+04  0.50400001928E-02 0. -1.
       -1    1    3    3    0  502  0.15226152576E+04  0.99150494233E+03 -0.59703567994E+02  0.18179669385E+04  0.50400001928E-02 0.  1.
</event>
<event>
 5   0  0.6186440E-07  0.3671648E+04  0.7818609E-02  0.8074274E-01
       -1   -1    0    0    0  501  0.00000000000E+00  0.00000000000E+00  0.14990112563E+04  0.14990112563E+04  0.50400001928E-02 0. -1.
        1   -1    0    0  501    0  0.00000000000E+00  0.00000000000E+00 -0.22483156634E+04  0.22483156634E+04  0.50400001928E-02 0.  1.
    10030    2    1    2    0    0  0.00000000000E+00  0.00000000000E+00 -0.74930440716E+03  0.37473269197E+04  0.36716483966E+04 0.  0.
        3    1    3    3  502    0  0.47546679889E+02  0.15116031755E+04 -0.14367973634E+04  0.20860468644E+04  0.10100000352E+00 0.  1.
       -3    1    3    3    0  502 -0.47546679889E+02 -0.15116031755E+04  0.68749295624E+03  0.16612800553E+04  0.10100000352E+00 0. -1.
</event>
<event>
 5   0  0.1724503E-06  0.3642464E+04  0.7818609E-02  0.8080833E-01
       -2   -1    0    0    0  501  0.00000000000E+00  0.00000000000E+00  0.15224817146E+04  0.15224817146E+04  0.25500000920E-02 0.  1.
        2   -1    0    0  501    0  0.00000000000E+00  0.00000000000E+00 -0.21786048217E+04  0.21786048217E+04  0.25500000920E-02 0. -1.
    10030    2    1    2    0    0  0.00000000000E+00  0.00000000000E+00 -0.65612310709E+03  0.37010865362E+04  0.36424640035E+04 0.  0.
        1    1    3    3  502    0 -0.90481979440E+02  0.15957023123E+04  0.55916566222E+03  0.16932569491E+04  0.50400001928E-02 0.  1.
       -1    1    3    3    0  502  0.90481979440E+02 -0.15957023123E+04 -0.12152887693E+04  0.20078295871E+04  0.50400001928E-02 0. -1.
</event>
<event>
 5   0  0.1724503E-06  0.1843513E+04  0.7818609E-02  0.8683496E-01
       -2   -1    0    0    0  501  0.00000000000E+00  0.00000000000E+00  0.59076391017E+03  0.59076391018E+03  0.25500000920E-02 0.  1.
        2   -1    0    0  501    0  0.00000000000E+00  0.00000000000E+00 -0.14381968121E+04  0.14381968121E+04  0.25500000920E-02 0. -1.
    10030    2    1    2    0    0  0.00000000000E+00  0.00000000000E+00 -0.84743290197E+03  0.20289607223E+04  0.18435127039E+04 0.  0.
        1    1    3    3  502    0  0.25661011327E+03  0.86579466029E+03 -0.62720936372E+03  0.10994729328E+04  0.50400001928E-02 0. -1.
       -1    1    3    3    0  502 -0.25661011327E+03 -0.86579466029E+03 -0.22022353824E+03  0.92948778951E+03  0.50400001928E-02 0.  1.
</event>
<event>
 5   0  0.1680194E-06  0.3835270E+04  0.7818609E-02  0.8038628E-01
        2   -1    0    0  501    0  0.00000000000E+00  0.00000000000E+00  0.20175739550E+04  0.20175739550E+04  0.25500000920E-02 0.  1.
       -2   -1    0    0    0  501  0.00000000000E+00  0.00000000000E+00 -0.18226464606E+04  0.18226464606E+04  0.25500000920E-02 0. -1.
    10030    2    1    2    0    0  0.00000000000E+00  0.00000000000E+00  0.19492749445E+03  0.38402204156E+04  0.38352700181E+04 0.  0.
        2    1    3    3  502    0  0.46975445347E+03  0.11305455325E+04  0.15753504442E+04  0.19951269307E+04  0.25500000920E-02 0.  1.
       -2    1    3    3    0  502 -0.46975445347E+03 -0.11305455325E+04 -0.13804229498E+04  0.18450934848E+04  0.25500000920E-02 0. -1.
</event>
<event>
 5   0  0.1151180E-06  0.3666458E+04  0.7818609E-02  0.8075436E-01
       -2   -1    0    0    0  501  0.00000000000E+00  0.00000000000E+00  0.13182882688E+04  0.13182882688E+04  0.25500000920E-02 0.  1.
        2   -1    0    0  501    0  0.00000000000E+00  0.00000000000E+00 -0.25493119174E+04  0.25493119174E+04  0.25500000920E-02 0. -1.
    10030    2    1    2    0    0  0.00000000000E+00  0.00000000000E+00 -0.12310236486E+04  0.38676001862E+04  0.36664576878E+04 0.  0.
        5    1    3    3  502    0 -0.40101906918E+03  0.15897140612E+04  0.24966569441E+03  0.16584215807E+04  0.46999998093E+01 0.  1.
       -5    1    3    3    0  502  0.40101906918E+03 -0.15897140612E+04 -0.14806893430E+04  0.22091786055E+04  0.46999998093E+01 0. -1.
</event>
<event>
 5   0  0.1151180E-06  0.3686167E+04  0.7818609E-02  0.8071034E-01
        2   -1    0    0  501    0  0.00000000000E+00  0.00000000000E+00  0.16980810107E+04  0.16980810108E+04  0.25500000920E-02 0. -1.
       -2   -1    0    0    0  501  0.00000000000E+00  0.00000000000E+00 -0.20004675884E+04  0.20004675884E+04  0.25500000920E-02 0.  1.
    10030    2    1    2    0    0  0.00000000000E+00  0.00000000000E+00 -0.30238657767E+03  0.36985485992E+04  0.36861665858E+04 0.  0.
        5    1    3    3  502    0 -0.16790560125E+04 -0.64766837198E+03 -0.55031146028E+03  0.18819054723E+04  0.46999998093E+01 0. -1.
       -5    1    3    3    0  502  0.16790560125E+04  0.64766837198E+03  0.24792488261E+03  0.18166431269E+04  0.46999998093E+01 0.  1.
</event>
<event>
 5   0  0.6287345E-07  0.2419111E+04  0.7818609E-02  0.8432383E-01
        1   -1    0    0  501    0  0.00000000000E+00  0.00000000000E+00  0.12741732383E+04  0.12741732384E+04  0.50400001928E-02 0.  1.
       -1   -1    0    0    0  501  0.00000000000E+00  0.00000000000E+00 -0.11482145219E+04  0.11482145219E+04  0.50400001928E-02 0. -1.
    10030    2    1    2    0    0  0.00000000000E+00  0.00000000000E+00  0.12595871648E+03  0.24223877602E+04  0.24191107587E+04 0.  0.
        5    1    3    3  502    0  0.11362410235E+04 -0.40772234204E+03 -0.12760090416E+02  0.12072555991E+04  0.46999998093E+01 0.  1.
       -5    1    3    3    0  502 -0.11362410235E+04  0.40772234204E+03  0.13871880690E+03  0.12151321611E+04  0.46999998093E+01 0. -1.
</event>
<event>
 5   0  0.1685793E-06  0.2631245E+04  0.7818609E-02  0.8357665E-01
       -2   -1    0    0    0  501  0.00000000000E+00  0.00000000000E+00  0.90925707316E+03  0.90925707316E+03  0.25500000920E-02 0. -1.
        2   -1    0    0  501    0  0.00000000000E+00  0.00000000000E+00 -0.19036014125E+04  0.19036014125E+04  0.25500000920E-02 0.  1.
    10030    2    1    2    0    0  0.00000000000E+00  0.00000000000E+00 -0.99434433938E+03  0.28128584857E+04  0.26312453697E+04 0.  0.
        3    1    3    3  502    0  0.11091693295E+03 -0.10250674897E+04 -0.13707644819E+04  0.17152437726E+04  0.10100000352E+00 0.  1.
       -3    1    3    3    0  502 -0.11091693295E+03  0.10250674897E+04  0.37642014249E+03  0.10976147131E+04  0.10100000352E+00 0. -1.
</event>
<event>
 5   0  0.1724503E-06  0.3684992E+04  0.7818609E-02  0.8071296E-01
       -2   -1    0    0    0  501  0.00000000000E+00  0.00000000000E+00  0.13437989099E+04  0.13437989099E+04  0.25500000920E-02 0. -1.
        2   -1    0    0  501    0  0.00000000000E+00  0.00000000000E+00 -0.25262644354E+04  0.25262644354E+04  0.25500000920E-02 0.  1.
    10030    2    1    2    0    0  0.00000000000E+00  0.00000000000E+00 -0.11824655255E+04  0.38700633453E+04  0.36849919372E+04 0.  0.
        1    1    3    3  502    0 -0.12034340496E+03  0.17178953300E+04 -0.12792246297E+04  0.21452418402E+04  0.50400001928E-02 0.  1.
       -1    1    3    3    0  502  0.12034340496E+03 -0.17178953300E+04  0.96759104219E+02  0.17248215050E+04  0.50400001928E-02 0. -1.
</event>
<event>
 5   0  0.1184684E-06  0.1889172E+04  0.7818609E-02  0.8660265E-01
       -2   -1    0    0    0  501  0.00000000000E+00  0.00000000000E+00  0.85966291315E+03  0.85966291316E+03  0.25500000920E-02 0.  1.
        2   -1    0    0  501    0  0.00000000000E+00  0.00000000000E+00 -0.10378984582E+04  0.10378984582E+04  0.25500000920E-02 0. -1.
    10030    2    1    2    0    0  0.00000000000E+00  0.00000000000E+00 -0.17823554500E+03  0.18975613713E+04  0.18891721066E+04 0.  0.
        4    1    3    3  502    0  0.74852329710E+03  0.57123550431E+03 -0.13657119310E+02  0.94169276173E+03  0.12699999809E+01 0.  1.
       -4    1    3    3    0  502 -0.74852329710E+03 -0.57123550431E+03 -0.16457842569E+03  0.95586860958E+03  0.12699999809E+01 0. -1.
</event>
<event>
 5   0  0.6287345E-07  0.3658538E+04  0.7818609E-02  0.8077213E-01
        1   -1    0    0  501    0  0.00000000000E+00  0.00000000000E+00  0.18931049805E+04  0.18931049805E+04  0.50400001928E-02 0.  1.
       -1   -1    0    0    0  501  0.00000000000E+00  0.00000000000E+00 -0.17675855230E+04  0.17675855230E+04  0.50400001928E-02 0. -1.
    10030    2    1    2    0    0  0.00000000000E+00  0.00000000000E+00  0.12551945752E+03  0.36606905036E+04  0.36585379359E+04 0.  0.
        5    1    3    3  502    0  0.15515110008E+04 -0.13346246380E+03 -0.89759884273E+03  0.17974160307E+04  0.46999998093E+01 0. -1.
       -5    1    3    3    0  502 -0.15515110008E+04  0.13346246380E+03  0.10231183003E+04  0.18632744729E+04  0.46999998093E+01 0.  1.
</event>
<event>
 5   0  0.1151180E-06  0.2558488E+04  0.7818609E-02  0.8382440E-01
        2   -1    0    0  501    0  0.00000000000E+00  0.00000000000E+00  0.26534487240E+04  0.26534487241E+04  0.25500000920E-02 0. -1.
       -2   -1    0    0    0  501  0.00000000000E+00  0.00000000000E+00 -0.61673159879E+03  0.61673159879E+03  0.25500000920E-02 0.  1.
    10030    2    1    2    0    0  0.00000000000E+00  0.00000000000E+00  0.20367171253E+04  0.32701803228E+04  0.25584883614E+04 0.  0.
        5    1    3    3  502    0 -0.11786430399E+04 -0.45501585461E+03  0.76207138002E+03  0.14754706780E+04  0.46999998093E+01 0. -1.
       -5    1    3    3    0  502  0.11786430399E+04  0.45501585461E+03  0.12746457452E+04  0.17947096448E+04  0.46999998093E+01 0.  1.
</event>
<event>
 5   0  0.1151180E-06  0.2542494E+04  0.7818609E-02  0.8388001E-01
        2   -1    0    0  501    0  0.00000000000E+00  0.00000000000E+00  0.15546108759E+04  0.15546108759E+04  0.25500000920E-02 0.  1.
       -2   -1    0    0    0  501  0.00000000000E+00  0.00000000000E+00 -0.10395325583E+04  0.10395325583E+04  0.25500000920E-02 0. -1.
    10030    2    1    2    0    0  0.00000000000E+00  0.00000000000E+00  0.51507831757E+03  0.25941434342E+04  0.25424937529E+04 0.  0.
        5    1    3    3  502    0 -0.95511832732E+02  0.97430282317E+03  0.10849746671E+04  0.14613625901E+04  0.46999998093E+01 0.  1.
       -5    1    3    3    0  502  0.95511832732E+02 -0.97430282317E+03 -0.56989634957E+03  0.11327808441E+04  0.46999998093E+01 0. -1.
</event>
<event>
 5   0  0.1332547E-06  0.1961491E+04  0.7818609E-02  0.8624840E-01
       -2   -1    0    0    0  501  0.00000000000E+00  0.00000000000E+00  0.97437021178E+03  0.97437021178E+03  0.25500000920E-02 0. -1.
        2   -1    0    0  501    0  0.00000000000E+00  0.00000000000E+00 -0.98716207001E+03  0.98716207001E+03  0.25500000920E-02 0.  1.
    10030    2    1    2    0    0  0.00000000000E+00  0.00000000000E+00 -0.12791858227E+02  0.19615322818E+04  0.19614905712E+04 0.  0.
        5    1    3    3  502    0  0.73448938236E+03  0.55865983058E+03  0.32567101539E+03  0.97860061279E+03  0.46999998093E+01 0. -1.
       -5    1    3    3    0  502 -0.73448938236E+03 -0.55865983058E+03 -0.33846287361E+03  0.98293166900E+03  0.46999998093E+01 0.  1.
</event>
<event>
 5   0  0.2348471E-06  0.1995749E+04  0.7818609E-02  0.8608611E-01
       -2   -1    0    0    0  501  0.00000000000E+00  0.00000000000E+00  0.10058694417E+04  0.10058694417E+04  0.25500000920E-02 0. -1.
        2   -1    0    0  501    0  0.00000000000E+00  0.00000000000E+00 -0.98994347178E+03  0.98994347178E+03  0.25500000920E-02 0.  1.
    10030    2    1    2    0    0  0.00000000000E+00  0.00000000000E+00  0.15925969958E+02  0.19958129135E+04  0.19957493704E+04 0.  0.
        1    1    3    3  502    0  0.32709704489E+03 -0.41391476052E+03  0.85500588089E+03  0.10046655972E+04  0.50400001928E-02 0. -1.
       -1    1    3    3    0  502 -0.32709704489E+03  0.41391476052E+03 -0.83907991094E+03  0.99114731635E+03  0.50400001928E-02 0.  1.
</event>
<event>
 5   0  0.1151180E-06  0.3583727E+04  0.7818609E-02  0.8094229E-01
       -2   -1    0    0    0  501  0.00000000000E+00  0.00000000000E+00  0.16415623100E+04  0.16415623100E+04  0.25500000920E-02 0.  1.
        2   -1    0    0  501    0  0.00000000000E+00  0.00000000000E+00 -0.19559266806E+04  0.19559266806E+04  0.25500000920E-02 0. -1.
    10030    2    1    2    0    0  0.00000000000E+00  0.00000000000E+00 -0.31436437065E+03  0.35974889906E+04  0.35837274004E+04 0.  0.
        5    1    3    3  502    0 -0.46190528168E+03 -0.16342632356E+04 -0.73084897582E+03  0.18488740162E+04  0.46999998093E+01 0. -1.
       -5    1    3    3    0  502  0.46190528168E+03  0.16342632356E+04  0.41648460517E+03  0.17486149744E+04  0.46999998093E+01 0.  1.
</event>
<event>
 5   0  0.1757184E-06  0.1818850E+04  0.7818609E-02  0.8696339E-01
       -2   -1    0    0    0  501  0.00000000000E+00  0.00000000000E+00  0.54088052536E+03  0.54088052537E+03  0.25500000920E-02 0. -1.
        2   -1    0    0  501    0  0.00000000000E+00  0.00000000000E+00 -0.15290878877E+04  0.15290878877E+04  0.25500000920E-02 0.  1.
    10030    2    1    2    0    0  0.00000000000E+00  0.00000000000E+00 -0.98820736230E+03  0.20699684130E+04  0.18188500323E+04 0.  0.
        2    1    3    3  502    0 -0.60766156520E+03 -0.13939343155E+03 -0.12476112379E+04  0.13947103311E+04  0.25500000920E-02 0.  1.
       -2    1    3    3    0  502  0.60766156520E+03  0.13939343155E+03  0.25940387562E+03  0.67525808197E+03  0.25500000920E-02 0. -1.
</event>
<event>
 5   0  0.5950598E-07  0.2039087E+04  0.7818609E-02  0.8588561E-01
        1   -1    0    0  501    0  0.00000000000E+00  0.00000000000E+00  0.12744555456E+04  0.12744555456E+04  0.50400001928E-02 0.  1.
       -1   -1    0    0    0  501  0.00000000000E+00  0.00000000000E+00 -0.81561778619E+03  0.81561778621E+03  0.50400001928E-02 0. -1.
    10030    2    1    2    0    0  0.00000000000E+00  0.00000000000E+00  0.45883775943E+03  0.20900733318E+04  0.20390866688E+04 0.  0.
        2    1    3    3  502    0  0.39276456410E+03  0.88559073679E+03 -0.96225688413E+02  0.97354729675E+03  0.25500000920E-02 0. -1.
       -2    1    3    3    0  502 -0.39276456410E+03 -0.88559073679E+03  0.55506344784E+03  0.11165260351E+04  0.25500000920E-02 0.  1.
</event>
<event>
 5   0  0.6287345E-07  0.2348467E+04  0.7818609E-02  0.8459053E-01
       -1   -1    0    0    0  501  0.00000000000E+00  0.00000000000E+00  0.13159272758E+04  0.13159272758E+04  0.50400001928E-02 0. -1.
        1   -1    0    0  501    0  0.00000000000E+00  0.00000000000E+00 -0.10477971761E+04  0.10477971762E+04  0.50400001928E-02 0.  1.
    10030    2    1    2    0    0  0.00000000000E+00  0.00000000000E+00  0.26813009962E+03  0.23637244519E+04  0.23484674863E+04 0.  0.
        5    1    3    3  502    0 -0.28934443039E+02 -0.54234019086E+02 -0.10461671977E+04  0.10479820735E+04  0.46999998093E+01 0.  1.
       -5    1    3    3    0  502  0.28934443039E+02  0.54234019086E+02  0.13142972973E+04  0.13157423785E+04  0.46999998093E+01 0. -1.
</event>
<event>
 5   0  0.6261598E-07  0.3470006E+04  0.7818609E-02  0.8120935E-01
       -1   -1    0    0    0  501  0.00000000000E+00  0.00000000000E+00  0.12850625267E+04  0.12850625267E+04  0.50400001928E-02 0. -1.
        1   -1    0    0  501    0  0.00000000000E+00  0.00000000000E+00 -0.23424817661E+04  0.23424817661E+04  0.50400001928E-02 0.  1.
    10030    2    1    2    0    0  0.00000000000E+00  0.00000000000E+00 -0.10574192394E+04  0.36275442928E+04  0.34700060732E+04 0.  0.
        1    1    3    3  502    0 -0.33883414138E+03  0.16761492885E+04 -0.83519287666E+03  0.19031111775E+04  0.50400001928E-02 0.  1.
       -1    1    3    3    0  502  0.33883414138E+03 -0.16761492885E+04 -0.22222636279E+03  0.17244331153E+04  0.50400001928E-02 0. -1.
</event>
<event>
 5   0  0.1724503E-06  0.3637888E+04  0.7818609E-02  0.8081868E-01
       -2   -1    0    0    0  501  0.00000000000E+00  0.00000000000E+00  0.15696897750E+04  0.15696897750E+04  0.25500000920E-02 0. -1.
        2   -1    0    0  501    0  0.00000000000E+00  0.00000000000E+00 -0.21077774095E+04  0.21077774095E+04  0.25500000920E-02 0.  1.
    10030    2    1    2    0    0  0.00000000000E+00  0.00000000000E+00 -0.53808763453E+03  0.36774671845E+04  0.36378876551E+04 0.  0.
        1    1    3    3  502    0  0.35520908378E+03 -0.39926555449E+02 -0.20719243738E+04  0.21025313871E+04  0.50400001928E-02 0.  1.
       -1    1    3    3    0  502 -0.35520908378E+03  0.39926555449E+02  0.15338367393E+04  0.15749357974E+04  0.50400001928E-02 0. -1.
</event>
<event>
 5   0  0.1151180E-06  0.2680174E+04  0.7818609E-02  0.8341466E-01
       -2   -1    0    0    0  501  0.00000000000E+00  0.00000000000E+00  0.89761919830E+03  0.89761919831E+03  0.25500000920E-02 0.  1.
        2   -1    0    0  501    0  0.00000000000E+00  0.00000000000E+00 -0.20006630613E+04  0.20006630613E+04  0.25500000920E-02 0. -1.
    10030    2    1    2    0    0  0.00000000000E+00  0.00000000000E+00 -0.11030438630E+04  0.28982822596E+04  0.26801743027E+04 0.  0.
        5    1    3    3  502    0 -0.95287863708E+03 -0.38853382195E+03 -0.14797925963E+04  0.18024273760E+04  0.46999998093E+01 0. -1.
       -5    1    3    3    0  502  0.95287863708E+03  0.38853382195E+03  0.37674873331E+03  0.10958548836E+04  0.46999998093E+01 0.  1.
</event>
<event>
 5   0  0.1724503E-06  0.3789415E+04  0.7818609E-02  0.8048430E-01
        2   -1    0    0  501    0  0.00000000000E+00  0.00000000000E+00  0.12512246389E+04  0.12512246389E+04  0.25500000920E-02 0. -1.
       -2   -1    0    0    0  501  0.00000000000E+00  0.00000000000E+00 -0.28691226224E+04  0.28691226224E+04  0.25500000920E-02 0.  1.
    10030    2    1    2    0    0  0.00000000000E+00  0.00000000000E+00 -0.16178979835E+04  0.41203472614E+04  0.37894152147E+04 0.  0.
        1    1    3    3  502    0  0.87322007381E+03 -0.13448557222E+04  0.28853702892E+03  0.16292341231E+04  0.50400001928E-02 0. -1.
       -1    1    3    3    0  502 -0.87322007381E+03  0.13448557222E+04 -0.19064350124E+04  0.24911131382E+04  0.50400001928E-02 0.  1.
</event>
<event>
 5   0  0.6287345E-07  0.2103908E+04  0.7818609E-02  0.8559524E-01
       -1   -1    0    0    0  501  0.00000000000E+00  0.00000000000E+00  0.17764145845E+04  0.17764145845E+04  0.50400001928E-02 0.  1.
        1   -1    0    0  501    0  0.00000000000E+00  0.00000000000E+00 -0.62294396172E+03  0.62294396174E+03  0.50400001928E-02 0. -1.
    10030    2    1    2    0    0  0.00000000000E+00  0.00000000000E+00  0.11534706228E+04  0.23993585462E+04  0.21039075445E+04 0.  0.
        5    1    3    3  502    0  0.87210807586E+03 -0.40148396650E+03  0.86452975380E+02  0.96398033086E+03  0.46999998093E+01 0. -1.
       -5    1    3    3    0  502 -0.87210807586E+03  0.40148396650E+03  0.10670176474E+04  0.14353782154E+04  0.46999998093E+01 0.  1.
</event>
<event>
 5   0  0.1724503E-06  0.3702009E+04  0.7818609E-02  0.8067517E-01
        2   -1    0    0  501    0  0.00000000000E+00  0.00000000000E+00  0.12891117194E+04  0.12891117194E+04  0.25500000920E-02 0.  1.
       -2   -1    0    0    0  501  0.00000000000E+00  0.00000000000E+00 -0.26578124546E+04  0.26578124546E+04  0.25500000920E-02 0. -1.
    10030    2    1    2    0    0  0.00000000000E+00  0.00000000000E+00 -0.13687007352E+04  0.39469241740E+04  0.37020087429E+04 0.  0.
        1    1    3    3  502    0 -0.59151047054E+03  0.12858827524E+04  0.58739183925E+03  0.15324517162E+04  0.50400001928E-02 0.  1.
       -1    1    3    3    0  502  0.59151047054E+03 -0.12858827524E+04 -0.19560925745E+04  0.24144724578E+04  0.50400001928E-02 0. -1.
</event>
<event>
 5   0  0.5679750E-07  0.2658584E+04  0.7818609E-02  0.8348569E-01
        1   -1    0    0  501    0  0.00000000000E+00  0.00000000000E+00  0.21558201434E+04  0.21558201434E+04  0.50400001928E-02 0.  1.
       -1   -1    0    0    0  501  0.00000000000E+00  0.00000000000E+00 -0.81964992153E+03  0.81964992155E+03  0.50400001928E-02 0. -1.
    10030    2    1    2    0    0  0.00000000000E+00  0.00000000000E+00  0.13361702219E+04  0.29754700650E+04  0.26585844440E+04 0.  0.
        4    1    3    3  502    0  0.12589613401E+04  0.20156802741E+03  0.24722841343E+03  0.12987443269E+04  0.12699999809E+01 0.  1.
       -4    1    3    3    0  502 -0.12589613401E+04 -0.20156802741E+03  0.10889418085E+04  0.16767257380E+04  0.12699999809E+01 0. -1.
</event>
<event>
 5   0  0.5679750E-07  0.3702569E+04  0.7818609E-02  0.8067393E-01
       -1   -1    0    0    0  501  0.00000000000E+00  0.00000000000E+00  0.12785526094E+04  0.12785526094E+04  0.50400001928E-02 0. -1.
        1   -1    0    0  501    0  0.00000000000E+00  0.00000000000E+00 -0.26805732586E+04  0.26805732586E+04  0.50400001928E-02 0.  1.
    10030    2    1    2    0    0  0.00000000000E+00  0.00000000000E+00 -0.14020206492E+04  0.39591258680E+04  0.37025688026E+04 0.  0.
        4    1    3    3  502    0 -0.68997295026E+03 -0.10427724774E+04  0.75880392053E+03  0.14626079839E+04  0.12699999809E+01 0. -1.
       -4    1    3    3    0  502  0.68997295026E+03  0.10427724774E+04 -0.21608245698E+04  0.24965178842E+04  0.12699999809E+01 0.  1.
</event>
<event>
 5   0  0.1724503E-06  0.3759926E+04  0.7818609E-02  0.8054810E-01
       -2   -1    0    0    0  501  0.00000000000E+00  0.00000000000E+00  0.17299456995E+04  0.17299456995E+04  0.25500000920E-02 0. -1.
        2   -1    0    0  501    0  0.00000000000E+00  0.00000000000E+00 -0.20429897624E+04  0.20429897624E+04  0.25500000920E-02 0.  1.
    10030    2    1    2    0    0  0.00000000000E+00  0.00000000000E+00 -0.31304406290E+03  0.37729354619E+04  0.37599262512E+04 0.  0.
        1    1    3    3  502    0  0.54574419970E+03 -0.17700313082E+04 -0.47921483278E+03  0.19132418612E+04  0.50400001928E-02 0.  1.
       -1    1    3    3    0  502 -0.54574419970E+03  0.17700313082E+04  0.16617076988E+03  0.18596936007E+04  0.50400001928E-02 0. -1.
</event>
<event>
 5   0  0.1151180E-06  0.3572907E+04  0.7818609E-02  0.8096726E-01
       -2   -1    0    0    0  501  0.00000000000E+00  0.00000000000E+00  0.16199090098E+04  0.16199090098E+04  0.25500000920E-02 0.  1.
        2   -1    0    0  501    0  0.00000000000E+00  0.00000000000E+00 -0.19701211294E+04  0.19701211294E+04  0.25500000920E-02 0. -1.
    10030    2    1    2    0    0  0.00000000000E+00  0.00000000000E+00 -0.35021211955E+03  0.35900301392E+04  0.35729074815E+04 0.  0.
        5    1    3    3  502    0  0.54969170972E+03 -0.16754306094E+04  0.11291408222E+03  0.17669183293E+04  0.46999998093E+01 0.  1.
       -5    1    3    3    0  502 -0.54969170972E+03  0.16754306094E+04 -0.46312620177E+03  0.18231118099E+04  0.46999998093E+01 0. -1.
</event>
<event>
 5   0  0.5679750E-07  0.2206333E+04  0.7818609E-02  0.8515797E-01
        1   -1    0    0  501    0  0.00000000000E+00  0.00000000000E+00  0.18172430202E+04  0.18172430202E+04  0.50400001928E-02 0.  1.
       -1   -1    0    0    0  501  0.00000000000E+00  0.00000000000E+00 -0.66968246017E+03  0.66968246019E+03  0.50400001928E-02 0. -1.
    10030    2    1    2    0    0  0.00000000000E+00  0.00000000000E+00  0.11475605600E+04  0.24869254804E+04  0.22063325013E+04 0.  0.
        4    1    3    3  502    0  0.52053141623E+03 -0.24220527475E+03  0.16355765571E+04  0.17334153101E+04  0.12699999809E+01 0.  1.
       -4    1    3    3    0  502 -0.52053141623E+03  0.24220527475E+03 -0.48801599707E+03  0.75351017026E+03  0.12699999809E+01 0. -1.
</event>
<event>
 5   0  0.1724503E-06  0.3680777E+04  0.7818609E-02  0.8072235E-01
        2   -1    0    0  501    0  0.00000000000E+00  0.00000000000E+00  0.22971386616E+04  0.22971386616E+04  0.25500000920E-02 0. -1.
       -2   -1    0    0    0  501  0.00000000000E+00  0.00000000000E+00 -0.14744563368E+04  0.14744563368E+04  0.25500000920E-02 0.  1.
    10030    2    1    2    0    0  0.00000000000E+00  0.00000000000E+00  0.82268232480E+03  0.37715949985E+04  0.36807774484E+04 0.  0.
        1    1    3    3  502    0 -0.12721836144E+04  0.17339128230E+03 -0.93971906425E+03  0.15910963533E+04  0.50400001928E-02 0.  1.
       -1    1    3    3    0  502  0.12721836144E+04 -0.17339128230E+03  0.17624013891E+04  0.21804986452E+04  0.50400001928E-02 0. -1.
</event>
<event>
 5   0  0.5875011E-07  0.3080221E+04  0.7818609E-02  0.8221187E-01
        1   -1    0    0  501    0  0.00000000000E+00  0.00000000000E+00  0.23709922252E+04  0.23709922252E+04  0.50400001928E-02 0.  1.
       -1   -1    0    0    0  501  0.00000000000E+00  0.00000000000E+00 -0.10003998850E+04  0.10003998850E+04  0.50400001928E-02 0. -1.
    10030    2    1    2    0    0  0.00000000000E+00  0.00000000000E+00  0.13705923402E+04  0.33713921102E+04  0.30802209982E+04 0.  0.
        2    1    3    3  502    0 -0.12528629462E+04  0.35286607249E+02  0.16649027259E+04  0.20839414083E+04  0.25500000920E-02 0.  1.
       -2    1    3    3    0  502  0.12528629462E+04 -0.35286607249E+02 -0.29431038567E+03  0.12874507019E+04  0.25500000920E-02 0. -1.
</event>
<event>
 5   0  0.5875011E-07  0.3667361E+04  0.7818609E-02  0.8075234E-01
       -1   -1    0    0    0  501  0.00000000000E+00  0.00000000000E+00  0.22619013233E+04  0.22619013233E+04  0.50400001928E-02 0.  1.
        1   -1    0    0  501    0  0.00000000000E+00  0.00000000000E+00 -0.14865299014E+04  0.14865299014E+04  0.50400001928E-02 0. -1.
    10030    2    1    2    0    0  0.00000000000E+00  0.00000000000E+00  0.77537142195E+03  0.37484312247E+04  0.36673608773E+04 0.  0.
        2    1    3    3  502    0 -0.62116080371E+02  0.10750540849E+04  0.19046727887E+04  0.21880077982E+04  0.25500000920E-02 0.  1.
       -2    1    3    3    0  502  0.62116080371E+02 -0.10750540849E+04 -0.11293013668E+04  0.15604234265E+04  0.25500000920E-02 0. -1.
</event>
<event>
 5   0  0.5875011E-07  0.2290836E+04  0.7818609E-02  0.8481543E-01
        1   -1    0    0  501    0  0.00000000000E+00  0.00000000000E+00  0.14752056988E+04  0.14752056988E+04  0.50400001928E-02 0.  1.
       -1   -1    0    0    0  501  0.00000000000E+00  0.00000000000E+00 -0.88935561022E+03  0.88935561024E+03  0.50400001928E-02 0. -1.
    10030    2    1    2    0    0  0.00000000000E+00  0.00000000000E+00  0.58585008859E+03  0.23645613091E+04  0.22908360609E+04 0.  0.
        2    1    3    3  502    0  0.10386937489E+04  0.48165392277E+03  0.25857864557E+03  0.11737708981E+04  0.25500000920E-02 0.  1.
       -2    1    3    3    0  502 -0.10386937489E+04 -0.48165392277E+03  0.32727144302E+03  0.11907904109E+04  0.25500000920E-02 0. -1.
</event>
<event>
 5   0  0.1680194E-06  0.3515163E+04  0.7818609E-02  0.8110206E-01
        2   -1    0    0  501    0  0.00000000000E+00  0.00000000000E+00  0.30888522548E+04  0.30888522548E+04  0.25500000920E-02 0.  1.
       -2   -1    0    0    0  501  0.00000000000E+00  0.00000000000E+00 -0.10000777396E+04  0.10000777396E+04  0.25500000920E-02 0. -1.
    10030    2    1    2    0    0  0.00000000000E+00  0.00000000000E+00  0.20887745152E+04  0.40889299945E+04  0.35151628019E+04 0.  0.
        2    1    3    3  502    0 -0.57182844864E+03  0.10166855797E+04 -0.48491480682E+03  0.12632417475E+04  0.25500000920E-02 0. -1.
       -2    1    3    3    0  502  0.57182844864E+03 -0.10166855797E+04  0.25736893221E+04  0.28256882470E+04  0.25500000920E-02 0.  1.
</event>
<event>
 5   0  0.1184684E-06  0.3723272E+04  0.7818609E-02  0.8062824E-01
        2   -1    0    0  501    0  0.00000000000E+00  0.00000000000E+00  0.18382582829E+04  0.18382582830E+04  0.25500000920E-02 0.  1.
       -2   -1    0    0    0  501  0.00000000000E+00  0.00000000000E+00 -0.18853108883E+04  0.18853108883E+04  0.25500000920E-02 0. -1.
    10030    2    1    2    0    0  0.00000000000E+00  0.00000000000E+00 -0.47052605361E+02  0.37235691713E+04  0.37232718710E+04 0.  0.
        4    1    3    3  502    0 -0.14257172312E+04  0.13748009494E+03  0.11657348902E+04  0.18467565749E+04  0.12699999809E+01 0.  1.
       -4    1    3    3    0  502  0.14257172312E+04 -0.13748009494E+03 -0.12127874955E+04  0.18768125964E+04  0.12699999809E+01 0. -1.
</event>
<event>
 5   0  0.1685793E-06  0.3760952E+04  0.7818609E-02  0.8054587E-01
        2   -1    0    0  501    0  0.00000000000E+00  0.00000000000E+00  0.19465968016E+04  0.19465968016E+04  0.25500000920E-02 0. -1.
       -2   -1    0    0    0  501  0.00000000000E+00  0.00000000000E+00 -0.18166009040E+04  0.18166009040E+04  0.25500000920E-02 0.  1.
    10030    2    1    2    0    0  0.00000000000E+00  0.00000000000E+00  0.12999589761E+03  0.37631977056E+04  0.37609517463E+04 0.  0.
        3    1    3    3  502    0 -0.34318876729E+03 -0.18469513012E+04  0.14979441423E+03  0.18845280618E+04  0.10100000352E+00 0.  1.
       -3    1    3    3    0  502  0.34318876729E+03  0.18469513012E+04 -0.19798516622E+02  0.18786696438E+04  0.10100000352E+00 0. -1.
</event>
<event>
 5   0  0.6261598E-07  0.3732024E+04  0.7818609E-02  0.8060902E-01
        1   -1    0    0  501    0  0.00000000000E+00  0.00000000000E+00  0.25803754490E+04  0.25803754490E+04  0.50400001928E-02 0.  1.
       -1   -1    0    0    0  501  0.00000000000E+00  0.00000000000E+00 -0.13494162700E+04  0.13494162700E+04  0.50400001928E-02 0. -1.
    10030    2    1    2    0    0  0.00000000000E+00  0.00000000000E+00  0.12309591790E+04  0.39297917190E+04  0.37320239086E+04 0.  0.
        1    1    3    3  502    0  0.26905378892E+03  0.10313112309E+04  0.22283142323E+04  0.24700965800E+04  0.50400001928E-02 0.  1.
       -1    1    3    3    0  502 -0.26905378892E+03 -0.10313112309E+04 -0.99735505332E+03  0.14596951390E+04  0.50400001928E-02 0. -1.
</event>
<event>
 5   0  0.1685793E-06  0.2098571E+04  0.7818609E-02  0.8561873E-01
       -2   -1    0    0    0  501  0.00000000000E+00  0.00000000000E+00  0.20904097506E+04  0.20904097506E+04  0.25500000920E-02 0. -1.
        2   -1    0    0  501    0  0.00000000000E+00  0.00000000000E+00 -0.52669084142E+03  0.52669084143E+03  0.25500000920E-02 0.  1.
    10030    2    1    2    0    0  0.00000000000E+00  0.00000000000E+00  0.15637189091E+04  0.26171005920E+04  0.20985706283E+04 0.  0.
        3    1    3    3  502    0  0.41765906781E+03 -0.96257455527E+03  0.78595568964E+03  0.13109977985E+04  0.10100000352E+00 0. -1.
       -3    1    3    3    0  502 -0.41765906781E+03  0.96257455527E+03  0.77776321950E+03  0.13061027935E+04  0.10100000352E+00 0.  1.
</event>
<event>
 5   0  0.6287345E-07  0.3164725E+04  0.7818609E-02  0.8198196E-01
       -1   -1    0    0    0  501  0.00000000000E+00  0.00000000000E+00  0.20289256704E+04  0.20289256704E+04  0.50400001928E-02 0. -1.
        1   -1    0    0  501    0  0.00000000000E+00  0.00000000000E+00 -0.12340874706E+04  0.12340874706E+04  0.50400001928E-02 0.  1.
    10030    2    1    2    0    0  0.00000000000E+00  0.00000000000E+00  0.79483819977E+03  0.32630131410E+04  0.31647254217E+04 0.  0.
        5    1    3    3  502    0 -0.85966994531E+03 -0.26069472293E+03  0.17405094167E+04  0.19586702819E+04  0.46999998093E+01 0. -1.
       -5    1    3    3    0  502  0.85966994531E+03  0.26069472293E+03 -0.94567121698E+03  0.13043428591E+04  0.46999998093E+01 0.  1.
</event>
<event>
 5   0  0.6287345E-07  0.3604663E+04  0.7818609E-02  0.8089424E-01
       -1   -1    0    0    0  501  0.00000000000E+00  0.00000000000E+00  0.25802822446E+04  0.25802822446E+04  0.50400001928E-02 0.  1.
        1   -1    0    0  501    0  0.00000000000E+00  0.00000000000E+00 -0.12589318959E+04  0.12589318959E+04  0.50400001928E-02 0. -1.
    10030    2    1    2    0    0  0.00000000000E+00  0.00000000000E+00  0.13213503487E+04  0.38392141405E+04  0.36046634341E+04 0.  0.
        5    1    3    3  502    0  0.15875803380E+04  0.28720785047E+03 -0.19501843215E+03  0.16251012147E+04  0.46999998093E+01 0. -1.
       -5    1    3    3    0  502 -0.15875803380E+04 -0.28720785047E+03  0.15163687808E+04  0.22141129259E+04  0.46999998093E+01 0.  1.
</event>
<event>
 5   0  0.1680194E-06  0.3588004E+04  0.7818609E-02  0.8093245E-01
       -2   -1    0    0    0  501  0.00000000000E+00  0.00000000000E+00  0.21193929267E+04  0.21193929267E+04  0.25500000920E-02 0. -1.
        2   -1    0    0  501    0  0.00000000000E+00  0.00000000000E+00 -0.15185687730E+04  0.15185687730E+04  0.25500000920E-02 0.  1.
    10030    2    1    2    0    0  0.00000000000E+00  0.00000000000E+00  0.60082415368E+03  0.36379616996E+04  0.35880044125E+04 0.  0.
        2    1    3    3  502    0  0.19233732235E+03  0.16181194427E+02  0.21088343687E+04  0.21176491379E+04  0.25500000920E-02 0. -1.
       -2    1    3    3    0  502 -0.19233732235E+03 -0.16181194427E+02 -0.15080102150E+04  0.15203125617E+04  0.25500000920E-02 0.  1.
</event>
<event>
 5   0  0.6261598E-07  0.3531087E+04  0.7818609E-02  0.8106462E-01
        1   -1    0    0  501    0  0.00000000000E+00  0.00000000000E+00  0.27261527941E+04  0.27261527941E+04  0.50400001928E-02 0.  1.
       -1   -1    0    0    0  501  0.00000000000E+00  0.00000000000E+00 -0.11434219639E+04  0.11434219640E+04  0.50400001928E-02 0. -1.
    10030    2    1    2    0    0  0.00000000000E+00  0.00000000000E+00  0.15827308302E+04  0.38695747581E+04  0.35310865081E+04 0.  0.
        1    1    3    3  502    0 -0.97323663994E+03  0.11162542664E+04 -0.26198866099E+03  0.15039452128E+04  0.50400001928E-02 0. -1.
       -1    1    3    3    0  502  0.97323663994E+03 -0.11162542664E+04  0.18447194912E+04  0.23656295453E+04  0.50400001928E-02 0.  1.
</event>
<event>
 5   0  0.1151180E-06  0.2850542E+04  0.7818609E-02  0.8287747E-01
       -2   -1    0    0    0  501  0.00000000000E+00  0.00000000000E+00  0.80556547603E+03  0.80556547603E+03  0.25500000920E-02 0.  1.
        2   -1    0    0  501    0  0.00000000000E+00  0.00000000000E+00 -0.25217035060E+04  0.25217035061E+04  0.25500000920E-02 0. -1.
    10030    2    1    2    0    0  0.00000000000E+00  0.00000000000E+00 -0.17161380300E+04  0.33272689821E+04  0.28505419031E+04 0.  0.
        5    1    3    3  502    0  0.82192870163E+03 -0.28155079827E+03 -0.21768639773E+04  0.23438422532E+04  0.46999998093E+01 0. -1.
       -5    1    3    3    0  502 -0.82192870163E+03  0.28155079827E+03  0.46072594724E+03  0.98342672885E+03  0.46999998093E+01 0.  1.
</event>
<event>
 5   0  0.6186440E-07  0.3731150E+04  0.7818609E-02  0.8061093E-01
       -1   -1    0    0    0  501  0.00000000000E+00  0.00000000000E+00  0.27715585778E+04  0.27715585778E+04  0.50400001928E-02 0. -1.
        1   -1    0    0  501    0  0.00000000000E+00  0.00000000000E+00 -0.12557449073E+04  0.12557449073E+04  0.50400001928E-02 0.  1.
    10030    2    1    2    0    0  0.00000000000E+00  0.00000000000E+00  0.15158136705E+04  0.40273034851E+04  0.37311502620E+04 0.  0.
        3    1    3    3  502    0  0.80096085497E+03  0.48768608040E+03  0.24986766206E+04  0.26688501024E+04  0.10100000352E+00 0. -1.
       -3    1    3    3    0  502 -0.80096085497E+03 -0.48768608040E+03 -0.98286295011E+03  0.13584533827E+04  0.10100000352E+00 0.  1.
</event>
<event>
 5   0  0.1685793E-06  0.3859029E+04  0.7818609E-02  0.8033605E-01
        2   -1    0    0  501    0  0.00000000000E+00  0.00000000000E+00  0.13157908403E+04  0.13157908403E+04  0.25500000920E-02 0.  1.
       -2   -1    0    0    0  501  0.00000000000E+00  0.00000000000E+00 -0.28294973905E+04  0.28294973905E+04  0.25500000920E-02 0. -1.
    10030    2    1    2    0    0  0.00000000000E+00  0.00000000000E+00 -0.15137065502E+04  0.41452882308E+04  0.38590292816E+04 0.  0.
        3    1    3    3  502    0  0.70227018019E+03  0.17506554848E+04 -0.32045530508E+03  0.19132876536E+04  0.10100000352E+00 0.  1.
       -3    1    3    3    0  502 -0.70227018019E+03 -0.17506554848E+04 -0.11932512451E+04  0.22320005772E+04  0.10100000352E+00 0. -1.
</event>
<event>
 5   0  0.5679750E-07  0.3657020E+04  0.7818609E-02  0.8077554E-01
        3   -1    0    0  501    0  0.00000000000E+00  0.00000000000E+00  0.16325263736E+04  0.16325263768E+04  0.10100000352E+00 0.  1.
       -3   -1    0    0    0  501  0.00000000000E+00  0.00000000000E+00 -0.20480209094E+04  0.20480209119E+04  0.10100000352E+00 0. -1.
    10030    2    1    2    0    0  0.00000000000E+00  0.00000000000E+00 -0.41549453579E+03  0.36805472887E+04  0.36570196383E+04 0.  0.
        1    1    3    3  502    0  0.11480905308E+04 -0.66741851653E+03 -0.14727701226E+04  0.19830812331E+04  0.50400001928E-02 0. -1.
       -1    1    3    3    0  502 -0.11480905308E+04  0.66741851653E+03  0.10572755868E+04  0.16974660555E+04  0.50400001928E-02 0.  1.
</event>
<event>
 5   0  0.1184684E-06  0.2478172E+04  0.7818609E-02  0.8410803E-01
       -2   -1    0    0    0  501  0.00000000000E+00  0.00000000000E+00  0.10493748368E+04  0.10493748368E+04  0.25500000920E-02 0. -1.
        2   -1    0    0  501    0  0.00000000000E+00  0.00000000000E+00 -0.14630941595E+04  0.14630941595E+04  0.25500000920E-02 0.  1.
    10030    2    1    2    0    0  0.00000000000E+00  0.00000000000E+00 -0.41371932275E+03  0.25124689963E+04  0.24781720641E+04 0.  0.
        4    1    3    3  502    0  0.96151367761E+03  0.35303703633E+03  0.50006277473E+03  0.11398280979E+04  0.12699999809E+01 0. -1.
       -4    1    3    3    0  502 -0.96151367761E+03 -0.35303703633E+03 -0.91378209748E+03  0.13726408984E+04  0.12699999809E+01 0.  1.
</event>
<event>
 5   0  0.1184684E-06  0.1913320E+04  0.7818609E-02  0.8648254E-01
       -2   -1    0    0    0  501  0.00000000000E+00  0.00000000000E+00  0.11497080881E+04  0.11497080882E+04  0.25500000920E-02 0.  1.
        2   -1    0    0  501    0  0.00000000000E+00  0.00000000000E+00 -0.79602676527E+03  0.79602676528E+03  0.25500000920E-02 0. -1.
    10030    2    1    2    0    0  0.00000000000E+00  0.00000000000E+00  0.35368132287E+03  0.19457348534E+04  0.19133200573E+04 0.  0.
        4    1    3    3  502    0  0.67143297618E+03 -0.63574028961E+03  0.42637261396E+03  0.10182255036E+04  0.12699999809E+01 0.  1.
       -4    1    3    3    0  502 -0.67143297618E+03  0.63574028961E+03 -0.72691291081E+02  0.92750934984E+03  0.12699999809E+01 0. -1.
</event>
<event>
 5   0  0.6261598E-07  0.1858561E+04  0.7818609E-02  0.8675763E-01
       -1   -1    0    0    0  501  0.00000000000E+00  0.00000000000E+00  0.76675424411E+03  0.76675424413E+03  0.50400001928E-02 0. -1.
        1   -1    0    0  501    0  0.00000000000E+00  0.00000000000E+00 -0.11262572438E+04  0.11262572438E+04  0.50400001928E-02 0.  1.
    10030    2    1    2    0    0  0.00000000000E+00  0.00000000000E+00 -0.35950299970E+03  0.18930114880E+04  0.18585612949E+04 0.  0.
        1    1    3    3  502    0  0.27622180147E+03 -0.47135736393E+03 -0.94540758759E+03  0.10919119721E+04  0.50400001928E-02 0.  1.
       -1    1    3    3    0  502 -0.27622180147E+03  0.47135736393E+03  0.58590458790E+03  0.80109951584E+03  0.50400001928E-02 0. -1.
</event>
<event>
 5   0  0.5875011E-07  0.3537295E+04  0.7818609E-02  0.8105008E-01
        1   -1    0    0  501    0  0.00000000000E+00  0.00000000000E+00  0.19880635821E+04  0.19880635821E+04  0.50400001928E-02 0.  1.
       -1   -1    0    0    0  501  0.00000000000E+00  0.00000000000E+00 -0.15734477117E+04  0.15734477117E+04  0.50400001928E-02 0. -1.
    10030    2    1    2    0    0  0.00000000000E+00  0.00000000000E+00  0.41461587035E+03  0.35615112938E+04  0.35372950649E+04 0.  0.
        2    1    3    3  502    0  0.16822501945E+04 -0.50782083703E+03  0.52693577277E+01  0.17572351822E+04  0.25500000920E-02 0. -1.
       -2    1    3    3    0  502 -0.16822501945E+04  0.50782083703E+03  0.40934651262E+03  0.18042761116E+04  0.25500000920E-02 0.  1.
</event>
<event>
 5   0  0.1724503E-06  0.2243439E+04  0.7818609E-02  0.8500562E-01
       -2   -1    0    0    0  501  0.00000000000E+00  0.00000000000E+00  0.89423359638E+03  0.89423359638E+03  0.25500000920E-02 0. -1.
        2   -1    0    0  501    0  0.00000000000E+00  0.00000000000E+00 -0.14070761067E+04  0.14070761067E+04  0.25500000920E-02 0.  1.
    10030    2    1    2    0    0  0.00000000000E+00  0.00000000000E+00 -0.51284251029E+03  0.23013097030E+04  0.22434390807E+04 0.  0.
        1    1    3    3  502    0 -0.88896074400E+03  0.61069069055E+03  0.59850649410E+02  0.10801742564E+04  0.50400001928E-02 0.  1.
       -1    1    3    3    0  502  0.88896074400E+03 -0.61069069055E+03 -0.57269315970E+03  0.12211354467E+04  0.50400001928E-02 0. -1.
</event>
<event>
 5   0  0.5679750E-07  0.3656078E+04  0.7818609E-02  0.8077766E-01
        1   -1    0    0  501    0  0.00000000000E+00  0.00000000000E+00  0.17631423852E+04  0.17631423852E+04  0.50400001928E-02 0. -1.
       -1   -1    0    0    0  501  0.00000000000E+00  0.00000000000E+00 -0.18953238286E+04  0.18953238287E+04  0.50400001928E-02 0.  1.
    10030    2    1    2    0    0  0.00000000000E+00  0.00000000000E+00 -0.13218144348E+03  0.36584662138E+04  0.36560775571E+04 0.  0.
        4    1    3    3  502    0  0.12779021320E+04 -0.40463081955E+03  0.11776872460E+04  0.17842950489E+04  0.12699999809E+01 0. -1.
       -4    1    3    3    0  502 -0.12779021320E+04  0.40463081955E+03 -0.13098686895E+04  0.18741711650E+04  0.12699999809E+01 0.  1.
</event>
<event>
 5   0  0.1184684E-06  0.3397733E+04  0.7818609E-02  0.8138463E-01
        2   -1    0    0  501    0  0.00000000000E+00  0.00000000000E+00  0.24404836638E+04  0.24404836638E+04  0.25500000920E-02 0. -1.
       -2   -1    0    0    0  501  0.00000000000E+00  0.00000000000E+00 -0.11826126558E+04  0.11826126558E+04  0.25500000920E-02 0.  1.
    10030    2    1    2    0    0  0.00000000000E+00  0.00000000000E+00  0.12578710080E+04  0.36230963196E+04  0.33977326952E+04 0.  0.
        4    1    3    3  502    0  0.72198589640E+02 -0.14548674811E+04  0.15611603570E+04  0.21351991235E+04  0.12699999809E+01 0. -1.
       -4    1    3    3    0  502 -0.72198589640E+02  0.14548674811E+04 -0.30328934900E+03  0.14878971960E+04  0.12699999809E+01 0.  1.
</event>
<event>
 5   0  0.1685793E-06  0.2519896E+04  0.7818609E-02  0.8395932E-01
       -2   -1    0    0    0  501  0.00000000000E+00  0.00000000000E+00  0.70163303196E+03  0.70163303197E+03  0.25500000920E-02 0.  1.
        2   -1    0    0  501    0  0.00000000000E+00  0.00000000000E+00 -0.22625344103E+04  0.22625344103E+04  0.25500000920E-02 0. -1.
    10030    2    1    2    0    0  0.00000000000E+00  0.00000000000E+00 -0.15609013783E+04  0.29641674422E+04  0.25198959329E+04 0.  0.
        3    1    3    3  502    0  0.11935001205E+04  0.36440751173E+03 -0.57591725478E+03  0.13743784292E+04  0.10100000352E+00 0.  1.
       -3    1    3    3    0  502 -0.11935001205E+04 -0.36440751173E+03 -0.98498412352E+03  0.15897890130E+04  0.10100000352E+00 0. -1.
</event>
<event>
 5   0  0.1151180E-06  0.2628482E+04  0.7818609E-02  0.8358590E-01
       -2   -1    0    0    0  501  0.00000000000E+00  0.00000000000E+00  0.97803742542E+03  0.97803742543E+03  0.25500000920E-02 0.  1.
        2   -1    0    0  501    0  0.00000000000E+00  0.00000000000E+00 -0.17660162383E+04  0.17660162383E+04  0.25500000920E-02 0. -1.
    10030    2    1    2    0    0  0.00000000000E+00  0.00000000000E+00 -0.78797881289E+03  0.27440536637E+04  0.26284824329E+04 0.  0.
        5    1    3    3  502    0 -0.10656259530E+03 -0.61944911380E+02  0.97198109360E+03  0.97977655365E+03  0.46999998093E+01 0.  1.
       -5    1    3    3    0  502  0.10656259530E+03  0.61944911380E+02 -0.17599599065E+04  0.17642771101E+04  0.46999998093E+01 0. -1.
</event>
<event>
 5   0  0.5875011E-07  0.3689262E+04  0.7818609E-02  0.8070346E-01
       -1   -1    0    0    0  501  0.00000000000E+00  0.00000000000E+00  0.21332230463E+04  0.21332230463E+04  0.50400001928E-02 0. -1.
        1   -1    0    0  501    0  0.00000000000E+00  0.00000000000E+00 -0.15950806260E+04  0.15950806260E+04  0.50400001928E-02 0.  1.
    10030    2    1    2    0    0  0.00000000000E+00  0.00000000000E+00  0.53814242031E+03  0.37283036723E+04  0.36892615804E+04 0.  0.
        2    1    3    3  502    0  0.42113406806E+03 -0.94715652044E+03 -0.12729213796E+04  0.16415810111E+04  0.25500000920E-02 0.  1.
       -2    1    3    3    0  502 -0.42113406806E+03  0.94715652044E+03  0.18110637999E+04  0.20867226612E+04  0.25500000920E-02 0. -1.
</event>
<event>
 5   0  0.5875011E-07  0.3571342E+04  0.7818609E-02  0.8097088E-01
        1   -1    0    0  501    0  0.00000000000E+00  0.00000000000E+00  0.12843080583E+04  0.12843080583E+04  0.50400001928E-02 0. -1.
       -1   -1    0    0    0  501  0.00000000000E+00  0.00000000000E+00 -0.24827542405E+04  0.24827542405E+04  0.50400001928E-02 0.  1.
    10030    2    1    2    0    0  0.00000000000E+00  0.00000000000E+00 -0.11984461822E+04  0.37670622988E+04  0.35713422003E+04 0.  0.
        2    1    3    3  502    0  0.80664626928E+03 -0.42208807802E+03  0.10211220459E+04  0.13680375660E+04  0.25500000920E-02 0. -1.
       -2    1    3    3    0  502 -0.80664626928E+03  0.42208807802E+03 -0.22195682282E+04  0.23990247328E+04  0.25500000920E-02 0.  1.
</event>
<event>
 5   0  0.6287345E-07  0.2224565E+04  0.7818609E-02  0.8508273E-01
       -1   -1    0    0    0  501  0.00000000000E+00  0.00000000000E+00  0.99000725141E+03  0.99000725142E+03  0.50400001928E-02 0.  1.
        1   -1    0    0  501    0  0.00000000000E+00  0.00000000000E+00 -0.12496593744E+04  0.12496593744E+04  0.50400001928E-02 0. -1.
    10030    2    1    2    0    0  0.00000000000E+00  0.00000000000E+00 -0.25965212297E+03  0.22396666258E+04  0.22245645349E+04 0.  0.
        5    1    3    3  502    0  0.81766670266E+03 -0.47824947471E+03  0.45709670479E+03  0.10517893726E+04  0.46999998093E+01 0.  1.
       -5    1    3    3    0  502 -0.81766670266E+03  0.47824947471E+03 -0.71674882776E+03  0.11878772533E+04  0.46999998093E+01 0. -1.
</event>
<event>
 5   0  0.5679750E-07  0.2746091E+04  0.7818609E-02  0.8320203E-01
       -1   -1    0    0    0  501  0.00000000000E+00  0.00000000000E+00  0.15009437671E+04  0.15009437671E+04  0.50400001928E-02 0. -1.
        1   -1    0    0  501    0  0.00000000000E+00  0.00000000000E+00 -0.12560454774E+04  0.12560454774E+04  0.50400001928E-02 0.  1.
    10030    2    1    2    0    0  0.00000000000E+00  0.00000000000E+00  0.24489828973E+03  0.27569892445E+04  0.27460907709E+04 0.  0.
        4    1    3    3  502    0  0.55361045212E+03 -0.22919483004E+03  0.13627618795E+04  0.14886693239E+04  0.12699999809E+01 0. -1.
       -4    1    3    3    0  502 -0.55361045212E+03  0.22919483004E+03 -0.11178635897E+04  0.12683199206E+04  0.12699999809E+01 0.  1.
</event>
<event>
 5   0  0.1151180E-06  0.3697789E+04  0.7818609E-02  0.8068452E-01
        2   -1    0    0  501    0  0.00000000000E+00  0.00000000000E+00  0.30775990376E+04  0.30775990376E+04  0.25500000920E-02 0. -1.
       -2   -1    0    0    0  501  0.00000000000E+00  0.00000000000E+00 -0.11107398054E+04  0.11107398054E+04  0.25500000920E-02 0.  1.
    10030    2    1    2    0    0  0.00000000000E+00  0.00000000000E+00  0.19668592322E+04  0.41883388431E+04  0.36977894782E+04 0.  0.
        5    1    3    3  502    0 -0.39274757586E+03  0.22264023908E+03  0.30142012722E+04  0.30478272152E+04  0.46999998093E+01 0. -1.
       -5    1    3    3    0  502  0.39274757586E+03 -0.22264023908E+03 -0.10473420400E+04  0.11405116278E+04  0.46999998093E+01 0.  1.
</event>
<event>
 5   0  0.1184684E-06  0.1824889E+04  0.7818609E-02  0.8693175E-01
       -2   -1    0    0    0  501  0.00000000000E+00  0.00000000000E+00  0.46275935427E+03  0.46275935428E+03  0.25500000920E-02 0. -1.
        2   -1    0    0  501    0  0.00000000000E+00  0.00000000000E+00 -0.17991098918E+04  0.17991098918E+04  0.25500000920E-02 0.  1.
    10030    2    1    2    0    0  0.00000000000E+00  0.00000000000E+00 -0.13363505375E+04  0.22618692461E+04  0.18248889630E+04 0.  0.
        4    1    3    3  502    0 -0.71492774016E+03 -0.56663772183E+03 -0.64487688007E+03  0.11171695417E+04  0.12699999809E+01 0.  1.
       -4    1    3    3    0  502  0.71492774016E+03  0.56663772183E+03 -0.69147365744E+03  0.11446997044E+04  0.12699999809E+01 0. -1.
</event>
<event>
 5   0  0.1724503E-06  0.3428660E+04  0.7818609E-02  0.8130908E-01
       -2   -1    0    0    0  501  0.00000000000E+00  0.00000000000E+00  0.25001198373E+04  0.25001198373E+04  0.25500000920E-02 0.  1.
        2   -1    0    0  501    0  0.00000000000E+00  0.00000000000E+00 -0.11755144792E+04  0.11755144792E+04  0.25500000920E-02 0. -1.
    10030    2    1    2    0    0  0.00000000000E+00  0.00000000000E+00  0.13246053581E+04  0.36756343165E+04  0.34286598364E+04 0.  0.
        1    1    3    3  502    0  0.67282488171E+03 -0.10394641865E+04 -0.60874437135E+03  0.13797640473E+04  0.50400001928E-02 0. -1.
       -1    1    3    3    0  502 -0.67282488171E+03  0.10394641865E+04  0.19333497295E+04  0.22958702692E+04  0.50400001928E-02 0.  1.
</event>
<event>
 5   0  0.1724503E-06  0.1908166E+04  0.7818609E-02  0.8650802E-01
       -2   -1    0    0    0  501  0.00000000000E+00  0.00000000000E+00  0.78722871801E+03  0.78722871802E+03  0.25500000920E-02 0. -1.
        2   -1    0    0  501    0  0.00000000000E+00  0.00000000000E+00 -0.11563022003E+04  0.11563022003E+04  0.25500000920E-02 0.  1.
    10030    2    1    2    0    0  0.00000000000E+00  0.00000000000E+00 -0.36907348233E+03  0.19435309184E+04  0.19081659245E+04 0.  0.
        1    1    3    3  502    0 -0.86982998168E+03  0.18252072530E+03 -0.53789049370E+03  0.10388667843E+04  0.50400001928E-02 0.  1.
       -1    1    3    3    0  502  0.86982998168E+03 -0.18252072530E+03  0.16881701137E+03  0.90466413411E+03  0.50400001928E-02 0. -1.
</event>
<event>
 5   0  0.1151180E-06  0.3682362E+04  0.7818609E-02  0.8071882E-01
       -2   -1    0    0    0  501  0.00000000000E+00  0.00000000000E+00  0.14112691929E+04  0.14112691929E+04  0.25500000920E-02 0.  1.
        2   -1    0    0  501    0  0.00000000000E+00  0.00000000000E+00 -0.24020561345E+04  0.24020561345E+04  0.25500000920E-02 0. -1.
    10030    2    1    2    0    0  0.00000000000E+00  0.00000000000E+00 -0.99078694159E+03  0.38133253273E+04  0.36823621887E+04 0.  0.
        5    1    3    3  502    0 -0.54787167940E+03 -0.17365229527E+04 -0.21321314884E+03  0.18333459246E+04  0.46999998093E+01 0.  1.
       -5    1    3    3    0  502  0.54787167940E+03  0.17365229527E+04 -0.77757379274E+03  0.19799794028E+04  0.46999998093E+01 0. -1.
</event>
<event>
 5   0  0.6186440E-07  0.2652854E+04  0.7818609E-02  0.8350466E-01
       -1   -1    0    0    0  501  0.00000000000E+00  0.00000000000E+00  0.18498516374E+04  0.18498516374E+04  0.50400001928E-02 0. -1.
        1   -1    0    0  501    0  0.00000000000E+00  0.00000000000E+00 -0.95110792100E+03  0.95110792101E+03  0.50400001928E-02 0.  1.
    10030    2    1    2    0    0  0.00000000000E+00  0.00000000000E+00  0.89874371644E+03  0.28009595585E+04  0.26528539689E+04 0.  0.
        3    1    3    3  502    0  0.75792909574E+03  0.75712163944E+03  0.12751614861E+04  0.16654508449E+04  0.10100000352E+00 0. -1.
       -3    1    3    3    0  502 -0.75792909574E+03 -0.75712163944E+03 -0.37641776962E+03  0.11355087136E+04  0.10100000352E+00 0.  1.
</event>
<event>
 5   0  0.1685793E-06  0.3069333E+04  0.7818609E-02  0.8224205E-01
       -2   -1    0    0    0  501  0.00000000000E+00  0.00000000000E+00  0.24268299189E+04  0.24268299189E+04  0.25500000920E-02 0. -1.
        2   -1    0    0  501    0  0.00000000000E+00  0.00000000000E+00 -0.97048466353E+03  0.97048466353E+03  0.25500000920E-02 0.  1.
    10030    2    1    2    0    0  0.00000000000E+00  0.00000000000E+00  0.14563452554E+04  0.33973145825E+04  0.30693329681E+04 0.  0.
        3    1    3    3  502    0  0.25966657257E+03 -0.59452000162E+03  0.22675885359E+04  0.23585670522E+04  0.10100000352E+00 0. -1.
       -3    1    3    3    0  502 -0.25966657257E+03  0.59452000162E+03 -0.81124328053E+03  0.10387475303E+04  0.10100000352E+00 0.  1.
</event>
<event>
 5   0  0.5875011E-07  0.2665880E+04  0.7818609E-02  0.8346161E-01
       -1   -1    0    0    0  501  0.00000000000E+00  0.00000000000E+00  0.99186822943E+03  0.99186822945E+03  0.50400001928E-02 0. -1.
        1   -1    0    0  501    0  0.00000000000E+00  0.00000000000E+00 -0.17912960297E+04  0.17912960297E+04  0.50400001928E-02 0.  1.
    10030    2    1    2    0    0  0.00000000000E+00  0.00000000000E+00 -0.79942780025E+03  0.27831642591E+04  0.26658804335E+04 0.  0.
        2    1    3    3  502    0  0.10023120295E+04 -0.53425201055E+03 -0.11280262815E+04  0.16007804056E+04  0.25500000920E-02 0.  1.
       -2    1    3    3    0  502 -0.10023120295E+04  0.53425201055E+03  0.32859848120E+03  0.11823838535E+04  0.25500000920E-02 0. -1.
</event>
<event>
 5   0  0.1680194E-06  0.3685137E+04  0.7818609E-02  0.8071264E-01
        2   -1    0    0  501    0  0.00000000000E+00  0.00000000000E+00  0.22227471792E+04  0.22227471792E+04  0.25500000920E-02 0. -1.
       -2   -1    0    0    0  501  0.00000000000E+00  0.00000000000E+00 -0.15274153673E+04  0.15274153673E+04  0.25500000920E-02 0.  1.
    10030    2    1    2    0    0  0.00000000000E+00  0.00000000000E+00  0.69533181185E+03  0.37501625465E+04  0.36851367406E+04 0.  0.
        2    1    3    3  502    0  0.13632190054E+04 -0.52073791898E+03  0.14924714011E+04  0.20873439870E+04  0.25500000920E-02 0. -1.
       -2    1    3    3    0  502 -0.13632190054E+04  0.52073791898E+03 -0.79713958930E+03  0.16628185595E+04  0.25500000920E-02 0.  1.
</event>
<event>
 5   0  0.5679750E-07  0.3400155E+04  0.7818609E-02  0.8137868E-01
        1   -1    0    0  501    0  0.00000000000E+00  0.00000000000E+00  0.20115428635E+04  0.20115428635E+04  0.50400001928E-02 0. -1.
       -1   -1    0    0    0  501  0.00000000000E+00  0.00000000000E+00 -0.14368393045E+04  0.14368393045E+04  0.50400001928E-02 0.  1.
    10030    2    1    2    0    0  0.00000000000E+00  0.00000000000E+00  0.57470355900E+03  0.34483821681E+04  0.34001552018E+04 0.  0.
        4    1    3    3  502    0  0.99900058112E+03 -0.12876762846E+04  0.77810550130E+03  0.18059795566E+04  0.12699999809E+01 0. -1.
       -4    1    3    3    0  502 -0.99900058112E+03  0.12876762846E+04 -0.20340194231E+03  0.16424026114E+04  0.12699999809E+01 0.  1.
</event>
<event>
 5   0  0.1685793E-06  0.3813696E+04  0.7818609E-02  0.8043222E-01
        2   -1    0    0  501    0  0.00000000000E+00  0.00000000000E+00  0.17875669636E+04  0.17875669636E+04  0.25500000920E-02 0.  1.
       -2   -1    0    0    0  501  0.00000000000E+00  0.00000000000E+00 -0.20340880318E+04  0.20340880318E+04  0.25500000920E-02 0. -1.
    10030    2    1    2    0    0  0.00000000000E+00  0.00000000000E+00 -0.24652106820E+03  0.38216549954E+04  0.38136956180E+04 0.  0.
        3    1    3    3  502    0 -0.15844217697E+04 -0.23710071632E+02 -0.11861882298E+04  0.19793930985E+04  0.10100000352E+00 0. -1.
       -3    1    3    3    0  502  0.15844217697E+04  0.23710071632E+02  0.93966716155E+03  0.18422618968E+04  0.10100000352E+00 0.  1.
</event>
<event>
 5   0  0.1151180E-06  0.3698950E+04  0.7818609E-02  0.8068195E-01
        2   -1    0    0  501    0  0.00000000000E+00  0.00000000000E+00  0.25576019898E+04  0.25576019898E+04  0.25500000920E-02 0. -1.
       -2   -1    0    0    0  501  0.00000000000E+00  0.00000000000E+00 -0.13374080693E+04  0.13374080693E+04  0.25500000920E-02 0.  1.
    10030    2    1    2    0    0  0.00000000000E+00  0.00000000000E+00  0.12201939205E+04  0.38950100591E+04  0.36989498722E+04 0.  0.
        5    1    3    3  502    0 -0.11376351356E+03 -0.15198445076E+04  0.17133248718E+04  0.22931144041E+04  0.46999998093E+01 0. -1.
       -5    1    3    3    0  502  0.11376351356E+03  0.15198445076E+04 -0.49313095126E+03  0.16018956549E+04  0.46999998093E+01 0.  1.
</event>
<event>
 5   0  0.5679750E-07  0.3632080E+04  0.7818609E-02  0.8083183E-01
       -1   -1    0    0    0  501  0.00000000000E+00  0.00000000000E+00  0.15988254815E+04  0.15988254815E+04  0.50400001928E-02 0.  1.
        1   -1    0    0  501    0  0.00000000000E+00  0.00000000000E+00 -0.20627648483E+04  0.20627648483E+04  0.50400001928E-02 0. -1.
    10030    2    1    2    0    0  0.00000000000E+00  0.00000000000E+00 -0.46393936679E+03  0.36615903298E+04  0.36320798459E+04 0.  0.
        4    1    3    3  502    0 -0.46742367958E+03  0.86498427937E+02 -0.19989319252E+04  0.20546769402E+04  0.12699999809E+01 0. -1.
       -4    1    3    3    0  502  0.46742367958E+03 -0.86498427937E+02  0.15349925584E+04  0.16069133896E+04  0.12699999809E+01 0.  1.
</event>
<event>
 5   0  0.5875011E-07  0.2565446E+04  0.7818609E-02  0.8380034E-01
       -1   -1    0    0    0  501  0.00000000000E+00  0.00000000000E+00  0.75278841399E+03  0.75278841400E+03  0.50400001928E-02 0. -1.
        1   -1    0    0  501    0  0.00000000000E+00  0.00000000000E+00 -0.21857114663E+04  0.21857114663E+04  0.50400001928E-02 0.  1.
    10030    2    1    2    0    0  0.00000000000E+00  0.00000000000E+00 -0.14329230524E+04  0.29384998804E+04  0.25654459793E+04 0.  0.
        2    1    3    3  502    0 -0.89170712657E+03  0.89716014107E+03 -0.47256521214E+03  0.13503169250E+04  0.25500000920E-02 0.  1.
       -2    1    3    3    0  502  0.89170712657E+03 -0.89716014107E+03 -0.96035784021E+03  0.15881829553E+04  0.25500000920E-02 0. -1.
</event>
<event>
 5   0  0.6186440E-07  0.3420636E+04  0.7818609E-02  0.8132860E-01
        1   -1    0    0  501    0  0.00000000000E+00  0.00000000000E+00  0.19311982820E+04  0.19311982820E+04  0.50400001928E-02 0.  1.
       -1   -1    0    0    0  501  0.00000000000E+00  0.00000000000E+00 -0.15147004930E+04  0.15147004930E+04  0.50400001928E-02 0. -1.
    10030    2    1    2    0    0  0.00000000000E+00  0.00000000000E+00  0.41649778893E+03  0.34458987750E+04  0.34206356075E+04 0.  0.
        3    1    3    3  502    0  0.72153665449E+03  0.97745494166E+02  0.17672630659E+04  0.19113838128E+04  0.10100000352E+00 0.  1.
       -3    1    3    3    0  502 -0.72153665449E+03 -0.97745494166E+02 -0.13507652770E+04  0.15345149622E+04  0.10100000352E+00 0. -1.
</event>
<event>
 5   0  0.6186440E-07  0.2093525E+04  0.7818609E-02  0.8564101E-01
       -1   -1    0    0    0  501  0.00000000000E+00  0.00000000000E+00  0.17479489383E+04  0.17479489383E+04  0.50400001928E-02 0.  1.
        1   -1    0    0  501    0  0.00000000000E+00  0.00000000000E+00 -0.62685571279E+03  0.62685571281E+03  0.50400001928E-02 0. -1.
    10030    2    1    2    0    0  0.00000000000E+00  0.00000000000E+00  0.11210932255E+04  0.23748046511E+04  0.20935250442E+04 0.  0.
        3    1    3    3  502    0 -0.14650033600E+03  0.82238896302E+03  0.12761144073E+04  0.15252061977E+04  0.10100000352E+00 0.  1.
       -3    1    3    3    0  502  0.14650033600E+03 -0.82238896302E+03 -0.15502118180E+03  0.84959845336E+03  0.10100000352E+00 0. -1.
</event>
<event>
 5   0  0.1151180E-06  0.3514947E+04  0.7818609E-02  0.8110257E-01
       -2   -1    0    0    0  501  0.00000000000E+00  0.00000000000E+00  0.10633952436E+04  0.10633952436E+04  0.25500000920E-02 0. -1.
        2   -1    0    0  501    0  0.00000000000E+00  0.00000000000E+00 -0.29045769557E+04  0.29045769558E+04  0.25500000920E-02 0.  1.
    10030    2    1    2    0    0  0.00000000000E+00  0.00000000000E+00 -0.18411817121E+04  0.39679721994E+04  0.35149471231E+04 0.  0.
        5    1    3    3  502    0 -0.11055495860E+04  0.22647609540E+03 -0.24415140098E+04  0.26897107760E+04  0.46999998093E+01 0.  1.
       -5    1    3    3    0  502  0.11055495860E+04 -0.22647609540E+03  0.60033229766E+03  0.12782614233E+04  0.46999998093E+01 0. -1.
</event>
<event>
 5   0  0.1685793E-06  0.2918761E+04  0.7818609E-02  0.8267317E-01
        2   -1    0    0  501    0  0.00000000000E+00  0.00000000000E+00  0.18560114634E+04  0.18560114634E+04  0.25500000920E-02 0.  1.
       -2   -1    0    0    0  501  0.00000000000E+00  0.00000000000E+00 -0.11475094825E+04  0.11475094825E+04  0.25500000920E-02 0. -1.
    10030    2    1    2    0    0  0.00000000000E+00  0.00000000000E+00  0.70850198088E+03  0.30035209459E+04  0.29187605273E+04 0.  0.
        3    1    3    3  502    0  0.16825684643E+03  0.14173243308E+04  0.66751229113E+03  0.15756558298E+04  0.10100000352E+00 0.  1.
       -3    1    3    3    0  502 -0.16825684643E+03 -0.14173243308E+04  0.40989689745E+02  0.14278651161E+04  0.10100000352E+00 0. -1.
</event>
<event>
 5   0  0.1685793E-06  0.3680713E+04  0.7818609E-02  0.8072250E-01
        2   -1    0    0  501    0  0.00000000000E+00  0.00000000000E+00  0.18984265118E+04  0.18984265118E+04  0.25500000920E-02 0.  1.
       -2   -1    0    0    0  501  0.00000000000E+00  0.00000000000E+00 -0.17840629215E+04  0.17840629215E+04  0.25500000920E-02 0. -1.
    10030    2    1    2    0    0  0.00000000000E+00  0.00000000000E+00  0.11436359025E+03  0.36824894333E+04  0.36807131640E+04 0.  0.
        3    1    3    3  502    0 -0.16289138400E+04 -0.12549346805E+03  0.90482346729E+03  0.18675691221E+04  0.10100000352E+00 0. -1.
       -3    1    3    3    0  502  0.16289138400E+04  0.12549346805E+03 -0.79045987705E+03  0.18149203112E+04  0.10100000352E+00 0.  1.
</event>
<event>
 5   0  0.1685793E-06  0.3560118E+04  0.7818609E-02  0.8099689E-01
       -2   -1    0    0    0  501  0.00000000000E+00  0.00000000000E+00  0.17460192400E+04  0.17460192400E+04  0.25500000920E-02 0.  1.
        2   -1    0    0  501    0  0.00000000000E+00  0.00000000000E+00 -0.18147624151E+04  0.18147624151E+04  0.25500000920E-02 0. -1.
    10030    2    1    2    0    0  0.00000000000E+00  0.00000000000E+00 -0.68743175004E+02  0.35607816551E+04  0.35601180277E+04 0.  0.
        3    1    3    3  502    0  0.14124199593E+04  0.72021512919E+03 -0.84382468217E+03  0.17960178390E+04  0.10100000352E+00 0. -1.
       -3    1    3    3    0  502 -0.14124199593E+04 -0.72021512919E+03  0.77508150717E+03  0.17647638161E+04  0.10100000352E+00 0.  1.
</event>
<event>
 5   0  0.1151180E-06  0.3702872E+04  0.7818609E-02  0.8067326E-01
       -2   -1    0    0    0  501  0.00000000000E+00  0.00000000000E+00  0.29678762915E+04  0.29678762915E+04  0.25500000920E-02 0. -1.
        2   -1    0    0  501    0  0.00000000000E+00  0.00000000000E+00 -0.11549725220E+04  0.11549725220E+04  0.25500000920E-02 0.  1.
    10030    2    1    2    0    0  0.00000000000E+00  0.00000000000E+00  0.18129037695E+04  0.41228488135E+04  0.37028721638E+04 0.  0.
        5    1    3    3  502    0 -0.66940693418E+03 -0.15574063449E+04  0.77591290872E+02  0.16969568837E+04  0.46999998093E+01 0.  1.
       -5    1    3    3    0  502  0.66940693418E+03  0.15574063449E+04  0.17353124786E+04  0.24258919298E+04  0.46999998093E+01 0. -1.
</event>
<event>
 5   0  0.1685793E-06  0.3788662E+04  0.7818609E-02  0.8048592E-01
       -2   -1    0    0    0  501  0.00000000000E+00  0.00000000000E+00  0.33043540884E+04  0.33043540884E+04  0.25500000920E-02 0. -1.
        2   -1    0    0  501    0  0.00000000000E+00  0.00000000000E+00 -0.10859882038E+04  0.10859882038E+04  0.25500000920E-02 0.  1.
    10030    2    1    2    0    0  0.00000000000E+00  0.00000000000E+00  0.22183658846E+04  0.43903422922E+04  0.37886618013E+04 0.  0.
        3    1    3    3  502    0  0.12062082494E+04  0.84139142243E+03  0.24927912629E+04  0.28942850857E+04  0.10100000352E+00 0. -1.
       -3    1    3    3    0  502 -0.12062082494E+04 -0.84139142243E+03 -0.27442537834E+03  0.14960572065E+04  0.10100000352E+00 0.  1.
</event>
<event>
 5   0  0.1680194E-06  0.3816063E+04  0.7818609E-02  0.8042717E-01
       -2   -1    0    0    0  501  0.00000000000E+00  0.00000000000E+00  0.18648136869E+04  0.18648136869E+04  0.25500000920E-02 0.  1.
        2   -1    0    0  501    0  0.00000000000E+00  0.00000000000E+00 -0.19522506800E+04  0.19522506800E+04  0.25500000920E-02 0. -1.
    10030    2    1    2    0    0  0.00000000000E+00  0.00000000000E+00 -0.87436993056E+02  0.38170643669E+04  0.38160627816E+04 0.  0.
        2    1    3    3  502    0  0.17677270513E+04  0.11665483877E+03 -0.75250627869E+03  0.19247682922E+04  0.25500000920E-02 0. -1.
       -2    1    3    3    0  502 -0.17677270513E+04 -0.11665483877E+03  0.66506928563E+03  0.18922960746E+04  0.25500000920E-02 0.  1.
</event>
<event>
 5   0  0.1685793E-06  0.2036972E+04  0.7818609E-02  0.8589528E-01
       -2   -1    0    0    0  501  0.00000000000E+00  0.00000000000E+00  0.63001204036E+03  0.63001204036E+03  0.25500000920E-02 0. -1.
        2   -1    0    0  501    0  0.00000000000E+00  0.00000000000E+00 -0.16464974751E+04  0.16464974751E+04  0.25500000920E-02 0.  1.
    10030    2    1    2    0    0  0.00000000000E+00  0.00000000000E+00 -0.10164854348E+04  0.22765095155E+04  0.20369715106E+04 0.  0.
        3    1    3    3  502    0  0.27387016387E+03  0.91385711555E+03 -0.90679277558E+03  0.13162115492E+04  0.10100000352E+00 0.  1.
       -3    1    3    3    0  502 -0.27387016387E+03 -0.91385711555E+03 -0.10969265918E+03  0.96029796624E+03  0.10100000352E+00 0. -1.
</event>
<event>
 5   0  0.1151180E-06  0.3689795E+04  0.7818609E-02  0.8070227E-01
        2   -1    0    0  501    0  0.00000000000E+00  0.00000000000E+00  0.24342889464E+04  0.24342889464E+04  0.25500000920E-02 0.  1.
       -2   -1    0    0    0  501  0.00000000000E+00  0.00000000000E+00 -0.13982101803E+04  0.13982101803E+04  0.25500000920E-02 0. -1.
    10030    2    1    2    0    0  0.00000000000E+00  0.00000000000E+00  0.10360787661E+04  0.38324991267E+04  0.36897954342E+04 0.  0.
        5    1    3    3  502    0 -0.63502501306E+03 -0.21459101310E+03  0.23033282657E+04  0.23988850034E+04  0.46999998093E+01 0.  1.
       -5    1    3    3    0  502  0.63502501306E+03  0.21459101310E+03 -0.12672494996E+04  0.14336141232E+04  0.46999998093E+01 0. -1.
</event>
<event>
 5   0  0.1680194E-06  0.2866554E+04  0.7818609E-02  0.8282899E-01
        2   -1    0    0  501    0  0.00000000000E+00  0.00000000000E+00  0.22092399344E+04  0.22092399344E+04  0.25500000920E-02 0. -1.
       -2   -1    0    0    0  501  0.00000000000E+00  0.00000000000E+00 -0.92985975463E+03  0.92985975463E+03  0.25500000920E-02 0.  1.
    10030    2    1    2    0    0  0.00000000000E+00  0.00000000000E+00  0.12793801798E+04  0.31390996890E+04  0.28665542404E+04 0.  0.
        2    1    3    3  502    0  0.11779228807E+04 -0.60795007403E+03  0.12366608381E+04  0.18128528992E+04  0.25500000920E-02 0. -1.
       -2    1    3    3    0  502 -0.11779228807E+04  0.60795007403E+03  0.42719341667E+02  0.13262467899E+04  0.25500000920E-02 0.  1.
</event>
<event>
 5   0  0.5875011E-07  0.3658648E+04  0.7818609E-02  0.8077188E-01
        1   -1    0    0  501    0  0.00000000000E+00  0.00000000000E+00  0.12470096188E+04  0.12470096188E+04  0.50400001928E-02 0. -1.
       -1   -1    0    0    0  501  0.00000000000E+00  0.00000000000E+00 -0.26835615216E+04  0.26835615216E+04  0.50400001928E-02 0.  1.
    10030    2    1    2    0    0  0.00000000000E+00  0.00000000000E+00 -0.14365519029E+04  0.39305711404E+04  0.36586484008E+04 0.  0.
        2    1    3    3  502    0  0.11190215885E+03 -0.17652280609E+04 -0.12197385149E+04  0.21485609707E+04  0.25500000920E-02 0.  1.
       -2    1    3    3    0  502 -0.11190215885E+03  0.17652280609E+04 -0.21681338798E+03  0.17820101698E+04  0.25500000920E-02 0. -1.
</event>
<event>
 5   0  0.5875011E-07  0.2213189E+04  0.7818609E-02  0.8512958E-01
        1   -1    0    0  501    0  0.00000000000E+00  0.00000000000E+00  0.98187977615E+03  0.98187977616E+03  0.50400001928E-02 0.  1.
       -1   -1    0    0    0  501  0.00000000000E+00  0.00000000000E+00 -0.12471504415E+04  0.12471504415E+04  0.50400001928E-02 0. -1.
    10030    2    1    2    0    0  0.00000000000E+00  0.00000000000E+00 -0.26527066531E+03  0.22290302176E+04  0.22131893695E+04 0.  0.
        2    1    3    3  502    0  0.70767056755E+02  0.80579292099E+03 -0.89318367545E+03  0.12050258445E+04  0.25500000920E-02 0. -1.
       -2    1    3    3    0  502 -0.70767056755E+02 -0.80579292099E+03  0.62791301014E+03  0.10240043731E+04  0.25500000920E-02 0.  1.
</event>
<event>
 5   0  0.6287345E-07  0.2326638E+04  0.7818609E-02  0.8467492E-01
        1   -1    0    0  501    0  0.00000000000E+00  0.00000000000E+00  0.95333452236E+03  0.95333452237E+03  0.50400001928E-02 0.  1.
       -1   -1    0    0    0  501  0.00000000000E+00  0.00000000000E+00 -0.14195547816E+04  0.14195547816E+04  0.50400001928E-02 0. -1.
    10030    2    1    2    0    0  0.00000000000E+00  0.00000000000E+00 -0.46622025922E+03  0.23728893039E+04  0.23266375564E+04 0.  0.
        5    1    3    3  502    0  0.25965325067E+03  0.23061591987E+03 -0.13654447768E+04  0.14089233626E+04  0.46999998093E+01 0. -1.
       -5    1    3    3    0  502 -0.25965325067E+03 -0.23061591987E+03  0.89922451760E+03  0.96396594137E+03  0.46999998093E+01 0.  1.
</event>
<event>
 5   0  0.1184684E-06  0.3009391E+04  0.7818609E-02  0.8241054E-01
       -2   -1    0    0    0  501  0.00000000000E+00  0.00000000000E+00  0.21602509670E+04  0.21602509670E+04  0.25500000920E-02 0. -1.
        2   -1    0    0  501    0  0.00000000000E+00  0.00000000000E+00 -0.10480767512E+04  0.10480767512E+04  0.25500000920E-02 0.  1.
    10030    2    1    2    0    0  0.00000000000E+00  0.00000000000E+00  0.11121742158E+04  0.32083277182E+04  0.30093911778E+04 0.  0.
        4    1    3    3  502    0  0.11431573276E+04  0.24720746839E+03 -0.45316438016E+03  0.12543044991E+04  0.12699999809E+01 0.  1.
       -4    1    3    3    0  502 -0.11431573276E+04 -0.24720746839E+03  0.15653385960E+04  0.19540232191E+04  0.12699999809E+01 0. -1.
</event>
<event>
 5   0  0.6287345E-07  0.1979829E+04  0.7818609E-02  0.8616110E-01
       -1   -1    0    0    0  501  0.00000000000E+00  0.00000000000E+00  0.47710404627E+03  0.47710404630E+03  0.50400001928E-02 0. -1.
        1   -1    0    0  501    0  0.00000000000E+00  0.00000000000E+00 -0.20539148371E+04  0.20539148371E+04  0.50400001928E-02 0.  1.
    10030    2    1    2    0    0  0.00000000000E+00  0.00000000000E+00 -0.15768107909E+04  0.25310188834E+04  0.19798293659E+04 0.  0.
        5    1    3    3  502    0 -0.56277557090E+02 -0.15252611252E+03 -0.20367166141E+04  0.20432004391E+04  0.46999998093E+01 0.  1.
       -5    1    3    3    0  502  0.56277557090E+02  0.15252611252E+03  0.45990582319E+03  0.48781844433E+03  0.46999998093E+01 0. -1.
</event>
<event>
 5   0  0.6261598E-07  0.3552871E+04  0.7818609E-02  0.8101373E-01
        1   -1    0    0  501    0  0.00000000000E+00  0.00000000000E+00  0.15583764037E+04  0.15583764037E+04  0.50400001928E-02 0. -1.
       -1   -1    0    0    0  501  0.00000000000E+00  0.00000000000E+00 -0.20250069464E+04  0.20250069464E+04  0.50400001928E-02 0.  1.
    10030    2    1    2    0    0  0.00000000000E+00  0.00000000000E+00 -0.46663054264E+03  0.35833833501E+04  0.35528709758E+04 0.  0.
        1    1    3    3  502    0 -0.40636541770E+03  0.13222300356E+04 -0.13574716131E+04  0.19380800551E+04  0.50400001928E-02 0.  1.
       -1    1    3    3    0  502  0.40636541770E+03 -0.13222300356E+04  0.89084107043E+03  0.16453032950E+04  0.50400001928E-02 0. -1.
</event>
<event>
 5   0  0.1151180E-06  0.3614094E+04  0.7818609E-02  0.8087271E-01
        2   -1    0    0  501    0  0.00000000000E+00  0.00000000000E+00  0.11455329638E+04  0.11455329638E+04  0.25500000920E-02 0. -1.
       -2   -1    0    0    0  501  0.00000000000E+00  0.00000000000E+00 -0.28505671687E+04  0.28505671687E+04  0.25500000920E-02 0.  1.
    10030    2    1    2    0    0  0.00000000000E+00  0.00000000000E+00 -0.17050342049E+04  0.39961001324E+04  0.36140938876E+04 0.  0.
        5    1    3    3  502    0  0.44983825558E+03 -0.66128844936E+03 -0.26442066768E+04  0.27625183997E+04  0.46999998093E+01 0.  1.
       -5    1    3    3    0  502 -0.44983825558E+03  0.66128844936E+03  0.93917247183E+03  0.12335817327E+04  0.46999998093E+01 0. -1.
</event>
<event>
 5   0  0.1724503E-06  0.3699011E+04  0.7818609E-02  0.8068181E-01
        2   -1    0    0  501    0  0.00000000000E+00  0.00000000000E+00  0.11159778486E+04  0.11159778486E+04  0.25500000920E-02 0.  1.
       -2   -1    0    0    0  501  0.00000000000E+00  0.00000000000E+00 -0.30651783493E+04  0.30651783493E+04  0.25500000920E-02 0. -1.
    10030    2    1    2    0    0  0.00000000000E+00  0.00000000000E+00 -0.19492005007E+04  0.41811561979E+04  0.36990112949E+04 0.  0.
        1    1    3    3  502    0  0.16493571785E+04 -0.64248619859E+03 -0.36851694787E+03  0.18080299662E+04  0.50400001928E-02 0.  1.
       -1    1    3    3    0  502 -0.16493571785E+04  0.64248619859E+03 -0.15806835529E+04  0.23731262318E+04  0.50400001928E-02 0. -1.
</event>
<event>
 5   0  0.1685793E-06  0.2300610E+04  0.7818609E-02  0.8477681E-01
       -2   -1    0    0    0  501  0.00000000000E+00  0.00000000000E+00  0.11622537515E+04  0.11622537515E+04  0.25500000920E-02 0. -1.
        2   -1    0    0  501    0  0.00000000000E+00  0.00000000000E+00 -0.11384790336E+04  0.11384790336E+04  0.25500000920E-02 0.  1.
    10030    2    1    2    0    0  0.00000000000E+00  0.00000000000E+00  0.23774717911E+02  0.23007327852E+04  0.23006099434E+04 0.  0.
        3    1    3    3  502    0  0.32878383193E+03 -0.70189172232E+03 -0.83812903662E+03  0.11415827128E+04  0.10100000352E+00 0.  1.
       -3    1    3    3    0  502 -0.32878383193E+03  0.70189172232E+03  0.86190375453E+03  0.11591500724E+04  0.10100000352E+00 0. -1.
</event>
<event>
 5   0  0.1680194E-06  0.3672404E+04  0.7818609E-02  0.8074105E-01
       -2   -1    0    0    0  501  0.00000000000E+00  0.00000000000E+00  0.14105672972E+04  0.14105672972E+04  0.25500000920E-02 0. -1.
        2   -1    0    0  501    0  0.00000000000E+00  0.00000000000E+00 -0.23902710014E+04  0.23902710014E+04  0.25500000920E-02 0.  1.
    10030    2    1    2    0    0  0.00000000000E+00  0.00000000000E+00 -0.97970370414E+03  0.38008382986E+04  0.36724041749E+04 0.  0.
        2    1    3    3  502    0  0.14447732988E+04 -0.82861106183E+03 -0.12899814770E+04  0.21066604823E+04  0.25500000920E-02 0.  1.
       -2    1    3    3    0  502 -0.14447732988E+04  0.82861106183E+03  0.31027777282E+03  0.16941778163E+04  0.25500000920E-02 0. -1.
</event>
<event>
 5   0  0.5679750E-07  0.3380613E+04  0.7818609E-02  0.8142681E-01
       -1   -1    0    0    0  501  0.00000000000E+00  0.00000000000E+00  0.14399020350E+04  0.14399020350E+04  0.50400001928E-02 0. -1.
        1   -1    0    0  501    0  0.00000000000E+00  0.00000000000E+00 -0.19842569582E+04  0.19842569582E+04  0.50400001928E-02 0.  1.
    10030    2    1    2    0    0  0.00000000000E+00  0.00000000000E+00 -0.54435492320E+03  0.34241589932E+04  0.33806127445E+04 0.  0.
        4    1    3    3  502    0 -0.96237031097E+02  0.11987951268E+04 -0.14752324588E+04  0.19033349003E+04  0.12699999809E+01 0.  1.
       -4    1    3    3    0  502  0.96237031097E+02 -0.11987951268E+04  0.93087753565E+03  0.15208240929E+04  0.12699999809E+01 0. -1.
</event>
<event>
 5   0  0.1184684E-06  0.3582381E+04  0.7818609E-02  0.8094539E-01
       -2   -1    0    0    0  501  0.00000000000E+00  0.00000000000E+00  0.11204863873E+04  0.11204863873E+04  0.25500000920E-02 0.  1.
        2   -1    0    0  501    0  0.00000000000E+00  0.00000000000E+00 -0.28633667375E+04  0.28633667375E+04  0.25500000920E-02 0. -1.
    10030    2    1    2    0    0  0.00000000000E+00  0.00000000000E+00 -0.17428803502E+04  0.39838531248E+04  0.35823810246E+04 0.  0.
        4    1    3    3  502    0  0.10541293811E+04 -0.24200793783E+03  0.71636828414E+03  0.12972824386E+04  0.12699999809E+01 0.  1.
       -4    1    3    3    0  502 -0.10541293811E+04  0.24200793783E+03 -0.24592486343E+04  0.26865706863E+04  0.12699999809E+01 0. -1.
</event>
<event>
 5   0  0.6261598E-07  0.3787039E+04  0.7818609E-02  0.8048942E-01
        1   -1    0    0  501    0  0.00000000000E+00  0.00000000000E+00  0.20470674691E+04  0.20470674691E+04  0.50400001928E-02 0. -1.
       -1   -1    0    0    0  501  0.00000000000E+00  0.00000000000E+00 -0.17514891072E+04  0.17514891072E+04  0.50400001928E-02 0.  1.
    10030    2    1    2    0    0  0.00000000000E+00  0.00000000000E+00  0.29557836187E+03  0.37985565763E+04  0.37870391462E+04 0.  0.
        1    1    3    3  502    0 -0.11825770801E+04  0.11291886763E+04  0.11056073425E+04  0.19738093152E+04  0.50400001928E-02 0. -1.
       -1    1    3    3    0  502  0.11825770801E+04 -0.11291886763E+04 -0.81002898063E+03  0.18247472610E+04  0.50400001928E-02 0.  1.
</event>
<event>
 5   0  0.1685793E-06  0.3582967E+04  0.7818609E-02  0.8094404E-01
       -2   -1    0    0    0  501  0.00000000000E+00  0.00000000000E+00  0.14053693165E+04  0.14053693165E+04  0.25500000920E-02 0.  1.
        2   -1    0    0  501    0  0.00000000000E+00  0.00000000000E+00 -0.22836801348E+04  0.22836801348E+04  0.25500000920E-02 0. -1.
    10030    2    1    2    0    0  0.00000000000E+00  0.00000000000E+00 -0.87831081833E+03  0.36890494513E+04  0.35829674797E+04 0.  0.
        3    1    3    3  502    0  0.11768544011E+04 -0.87681663962E+03  0.61869795839E+03  0.15926647088E+04  0.10100000352E+00 0.  1.
       -3    1    3    3    0  502 -0.11768544011E+04  0.87681663962E+03 -0.14970087767E+04  0.20963847425E+04  0.10100000352E+00 0. -1.
</event>
<event>
 5   0  0.1685793E-06  0.3376990E+04  0.7818609E-02  0.8143577E-01
       -2   -1    0    0    0  501  0.00000000000E+00  0.00000000000E+00  0.12929398544E+04  0.12929398544E+04  0.25500000920E-02 0.  1.
        2   -1    0    0  501    0  0.00000000000E+00  0.00000000000E+00 -0.22050637117E+04  0.22050637117E+04  0.25500000920E-02 0. -1.
    10030    2    1    2    0    0  0.00000000000E+00  0.00000000000E+00 -0.91212385730E+03  0.34980035661E+04  0.33769896383E+04 0.  0.
        3    1    3    3  502    0 -0.69564939722E+03  0.49264364907E+03  0.10536967372E+04  0.13553238259E+04  0.10100000352E+00 0.  1.
       -3    1    3    3    0  502  0.69564939722E+03 -0.49264364907E+03 -0.19658205945E+04  0.21426797402E+04  0.10100000352E+00 0. -1.
</event>
<event>
 5   0  0.5875011E-07  0.2618485E+04  0.7818609E-02  0.8361949E-01
        1   -1    0    0  501    0  0.00000000000E+00  0.00000000000E+00  0.10905077079E+04  0.10905077079E+04  0.50400001928E-02 0.  1.
       -1   -1    0    0    0  501  0.00000000000E+00  0.00000000000E+00 -0.15718517582E+04  0.15718517582E+04  0.50400001928E-02 0. -1.
    10030    2    1    2    0    0  0.00000000000E+00  0.00000000000E+00 -0.48134405028E+03  0.26623594661E+04  0.26184854080E+04 0.  0.
        2    1    3    3  502    0 -0.46854997049E+02 -0.11664980051E+04  0.36188192030E+03  0.12222403654E+04  0.25500000920E-02 0. -1.
       -2    1    3    3    0  502  0.46854997049E+02  0.11664980051E+04 -0.84322597058E+03  0.14401191007E+04  0.25500000920E-02 0.  1.
</event>
<event>
 5   0  0.5679750E-07  0.2554683E+04  0.7818609E-02  0.8383759E-01
        1   -1    0    0  501    0  0.00000000000E+00  0.00000000000E+00  0.24655131869E+04  0.24655131869E+04  0.50400001928E-02 0.  1.
       -1   -1    0    0    0  501  0.00000000000E+00  0.00000000000E+00 -0.66176956631E+03  0.66176956633E+03  0.50400001928E-02 0. -1.
    10030    2    1    2    0    0  0.00000000000E+00  0.00000000000E+00  0.18037436205E+04  0.31272827532E+04  0.25546832230E+04 0.  0.
        4    1    3    3  502    0  0.57133096647E+03 -0.26358836014E+02  0.23000091187E+04  0.23700543075E+04  0.12699999809E+01 0.  1.
       -4    1    3    3    0  502 -0.57133096647E+03  0.26358836014E+02 -0.49626549812E+03  0.75722844573E+03  0.12699999809E+01 0. -1.
</event>
<event>
 5   0  0.1724503E-06  0.2233445E+04  0.7818609E-02  0.8504635E-01
       -2   -1    0    0    0  501  0.00000000000E+00  0.00000000000E+00  0.12257381699E+04  0.12257381700E+04  0.25500000920E-02 0.  1.
        2   -1    0    0  501    0  0.00000000000E+00  0.00000000000E+00 -0.10174028009E+04  0.10174028009E+04  0.25500000920E-02 0. -1.
    10030    2    1    2    0    0  0.00000000000E+00  0.00000000000E+00  0.20833536902E+03  0.22431409709E+04  0.22334452734E+04 0.  0.
        1    1    3    3  502    0 -0.11670354990E+03 -0.61903431591E+02  0.12178627732E+04  0.12250067297E+04  0.50400001928E-02 0.  1.
       -1    1    3    3    0  502  0.11670354990E+03  0.61903431591E+02 -0.10095274041E+04  0.10181342412E+04  0.50400001928E-02 0. -1.
</event>
<event>
 5   0  0.5875011E-07  0.3064185E+04  0.7818609E-02  0.8225636E-01
        1   -1    0    0  501    0  0.00000000000E+00  0.00000000000E+00  0.17854895450E+04  0.17854895450E+04  0.50400001928E-02 0. -1.
       -1   -1    0    0    0  501  0.00000000000E+00  0.00000000000E+00 -0.13146572396E+04  0.13146572396E+04  0.50400001928E-02 0.  1.
    10030    2    1    2    0    0  0.00000000000E+00  0.00000000000E+00  0.47083230540E+03  0.31001467846E+04  0.30641845614E+04 0.  0.
        2    1    3    3  502    0  0.36398421299E+03 -0.13205403475E+04 -0.45892944793E+03  0.14446202113E+04  0.25500000920E-02 0.  1.
       -2    1    3    3    0  502 -0.36398421299E+03  0.13205403475E+04  0.92976175333E+03  0.16555265733E+04  0.25500000920E-02 0. -1.
</event>
<event>
 5   0  0.1685793E-06  0.3783668E+04  0.7818609E-02  0.8049669E-01
       -2   -1    0    0    0  501  0.00000000000E+00  0.00000000000E+00  0.17903774698E+04  0.17903774698E+04  0.25500000920E-02 0.  1.
        2   -1    0    0  501    0  0.00000000000E+00  0.00000000000E+00 -0.19990401914E+04  0.19990401914E+04  0.25500000920E-02 0. -1.
    10030    2    1    2    0    0  0.00000000000E+00  0.00000000000E+00 -0.20866272160E+03  0.37894176611E+04  0.37836683363E+04 0.  0.
        3    1    3    3  502    0 -0.15975654654E+04  0.88943951902E+03  0.38191480415E+03  0.18679338859E+04  0.10100000352E+00 0.  1.
       -3    1    3    3    0  502  0.15975654654E+04 -0.88943951902E+03 -0.59057752575E+03  0.19214837752E+04  0.10100000352E+00 0. -1.
</event>
<event>
 5   0  0.1151180E-06  0.3397022E+04  0.7818609E-02  0.8138638E-01
        2   -1    0    0  501    0  0.00000000000E+00  0.00000000000E+00  0.20269962252E+04  0.20269962252E+04  0.25500000920E-02 0.  1.
       -2   -1    0    0    0  501  0.00000000000E+00  0.00000000000E+00 -0.14232581123E+04  0.14232581123E+04  0.25500000920E-02 0. -1.
    10030    2    1    2    0    0  0.00000000000E+00  0.00000000000E+00  0.60373811288E+03  0.34502543375E+04  0.33970215314E+04 0.  0.
        5    1    3    3  502    0  0.29829693795E+03 -0.11286711296E+04  0.15549105058E+04  0.19443889408E+04  0.46999998093E+01 0.  1.
       -5    1    3    3    0  502 -0.29829693795E+03  0.11286711296E+04 -0.95117239296E+03  0.15058653967E+04  0.46999998093E+01 0. -1.
</event>
<event>
 5   0  0.6186440E-07  0.3623098E+04  0.7818609E-02  0.8085221E-01
       -1   -1    0    0    0  501  0.00000000000E+00  0.00000000000E+00  0.19674187146E+04  0.19674187146E+04  0.50400001928E-02 0.  1.
        1   -1    0    0  501    0  0.00000000000E+00  0.00000000000E+00 -0.16680278069E+04  0.16680278069E+04  0.50400001928E-02 0. -1.
    10030    2    1    2    0    0  0.00000000000E+00  0.00000000000E+00  0.29939090770E+03  0.36354465216E+04  0.36230976382E+04 0.  0.
        3    1    3    3  502    0 -0.39552340384E+03  0.64530079006E+03  0.18011658061E+04  0.19537272440E+04  0.10100000352E+00 0.  1.
       -3    1    3    3    0  502  0.39552340384E+03 -0.64530079006E+03 -0.15017748985E+04  0.16817192775E+04  0.10100000352E+00 0. -1.
</event>
<event>
 5   0  0.5679750E-07  0.3361954E+04  0.7818609E-02  0.8147308E-01
       -1   -1    0    0    0  501  0.00000000000E+00  0.00000000000E+00  0.12401872153E+04  0.12401872153E+04  0.50400001928E-02 0. -1.
        1   -1    0    0  501    0  0.00000000000E+00  0.00000000000E+00 -0.22784336379E+04  0.22784336379E+04  0.50400001928E-02 0.  1.
    10030    2    1    2    0    0  0.00000000000E+00  0.00000000000E+00 -0.10382464226E+04  0.35186208532E+04  0.33619543534E+04 0.  0.
        4    1    3    3  502    0  0.93338612620E+02 -0.64052676936E+03  0.11045225357E+04  0.12802180610E+04  0.12699999809E+01 0. -1.
       -4    1    3    3    0  502 -0.93338612620E+02  0.64052676936E+03 -0.21427689583E+04  0.22384027923E+04  0.12699999809E+01 0.  1.
</event>
<event>
 5   0  0.1685793E-06  0.3715178E+04  0.7818609E-02  0.8064606E-01
       -2   -1    0    0    0  501  0.00000000000E+00  0.00000000000E+00  0.22746141017E+04  0.22746141017E+04  0.25500000920E-02 0.  1.
        2   -1    0    0  501    0  0.00000000000E+00  0.00000000000E+00 -0.15170208638E+04  0.15170208638E+04  0.25500000920E-02 0. -1.
    10030    2    1    2    0    0  0.00000000000E+00  0.00000000000E+00  0.75759323790E+03  0.37916349655E+04  0.37151780842E+04 0.  0.
        3    1    3    3  502    0 -0.96664806064E+03  0.10193128481E+03  0.19943578732E+04  0.22186170910E+04  0.10100000352E+00 0.  1.
       -3    1    3    3    0  502  0.96664806064E+03 -0.10193128481E+03 -0.12367646353E+04  0.15730178745E+04  0.10100000352E+00 0. -1.
</event>
<event>
 5   0  0.1151180E-06  0.2672344E+04  0.7818609E-02  0.8344035E-01
       -2   -1    0    0    0  501  0.00000000000E+00  0.00000000000E+00  0.10349129006E+04  0.10349129006E+04  0.25500000920E-02 0. -1.
        2   -1    0    0  501    0  0.00000000000E+00  0.00000000000E+00 -0.17251262377E+04  0.17251262377E+04  0.25500000920E-02 0.  1.
    10030    2    1    2    0    0  0.00000000000E+00  0.00000000000E+00 -0.69021333710E+03  0.27600391383E+04  0.26723438391E+04 0.  0.
        5    1    3    3  502    0 -0.13002447933E+04  0.55140957146E+02 -0.32423883055E+02  0.13018258125E+04  0.46999998093E+01 0. -1.
       -5    1    3    3    0  502  0.13002447933E+04 -0.55140957146E+02 -0.65778945405E+03  0.14582133258E+04  0.46999998093E+01 0.  1.
</event>
<event>
 5   0  0.6261598E-07  0.2035707E+04  0.7818609E-02  0.8590106E-01
        1   -1    0    0  501    0  0.00000000000E+00  0.00000000000E+00  0.84527607211E+03  0.84527607212E+03  0.50400001928E-02 0.  1.
       -1   -1    0    0    0  501  0.00000000000E+00  0.00000000000E+00 -0.12256659847E+04  0.12256659847E+04  0.50400001928E-02 0. -1.
    10030    2    1    2    0    0  0.00000000000E+00  0.00000000000E+00 -0.38038991262E+03  0.20709420569E+04  0.20357073751E+04 0.  0.
        1    1    3    3  502    0  0.44556706265E+03 -0.41666880955E+03  0.63869799285E+03  0.88322026146E+03  0.50400001928E-02 0.  1.
       -1    1    3    3    0  502 -0.44556706265E+03  0.41666880955E+03 -0.10190879055E+04  0.11877217954E+04  0.50400001928E-02 0. -1.
</event>
<event>
 5   0  0.1685793E-06  0.3882933E+04  0.7818609E-02  0.8028588E-01
       -2   -1    0    0    0  501  0.00000000000E+00  0.00000000000E+00  0.23546367334E+04  0.23546367334E+04  0.25500000920E-02 0. -1.
        2   -1    0    0  501    0  0.00000000000E+00  0.00000000000E+00 -0.16007955676E+04  0.16007955676E+04  0.25500000920E-02 0.  1.
    10030    2    1    2    0    0  0.00000000000E+00  0.00000000000E+00  0.75384116587E+03  0.39554323010E+04  0.38829329359E+04 0.  0.
        3    1    3    3  502    0  0.19629359500E+03 -0.33181714695E+03 -0.15614099310E+04  0.16083018303E+04  0.10100000352E+00 0.  1.
       -3    1    3    3    0  502 -0.19629359500E+03  0.33181714695E+03  0.23152510969E+04  0.23471304707E+04  0.10100000352E+00 0. -1.
</event>
<event>
 5   0  0.1151180E-06  0.2161759E+04  0.7818609E-02  0.8534515E-01
        2   -1    0    0  501    0  0.00000000000E+00  0.00000000000E+00  0.11979401085E+04  0.11979401085E+04  0.25500000920E-02 0.  1.
       -2   -1    0    0    0  501  0.00000000000E+00  0.00000000000E+00 -0.97525815697E+03  0.97525815697E+03  0.25500000920E-02 0. -1.
    10030    2    1    2    0    0  0.00000000000E+00  0.00000000000E+00  0.22268195157E+03  0.21731982655E+04  0.21617593413E+04 0.  0.
        5    1    3    3  502    0 -0.71452880896E+03 -0.50957915174E+03  0.74559660974E+03  0.11515896514E+04  0.46999998093E+01 0.  1.
       -5    1    3    3    0  502  0.71452880896E+03  0.50957915174E+03 -0.52291465817E+03  0.10216086141E+04  0.46999998093E+01 0. -1.
</event>
<event>
 5   0  0.1184684E-06  0.3594572E+04  0.7818609E-02  0.8091736E-01
        2   -1    0    0  501    0  0.00000000000E+00  0.00000000000E+00  0.26415720181E+04  0.26415720181E+04  0.25500000920E-02 0.  1.
       -2   -1    0    0    0  501  0.00000000000E+00  0.00000000000E+00 -0.12228464410E+04  0.12228464410E+04  0.25500000920E-02 0. -1.
    10030    2    1    2    0    0  0.00000000000E+00  0.00000000000E+00  0.14187255771E+04  0.38644184591E+04  0.35945719862E+04 0.  0.
        4    1    3    3  502    0 -0.16038110543E+04  0.68094119753E+02 -0.15964315333E+03  0.16131752094E+04  0.12699999809E+01 0. -1.
       -4    1    3    3    0  502  0.16038110543E+04 -0.68094119753E+02  0.15783687305E+04  0.22512432497E+04  0.12699999809E+01 0.  1.
</event>
<event>
 5   0  0.5875011E-07  0.3706948E+04  0.7818609E-02  0.8066424E-01
       -1   -1    0    0    0  501  0.00000000000E+00  0.00000000000E+00  0.19000551059E+04  0.19000551059E+04  0.50400001928E-02 0.  1.
        1   -1    0    0  501    0  0.00000000000E+00  0.00000000000E+00 -0.18080350114E+04  0.18080350114E+04  0.50400001928E-02 0. -1.
    10030    2    1    2    0    0  0.00000000000E+00  0.00000000000E+00  0.92020094477E+02  0.37080901173E+04  0.37069481545E+04 0.  0.
        2    1    3    3  502    0 -0.13342301860E+04  0.10513843014E+04  0.78771470790E+03  0.18724512275E+04  0.25500000920E-02 0.  1.
       -2    1    3    3    0  502  0.13342301860E+04 -0.10513843014E+04 -0.69569461343E+03  0.18356388897E+04  0.25500000920E-02 0. -1.
</event>
<event>
 5   0  0.6261598E-07  0.3707608E+04  0.7818609E-02  0.8066278E-01
        1   -1    0    0  501    0  0.00000000000E+00  0.00000000000E+00  0.31662029812E+04  0.31662029812E+04  0.50400001928E-02 0. -1.
       -1   -1    0    0    0  501  0.00000000000E+00  0.00000000000E+00 -0.10853979353E+04  0.10853979353E+04  0.50400001928E-02 0.  1.
    10030    2    1    2    0    0  0.00000000000E+00  0.00000000000E+00  0.20808050459E+04  0.42516009165E+04  0.37076084899E+04 0.  0.
        1    1    3    3  502    0  0.51177055741E+03  0.10332246907E+04 -0.62417514536E+03  0.13111281314E+04  0.50400001928E-02 0.  1.
       -1    1    3    3    0  502 -0.51177055741E+03 -0.10332246907E+04  0.27049801912E+04  0.29404727851E+04  0.50400001928E-02 0. -1.
</event>
<event>
 5   0  0.5679750E-07  0.2537555E+04  0.7818609E-02  0.8389727E-01
        1   -1    0    0  501    0  0.00000000000E+00  0.00000000000E+00  0.16256762883E+04  0.16256762883E+04  0.50400001928E-02 0.  1.
       -1   -1    0    0    0  501  0.00000000000E+00  0.00000000000E+00 -0.99023181616E+03  0.99023181617E+03  0.50400001928E-02 0. -1.
    10030    2    1    2    0    0  0.00000000000E+00  0.00000000000E+00  0.63544447213E+03  0.26159081045E+04  0.25375550307E+04 0.  0.
        4    1    3    3  502    0 -0.30851815897E+03  0.32414030250E+03  0.15416235225E+04  0.16052585736E+04  0.12699999809E+01 0.  1.
       -4    1    3    3    0  502  0.30851815897E+03 -0.32414030250E+03 -0.90617905034E+03  0.10106495309E+04  0.12699999809E+01 0. -1.
</event>
<event>
 5   0  0.1680194E-06  0.3268728E+04  0.7818609E-02  0.8170898E-01
       -2   -1    0    0    0  501  0.00000000000E+00  0.00000000000E+00  0.12324905340E+04  0.12324905340E+04  0.25500000920E-02 0. -1.
        2   -1    0    0  501    0  0.00000000000E+00  0.00000000000E+00 -0.21672748271E+04  0.21672748271E+04  0.25500000920E-02 0.  1.
    10030    2    1    2    0    0  0.00000000000E+00  0.00000000000E+00 -0.93478429305E+03  0.33997653611E+04  0.32687280150E+04 0.  0.
        2    1    3    3  502    0  0.46770655287E+03  0.15000186200E+04 -0.93524738110E+03  0.18285220654E+04  0.25500000920E-02 0.  1.
       -2    1    3    3    0  502 -0.46770655287E+03 -0.15000186200E+04  0.46308804849E+00  0.15712432957E+04  0.25500000920E-02 0. -1.
</event>
<event>
 5   0  0.5679750E-07  0.1919822E+04  0.7818609E-02  0.8645052E-01
        1   -1    0    0  501    0  0.00000000000E+00  0.00000000000E+00  0.90333250133E+03  0.90333250135E+03  0.50400001928E-02 0.  1.
       -1   -1    0    0    0  501  0.00000000000E+00  0.00000000000E+00 -0.10200336348E+04  0.10200336348E+04  0.50400001928E-02 0. -1.
    10030    2    1    2    0    0  0.00000000000E+00  0.00000000000E+00 -0.11670113342E+03  0.19233661361E+04  0.19198224238E+04 0.  0.
        4    1    3    3  502    0  0.58990553079E+03  0.75538182365E+03 -0.49822926724E+01  0.95844492325E+03  0.12699999809E+01 0.  1.
       -4    1    3    3    0  502 -0.58990553079E+03 -0.75538182365E+03 -0.11171884075E+03  0.96492121287E+03  0.12699999809E+01 0. -1.
</event>
<event>
 5   0  0.1151180E-06  0.3697061E+04  0.7818609E-02  0.8068613E-01
       -2   -1    0    0    0  501  0.00000000000E+00  0.00000000000E+00  0.16135522209E+04  0.16135522209E+04  0.25500000920E-02 0. -1.
        2   -1    0    0  501    0  0.00000000000E+00  0.00000000000E+00 -0.21177285444E+04  0.21177285444E+04  0.25500000920E-02 0.  1.
    10030    2    1    2    0    0  0.00000000000E+00  0.00000000000E+00 -0.50417632352E+03  0.37312807653E+04  0.36970613173E+04 0.  0.
        5    1    3    3  502    0  0.13494279568E+04  0.11876076253E+04  0.18280137166E+03  0.18068774484E+04  0.46999998093E+01 0. -1.
       -5    1    3    3    0  502 -0.13494279568E+04 -0.11876076253E+04 -0.68697769518E+03  0.19244033168E+04  0.46999998093E+01 0.  1.
</event>
<event>
 5   0  0.7302932E-07  0.1929566E+04  0.7818609E-02  0.8640278E-01
        1   -1    0    0  501    0  0.00000000000E+00  0.00000000000E+00  0.16893941132E+04  0.16893941132E+04  0.50400001928E-02 0. -1.
       -1   -1    0    0    0  501  0.00000000000E+00  0.00000000000E+00 -0.55097049253E+03  0.55097049255E+03  0.50400001928E-02 0.  1.
    10030    2    1    2    0    0  0.00000000000E+00  0.00000000000E+00  0.11384236207E+04  0.22403646057E+04  0.19295660721E+04 0.  0.
        2    1    3    3  502    0 -0.25900758797E+03 -0.25004450717E+02 -0.50945828626E+03  0.57206459306E+03  0.25500000920E-02 0.  1.
       -2    1    3    3    0  502  0.25900758797E+03  0.25004450717E+02  0.16478819069E+04  0.16683000127E+04  0.25500000920E-02 0. -1.
</event>
<event>
 5   0  0.1724503E-06  0.3666451E+04  0.7818609E-02  0.8075438E-01
        2   -1    0    0  501    0  0.00000000000E+00  0.00000000000E+00  0.11989210677E+04  0.11989210677E+04  0.25500000920E-02 0.  1.
       -2   -1    0    0    0  501  0.00000000000E+00  0.00000000000E+00 -0.28031173948E+04  0.28031173948E+04  0.25500000920E-02 0. -1.
    10030    2    1    2    0    0  0.00000000000E+00  0.00000000000E+00 -0.16041963271E+04  0.40020384625E+04  0.36664514179E+04 0.  0.
        1    1    3    3  502    0  0.12437042391E+04 -0.12831471121E+04 -0.35543762966E+03  0.18219776767E+04  0.50400001928E-02 0. -1.
       -1    1    3    3    0  502 -0.12437042391E+04  0.12831471121E+04 -0.12487586975E+04  0.21800607859E+04  0.50400001928E-02 0.  1.
</event>
<event>
 5   0  0.1724503E-06  0.2204251E+04  0.7818609E-02  0.8516661E-01
        2   -1    0    0  501    0  0.00000000000E+00  0.00000000000E+00  0.19188244421E+04  0.19188244421E+04  0.25500000920E-02 0.  1.
       -2   -1    0    0    0  501  0.00000000000E+00  0.00000000000E+00 -0.63303346113E+03  0.63303346114E+03  0.25500000920E-02 0. -1.
    10030    2    1    2    0    0  0.00000000000E+00  0.00000000000E+00  0.12857909810E+04  0.25518579032E+04  0.22042505102E+04 0.  0.
        1    1    3    3  502    0 -0.92473323878E+03 -0.16616351090E+03  0.13098929145E+04  0.16120053731E+04  0.50400001928E-02 0.  1.
       -1    1    3    3    0  502  0.92473323878E+03  0.16616351090E+03 -0.24101933547E+02  0.93985253018E+03  0.50400001928E-02 0. -1.
</event>
<event>
 5   0  0.1151180E-06  0.2518706E+04  0.7818609E-02  0.8396352E-01
       -2   -1    0    0    0  501  0.00000000000E+00  0.00000000000E+00  0.96318362756E+03  0.96318362756E+03  0.25500000920E-02 0.  1.
        2   -1    0    0  501    0  0.00000000000E+00  0.00000000000E+00 -0.16465914081E+04  0.16465914081E+04  0.25500000920E-02 0. -1.
    10030    2    1    2    0    0  0.00000000000E+00  0.00000000000E+00 -0.68340778050E+03  0.26097750356E+04  0.25187059261E+04 0.  0.
        5    1    3    3  502    0  0.10175807549E+04 -0.73730544513E+03 -0.25589729780E+03  0.12824178060E+04  0.46999998093E+01 0. -1.
       -5    1    3    3    0  502 -0.10175807549E+04  0.73730544513E+03 -0.42751048269E+03  0.13273572296E+04  0.46999998093E+01 0.  1.
</event>
<event>
 5   0  0.6287345E-07  0.2297730E+04  0.7818609E-02  0.8478817E-01
       -1   -1    0    0    0  501  0.00000000000E+00  0.00000000000E+00  0.20790895879E+04  0.20790895879E+04  0.50400001928E-02 0. -1.
        1   -1    0    0  501    0  0.00000000000E+00  0.00000000000E+00 -0.63484098798E+03  0.63484098800E+03  0.50400001928E-02 0.  1.
    10030    2    1    2    0    0  0.00000000000E+00  0.00000000000E+00  0.14442485999E+04  0.27139305759E+04  0.22977304351E+04 0.  0.
        5    1    3    3  502    0 -0.70848350179E+03  0.43586512006E+03 -0.21384024228E+03  0.85888125746E+03  0.46999998093E+01 0.  1.
       -5    1    3    3    0  502  0.70848350179E+03 -0.43586512006E+03  0.16580888422E+04  0.18550493184E+04  0.46999998093E+01 0. -1.
</event>
<event>
 5   0  0.6186440E-07  0.3677409E+04  0.7818609E-02  0.8072987E-01
        1   -1    0    0  501    0  0.00000000000E+00  0.00000000000E+00  0.19168670039E+04  0.19168670039E+04  0.50400001928E-02 0. -1.
       -1   -1    0    0    0  501  0.00000000000E+00  0.00000000000E+00 -0.17637290288E+04  0.17637290288E+04  0.50400001928E-02 0.  1.
    10030    2    1    2    0    0  0.00000000000E+00  0.00000000000E+00  0.15313797507E+03  0.36805960327E+04  0.36774088590E+04 0.  0.
        3    1    3    3  502    0  0.18384216878E+04 -0.57058785849E+01  0.44806490520E+02  0.18389764792E+04  0.10100000352E+00 0. -1.
       -3    1    3    3    0  502 -0.18384216878E+04  0.57058785849E+01  0.10833148455E+03  0.18416195535E+04  0.10100000352E+00 0.  1.
</event>
<event>
 5   0  0.1151180E-06  0.1992090E+04  0.7818609E-02  0.8610328E-01
        2   -1    0    0  501    0  0.00000000000E+00  0.00000000000E+00  0.16963289276E+04  0.16963289276E+04  0.25500000920E-02 0.  1.
       -2   -1    0    0    0  501  0.00000000000E+00  0.00000000000E+00 -0.58485477498E+03  0.58485477499E+03  0.25500000920E-02 0. -1.
    10030    2    1    2    0    0  0.00000000000E+00  0.00000000000E+00  0.11114741527E+04  0.22811837026E+04  0.19920904330E+04 0.  0.
        5    1    3    3  502    0 -0.75986705372E+03 -0.14288076168E+03  0.12747698735E+04  0.14909303041E+04  0.46999998093E+01 0.  1.
       -5    1    3    3    0  502  0.75986705372E+03  0.14288076168E+03 -0.16329572085E+03  0.79025339849E+03  0.46999998093E+01 0. -1.
</event>
<event>
 5   0  0.1724503E-06  0.3741379E+04  0.7818609E-02  0.8058853E-01
       -2   -1    0    0    0  501  0.00000000000E+00  0.00000000000E+00  0.17441508258E+04  0.17441508258E+04  0.25500000920E-02 0.  1.
        2   -1    0    0  501    0  0.00000000000E+00  0.00000000000E+00 -0.20064083193E+04  0.20064083193E+04  0.25500000920E-02 0. -1.
    10030    2    1    2    0    0  0.00000000000E+00  0.00000000000E+00 -0.26225749356E+03  0.37505591451E+04  0.37413787443E+04 0.  0.
        1    1    3    3  502    0 -0.49237004488E+03  0.17398203681E+04 -0.61196763123E+03  0.19089021861E+04  0.50400001928E-02 0.  1.
       -1    1    3    3    0  502  0.49237004488E+03 -0.17398203681E+04  0.34971013767E+03  0.18416569590E+04  0.50400001928E-02 0. -1.
</event>
<event>
 5   0  0.6186440E-07  0.3890075E+04  0.7818609E-02  0.8027097E-01
        1   -1    0    0  501    0  0.00000000000E+00  0.00000000000E+00  0.18940996734E+04  0.18940996734E+04  0.50400001928E-02 0. -1.
       -1   -1    0    0    0  501  0.00000000000E+00  0.00000000000E+00 -0.19973451713E+04  0.19973451713E+04  0.50400001928E-02 0.  1.
    10030    2    1    2    0    0  0.00000000000E+00  0.00000000000E+00 -0.10324549786E+03  0.38914448447E+04  0.38900749795E+04 0.  0.
        3    1    3    3  502    0 -0.17479370036E+02 -0.19441773432E+04  0.35306494664E+01  0.19442591252E+04  0.10100000352E+00 0.  1.
       -3    1    3    3    0  502  0.17479370036E+02  0.19441773432E+04 -0.10677614733E+03  0.19471857195E+04  0.10100000352E+00 0. -1.
</event>
<event>
 5   0  0.5875011E-07  0.3844686E+04  0.7818609E-02  0.8036633E-01
       -1   -1    0    0    0  501  0.00000000000E+00  0.00000000000E+00  0.25092374445E+04  0.25092374445E+04  0.50400001928E-02 0.  1.
        1   -1    0    0  501    0  0.00000000000E+00  0.00000000000E+00 -0.14727193187E+04  0.14727193187E+04  0.50400001928E-02 0. -1.
    10030    2    1    2    0    0  0.00000000000E+00  0.00000000000E+00  0.10365181257E+04  0.39819567632E+04  0.38446859220E+04 0.  0.
        2    1    3    3  502    0  0.11300069544E+04  0.15426755162E+04  0.31467274810E+03  0.19379841082E+04  0.25500000920E-02 0. -1.
       -2    1    3    3    0  502 -0.11300069544E+04 -0.15426755162E+04  0.72184537763E+03  0.20439726550E+04  0.25500000920E-02 0.  1.
</event>
<event>
 5   0  0.1184684E-06  0.2029983E+04  0.7818609E-02  0.8592730E-01
       -2   -1    0    0    0  501  0.00000000000E+00  0.00000000000E+00  0.80859324276E+03  0.80859324276E+03  0.25500000920E-02 0. -1.
        2   -1    0    0  501    0  0.00000000000E+00  0.00000000000E+00 -0.12740737641E+04  0.12740737641E+04  0.25500000920E-02 0.  1.
    10030    2    1    2    0    0  0.00000000000E+00  0.00000000000E+00 -0.46548052135E+03  0.20826670069E+04  0.20299826959E+04 0.  0.
        4    1    3    3  502    0  0.52106164605E+02 -0.77610629506E+03  0.43621717528E+03  0.89182008865E+03  0.12699999809E+01 0. -1.
       -4    1    3    3    0  502 -0.52106164605E+02  0.77610629506E+03 -0.90169769662E+03  0.11908469182E+04  0.12699999809E+01 0.  1.
</event>
<event>
 5   0  0.1724503E-06  0.3701653E+04  0.7818609E-02  0.8067596E-01
        2   -1    0    0  501    0  0.00000000000E+00  0.00000000000E+00  0.29086130021E+04  0.29086130021E+04  0.25500000920E-02 0. -1.
       -2   -1    0    0    0  501  0.00000000000E+00  0.00000000000E+00 -0.11777290001E+04  0.11777290001E+04  0.25500000920E-02 0.  1.
    10030    2    1    2    0    0  0.00000000000E+00  0.00000000000E+00  0.17308840020E+04  0.40863420022E+04  0.37016525405E+04 0.  0.
        1    1    3    3  502    0 -0.75095630943E+03 -0.54160525693E+03  0.26345761847E+04  0.27925370733E+04  0.50400001928E-02 0. -1.
       -1    1    3    3    0  502  0.75095630943E+03  0.54160525693E+03 -0.90369218265E+03  0.12938049289E+04  0.50400001928E-02 0.  1.
</event>
<event>
 5   0  0.1685793E-06  0.3680047E+04  0.7818609E-02  0.8072398E-01
       -2   -1    0    0    0  501  0.00000000000E+00  0.00000000000E+00  0.11776125663E+04  0.11776125663E+04  0.25500000920E-02 0. -1.
        2   -1    0    0  501    0  0.00000000000E+00  0.00000000000E+00 -0.28750424507E+04  0.28750424507E+04  0.25500000920E-02 0.  1.
    10030    2    1    2    0    0  0.00000000000E+00  0.00000000000E+00 -0.16974298843E+04  0.40526550170E+04  0.36800468033E+04 0.  0.
        3    1    3    3  502    0  0.37112416868E+03 -0.13504367686E+03 -0.28278182852E+04  0.28552628964E+04  0.10100000352E+00 0.  1.
       -3    1    3    3    0  502 -0.37112416868E+03  0.13504367686E+03  0.11303884009E+04  0.11973921205E+04  0.10100000352E+00 0. -1.
</event>
<event>
 5   0  0.1634718E-06  0.1898816E+04  0.7818609E-02  0.8655446E-01
        2   -1    0    0  501    0  0.00000000000E+00  0.00000000000E+00  0.10757350468E+04  0.10757350468E+04  0.25500000920E-02 0. -1.
       -2   -1    0    0    0  501  0.00000000000E+00  0.00000000000E+00 -0.83791558671E+03  0.83791558672E+03  0.25500000920E-02 0.  1.
    10030    2    1    2    0    0  0.00000000000E+00  0.00000000000E+00  0.23781946007E+03  0.19136506335E+04  0.18988155918E+04 0.  0.
        5    1    3    3  502    0  0.43555749184E+03 -0.27187466668E+03  0.92372690519E+03  0.10568441931E+04  0.46999998093E+01 0. -1.
       -5    1    3    3    0  502 -0.43555749184E+03  0.27187466668E+03 -0.68590744512E+03  0.85680644042E+03  0.46999998093E+01 0.  1.
</event>
<event>
 5   0  0.1151180E-06  0.3705361E+04  0.7818609E-02  0.8066775E-01
        2   -1    0    0  501    0  0.00000000000E+00  0.00000000000E+00  0.24422270277E+04  0.24422270277E+04  0.25500000920E-02 0.  1.
       -2   -1    0    0    0  501  0.00000000000E+00  0.00000000000E+00 -0.14054487410E+04  0.14054487410E+04  0.25500000920E-02 0. -1.
    10030    2    1    2    0    0  0.00000000000E+00  0.00000000000E+00  0.10367782867E+04  0.38476757687E+04  0.37053609278E+04 0.  0.
        5    1    3    3  502    0  0.17039316698E+03 -0.17647485687E+04 -0.39876004291E+02  0.17734101409E+04  0.46999998093E+01 0. -1.
       -5    1    3    3    0  502 -0.17039316698E+03  0.17647485687E+04  0.10766542910E+04  0.20742656278E+04  0.46999998093E+01 0.  1.
</event>
<event>
 5   0  0.6186440E-07  0.3771980E+04  0.7818609E-02  0.8052195E-01
       -1   -1    0    0    0  501  0.00000000000E+00  0.00000000000E+00  0.20896759543E+04  0.20896759543E+04  0.50400001928E-02 0. -1.
        1   -1    0    0  501    0  0.00000000000E+00  0.00000000000E+00 -0.17021577120E+04  0.17021577120E+04  0.50400001928E-02 0.  1.
    10030    2    1    2    0    0  0.00000000000E+00  0.00000000000E+00  0.38751824224E+03  0.37918336663E+04  0.37719798733E+04 0.  0.
        3    1    3    3  502    0  0.42959078632E+03  0.18071305282E+04  0.52211123613E+03  0.19294737994E+04  0.10100000352E+00 0.  1.
       -3    1    3    3    0  502 -0.42959078632E+03 -0.18071305282E+04 -0.13459299389E+03  0.18623598669E+04  0.10100000352E+00 0. -1.
</event>
<event>
 5   0  0.1184684E-06  0.2559765E+04  0.7818609E-02  0.8381998E-01
        2   -1    0    0  501    0  0.00000000000E+00  0.00000000000E+00  0.20083552461E+04  0.20083552461E+04  0.25500000920E-02 0. -1.
       -2   -1    0    0    0  501  0.00000000000E+00  0.00000000000E+00 -0.81564190128E+03  0.81564190128E+03  0.25500000920E-02 0.  1.
    10030    2    1    2    0    0  0.00000000000E+00  0.00000000000E+00  0.11927133449E+04  0.28239971474E+04  0.25597645918E+04 0.  0.
        4    1    3    3  502    0 -0.12308682958E+04 -0.25217582439E+03  0.32732420821E+03  0.12983728887E+04  0.12699999809E+01 0.  1.
       -4    1    3    3    0  502  0.12308682958E+04  0.25217582439E+03  0.86538913666E+03  0.15256242587E+04  0.12699999809E+01 0. -1.
</event>
<event>
 5   0  0.1151180E-06  0.2766611E+04  0.7818609E-02  0.8313710E-01
        2   -1    0    0  501    0  0.00000000000E+00  0.00000000000E+00  0.17733869725E+04  0.17733869725E+04  0.25500000920E-02 0.  1.
       -2   -1    0    0    0  501  0.00000000000E+00  0.00000000000E+00 -0.10790282280E+04  0.10790282280E+04  0.25500000920E-02 0. -1.
    10030    2    1    2    0    0  0.00000000000E+00  0.00000000000E+00  0.69435874455E+03  0.28524152005E+04  0.27666113587E+04 0.  0.
        5    1    3    3  502    0  0.89767321279E+03 -0.10435633533E+04  0.48805846725E+03  0.14605015668E+04  0.46999998093E+01 0.  1.
       -5    1    3    3    0  502 -0.89767321279E+03  0.10435633533E+04  0.20630027729E+03  0.13919136337E+04  0.46999998093E+01 0. -1.
</event>
<event>
 5   0  0.1151180E-06  0.3677208E+04  0.7818609E-02  0.8073032E-01
        2   -1    0    0  501    0  0.00000000000E+00  0.00000000000E+00  0.26613334174E+04  0.26613334174E+04  0.25500000920E-02 0. -1.
       -2   -1    0    0    0  501  0.00000000000E+00  0.00000000000E+00 -0.12702146940E+04  0.12702146940E+04  0.25500000920E-02 0.  1.
    10030    2    1    2    0    0  0.00000000000E+00  0.00000000000E+00  0.13911187234E+04  0.39315481114E+04  0.36772080782E+04 0.  0.
        5    1    3    3  502    0  0.48076826864E+03  0.15316253933E+04 -0.26277914323E+03  0.16266804977E+04  0.46999998093E+01 0.  1.
       -5    1    3    3    0  502 -0.48076826864E+03 -0.15316253933E+04  0.16538978666E+04  0.23048676137E+04  0.46999998093E+01 0. -1.
</event>
<event>
 5   0  0.6261598E-07  0.3640753E+04  0.7818609E-02  0.8081220E-01
       -1   -1    0    0    0  501  0.00000000000E+00  0.00000000000E+00  0.12276658439E+04  0.12276658439E+04  0.50400001928E-02 0. -1.
        1   -1    0    0  501    0  0.00000000000E+00  0.00000000000E+00 -0.26992453395E+04  0.26992453395E+04  0.50400001928E-02 0.  1.
    10030    2    1    2    0    0  0.00000000000E+00  0.00000000000E+00 -0.14715794956E+04  0.39269111834E+04  0.36407533878E+04 0.  0.
        1    1    3    3  502    0 -0.82219943817E+03  0.14490565416E+04  0.55341879587E+02  0.16669851530E+04  0.50400001928E-02 0. -1.
       -1    1    3    3    0  502  0.82219943817E+03 -0.14490565416E+04 -0.15269213752E+04  0.22599260304E+04  0.50400001928E-02 0.  1.
</event>
<event>
 5   0  0.1724503E-06  0.3880753E+04  0.7818609E-02  0.8029044E-01
        2   -1    0    0  501    0  0.00000000000E+00  0.00000000000E+00  0.13577732913E+04  0.13577732913E+04  0.25500000920E-02 0. -1.
       -2   -1    0    0    0  501  0.00000000000E+00  0.00000000000E+00 -0.27729672665E+04  0.27729672665E+04  0.25500000920E-02 0.  1.
    10030    2    1    2    0    0  0.00000000000E+00  0.00000000000E+00 -0.14151939752E+04  0.41307405578E+04  0.38807529641E+04 0.  0.
        1    1    3    3  502    0  0.89678027590E+03  0.15224531833E+04 -0.15611125442E+04  0.23577851756E+04  0.50400001928E-02 0.  1.
       -1    1    3    3    0  502 -0.89678027590E+03 -0.15224531833E+04  0.14591856899E+03  0.17729553822E+04  0.50400001928E-02 0. -1.
</event>
<event>
 5   0  0.5875011E-07  0.2622184E+04  0.7818609E-02  0.8360705E-01
       -1   -1    0    0    0  501  0.00000000000E+00  0.00000000000E+00  0.97616388308E+03  0.97616388310E+03  0.50400001928E-02 0.  1.
        1   -1    0    0  501    0  0.00000000000E+00  0.00000000000E+00 -0.17609365682E+04  0.17609365682E+04  0.50400001928E-02 0. -1.
    10030    2    1    2    0    0  0.00000000000E+00  0.00000000000E+00 -0.78477268516E+03  0.27371004513E+04  0.26221843401E+04 0.  0.
        2    1    3    3  502    0  0.48532127698E+03  0.10958666601E+04  0.16241618856E+03  0.12094790188E+04  0.25500000920E-02 0. -1.
       -2    1    3    3    0  502 -0.48532127698E+03 -0.10958666601E+04 -0.94718887372E+03  0.15276214325E+04  0.25500000920E-02 0.  1.
</event>
<event>
 5   0  0.5875011E-07  0.2696374E+04  0.7818609E-02  0.8336183E-01
       -1   -1    0    0    0  501  0.00000000000E+00  0.00000000000E+00  0.12255199392E+04  0.12255199392E+04  0.50400001928E-02 0. -1.
        1   -1    0    0  501    0  0.00000000000E+00  0.00000000000E+00 -0.14831318352E+04  0.14831318353E+04  0.50400001928E-02 0.  1.
    10030    2    1    2    0    0  0.00000000000E+00  0.00000000000E+00 -0.25761189601E+03  0.27086517745E+04  0.26963735918E+04 0.  0.
        2    1    3    3  502    0  0.88286631686E+03  0.29625418583E+03 -0.11081236825E+04  0.14474659139E+04  0.25500000920E-02 0.  1.
       -2    1    3    3    0  502 -0.88286631686E+03 -0.29625418583E+03  0.85051178649E+03  0.12611858606E+04  0.25500000920E-02 0. -1.
</event>
<event>
 5   0  0.6186440E-07  0.3730674E+04  0.7818609E-02  0.8061198E-01
        1   -1    0    0  501    0  0.00000000000E+00  0.00000000000E+00  0.12590139036E+04  0.12590139036E+04  0.50400001928E-02 0.  1.
       -1   -1    0    0    0  501  0.00000000000E+00  0.00000000000E+00 -0.27636570566E+04  0.27636570566E+04  0.50400001928E-02 0. -1.
    10030    2    1    2    0    0  0.00000000000E+00  0.00000000000E+00 -0.15046431530E+04  0.40226709603E+04  0.37306742872E+04 0.  0.
        3    1    3    3  502    0 -0.14344327180E+04  0.71215302297E+03  0.27894773537E+03  0.16255986589E+04  0.10100000352E+00 0.  1.
       -3    1    3    3    0  502  0.14344327180E+04 -0.71215302297E+03 -0.17835908884E+04  0.23970723013E+04  0.10100000352E+00 0. -1.
</event>
<event>
 5   0  0.1680194E-06  0.4121782E+04  0.7818609E-02  0.7980420E-01
        2   -1    0    0  501    0  0.00000000000E+00  0.00000000000E+00  0.15369124683E+04  0.15369124683E+04  0.25500000920E-02 0.  1.
       -2   -1    0    0    0  501  0.00000000000E+00  0.00000000000E+00 -0.27635094796E+04  0.27635094796E+04  0.25500000920E-02 0. -1.
    10030    2    1    2    0    0  0.00000000000E+00  0.00000000000E+00 -0.12265970112E+04  0.43004219479E+04  0.41217822240E+04 0.  0.
        2    1    3    3  502    0  0.17764138911E+04  0.65186423089E+03  0.23860595652E+03  0.19072247089E+04  0.25500000920E-02 0.  1.
       -2    1    3    3    0  502 -0.17764138911E+04 -0.65186423089E+03 -0.14652029678E+04  0.23931972390E+04  0.25500000920E-02 0. -1.
</event>
<event>
 5   0  0.1184684E-06  0.2222369E+04  0.7818609E-02  0.8509175E-01
       -2   -1    0    0    0  501  0.00000000000E+00  0.00000000000E+00  0.54510503582E+03  0.54510503582E+03  0.25500000920E-02 0.  1.
        2   -1    0    0  501    0  0.00000000000E+00  0.00000000000E+00 -0.22651248131E+04  0.22651248131E+04  0.25500000920E-02 0. -1.
    10030    2    1    2    0    0  0.00000000000E+00  0.00000000000E+00 -0.17200197773E+04  0.28102298489E+04  0.22223689544E+04 0.  0.
        4    1    3    3  502    0 -0.37119044988E+03 -0.10232730935E+04 -0.57765316113E+03  0.12322966207E+04  0.12699999809E+01 0.  1.
       -4    1    3    3    0  502  0.37119044988E+03  0.10232730935E+04 -0.11423666161E+04  0.15779332282E+04  0.12699999809E+01 0. -1.
</event>
<event>
 5   0  0.1151180E-06  0.3672081E+04  0.7818609E-02  0.8074177E-01
       -2   -1    0    0    0  501  0.00000000000E+00  0.00000000000E+00  0.11798880991E+04  0.11798880991E+04  0.25500000920E-02 0. -1.
        2   -1    0    0  501    0  0.00000000000E+00  0.00000000000E+00 -0.28570885652E+04  0.28570885652E+04  0.25500000920E-02 0.  1.
    10030    2    1    2    0    0  0.00000000000E+00  0.00000000000E+00 -0.16772004661E+04  0.40369766643E+04  0.36720810427E+04 0.  0.
        5    1    3    3  502    0 -0.16984862462E+04  0.50697384993E+03 -0.13648584418E+04  0.22371273252E+04  0.46999998093E+01 0.  1.
       -5    1    3    3    0  502  0.16984862462E+04 -0.50697384993E+03 -0.31234202427E+03  0.17998493390E+04  0.46999998093E+01 0. -1.
</event>
<event>
 5   0  0.1724503E-06  0.3666920E+04  0.7818609E-02  0.8075333E-01
       -2   -1    0    0    0  501  0.00000000000E+00  0.00000000000E+00  0.28203877920E+04  0.28203877920E+04  0.25500000920E-02 0. -1.
        2   -1    0    0  501    0  0.00000000000E+00  0.00000000000E+00 -0.11918842327E+04  0.11918842327E+04  0.25500000920E-02 0.  1.
    10030    2    1    2    0    0  0.00000000000E+00  0.00000000000E+00  0.16285035593E+04  0.40122720247E+04  0.36669200915E+04 0.  0.
        1    1    3    3  502    0 -0.15015743898E+04 -0.86615939531E+03  0.16083459894E+03  0.17409266252E+04  0.50400001928E-02 0.  1.
       -1    1    3    3    0  502  0.15015743898E+04  0.86615939531E+03  0.14676689604E+04  0.22713453994E+04  0.50400001928E-02 0. -1.
</event>
<event>
 5   0  0.1685793E-06  0.3352533E+04  0.7818609E-02  0.8149656E-01
       -2   -1    0    0    0  501  0.00000000000E+00  0.00000000000E+00  0.12013548362E+04  0.12013548362E+04  0.25500000920E-02 0. -1.
        2   -1    0    0  501    0  0.00000000000E+00  0.00000000000E+00 -0.23389165040E+04  0.23389165040E+04  0.25500000920E-02 0.  1.
    10030    2    1    2    0    0  0.00000000000E+00  0.00000000000E+00 -0.11375616678E+04  0.35402713403E+04  0.33525325673E+04 0.  0.
        3    1    3    3  502    0 -0.10110402633E+04  0.20452264731E+03  0.82651197304E+03  0.13217995230E+04  0.10100000352E+00 0. -1.
       -3    1    3    3    0  502  0.10110402633E+04 -0.20452264731E+03 -0.19640736408E+04  0.22184718173E+04  0.10100000352E+00 0.  1.
</event>
<event>
 5   0  0.1680194E-06  0.2743711E+04  0.7818609E-02  0.8320960E-01
       -2   -1    0    0    0  501  0.00000000000E+00  0.00000000000E+00  0.20344319089E+04  0.20344319089E+04  0.25500000920E-02 0. -1.
        2   -1    0    0  501    0  0.00000000000E+00  0.00000000000E+00 -0.92506779075E+03  0.92506779075E+03  0.25500000920E-02 0.  1.
    10030    2    1    2    0    0  0.00000000000E+00  0.00000000000E+00  0.11093641181E+04  0.29594996996E+04  0.27437109406E+04 0.  0.
        2    1    3    3  502    0 -0.60421464912E+03 -0.97483199543E+03 -0.25725778213E+03  0.11753953922E+04  0.25500000920E-02 0.  1.
       -2    1    3    3    0  502  0.60421464912E+03  0.97483199543E+03  0.13666219003E+04  0.17841043074E+04  0.25500000920E-02 0. -1.
</event>
<event>
 5   0  0.5679750E-07  0.1845860E+04  0.7818609E-02  0.8682285E-01
        1   -1    0    0  501    0  0.00000000000E+00  0.00000000000E+00  0.13364481518E+04  0.13364481518E+04  0.50400001928E-02 0.  1.
       -1   -1    0    0    0  501  0.00000000000E+00  0.00000000000E+00 -0.63736097364E+03  0.63736097366E+03  0.50400001928E-02 0. -1.
    10030    2    1    2    0    0  0.00000000000E+00  0.00000000000E+00  0.69908717812E+03  0.19738091254E+04  0.18458601196E+04 0.  0.
        4    1    3    3  502    0 -0.84558162413E+03  0.40003062963E+02  0.74271167201E+03  0.11261575240E+04  0.12699999809E+01 0.  1.
       -4    1    3    3    0  502  0.84558162413E+03 -0.40003062963E+02 -0.43624493892E+02  0.84765160148E+03  0.12699999809E+01 0. -1.
</event>
<event>
 5   0  0.5875011E-07  0.2273785E+04  0.7818609E-02  0.8488330E-01
        1   -1    0    0  501    0  0.00000000000E+00  0.00000000000E+00  0.11836735181E+04  0.11836735181E+04  0.50400001928E-02 0.  1.
       -1   -1    0    0    0  501  0.00000000000E+00  0.00000000000E+00 -0.10919599571E+04  0.10919599571E+04  0.50400001928E-02 0. -1.
    10030    2    1    2    0    0  0.00000000000E+00  0.00000000000E+00  0.91713560978E+02  0.22756334752E+04  0.22737845844E+04 0.  0.
        2    1    3    3  502    0  0.10070936508E+04  0.52701937712E+03  0.69049721121E+02  0.11387514695E+04  0.25500000920E-02 0. -1.
       -2    1    3    3    0  502 -0.10070936508E+04 -0.52701937712E+03  0.22663839857E+02  0.11368820057E+04  0.25500000920E-02 0.  1.
</event>
<event>
 5   0  0.1184684E-06  0.3469940E+04  0.7818609E-02  0.8120951E-01
        2   -1    0    0  501    0  0.00000000000E+00  0.00000000000E+00  0.13292920884E+04  0.13292920885E+04  0.25500000920E-02 0. -1.
       -2   -1    0    0    0  501  0.00000000000E+00  0.00000000000E+00 -0.22644540262E+04  0.22644540262E+04  0.25500000920E-02 0.  1.
    10030    2    1    2    0    0  0.00000000000E+00  0.00000000000E+00 -0.93516193777E+03  0.35937461147E+04  0.34699399544E+04 0.  0.
        4    1    3    3  502    0  0.72570815773E+03  0.69741393800E+02 -0.20981114423E+04  0.22211684829E+04  0.12699999809E+01 0.  1.
       -4    1    3    3    0  502 -0.72570815773E+03 -0.69741393800E+02  0.11629495045E+04  0.13725776318E+04  0.12699999809E+01 0. -1.
</event>
<event>
 5   0  0.1184684E-06  0.2299590E+04  0.7818609E-02  0.8478083E-01
       -2   -1    0    0    0  501  0.00000000000E+00  0.00000000000E+00  0.81505307123E+03  0.81505307124E+03  0.25500000920E-02 0. -1.
        2   -1    0    0  501    0  0.00000000000E+00  0.00000000000E+00 -0.16220155629E+04  0.16220155629E+04  0.25500000920E-02 0.  1.
    10030    2    1    2    0    0  0.00000000000E+00  0.00000000000E+00 -0.80696249164E+03  0.24370686341E+04  0.22995901949E+04 0.  0.
        4    1    3    3  502    0  0.24267821966E+02  0.98490806629E+03 -0.10317054790E+04  0.14265520091E+04  0.12699999809E+01 0.  1.
       -4    1    3    3    0  502 -0.24267821966E+02 -0.98490806629E+03  0.22474298738E+03  0.10105166250E+04  0.12699999809E+01 0. -1.
</event>
<event>
 5   0  0.1151180E-06  0.2385080E+04  0.7818609E-02  0.8445110E-01
       -2   -1    0    0    0  501  0.00000000000E+00  0.00000000000E+00  0.94835872461E+03  0.94835872461E+03  0.25500000920E-02 0.  1.
        2   -1    0    0  501    0  0.00000000000E+00  0.00000000000E+00 -0.14995927612E+04  0.14995927612E+04  0.25500000920E-02 0. -1.
    10030    2    1    2    0    0  0.00000000000E+00  0.00000000000E+00 -0.55123403656E+03  0.24479514858E+04  0.23850801902E+04 0.  0.
        5    1    3    3  502    0 -0.78112327808E+02  0.78807100933E+03 -0.11907323459E+04  0.14300430277E+04  0.46999998093E+01 0. -1.
       -5    1    3    3    0  502  0.78112327808E+02 -0.78807100933E+03  0.63949830930E+03  0.10179084581E+04  0.46999998093E+01 0.  1.
</event>
<event>
 5   0  0.1151180E-06  0.3631998E+04  0.7818609E-02  0.8083201E-01
       -2   -1    0    0    0  501  0.00000000000E+00  0.00000000000E+00  0.19784793470E+04  0.19784793470E+04  0.25500000920E-02 0. -1.
        2   -1    0    0  501    0  0.00000000000E+00  0.00000000000E+00 -0.16668620923E+04  0.16668620923E+04  0.25500000920E-02 0.  1.
    10030    2    1    2    0    0  0.00000000000E+00  0.00000000000E+00  0.31161725472E+03  0.36453414393E+04  0.36319979206E+04 0.  0.
        5    1    3    3  502    0 -0.93401084873E+03 -0.14800170360E+04  0.64236115444E+03  0.18642630273E+04  0.46999998093E+01 0. -1.
       -5    1    3    3    0  502  0.93401084873E+03  0.14800170360E+04 -0.33074389972E+03  0.17810784120E+04  0.46999998093E+01 0.  1.
</event>
<event>
 5   0  0.1680194E-06  0.3278143E+04  0.7818609E-02  0.8168479E-01
       -2   -1    0    0    0  501  0.00000000000E+00  0.00000000000E+00  0.12841842900E+04  0.12841842900E+04  0.25500000920E-02 0. -1.
        2   -1    0    0  501    0  0.00000000000E+00  0.00000000000E+00 -0.20920319979E+04  0.20920319979E+04  0.25500000920E-02 0.  1.
    10030    2    1    2    0    0  0.00000000000E+00  0.00000000000E+00 -0.80784770786E+03  0.33762162880E+04  0.32781425387E+04 0.  0.
        2    1    3    3  502    0  0.63609623608E+03 -0.14340457947E+04 -0.89294366351E+03  0.18051188739E+04  0.25500000920E-02 0.  1.
       -2    1    3    3    0  502 -0.63609623608E+03  0.14340457947E+04  0.85095955655E+02  0.15710974140E+04  0.25500000920E-02 0. -1.
</event>
<event>
 5   0  0.1724503E-06  0.2843413E+04  0.7818609E-02  0.8289916E-01
       -2   -1    0    0    0  501  0.00000000000E+00  0.00000000000E+00  0.75991759697E+03  0.75991759697E+03  0.25500000920E-02 0.  1.
        2   -1    0    0  501    0  0.00000000000E+00  0.00000000000E+00 -0.26598276703E+04  0.26598276703E+04  0.25500000920E-02 0. -1.
    10030    2    1    2    0    0  0.00000000000E+00  0.00000000000E+00 -0.18999100734E+04  0.34197452673E+04  0.28434133372E+04 0.  0.
        1    1    3    3  502    0  0.84308877302E+03  0.30758505637E+03 -0.22761043964E+04  0.24466422847E+04  0.50400001928E-02 0. -1.
       -1    1    3    3    0  502 -0.84308877302E+03 -0.30758505637E+03  0.37619432299E+03  0.97310298261E+03  0.50400001928E-02 0.  1.
</event>
<event>
 5   0  0.6287345E-07  0.3722438E+04  0.7818609E-02  0.8063007E-01
        1   -1    0    0  501    0  0.00000000000E+00  0.00000000000E+00  0.19166943465E+04  0.19166943465E+04  0.50400001928E-02 0. -1.
       -1   -1    0    0    0  501  0.00000000000E+00  0.00000000000E+00 -0.18073491632E+04  0.18073491632E+04  0.50400001928E-02 0.  1.
    10030    2    1    2    0    0  0.00000000000E+00  0.00000000000E+00  0.10934518334E+03  0.37240435097E+04  0.37224378696E+04 0.  0.
        5    1    3    3  502    0  0.79738390980E+03 -0.12952896215E+04  0.11277570594E+04  0.18935296085E+04  0.46999998093E+01 0. -1.
       -5    1    3    3    0  502 -0.79738390980E+03  0.12952896215E+04 -0.10184118761E+04  0.18305139012E+04  0.46999998093E+01 0.  1.
</event>
<event>
 5   0  0.6287345E-07  0.3718569E+04  0.7818609E-02  0.8063859E-01
       -1   -1    0    0    0  501  0.00000000000E+00  0.00000000000E+00  0.18382895290E+04  0.18382895290E+04  0.50400001928E-02 0.  1.
        1   -1    0    0  501    0  0.00000000000E+00  0.00000000000E+00 -0.18805189923E+04  0.18805189923E+04  0.50400001928E-02 0. -1.
    10030    2    1    2    0    0  0.00000000000E+00  0.00000000000E+00 -0.42229463318E+02  0.37188085212E+04  0.37185687422E+04 0.  0.
        5    1    3    3  502    0  0.18061951165E+03  0.13300008305E+04  0.12655880921E+04  0.18447929222E+04  0.46999998093E+01 0.  1.
       -5    1    3    3    0  502 -0.18061951165E+03 -0.13300008305E+04 -0.13078175554E+04  0.18740155990E+04  0.46999998093E+01 0. -1.
</event>
<event>
 5   0  0.1680194E-06  0.2460779E+04  0.7818609E-02  0.8417093E-01
        2   -1    0    0  501    0  0.00000000000E+00  0.00000000000E+00  0.18447269202E+04  0.18447269202E+04  0.25500000920E-02 0. -1.
       -2   -1    0    0    0  501  0.00000000000E+00  0.00000000000E+00 -0.82064063903E+03  0.82064063904E+03  0.25500000920E-02 0.  1.
    10030    2    1    2    0    0  0.00000000000E+00  0.00000000000E+00  0.10240862812E+04  0.26653675593E+04  0.24607786399E+04 0.  0.
        2    1    3    3  502    0  0.13883382412E+02  0.36362635912E+03  0.17851085852E+04  0.18218203913E+04  0.25500000920E-02 0. -1.
       -2    1    3    3    0  502 -0.13883382412E+02 -0.36362635912E+03 -0.76102230399E+03  0.84354716794E+03  0.25500000920E-02 0.  1.
</event>
<event>
 5   0  0.5679750E-07  0.2167405E+04  0.7818609E-02  0.8532119E-01
       -3   -1    0    0    0  501  0.00000000000E+00  0.00000000000E+00  0.20411707210E+04  0.20411707235E+04  0.10100000352E+00 0. -1.
        3   -1    0    0  501    0  0.00000000000E+00  0.00000000000E+00 -0.57536149911E+03  0.57536150797E+03  0.10100000352E+00 0.  1.
    10030    2    1    2    0    0  0.00000000000E+00  0.00000000000E+00  0.14658092219E+04  0.26165322315E+04  0.21674049560E+04 0.  0.
        3    1    3    3  502    0 -0.20090500408E+03  0.88274816300E+03  0.13819617052E+02  0.90542704397E+03  0.10100000352E+00 0.  1.
       -3    1    3    3    0  502  0.20090500408E+03 -0.88274816300E+03  0.14519896048E+04  0.17111051875E+04  0.10100000352E+00 0. -1.
</event>
<event>
 5   0  0.1724503E-06  0.3705365E+04  0.7818609E-02  0.8066774E-01
        2   -1    0    0  501    0  0.00000000000E+00  0.00000000000E+00  0.25136457514E+04  0.25136457514E+04  0.25500000920E-02 0.  1.
       -2   -1    0    0    0  501  0.00000000000E+00  0.00000000000E+00 -0.13655198536E+04  0.13655198536E+04  0.25500000920E-02 0. -1.
    10030    2    1    2    0    0  0.00000000000E+00  0.00000000000E+00  0.11481258978E+04  0.38791656049E+04  0.37053653954E+04 0.  0.
        1    1    3    3  502    0 -0.83426301326E+03 -0.11998355977E+04  0.17662634389E+04  0.22924412255E+04  0.50400001928E-02 0.  1.
       -1    1    3    3    0  502  0.83426301326E+03  0.11998355977E+04 -0.61813754107E+03  0.15867243795E+04  0.50400001928E-02 0. -1.
</event>
<event>
 5   0  0.6261598E-07  0.2528147E+04  0.7818609E-02  0.8393026E-01
       -1   -1    0    0    0  501  0.00000000000E+00  0.00000000000E+00  0.94407444097E+03  0.94407444098E+03  0.50400001928E-02 0. -1.
        1   -1    0    0  501    0  0.00000000000E+00  0.00000000000E+00 -0.16925380037E+04  0.16925380037E+04  0.50400001928E-02 0.  1.
    10030    2    1    2    0    0  0.00000000000E+00  0.00000000000E+00 -0.74846356270E+03  0.26366124447E+04  0.25281470445E+04 0.  0.
        1    1    3    3  502    0 -0.74376220437E+03  0.32068182985E+03  0.63790170442E+03  0.10309886698E+04  0.50400001928E-02 0. -1.
       -1    1    3    3    0  502  0.74376220437E+03 -0.32068182985E+03 -0.13863652671E+04  0.16056237749E+04  0.50400001928E-02 0.  1.
</event>
<event>
 5   0  0.1151180E-06  0.3758564E+04  0.7818609E-02  0.8055106E-01
       -2   -1    0    0    0  501  0.00000000000E+00  0.00000000000E+00  0.12242147988E+04  0.12242147988E+04  0.25500000920E-02 0.  1.
        2   -1    0    0  501    0  0.00000000000E+00  0.00000000000E+00 -0.28848696722E+04  0.28848696722E+04  0.25500000920E-02 0. -1.
    10030    2    1    2    0    0  0.00000000000E+00  0.00000000000E+00 -0.16606548735E+04  0.41090844710E+04  0.37585636327E+04 0.  0.
        5    1    3    3  502    0  0.81081146675E+03  0.14856484168E+04  0.62612832283E+02  0.16936672961E+04  0.46999998093E+01 0.  1.
       -5    1    3    3    0  502 -0.81081146675E+03 -0.14856484168E+04 -0.17232677058E+04  0.24154171749E+04  0.46999998093E+01 0. -1.
</event>
<event>
 5   0  0.1184684E-06  0.2263949E+04  0.7818609E-02  0.8492272E-01
        2   -1    0    0  501    0  0.00000000000E+00  0.00000000000E+00  0.93241408838E+03  0.93241408838E+03  0.25500000920E-02 0.  1.
       -2   -1    0    0    0  501  0.00000000000E+00  0.00000000000E+00 -0.13742465154E+04  0.13742465154E+04  0.25500000920E-02 0. -1.
    10030    2    1    2    0    0  0.00000000000E+00  0.00000000000E+00 -0.44183242700E+03  0.23066606038E+04  0.22639494799E+04 0.  0.
        4    1    3    3  502    0  0.10847754485E+04  0.31630204975E+03 -0.15196046104E+03  0.11401220790E+04  0.12699999809E+01 0.  1.
       -4    1    3    3    0  502 -0.10847754485E+04 -0.31630204975E+03 -0.28987196596E+03  0.11665385248E+04  0.12699999809E+01 0. -1.
</event>
<event>
 5   0  0.1680194E-06  0.3672593E+04  0.7818609E-02  0.8074063E-01
       -2   -1    0    0    0  501  0.00000000000E+00  0.00000000000E+00  0.24356027155E+04  0.24356027155E+04  0.25500000920E-02 0. -1.
        2   -1    0    0  501    0  0.00000000000E+00  0.00000000000E+00 -0.13844563943E+04  0.13844563943E+04  0.25500000920E-02 0.  1.
    10030    2    1    2    0    0  0.00000000000E+00  0.00000000000E+00  0.10511463212E+04  0.38200591097E+04  0.36725934996E+04 0.  0.
        2    1    3    3  502    0 -0.22548758294E+03 -0.62189326162E+02 -0.13688974288E+04  0.13887376760E+04  0.25500000920E-02 0.  1.
       -2    1    3    3    0  502  0.22548758294E+03  0.62189326162E+02  0.24200437500E+04  0.24313214337E+04  0.25500000920E-02 0. -1.
</event>
<event>
 5   0  0.6261598E-07  0.2248903E+04  0.7818609E-02  0.8498345E-01
        1   -1    0    0  501    0  0.00000000000E+00  0.00000000000E+00  0.14088573265E+04  0.14088573265E+04  0.50400001928E-02 0. -1.
       -1   -1    0    0    0  501  0.00000000000E+00  0.00000000000E+00 -0.89745829884E+03  0.89745829886E+03  0.50400001928E-02 0.  1.
    10030    2    1    2    0    0  0.00000000000E+00  0.00000000000E+00  0.51139902768E+03  0.23063156254E+04  0.22489025765E+04 0.  0.
        1    1    3    3  502    0  0.36235247591E+03 -0.55823335088E+03 -0.67378709246E+03  0.94705482251E+03  0.50400001928E-02 0.  1.
       -1    1    3    3    0  502 -0.36235247591E+03  0.55823335088E+03  0.11851861201E+04  0.13592608029E+04  0.50400001928E-02 0. -1.
</event>
<event>
 5   0  0.6186440E-07  0.3155176E+04  0.7818609E-02  0.8200756E-01
        1   -1    0    0  501    0  0.00000000000E+00  0.00000000000E+00  0.30361572911E+04  0.30361572911E+04  0.50400001928E-02 0.  1.
       -1   -1    0    0    0  501  0.00000000000E+00  0.00000000000E+00 -0.81971521702E+03  0.81971521704E+03  0.50400001928E-02 0. -1.
    10030    2    1    2    0    0  0.00000000000E+00  0.00000000000E+00  0.22164420741E+04  0.38558725082E+04  0.31551762758E+04 0.  0.
        3    1    3    3  502    0  0.13100403726E+04 -0.85807074541E+03  0.87540584644E+03  0.17941088563E+04  0.10100000352E+00 0.  1.
       -3    1    3    3    0  502 -0.13100403726E+04  0.85807074541E+03  0.13410362277E+04  0.20617636519E+04  0.10100000352E+00 0. -1.
</event>
<event>
 5   0  0.1184684E-06  0.2328070E+04  0.7818609E-02  0.8466935E-01
        2   -1    0    0  501    0  0.00000000000E+00  0.00000000000E+00  0.11668834337E+04  0.11668834337E+04  0.25500000920E-02 0. -1.
       -2   -1    0    0    0  501  0.00000000000E+00  0.00000000000E+00 -0.11611936980E+04  0.11611936980E+04  0.25500000920E-02 0.  1.
    10030    2    1    2    0    0  0.00000000000E+00  0.00000000000E+00  0.56897357378E+01  0.23280771317E+04  0.23280701789E+04 0.  0.
        4    1    3    3  502    0 -0.65020395416E+03 -0.84071040399E+03  0.47762719442E+03  0.11651989165E+04  0.12699999809E+01 0. -1.
       -4    1    3    3    0  502  0.65020395416E+03  0.84071040399E+03 -0.47193745868E+03  0.11628782151E+04  0.12699999809E+01 0.  1.
</event>
<event>
 5   0  0.1151180E-06  0.3727896E+04  0.7818609E-02  0.8061808E-01
       -2   -1    0    0    0  501  0.00000000000E+00  0.00000000000E+00  0.31928022742E+04  0.31928022742E+04  0.25500000920E-02 0.  1.
        2   -1    0    0  501    0  0.00000000000E+00  0.00000000000E+00 -0.10881669576E+04  0.10881669576E+04  0.25500000920E-02 0. -1.
    10030    2    1    2    0    0  0.00000000000E+00  0.00000000000E+00  0.21046353166E+04  0.42809692319E+04  0.37278958875E+04 0.  0.
        5    1    3    3  502    0 -0.24224527027E+02 -0.13637765832E+04 -0.40651022330E+03  0.14232870576E+04  0.46999998093E+01 0. -1.
       -5    1    3    3    0  502  0.24224527027E+02  0.13637765832E+04  0.25111455399E+04  0.28576821743E+04  0.46999998093E+01 0.  1.
</event>
<event>
 5   0  0.1685793E-06  0.1946940E+04  0.7818609E-02  0.8631838E-01
        2   -1    0    0  501    0  0.00000000000E+00  0.00000000000E+00  0.13902294235E+04  0.13902294235E+04  0.25500000920E-02 0.  1.
       -2   -1    0    0    0  501  0.00000000000E+00  0.00000000000E+00 -0.68164534573E+03  0.68164534573E+03  0.25500000920E-02 0. -1.
    10030    2    1    2    0    0  0.00000000000E+00  0.00000000000E+00  0.70858407776E+03  0.20718747692E+04  0.19469395635E+04 0.  0.
        3    1    3    3  502    0 -0.19404774490E+03 -0.29154505017E+03  0.13208668400E+04  0.13665073226E+04  0.10100000352E+00 0.  1.
       -3    1    3    3    0  502  0.19404774490E+03  0.29154505017E+03 -0.61228276224E+03  0.70536744659E+03  0.10100000352E+00 0. -1.
</event>
<event>
 5   0  0.5875011E-07  0.3453984E+04  0.7818609E-02  0.8124783E-01
       -1   -1    0    0    0  501  0.00000000000E+00  0.00000000000E+00  0.22982784851E+04  0.22982784851E+04  0.50400001928E-02 0.  1.
        1   -1    0    0  501    0  0.00000000000E+00  0.00000000000E+00 -0.12977110049E+04  0.12977110049E+04  0.50400001928E-02 0. -1.
    10030    2    1    2    0    0  0.00000000000E+00  0.00000000000E+00  0.10005674802E+04  0.35959894900E+04  0.34539839504E+04 0.  0.
        2    1    3    3  502    0  0.11687450391E+04 -0.97634299255E+03 -0.34762682178E+03  0.15620675442E+04  0.25500000920E-02 0. -1.
       -2    1    3    3    0  502 -0.11687450391E+04  0.97634299255E+03  0.13481943019E+04  0.20339219457E+04  0.25500000920E-02 0.  1.
</event>
<event>
 5   0  0.5875011E-07  0.3657024E+04  0.7818609E-02  0.8077553E-01
       -1   -1    0    0    0  501  0.00000000000E+00  0.00000000000E+00  0.15409607289E+04  0.15409607289E+04  0.50400001928E-02 0. -1.
        1   -1    0    0  501    0  0.00000000000E+00  0.00000000000E+00 -0.21697223376E+04  0.21697223376E+04  0.50400001928E-02 0.  1.
    10030    2    1    2    0    0  0.00000000000E+00  0.00000000000E+00 -0.62876160874E+03  0.37106830666E+04  0.36570244270E+04 0.  0.
        2    1    3    3  502    0 -0.11958225792E+04  0.44415977056E+03 -0.16436359563E+04  0.20805789337E+04  0.25500000920E-02 0.  1.
       -2    1    3    3    0  502  0.11958225792E+04 -0.44415977056E+03  0.10148743475E+04  0.16301041329E+04  0.25500000920E-02 0. -1.
</event>
<event>
 5   0  0.1151180E-06  0.3773450E+04  0.7818609E-02  0.8051877E-01
       -2   -1    0    0    0  501  0.00000000000E+00  0.00000000000E+00  0.13227813553E+04  0.13227813553E+04  0.25500000920E-02 0.  1.
        2   -1    0    0  501    0  0.00000000000E+00  0.00000000000E+00 -0.26910958181E+04  0.26910958181E+04  0.25500000920E-02 0. -1.
    10030    2    1    2    0    0  0.00000000000E+00  0.00000000000E+00 -0.13683144628E+04  0.40138771734E+04  0.37734500784E+04 0.  0.
        5    1    3    3  502    0 -0.79965618797E+03 -0.86865520480E+03 -0.22495537279E+04  0.25405759088E+04  0.46999998093E+01 0. -1.
       -5    1    3    3    0  502  0.79965618797E+03  0.86865520480E+03  0.88123926514E+03  0.14733012646E+04  0.46999998093E+01 0.  1.
</event>
<event>
 5   0  0.1184684E-06  0.3051210E+04  0.7818609E-02  0.8229257E-01
       -2   -1    0    0    0  501  0.00000000000E+00  0.00000000000E+00  0.10274639455E+04  0.10274639455E+04  0.25500000920E-02 0. -1.
        2   -1    0    0  501    0  0.00000000000E+00  0.00000000000E+00 -0.22652582766E+04  0.22652582766E+04  0.25500000920E-02 0.  1.
    10030    2    1    2    0    0  0.00000000000E+00  0.00000000000E+00 -0.12377943311E+04  0.32927222221E+04  0.30512103870E+04 0.  0.
        4    1    3    3  502    0  0.23333018186E+02  0.76586539407E+03  0.80475667412E+03  0.11111836702E+04  0.12699999809E+01 0. -1.
       -4    1    3    3    0  502 -0.23333018186E+02 -0.76586539407E+03 -0.20425510052E+04  0.21815385519E+04  0.12699999809E+01 0.  1.
</event>
<event>
 5   0  0.1151180E-06  0.3701957E+04  0.7818609E-02  0.8067528E-01
       -2   -1    0    0    0  501  0.00000000000E+00  0.00000000000E+00  0.15644974093E+04  0.15644974093E+04  0.25500000920E-02 0.  1.
        2   -1    0    0  501    0  0.00000000000E+00  0.00000000000E+00 -0.21899177473E+04  0.21899177473E+04  0.25500000920E-02 0. -1.
    10030    2    1    2    0    0  0.00000000000E+00  0.00000000000E+00 -0.62542033807E+03  0.37544151566E+04  0.37019565866E+04 0.  0.
        5    1    3    3  502    0  0.10688982764E+03 -0.94187393481E+03 -0.19250647632E+04  0.21457978416E+04  0.46999998093E+01 0. -1.
       -5    1    3    3    0  502 -0.10688982764E+03  0.94187393481E+03  0.12996444252E+04  0.16086173150E+04  0.46999998093E+01 0.  1.
</event>
<event>
 5   0  0.1724503E-06  0.3780499E+04  0.7818609E-02  0.8050353E-01
       -2   -1    0    0    0  501  0.00000000000E+00  0.00000000000E+00  0.21895135299E+04  0.21895135299E+04  0.25500000920E-02 0. -1.
        2   -1    0    0  501    0  0.00000000000E+00  0.00000000000E+00 -0.16318890512E+04  0.16318890512E+04  0.25500000920E-02 0.  1.
    10030    2    1    2    0    0  0.00000000000E+00  0.00000000000E+00  0.55762447864E+03  0.38214025811E+04  0.37804989919E+04 0.  0.
        1    1    3    3  502    0 -0.13178905247E+04  0.87374123906E+03 -0.76814707155E+03  0.17579275046E+04  0.50400001928E-02 0. -1.
       -1    1    3    3    0  502  0.13178905247E+04 -0.87374123906E+03  0.13257715502E+04  0.20634750765E+04  0.50400001928E-02 0.  1.
</event>
<event>
 5   0  0.5875011E-07  0.3586453E+04  0.7818609E-02  0.8093602E-01
       -1   -1    0    0    0  501  0.00000000000E+00  0.00000000000E+00  0.10868804649E+04  0.10868804649E+04  0.50400001928E-02 0. -1.
        1   -1    0    0  501    0  0.00000000000E+00  0.00000000000E+00 -0.29586154302E+04  0.29586154302E+04  0.50400001928E-02 0.  1.
    10030    2    1    2    0    0  0.00000000000E+00  0.00000000000E+00 -0.18717349653E+04  0.40454958951E+04  0.35864530189E+04 0.  0.
        2    1    3    3  502    0  0.48026774192E+03  0.31786610885E+03  0.97971844335E+03  0.11364612599E+04  0.25500000920E-02 0. -1.
       -2    1    3    3    0  502 -0.48026774192E+03 -0.31786610885E+03 -0.28514534086E+04  0.29090346352E+04  0.25500000920E-02 0.  1.
</event>
<event>
 5   0  0.1184684E-06  0.2549577E+04  0.7818609E-02  0.8385533E-01
        2   -1    0    0  501    0  0.00000000000E+00  0.00000000000E+00  0.17980293035E+04  0.17980293035E+04  0.25500000920E-02 0. -1.
       -2   -1    0    0    0  501  0.00000000000E+00  0.00000000000E+00 -0.90381499947E+03  0.90381499948E+03  0.25500000920E-02 0.  1.
    10030    2    1    2    0    0  0.00000000000E+00  0.00000000000E+00  0.89421430399E+03  0.27018443029E+04  0.25495771053E+04 0.  0.
        4    1    3    3  502    0 -0.86310516784E+03  0.20467082962E+02  0.14410539053E+04  0.16798831517E+04  0.12699999809E+01 0. -1.
       -4    1    3    3    0  502  0.86310516784E+03 -0.20467082962E+02 -0.54683960134E+03  0.10219611513E+04  0.12699999809E+01 0.  1.
</event>
<event>
 5   0  0.5875011E-07  0.3671401E+04  0.7818609E-02  0.8074329E-01
       -1   -1    0    0    0  501  0.00000000000E+00  0.00000000000E+00  0.17062742238E+04  0.17062742238E+04  0.50400001928E-02 0.  1.
        1   -1    0    0  501    0  0.00000000000E+00  0.00000000000E+00 -0.19749442597E+04  0.19749442597E+04  0.50400001928E-02 0. -1.
    10030    2    1    2    0    0  0.00000000000E+00  0.00000000000E+00 -0.26867003589E+03  0.36812184835E+04  0.36714010861E+04 0.  0.
        2    1    3    3  502    0 -0.22026140371E+02 -0.17918256562E+04 -0.53373690841E+03  0.18697591878E+04  0.25500000920E-02 0. -1.
       -2    1    3    3    0  502  0.22026140371E+02  0.17918256562E+04  0.26506687252E+03  0.18114592957E+04  0.25500000920E-02 0.  1.
</event>
<event>
 5   0  0.1724503E-06  0.3659112E+04  0.7818609E-02  0.8077084E-01
       -2   -1    0    0    0  501  0.00000000000E+00  0.00000000000E+00  0.15180378551E+04  0.15180378551E+04  0.25500000920E-02 0.  1.
        2   -1    0    0  501    0  0.00000000000E+00  0.00000000000E+00 -0.22050005196E+04  0.22050005196E+04  0.25500000920E-02 0. -1.
    10030    2    1    2    0    0  0.00000000000E+00  0.00000000000E+00 -0.68696266451E+03  0.37230383747E+04  0.36591115093E+04 0.  0.
        1    1    3    3  502    0 -0.10322422634E+03  0.15608276928E+04 -0.13089724365E+04  0.20396683964E+04  0.50400001928E-02 0. -1.
       -1    1    3    3    0  502  0.10322422634E+03 -0.15608276928E+04  0.62200977203E+03  0.16833699784E+04  0.50400001928E-02 0.  1.
</event>
<event>
 5   0  0.1184684E-06  0.2911294E+04  0.7818609E-02  0.8269525E-01
        2   -1    0    0  501    0  0.00000000000E+00  0.00000000000E+00  0.22908842767E+04  0.22908842767E+04  0.25500000920E-02 0.  1.
       -2   -1    0    0    0  501  0.00000000000E+00  0.00000000000E+00 -0.92493044780E+03  0.92493044780E+03  0.25500000920E-02 0. -1.
    10030    2    1    2    0    0  0.00000000000E+00  0.00000000000E+00  0.13659538289E+04  0.32158147245E+04  0.29112942963E+04 0.  0.
        4    1    3    3  502    0  0.34648070894E+03 -0.10774964670E+04 -0.32811469439E+03  0.11784347176E+04  0.12699999809E+01 0. -1.
       -4    1    3    3    0  502 -0.34648070894E+03  0.10774964670E+04  0.16940685233E+04  0.20373800069E+04  0.12699999809E+01 0.  1.
</event>
<event>
 5   0  0.5679750E-07  0.3684423E+04  0.7818609E-02  0.8071423E-01
       -1   -1    0    0    0  501  0.00000000000E+00  0.00000000000E+00  0.15527668667E+04  0.15527668667E+04  0.50400001928E-02 0.  1.
        1   -1    0    0  501    0  0.00000000000E+00  0.00000000000E+00 -0.21856108215E+04  0.21856108215E+04  0.50400001928E-02 0. -1.
    10030    2    1    2    0    0  0.00000000000E+00  0.00000000000E+00 -0.63284395477E+03  0.37383776882E+04  0.36844234649E+04 0.  0.
        4    1    3    3  502    0  0.94685740076E+03  0.75612949579E+03 -0.17243556855E+04  0.21075281480E+04  0.12699999809E+01 0. -1.
       -4    1    3    3    0  502 -0.94685740076E+03 -0.75612949579E+03  0.10915117307E+04  0.16308495402E+04  0.12699999809E+01 0.  1.
</event>
<event>
 5   0  0.1724503E-06  0.3641782E+04  0.7818609E-02  0.8080987E-01
        2   -1    0    0  501    0  0.00000000000E+00  0.00000000000E+00  0.20587761848E+04  0.20587761848E+04  0.25500000920E-02 0.  1.
       -2   -1    0    0    0  501  0.00000000000E+00  0.00000000000E+00 -0.16104928448E+04  0.16104928448E+04  0.25500000920E-02 0. -1.
    10030    2    1    2    0    0  0.00000000000E+00  0.00000000000E+00  0.44828333993E+03  0.36692690296E+04  0.36417821542E+04 0.  0.
        1    1    3    3  502    0  0.88537029646E+03 -0.12120246660E+04  0.12628250538E+04  0.19615329386E+04  0.50400001928E-02 0. -1.
       -1    1    3    3    0  502 -0.88537029646E+03  0.12120246660E+04 -0.81454171382E+03  0.17077360910E+04  0.50400001928E-02 0.  1.
</event>
<event>
 5   0  0.6186440E-07  0.3446342E+04  0.7818609E-02  0.8126625E-01
       -1   -1    0    0    0  501  0.00000000000E+00  0.00000000000E+00  0.18884112306E+04  0.18884112306E+04  0.50400001928E-02 0.  1.
        1   -1    0    0  501    0  0.00000000000E+00  0.00000000000E+00 -0.15723897847E+04  0.15723897848E+04  0.50400001928E-02 0. -1.
    10030    2    1    2    0    0  0.00000000000E+00  0.00000000000E+00  0.31602144585E+03  0.34608010154E+04  0.34463421353E+04 0.  0.
        3    1    3    3  502    0  0.98847156224E+03 -0.10723465220E+04  0.10796386300E+04  0.18145585342E+04  0.10100000352E+00 0.  1.
       -3    1    3    3    0  502 -0.98847156224E+03  0.10723465220E+04 -0.76361718418E+03  0.16462424811E+04  0.10100000352E+00 0. -1.
</event>
<event>
 5   0  0.6186440E-07  0.1850311E+04  0.7818609E-02  0.8679993E-01
       -1   -1    0    0    0  501  0.00000000000E+00  0.00000000000E+00  0.68147949464E+03  0.68147949466E+03  0.50400001928E-02 0. -1.
        1   -1    0    0  501    0  0.00000000000E+00  0.00000000000E+00 -0.12559627872E+04  0.12559627872E+04  0.50400001928E-02 0.  1.
    10030    2    1    2    0    0  0.00000000000E+00  0.00000000000E+00 -0.57448329254E+03  0.19374422818E+04  0.18503112014E+04 0.  0.
        3    1    3    3  502    0 -0.22130878794E+03  0.88669394906E+03 -0.43792490008E+03  0.10134011877E+04  0.10100000352E+00 0. -1.
       -3    1    3    3    0  502  0.22130878794E+03 -0.88669394906E+03 -0.13655839246E+03  0.92404109415E+03  0.10100000352E+00 0.  1.
</event>
<event>
 5   0  0.5875011E-07  0.3346229E+04  0.7818609E-02  0.8151231E-01
        1   -1    0    0  501    0  0.00000000000E+00  0.00000000000E+00  0.19690486245E+04  0.19690486245E+04  0.50400001928E-02 0.  1.
       -1   -1    0    0    0  501  0.00000000000E+00  0.00000000000E+00 -0.14216573041E+04  0.14216573041E+04  0.50400001928E-02 0. -1.
    10030    2    1    2    0    0  0.00000000000E+00  0.00000000000E+00  0.54739132047E+03  0.33907059286E+04  0.33462291369E+04 0.  0.
        2    1    3    3  502    0  0.38224531409E+03 -0.33591310293E+03 -0.13413409119E+04  0.14346234819E+04  0.25500000920E-02 0. -1.
       -2    1    3    3    0  502 -0.38224531409E+03  0.33591310293E+03  0.18887322324E+04  0.19560824467E+04  0.25500000920E-02 0.  1.
</event>
<event>
 5   0  0.6261598E-07  0.3592510E+04  0.7818609E-02  0.8092209E-01
        1   -1    0    0  501    0  0.00000000000E+00  0.00000000000E+00  0.22989321194E+04  0.22989321194E+04  0.50400001928E-02 0.  1.
       -1   -1    0    0    0  501  0.00000000000E+00  0.00000000000E+00 -0.14034919771E+04  0.14034919771E+04  0.50400001928E-02 0. -1.
    10030    2    1    2    0    0  0.00000000000E+00  0.00000000000E+00  0.89544014226E+03  0.37024240965E+04  0.35925104234E+04 0.  0.
        1    1    3    3  502    0  0.94924221381E+03  0.66402503010E+02  0.20178354388E+04  0.22309482134E+04  0.50400001928E-02 0.  1.
       -1    1    3    3    0  502 -0.94924221381E+03 -0.66402503010E+02 -0.11223952965E+04  0.14714758831E+04  0.50400001928E-02 0. -1.
</event>
<event>
 5   0  0.6261598E-07  0.3459741E+04  0.7818609E-02  0.8123398E-01
        1   -1    0    0  501    0  0.00000000000E+00  0.00000000000E+00  0.20268179692E+04  0.20268179693E+04  0.50400001928E-02 0.  1.
       -1   -1    0    0    0  501  0.00000000000E+00  0.00000000000E+00 -0.14764288531E+04  0.14764288531E+04  0.50400001928E-02 0. -1.
    10030    2    1    2    0    0  0.00000000000E+00  0.00000000000E+00  0.55038911618E+03  0.35032468223E+04  0.34597413370E+04 0.  0.
        1    1    3    3  502    0  0.15975361618E+04  0.60639216210E+03  0.23262505730E+01  0.17087535381E+04  0.50400001928E-02 0. -1.
       -1    1    3    3    0  502 -0.15975361618E+04 -0.60639216210E+03  0.54806286561E+03  0.17944932842E+04  0.50400001928E-02 0.  1.
</event>
<event>
 5   0  0.5875011E-07  0.3138464E+04  0.7818609E-02  0.8205260E-01
        1   -1    0    0  501    0  0.00000000000E+00  0.00000000000E+00  0.19347448745E+04  0.19347448745E+04  0.50400001928E-02 0. -1.
       -1   -1    0    0    0  501  0.00000000000E+00  0.00000000000E+00 -0.12727717194E+04  0.12727717194E+04  0.50400001928E-02 0.  1.
    10030    2    1    2    0    0  0.00000000000E+00  0.00000000000E+00  0.66197315511E+03  0.32075165938E+04  0.31384636754E+04 0.  0.
        2    1    3    3  502    0 -0.45823997405E+03 -0.10809197442E+03  0.18608595423E+04  0.19194962842E+04  0.25500000920E-02 0. -1.
       -2    1    3    3    0  502  0.45823997405E+03  0.10809197442E+03 -0.11988863872E+04  0.12880203097E+04  0.25500000920E-02 0.  1.
</event>
<event>
 5   0  0.6261598E-07  0.2595292E+04  0.7818609E-02  0.8369802E-01
       -1   -1    0    0    0  501  0.00000000000E+00  0.00000000000E+00  0.13855150553E+04  0.13855150553E+04  0.50400001928E-02 0. -1.
        1   -1    0    0  501    0  0.00000000000E+00  0.00000000000E+00 -0.12153497130E+04  0.12153497131E+04  0.50400001928E-02 0.  1.
    10030    2    1    2    0    0  0.00000000000E+00  0.00000000000E+00  0.17016534228E+03  0.26008647684E+04  0.25952921415E+04 0.  0.
        1    1    3    3  502    0  0.68871144759E+02 -0.18953125010E+03 -0.11995512204E+04  0.12163833523E+04  0.50400001928E-02 0.  1.
       -1    1    3    3    0  502 -0.68871144759E+02  0.18953125010E+03  0.13697165627E+04  0.13844814161E+04  0.50400001928E-02 0. -1.
</event>
<event>
 5   0  0.5679750E-07  0.3635480E+04  0.7818609E-02  0.8082413E-01
       -1   -1    0    0    0  501  0.00000000000E+00  0.00000000000E+00  0.16933466104E+04  0.16933466104E+04  0.50400001928E-02 0. -1.
        1   -1    0    0  501    0  0.00000000000E+00  0.00000000000E+00 -0.19512710219E+04  0.19512710219E+04  0.50400001928E-02 0.  1.
    10030    2    1    2    0    0  0.00000000000E+00  0.00000000000E+00 -0.25792441157E+03  0.36446176323E+04  0.36354797048E+04 0.  0.
        4    1    3    3  502    0  0.16477312556E+04  0.18365903924E+03 -0.87610564182E+03  0.18751830956E+04  0.12699999809E+01 0. -1.
       -4    1    3    3    0  502 -0.16477312556E+04 -0.18365903924E+03  0.61818123025E+03  0.17694345367E+04  0.12699999809E+01 0.  1.
</event>
<event>
 5   0  0.6186440E-07  0.3792353E+04  0.7818609E-02  0.8047798E-01
       -1   -1    0    0    0  501  0.00000000000E+00  0.00000000000E+00  0.14400620894E+04  0.14400620894E+04  0.50400001928E-02 0.  1.
        1   -1    0    0  501    0  0.00000000000E+00  0.00000000000E+00 -0.24967570035E+04  0.24967570035E+04  0.50400001928E-02 0. -1.
    10030    2    1    2    0    0  0.00000000000E+00  0.00000000000E+00 -0.10566949141E+04  0.39368190929E+04  0.37923528883E+04 0.  0.
        3    1    3    3  502    0 -0.16372382309E+04  0.80116775558E+03 -0.10708112651E+04  0.21140140900E+04  0.10100000352E+00 0. -1.
       -3    1    3    3    0  502  0.16372382309E+04 -0.80116775558E+03  0.14116351011E+02  0.18228050029E+04  0.10100000352E+00 0.  1.
</event>
<event>
 5   0  0.1724503E-06  0.2686103E+04  0.7818609E-02  0.8339528E-01
        2   -1    0    0  501    0  0.00000000000E+00  0.00000000000E+00  0.21645879018E+04  0.21645879018E+04  0.25500000920E-02 0. -1.
       -2   -1    0    0    0  501  0.00000000000E+00  0.00000000000E+00 -0.83331692880E+03  0.83331692881E+03  0.25500000920E-02 0.  1.
    10030    2    1    2    0    0  0.00000000000E+00  0.00000000000E+00  0.13312709729E+04  0.29979048306E+04  0.26861033058E+04 0.  0.
        1    1    3    3  502    0  0.44246608085E+03 -0.12076075486E+03 -0.74320362709E+03  0.87333328344E+03  0.50400001928E-02 0.  1.
       -1    1    3    3    0  502 -0.44246608085E+03  0.12076075486E+03  0.20744746000E+04  0.21245715471E+04  0.50400001928E-02 0. -1.
</event>
<event>
 5   0  0.1680194E-06  0.3540807E+04  0.7818609E-02  0.8104187E-01
       -2   -1    0    0    0  501  0.00000000000E+00  0.00000000000E+00  0.20906644042E+04  0.20906644042E+04  0.25500000920E-02 0. -1.
        2   -1    0    0  501    0  0.00000000000E+00  0.00000000000E+00 -0.14992018279E+04  0.14992018279E+04  0.25500000920E-02 0.  1.
    10030    2    1    2    0    0  0.00000000000E+00  0.00000000000E+00  0.59146257632E+03  0.35898662320E+04  0.35408066291E+04 0.  0.
        2    1    3    3  502    0  0.12952600489E+04  0.67679812507E+03 -0.71740085972E+03  0.16280105313E+04  0.25500000920E-02 0.  1.
       -2    1    3    3    0  502 -0.12952600489E+04 -0.67679812507E+03  0.13088634360E+04  0.19618557008E+04  0.25500000920E-02 0. -1.
</event>
<event>
 5   0  0.6186440E-07  0.2233209E+04  0.7818609E-02  0.8504732E-01
       -1   -1    0    0    0  501  0.00000000000E+00  0.00000000000E+00  0.55387094725E+03  0.55387094727E+03  0.50400001928E-02 0. -1.
        1   -1    0    0  501    0  0.00000000000E+00  0.00000000000E+00 -0.22510754562E+04  0.22510754562E+04  0.50400001928E-02 0.  1.
    10030    2    1    2    0    0  0.00000000000E+00  0.00000000000E+00 -0.16972045089E+04  0.28049464035E+04  0.22332087187E+04 0.  0.
        3    1    3    3  502    0 -0.97752766570E+03 -0.37506263827E+03 -0.13359834333E+04  0.16973756403E+04  0.10100000352E+00 0.  1.
       -3    1    3    3    0  502  0.97752766570E+03  0.37506263827E+03 -0.36122107562E+03  0.11075707632E+04  0.10100000352E+00 0. -1.
</event>
<event>
 5   0  0.1724503E-06  0.2481338E+04  0.7818609E-02  0.8409664E-01
        2   -1    0    0  501    0  0.00000000000E+00  0.00000000000E+00  0.22293328517E+04  0.22293328517E+04  0.25500000920E-02 0.  1.
       -2   -1    0    0    0  501  0.00000000000E+00  0.00000000000E+00 -0.69045757654E+03  0.69045757654E+03  0.25500000920E-02 0. -1.
    10030    2    1    2    0    0  0.00000000000E+00  0.00000000000E+00  0.15388752751E+04  0.29197904282E+04  0.24813381536E+04 0.  0.
        1    1    3    3  502    0  0.15009784462E+03 -0.57519058574E+03  0.20508450504E+04  0.21352608725E+04  0.50400001928E-02 0.  1.
       -1    1    3    3    0  502 -0.15009784462E+03  0.57519058574E+03 -0.51196977530E+03  0.78452955568E+03  0.50400001928E-02 0. -1.
</event>
<event>
 5   0  0.1724503E-06  0.2002698E+04  0.7818609E-02  0.8605360E-01
        2   -1    0    0  501    0  0.00000000000E+00  0.00000000000E+00  0.88829869618E+03  0.88829869618E+03  0.25500000920E-02 0.  1.
       -2   -1    0    0    0  501  0.00000000000E+00  0.00000000000E+00 -0.11287869715E+04  0.11287869715E+04  0.25500000920E-02 0. -1.
    10030    2    1    2    0    0  0.00000000000E+00  0.00000000000E+00 -0.24048827534E+03  0.20170856677E+04  0.20026981750E+04 0.  0.
        1    1    3    3  502    0 -0.68984582488E+03 -0.52415089739E+03  0.38543705830E+03  0.94825268324E+03  0.50400001928E-02 0.  1.
       -1    1    3    3    0  502  0.68984582488E+03  0.52415089739E+03 -0.62592533364E+03  0.10688329845E+04  0.50400001928E-02 0. -1.
</event>
<event>
 5   0  0.1184684E-06  0.3708882E+04  0.7818609E-02  0.8065996E-01
        2   -1    0    0  501    0  0.00000000000E+00  0.00000000000E+00  0.19840650970E+04  0.19840650970E+04  0.25500000920E-02 0. -1.
       -2   -1    0    0    0  501  0.00000000000E+00  0.00000000000E+00 -0.17332852991E+04  0.17332852991E+04  0.25500000920E-02 0.  1.
    10030    2    1    2    0    0  0.00000000000E+00  0.00000000000E+00  0.25077979790E+03  0.37173503961E+04  0.37088816994E+04 0.  0.
        4    1    3    3  502    0  0.11025053000E+04  0.19587473288E+03  0.16069614822E+04  0.19586249425E+04  0.12699999809E+01 0. -1.
       -4    1    3    3    0  502 -0.11025053000E+04 -0.19587473288E+03 -0.13561816843E+04  0.17587254536E+04  0.12699999809E+01 0.  1.
</event>
<event>
 5   0  0.1680194E-06  0.3668986E+04  0.7818609E-02  0.8074870E-01
       -2   -1    0    0    0  501  0.00000000000E+00  0.00000000000E+00  0.13666061246E+04  0.13666061246E+04  0.25500000920E-02 0.  1.
        2   -1    0    0  501    0  0.00000000000E+00  0.00000000000E+00 -0.24625706894E+04  0.24625706894E+04  0.25500000920E-02 0. -1.
    10030    2    1    2    0    0  0.00000000000E+00  0.00000000000E+00 -0.10959645647E+04  0.38291768140E+04  0.36689857925E+04 0.  0.
        2    1    3    3  502    0 -0.11631861572E+04 -0.28535982799E+02  0.93223194512E+03  0.14909301587E+04  0.25500000920E-02 0.  1.
       -2    1    3    3    0  502  0.11631861572E+04  0.28535982799E+02 -0.20281965098E+04  0.23382466553E+04  0.25500000920E-02 0. -1.
</event>
<event>
 5   0  0.6186440E-07  0.2439401E+04  0.7818609E-02  0.8424898E-01
        1   -1    0    0  501    0  0.00000000000E+00  0.00000000000E+00  0.96658890621E+03  0.96658890622E+03  0.50400001928E-02 0.  1.
       -1   -1    0    0    0  501  0.00000000000E+00  0.00000000000E+00 -0.15390917443E+04  0.15390917443E+04  0.50400001928E-02 0. -1.
    10030    2    1    2    0    0  0.00000000000E+00  0.00000000000E+00 -0.57250283811E+03  0.25056806505E+04  0.24394007508E+04 0.  0.
        3    1    3    3  502    0  0.11850271635E+04  0.63003599912E+02 -0.57570612286E+03  0.13189755047E+04  0.10100000352E+00 0. -1.
       -3    1    3    3    0  502 -0.11850271635E+04 -0.63003599912E+02  0.32032847487E+01  0.11867051458E+04  0.10100000352E+00 0.  1.
</event>
<event>
 5   0  0.1680194E-06  0.3729241E+04  0.7818609E-02  0.8061512E-01
       -2   -1    0    0    0  501  0.00000000000E+00  0.00000000000E+00  0.25050517636E+04  0.25050517636E+04  0.25500000920E-02 0.  1.
        2   -1    0    0  501    0  0.00000000000E+00  0.00000000000E+00 -0.13879189768E+04  0.13879189768E+04  0.25500000920E-02 0. -1.
    10030    2    1    2    0    0  0.00000000000E+00  0.00000000000E+00  0.11171327868E+04  0.38929707404E+04  0.37292406093E+04 0.  0.
        2    1    3    3  502    0 -0.31920383504E+03  0.15949789152E+04  0.15101584491E+04  0.22195556695E+04  0.25500000920E-02 0. -1.
       -2    1    3    3    0  502  0.31920383504E+03 -0.15949789152E+04 -0.39302566234E+03  0.16734150709E+04  0.25500000920E-02 0.  1.
</event>
<event>
 5   0  0.6186440E-07  0.3685257E+04  0.7818609E-02  0.8071237E-01
        1   -1    0    0  501    0  0.00000000000E+00  0.00000000000E+00  0.11654015494E+04  0.11654015494E+04  0.50400001928E-02 0. -1.
       -1   -1    0    0    0  501  0.00000000000E+00  0.00000000000E+00 -0.29133993597E+04  0.29133993597E+04  0.50400001928E-02 0.  1.
    10030    2    1    2    0    0  0.00000000000E+00  0.00000000000E+00 -0.17479978104E+04  0.40788009091E+04  0.36852571838E+04 0.  0.
        3    1    3    3  502    0 -0.89820204165E+03 -0.13023006059E+04 -0.19196221452E+04  0.24875093902E+04  0.10100000352E+00 0.  1.
       -3    1    3    3    0  502  0.89820204165E+03  0.13023006059E+04  0.17162433481E+03  0.15912915189E+04  0.10100000352E+00 0. -1.
</event>
<event>
 5   0  0.5875011E-07  0.3735641E+04  0.7818609E-02  0.8060109E-01
        1   -1    0    0  501    0  0.00000000000E+00  0.00000000000E+00  0.15065787600E+04  0.15065787600E+04  0.50400001928E-02 0.  1.
       -1   -1    0    0    0  501  0.00000000000E+00  0.00000000000E+00 -0.23156796047E+04  0.23156796047E+04  0.50400001928E-02 0. -1.
    10030    2    1    2    0    0  0.00000000000E+00  0.00000000000E+00 -0.80910084474E+03  0.38222583647E+04  0.37356411538E+04 0.  0.
        2    1    3    3  502    0  0.97106432446E+03 -0.14576900579E+04 -0.10683829493E+04  0.20516501538E+04  0.25500000920E-02 0. -1.
       -2    1    3    3    0  502 -0.97106432446E+03  0.14576900579E+04  0.25928210458E+03  0.17706082110E+04  0.25500000920E-02 0.  1.
</event>
<event>
 5   0  0.1151180E-06  0.2026363E+04  0.7818609E-02  0.8594394E-01
        2   -1    0    0  501    0  0.00000000000E+00  0.00000000000E+00  0.12325807485E+04  0.12325807485E+04  0.25500000920E-02 0.  1.
       -2   -1    0    0    0  501  0.00000000000E+00  0.00000000000E+00 -0.83283497664E+03  0.83283497664E+03  0.25500000920E-02 0. -1.
    10030    2    1    2    0    0  0.00000000000E+00  0.00000000000E+00  0.39974577185E+03  0.20654157251E+04  0.20263626121E+04 0.  0.
        5    1    3    3  502    0 -0.85100795112E+03  0.38742853707E+03  0.59751833993E+03  0.11096691673E+04  0.46999998093E+01 0.  1.
       -5    1    3    3    0  502  0.85100795112E+03 -0.38742853707E+03 -0.19777256808E+03  0.95574655788E+03  0.46999998093E+01 0. -1.
</event>
<event>
 5   0  0.5875011E-07  0.2706485E+04  0.7818609E-02  0.8332904E-01
       -1   -1    0    0    0  501  0.00000000000E+00  0.00000000000E+00  0.14134373689E+04  0.14134373689E+04  0.50400001928E-02 0.  1.
        1   -1    0    0  501    0  0.00000000000E+00  0.00000000000E+00 -0.12956113963E+04  0.12956113963E+04  0.50400001928E-02 0. -1.
    10030    2    1    2    0    0  0.00000000000E+00  0.00000000000E+00  0.11782597257E+03  0.27090487652E+04  0.27064852211E+04 0.  0.
        2    1    3    3  502    0  0.82897334438E+02 -0.10443806920E+04 -0.79843936410E+03  0.13172351408E+04  0.25500000920E-02 0. -1.
       -2    1    3    3    0  502 -0.82897334438E+02  0.10443806920E+04  0.91626533666E+03  0.13918136244E+04  0.25500000920E-02 0.  1.
</event>
<event>
 5   0  0.1724503E-06  0.1947890E+04  0.7818609E-02  0.8631379E-01
       -2   -1    0    0    0  501  0.00000000000E+00  0.00000000000E+00  0.35406184261E+03  0.35406184262E+03  0.25500000920E-02 0. -1.
        2   -1    0    0  501    0  0.00000000000E+00  0.00000000000E+00 -0.26791037022E+04  0.26791037022E+04  0.25500000920E-02 0.  1.
    10030    2    1    2    0    0  0.00000000000E+00  0.00000000000E+00 -0.23250418596E+04  0.30331655448E+04  0.19478895178E+04 0.  0.
        1    1    3    3  502    0 -0.71821069450E+03 -0.20249783188E+03 -0.18791563078E+03  0.76950910192E+03  0.50400001928E-02 0. -1.
       -1    1    3    3    0  502  0.71821069450E+03  0.20249783188E+03 -0.21371262288E+04  0.22636564429E+04  0.50400001928E-02 0.  1.
</event>
<event>
 5   0  0.1184684E-06  0.1931997E+04  0.7818609E-02  0.8639092E-01
        2   -1    0    0  501    0  0.00000000000E+00  0.00000000000E+00  0.15041681820E+04  0.15041681820E+04  0.25500000920E-02 0. -1.
       -2   -1    0    0    0  501  0.00000000000E+00  0.00000000000E+00 -0.62037789656E+03  0.62037789657E+03  0.25500000920E-02 0.  1.
    10030    2    1    2    0    0  0.00000000000E+00  0.00000000000E+00  0.88379028543E+03  0.21245460786E+04  0.19319965764E+04 0.  0.
        4    1    3    3  502    0 -0.44690522428E+03 -0.31468995578E+03  0.13177665995E+04  0.14266269559E+04  0.12699999809E+01 0. -1.
       -4    1    3    3    0  502  0.44690522428E+03  0.31468995578E+03 -0.43397631402E+03  0.69791912267E+03  0.12699999809E+01 0.  1.
</event>
<event>
 5   0  0.6287345E-07  0.3001226E+04  0.7818609E-02  0.8243381E-01
       -1   -1    0    0    0  501  0.00000000000E+00  0.00000000000E+00  0.14305365842E+04  0.14305365843E+04  0.50400001928E-02 0. -1.
        1   -1    0    0  501    0  0.00000000000E+00  0.00000000000E+00 -0.15741226338E+04  0.15741226338E+04  0.50400001928E-02 0.  1.
    10030    2    1    2    0    0  0.00000000000E+00  0.00000000000E+00 -0.14358604958E+03  0.30046592181E+04  0.30012264265E+04 0.  0.
        5    1    3    3  502    0  0.10370603699E+04  0.91938997397E+03  0.50423086509E+03  0.14748026954E+04  0.46999998093E+01 0. -1.
       -5    1    3    3    0  502 -0.10370603699E+04 -0.91938997397E+03 -0.64781691467E+03  0.15298565227E+04  0.46999998093E+01 0.  1.
</event>
<event>
 5   0  0.6261598E-07  0.3728796E+04  0.7818609E-02  0.8061610E-01
       -1   -1    0    0    0  501  0.00000000000E+00  0.00000000000E+00  0.15719733600E+04  0.15719733600E+04  0.50400001928E-02 0.  1.
        1   -1    0    0  501    0  0.00000000000E+00  0.00000000000E+00 -0.22112208055E+04  0.22112208055E+04  0.50400001928E-02 0. -1.
    10030    2    1    2    0    0  0.00000000000E+00  0.00000000000E+00 -0.63924744551E+03  0.37831941656E+04  0.37287961593E+04 0.  0.
        1    1    3    3  502    0 -0.51197825008E+03  0.10948201682E+04  0.11206731057E+04  0.16482296985E+04  0.50400001928E-02 0.  1.
       -1    1    3    3    0  502  0.51197825008E+03 -0.10948201682E+04 -0.17599205512E+04  0.21349644671E+04  0.50400001928E-02 0. -1.
</event>
<event>
 5   0  0.1685793E-06  0.3718091E+04  0.7818609E-02  0.8063964E-01
       -2   -1    0    0    0  501  0.00000000000E+00  0.00000000000E+00  0.15650345942E+04  0.15650345942E+04  0.25500000920E-02 0. -1.
        2   -1    0    0  501    0  0.00000000000E+00  0.00000000000E+00 -0.22082900268E+04  0.22082900268E+04  0.25500000920E-02 0.  1.
    10030    2    1    2    0    0  0.00000000000E+00  0.00000000000E+00 -0.64325543257E+03  0.37733246210E+04  0.37180910618E+04 0.  0.
        3    1    3    3  502    0  0.19764928579E+03 -0.13835525155E+03 -0.21923348069E+04  0.22055700695E+04  0.10100000352E+00 0.  1.
       -3    1    3    3    0  502 -0.19764928579E+03  0.13835525155E+03  0.15490793743E+04  0.15677545515E+04  0.10100000352E+00 0. -1.
</event>
<event>
 5   0  0.6261598E-07  0.3769752E+04  0.7818609E-02  0.8052677E-01
        1   -1    0    0  501    0  0.00000000000E+00  0.00000000000E+00  0.19710560393E+04  0.19710560393E+04  0.50400001928E-02 0.  1.
       -1   -1    0    0    0  501  0.00000000000E+00  0.00000000000E+00 -0.18024637361E+04  0.18024637362E+04  0.50400001928E-02 0. -1.
    10030    2    1    2    0    0  0.00000000000E+00  0.00000000000E+00  0.16859230319E+03  0.37735197755E+04  0.37697517334E+04 0.  0.
        1    1    3    3  502    0 -0.83849679322E+02 -0.18681127205E+04 -0.15233202704E+03  0.18761878775E+04  0.50400001928E-02 0. -1.
       -1    1    3    3    0  502  0.83849679322E+02  0.18681127205E+04  0.32092433024E+03  0.18973318980E+04  0.50400001928E-02 0.  1.
</event>
<event>
 5   0  0.1151180E-06  0.3704493E+04  0.7818609E-02  0.8066967E-01
       -2   -1    0    0    0  501  0.00000000000E+00  0.00000000000E+00  0.16036863270E+04  0.16036863270E+04  0.25500000920E-02 0.  1.
        2   -1    0    0  501    0  0.00000000000E+00  0.00000000000E+00 -0.21393320257E+04  0.21393320257E+04  0.25500000920E-02 0. -1.
    10030    2    1    2    0    0  0.00000000000E+00  0.00000000000E+00 -0.53564569871E+03  0.37430183526E+04  0.37044932276E+04 0.  0.
        5    1    3    3  502    0 -0.43070633336E+02 -0.18267753636E+04  0.38366765568E+02  0.18276918250E+04  0.46999998093E+01 0.  1.
       -5    1    3    3    0  502  0.43070633336E+02  0.18267753636E+04 -0.57401246428E+03  0.19153265277E+04  0.46999998093E+01 0. -1.
</event>
<event>
 5   0  0.1680194E-06  0.2090866E+04  0.7818609E-02  0.8565278E-01
       -2   -1    0    0    0  501  0.00000000000E+00  0.00000000000E+00  0.24248287265E+04  0.24248287265E+04  0.25500000920E-02 0.  1.
        2   -1    0    0  501    0  0.00000000000E+00  0.00000000000E+00 -0.45072456240E+03  0.45072456240E+03  0.25500000920E-02 0. -1.
    10030    2    1    2    0    0  0.00000000000E+00  0.00000000000E+00  0.19741041641E+04  0.28755532889E+04  0.20908657218E+04 0.  0.
        2    1    3    3  502    0  0.50013145692E+03  0.46603513828E+03 -0.10074275788E+03  0.69099155391E+03  0.25500000920E-02 0. -1.
       -2    1    3    3    0  502 -0.50013145692E+03 -0.46603513828E+03  0.20748469219E+04  0.21845617349E+04  0.25500000920E-02 0.  1.
</event>
<event>
 5   0  0.6186440E-07  0.2323424E+04  0.7818609E-02  0.8468742E-01
        1   -1    0    0  501    0  0.00000000000E+00  0.00000000000E+00  0.14465624895E+04  0.14465624895E+04  0.50400001928E-02 0.  1.
       -1   -1    0    0    0  501  0.00000000000E+00  0.00000000000E+00 -0.93295281653E+03  0.93295281654E+03  0.50400001928E-02 0. -1.
    10030    2    1    2    0    0  0.00000000000E+00  0.00000000000E+00  0.51360967298E+03  0.23795153061E+04  0.23234238089E+04 0.  0.
        3    1    3    3  502    0 -0.71698951221E+03 -0.68855332339E+03  0.87247920899E+03  0.13226487138E+04  0.10100000352E+00 0.  1.
       -3    1    3    3    0  502  0.71698951221E+03  0.68855332339E+03 -0.35886953601E+03  0.10568665923E+04  0.10100000352E+00 0. -1.
</event>
<event>
 5   0  0.5679750E-07  0.3446226E+04  0.7818609E-02  0.8126653E-01
        1   -1    0    0  501    0  0.00000000000E+00  0.00000000000E+00  0.11570800754E+04  0.11570800754E+04  0.50400001928E-02 0. -1.
       -1   -1    0    0    0  501  0.00000000000E+00  0.00000000000E+00 -0.25660435224E+04  0.25660435224E+04  0.50400001928E-02 0.  1.
    10030    2    1    2    0    0  0.00000000000E+00  0.00000000000E+00 -0.14089634470E+04  0.37231235978E+04  0.34462256643E+04 0.  0.
        4    1    3    3  502    0 -0.12422221903E+02 -0.64500215592E+03 -0.24306516498E+04  0.25148063839E+04  0.12699999809E+01 0.  1.
       -4    1    3    3    0  502  0.12422221903E+02  0.64500215592E+03  0.10216882028E+04  0.12083172139E+04  0.12699999809E+01 0. -1.
</event>
<event>
 5   0  0.1184684E-06  0.3663358E+04  0.7818609E-02  0.8076131E-01
        2   -1    0    0  501    0  0.00000000000E+00  0.00000000000E+00  0.25710793470E+04  0.25710793470E+04  0.25500000920E-02 0.  1.
       -2   -1    0    0    0  501  0.00000000000E+00  0.00000000000E+00 -0.13049179872E+04  0.13049179872E+04  0.25500000920E-02 0. -1.
    10030    2    1    2    0    0  0.00000000000E+00  0.00000000000E+00  0.12661613598E+04  0.38759973342E+04  0.36633578512E+04 0.  0.
        4    1    3    3  502    0 -0.96710392425E+03  0.58542099604E+03  0.21579280708E+04  0.24361163590E+04  0.12699999809E+01 0.  1.
       -4    1    3    3    0  502  0.96710392425E+03 -0.58542099604E+03 -0.89176671103E+03  0.14398809752E+04  0.12699999809E+01 0. -1.
</event>
<event>
 5   0  0.5679750E-07  0.2069626E+04  0.7818609E-02  0.8574743E-01
       -1   -1    0    0    0  501  0.00000000000E+00  0.00000000000E+00  0.10633969275E+04  0.10633969275E+04  0.50400001928E-02 0. -1.
        1   -1    0    0  501    0  0.00000000000E+00  0.00000000000E+00 -0.10069974004E+04  0.10069974004E+04  0.50400001928E-02 0.  1.
    10030    2    1    2    0    0  0.00000000000E+00  0.00000000000E+00  0.56399527138E+02  0.20703943279E+04  0.20696259968E+04 0.  0.
        4    1    3    3  502    0  0.45802127438E+02 -0.11875480367E+03  0.10555356313E+04  0.10631827783E+04  0.12699999809E+01 0. -1.
       -4    1    3    3    0  502 -0.45802127438E+02  0.11875480367E+03 -0.99913610412E+03  0.10072115496E+04  0.12699999809E+01 0.  1.
</event>
<event>
 5   0  0.1184684E-06  0.1903940E+04  0.7818609E-02  0.8652898E-01
       -2   -1    0    0    0  501  0.00000000000E+00  0.00000000000E+00  0.51174754602E+03  0.51174754603E+03  0.25500000920E-02 0.  1.
        2   -1    0    0  501    0  0.00000000000E+00  0.00000000000E+00 -0.17708872258E+04  0.17708872258E+04  0.25500000920E-02 0. -1.
    10030    2    1    2    0    0  0.00000000000E+00  0.00000000000E+00 -0.12591396798E+04  0.22826347718E+04  0.19039403269E+04 0.  0.
        4    1    3    3  502    0  0.17128792566E+03 -0.85316793430E+03 -0.16677177501E+03  0.88603020007E+03  0.12699999809E+01 0.  1.
       -4    1    3    3    0  502 -0.17128792566E+03  0.85316793430E+03 -0.10923679048E+04  0.13966045718E+04  0.12699999809E+01 0. -1.
</event>
<event>
 5   0  0.1685793E-06  0.2511119E+04  0.7818609E-02  0.8399035E-01
       -2   -1    0    0    0  501  0.00000000000E+00  0.00000000000E+00  0.20511654380E+04  0.20511654380E+04  0.25500000920E-02 0. -1.
        2   -1    0    0  501    0  0.00000000000E+00  0.00000000000E+00 -0.76855322896E+03  0.76855322897E+03  0.25500000920E-02 0.  1.
    10030    2    1    2    0    0  0.00000000000E+00  0.00000000000E+00  0.12826122090E+04  0.28197186669E+04  0.25111191294E+04 0.  0.
        3    1    3    3  502    0 -0.10409770718E+03  0.30288250308E+03  0.20045260785E+04  0.20299504804E+04  0.10100000352E+00 0. -1.
       -3    1    3    3    0  502  0.10409770718E+03 -0.30288250308E+03 -0.72191386949E+03  0.78976818654E+03  0.10100000352E+00 0.  1.
</event>
<event>
 5   0  0.5875011E-07  0.3709684E+04  0.7818609E-02  0.8065819E-01
        1   -1    0    0  501    0  0.00000000000E+00  0.00000000000E+00  0.14772571424E+04  0.14772571425E+04  0.50400001928E-02 0. -1.
       -1   -1    0    0    0  501  0.00000000000E+00  0.00000000000E+00 -0.23289370250E+04  0.23289370250E+04  0.50400001928E-02 0.  1.
    10030    2    1    2    0    0  0.00000000000E+00  0.00000000000E+00 -0.85167988257E+03  0.38061941675E+04  0.37096840052E+04 0.  0.
        2    1    3    3  502    0  0.11452049275E+03  0.39000620145E+03 -0.22826787273E+04  0.23185861969E+04  0.25500000920E-02 0.  1.
       -2    1    3    3    0  502 -0.11452049275E+03 -0.39000620145E+03  0.14309988447E+04  0.14876079706E+04  0.25500000920E-02 0. -1.
</event>
<event>
 5   0  0.1151180E-06  0.3675703E+04  0.7818609E-02  0.8073368E-01
       -2   -1    0    0    0  501  0.00000000000E+00  0.00000000000E+00  0.20326180294E+04  0.20326180294E+04  0.25500000920E-02 0. -1.
        2   -1    0    0  501    0  0.00000000000E+00  0.00000000000E+00 -0.16617477906E+04  0.16617477906E+04  0.25500000920E-02 0.  1.
    10030    2    1    2    0    0  0.00000000000E+00  0.00000000000E+00  0.37087023879E+03  0.36943658200E+04  0.36757032086E+04 0.  0.
        5    1    3    3  502    0  0.78285904994E+03  0.10469619511E+04 -0.11128971030E+04  0.17168458495E+04  0.46999998093E+01 0.  1.
       -5    1    3    3    0  502 -0.78285904994E+03 -0.10469619511E+04  0.14837673418E+04  0.19775199705E+04  0.46999998093E+01 0. -1.
</event>
<event>
 5   0  0.1151180E-06  0.3721820E+04  0.7818609E-02  0.8063143E-01
        2   -1    0    0  501    0  0.00000000000E+00  0.00000000000E+00  0.20424768985E+04  0.20424768985E+04  0.25500000920E-02 0. -1.
       -2   -1    0    0    0  501  0.00000000000E+00  0.00000000000E+00 -0.16954839671E+04  0.16954839671E+04  0.25500000920E-02 0.  1.
    10030    2    1    2    0    0  0.00000000000E+00  0.00000000000E+00  0.34699293137E+03  0.37379608657E+04  0.37218204334E+04 0.  0.
        5    1    3    3  502    0  0.10874468669E+04 -0.14548695051E+04 -0.23295449041E+03  0.18312498054E+04  0.46999998093E+01 0.  1.
       -5    1    3    3    0  502 -0.10874468669E+04  0.14548695051E+04  0.57994742177E+03  0.19067110602E+04  0.46999998093E+01 0. -1.
</event>
<event>
 5   0  0.6287345E-07  0.3764217E+04  0.7818609E-02  0.8053878E-01
       -1   -1    0    0    0  501  0.00000000000E+00  0.00000000000E+00  0.13377457725E+04  0.13377457725E+04  0.50400001928E-02 0. -1.
        1   -1    0    0  501    0  0.00000000000E+00  0.00000000000E+00 -0.26479866949E+04  0.26479866949E+04  0.50400001928E-02 0.  1.
    10030    2    1    2    0    0  0.00000000000E+00  0.00000000000E+00 -0.13102409224E+04  0.39857324673E+04  0.37642173192E+04 0.  0.
        5    1    3    3  502    0  0.18163892724E+04 -0.49290469232E+03 -0.64530727496E+03  0.19896403177E+04  0.46999998093E+01 0.  1.
       -5    1    3    3    0  502 -0.18163892724E+04  0.49290469232E+03 -0.66493364744E+03  0.19960921497E+04  0.46999998093E+01 0. -1.
</event>
<event>
 5   0  0.1680194E-06  0.3786905E+04  0.7818609E-02  0.8048971E-01
       -2   -1    0    0    0  501  0.00000000000E+00  0.00000000000E+00  0.24340648149E+04  0.24340648149E+04  0.25500000920E-02 0.  1.
        2   -1    0    0  501    0  0.00000000000E+00  0.00000000000E+00 -0.14729117265E+04  0.14729117265E+04  0.25500000920E-02 0. -1.
    10030    2    1    2    0    0  0.00000000000E+00  0.00000000000E+00  0.96115308839E+03  0.39069765413E+04  0.37869051262E+04 0.  0.
        2    1    3    3  502    0  0.12035080554E+04 -0.13183877511E+04  0.11319299595E+04  0.21137273558E+04  0.25500000920E-02 0.  1.
       -2    1    3    3    0  502 -0.12035080554E+04  0.13183877511E+04 -0.17077687108E+03  0.17932491855E+04  0.25500000920E-02 0. -1.
</event>
<event>
 5   0  0.6186440E-07  0.2367690E+04  0.7818609E-02  0.8451700E-01
        1   -1    0    0  501    0  0.00000000000E+00  0.00000000000E+00  0.10212515838E+04  0.10212515838E+04  0.50400001928E-02 0. -1.
       -1   -1    0    0    0  501  0.00000000000E+00  0.00000000000E+00 -0.13723245024E+04  0.13723245024E+04  0.50400001928E-02 0.  1.
    10030    2    1    2    0    0  0.00000000000E+00  0.00000000000E+00 -0.35107291860E+03  0.23935760863E+04  0.23676896516E+04 0.  0.
        3    1    3    3  502    0 -0.80732348971E+03 -0.86549354962E+03 -0.14999643769E+03  0.11930420122E+04  0.10100000352E+00 0.  1.
       -3    1    3    3    0  502  0.80732348971E+03  0.86549354962E+03 -0.20107648091E+03  0.12005340740E+04  0.10100000352E+00 0. -1.
</event>
</LesHouchesEvents>
