<LesHouchesEvents version="3.0">
<header>
<!--
#*********************************************************************
#                                                                    *
#                        MadGraph5_aMC@NLO                           *
#                                                                    *
#                           Going Beyond                             *
#                                                                    *
#                   http://madgraph.hep.uiuc.edu                     *
#                   http://madgraph.phys.ucl.ac.be                   *
#                   http://amcatnlo.cern.ch                          *
#                                                                    *
#                     The MadGraph5_aMC@NLO team                     *
#                                                                    *
#....................................................................*
#                                                                    *
# This file contains all the information necessary to reproduce      *
# the events generated:                                              *
#                                                                    *
# 1. software version                                                *
# 2. proc_card          : code generation info including model       *
# 3. param_card         : model primary parameters in the LH format  *
# 4. run_card           : running parameters (collider and cuts)     *
# 5. pythia_card        : present only if pythia has been run        *
# 6. pgs_card           : present only if pgs has been run           *
# 7. delphes_cards      : present only if delphes has been run       *
#                                                                    *
#                                                                    *
#*********************************************************************
-->
<MGVersion>
#5.2.2.3
</MGVersion>
<MG5ProcCard>
#************************************************************
#*                     MadGraph5_aMC@NLO                    *
#*                                                          *
#*                *                       *                 *
#*                  *        * *        *                   *
#*                    * * * * 5 * * * *                     *
#*                  *        * *        *                   *
#*                *                       *                 *
#*                                                          *
#*                                                          *
#*         VERSION 2.2.3                 2015-02-10         *
#*                                                          *
#*    The MadGraph5_aMC@NLO Development Team - Find us at   *
#*    https://server06.fynu.ucl.ac.be/projects/madgraph     *
#*                                                          *
#************************************************************
#*                                                          *
#*               Command File for MadGraph5_aMC@NLO         *
#*                                                          *
#*     run as ./bin/mg5_aMC  filename                       *
#*                                                          *
#************************************************************
set group_subprocesses Auto
set ignore_six_quark_processes False
set loop_optimized_output True
set gauge unitary
set complex_mass_scheme False
import model sm
define p = g u c d s u~ c~ d~ s~
define j = g u c d s u~ c~ d~ s~
define l+ = e+ mu+
define l- = e- mu-
define vl = ve vm vt
define vl~ = ve~ vm~ vt~
import model Zprime_UFO
generate p p > zph, zph > j j
add process p p > zph, zph > b b~
output Dijet_signal
</MG5ProcCard>
<MGProcCard>
#*********************************************************************
#                        MadGraph/MadEvent                           *
#                   http://madgraph.hep.uiuc.edu                     *
#                                                                    *
#                          proc_card.dat                             *
#*********************************************************************
#                                                                    *
#            This Files is generated by MADGRAPH 5                   *
#                                                                    *
# WARNING: This Files is generated for MADEVENT (compatibility issue)*
#          This files is NOT a valid MG4 proc_card.dat               *
#          Running this in MG4 will NEVER reproduce the result of MG5*
#                                                                    *
#*********************************************************************
#*********************************************************************
# Process(es) requested : mg2 input                                  *
#*********************************************************************
# Begin PROCESS # This is TAG. Do not modify this line
p p > zph , zph > j j           #Process
# Be carefull the coupling are here in MG5 convention
          
end_coup           # End the couplings input

done               # this tells MG there are no more procs
# End PROCESS  # This is TAG. Do not modify this line
#*********************************************************************
# Model information                                                  *
#*********************************************************************
# Begin MODEL  # This is TAG. Do not modify this line
Zprime_UFO
# End   MODEL  # This is TAG. Do not modify this line
#*********************************************************************
# Start multiparticle definitions                                    *
#*********************************************************************
# Begin MULTIPARTICLES # This is TAG. Do not modify this line

# End  MULTIPARTICLES # This is TAG. Do not modify this line
</MGProcCard>
<MGRunCard>
#*********************************************************************
#                       MadGraph5_aMC@NLO                            *
#                                                                    *
#                     run_card.dat MadEvent                          *
#                                                                    *
#  This file is used to set the parameters of the run.               *
#                                                                    *
#  Some notation/conventions:                                        *
#                                                                    *
#   Lines starting with a '# ' are info or comments                  *
#                                                                    *
#   mind the format:   value    = variable     ! comment             *
#*********************************************************************
#
#*******************                                                 
# Running parameters
#*******************                                                 
#                                                                    
#*********************************************************************
# Tag name for the run (one word)                                    *
#*********************************************************************
  tag_1     = run_tag ! name of the run 
#*********************************************************************
# Run to generate the grid pack                                      *
#*********************************************************************
  .false.     = gridpack  !True = setting up the grid pack
#*********************************************************************
# Number of events and rnd seed                                      *
# Warning: Do not generate more than 1M events in a single run       *
# If you want to run Pythia, avoid more than 50k events in a run.    *
#*********************************************************************
  2000 = nevents ! Number of unweighted events requested 
 1308 = iseed   ! rnd seed (0=assigned automatically=default))
#*********************************************************************
# Collider type and energy                                           *
# lpp: 0=No PDF, 1=proton, -1=antiproton, 2=photon from proton,      *
#                                         3=photon from electron     *
#*********************************************************************
        1     = lpp1    ! beam 1 type 
        1     = lpp2    ! beam 2 type
     4000     = ebeam1  ! beam 1 total energy in GeV
     4000     = ebeam2  ! beam 2 total energy in GeV
#*********************************************************************
# Beam polarization from -100 (left-handed) to 100 (right-handed)    *
#*********************************************************************
        0     = polbeam1 ! beam polarization for beam 1
        0     = polbeam2 ! beam polarization for beam 2
#*********************************************************************
# PDF CHOICE: this automatically fixes also alpha_s and its evol.    *
#*********************************************************************
 'nn23lo1'    = pdlabel     ! PDF set                                     
 230000    = lhaid     ! if pdlabel=lhapdf, this is the lhapdf number
#*********************************************************************
# Renormalization and factorization scales                           *
#*********************************************************************
 F        = fixed_ren_scale  ! if .true. use fixed ren scale
 F        = fixed_fac_scale  ! if .true. use fixed fac scale
 91.1880  = scale            ! fixed ren scale
 91.1880  = dsqrt_q2fact1    ! fixed fact scale for pdf1
 91.1880  = dsqrt_q2fact2    ! fixed fact scale for pdf2
 1        = scalefact        ! scale factor for event-by-event scales
#*********************************************************************
# Matching - Warning! ickkw > 1 is still beta
#*********************************************************************
 0        = ickkw            ! 0 no matching, 1 MLM, 2 CKKW matching
 1        = highestmult      ! for ickkw=2, highest mult group
 1        = ktscheme         ! for ickkw=1, 1 Durham kT, 2 Pythia pTE
 1        = alpsfact         ! scale factor for QCD emission vx
 F        = chcluster        ! cluster only according to channel diag
 T        = pdfwgt           ! for ickkw=1, perform pdf reweighting
 5        = asrwgtflavor     ! highest quark flavor for a_s reweight
 T        = clusinfo         ! include clustering tag in output
 3.0      = lhe_version       ! Change the way clustering information pass to shower.        
#*********************************************************************
#**********************************************************
#
#**********************************************************
# Automatic ptj and mjj cuts if xqcut > 0
# (turn off for VBF and single top processes)
#**********************************************************
   T  = auto_ptj_mjj  ! Automatic setting of ptj and mjj
#**********************************************************
#                                                                    
#**********************************
# BW cutoff (M+/-bwcutoff*Gamma)
#**********************************
  15  = bwcutoff      ! (M+/-bwcutoff*Gamma)
#**********************************************************
# Apply pt/E/eta/dr/mij cuts on decay products or not
# (note that etmiss/ptll/ptheavy/ht/sorted cuts always apply)
#**********************************************************
   T  = cut_decays    ! Cut decay products 
#*************************************************************
# Number of helicities to sum per event (0 = all helicities)
# 0 gives more stable result, but longer run time (needed for
# long decay chains e.g.).
# Use >=2 if most helicities contribute, e.g. pure QCD.
#*************************************************************
   0  = nhel          ! Number of helicities used per event
#*******************                                                 
# Standard Cuts
#*******************                                                 
#                                                                    
#*********************************************************************
# Minimum and maximum pt's (for max, -1 means no cut)                *
#*********************************************************************
 20  = ptj       ! minimum pt for the jets 
  0  = ptb       ! minimum pt for the b 
 10  = pta       ! minimum pt for the photons 
 10  = ptl       ! minimum pt for the charged leptons 
  0  = misset    ! minimum missing Et (sum of neutrino's momenta)
  0  = ptheavy   ! minimum pt for one heavy final state
 1.0 = ptonium   ! minimum pt for the quarkonium states
 -1  = ptjmax    ! maximum pt for the jets
 -1  = ptbmax    ! maximum pt for the b
 -1  = ptamax    ! maximum pt for the photons
 -1  = ptlmax    ! maximum pt for the charged leptons
 -1  = missetmax ! maximum missing Et (sum of neutrino's momenta)
#*********************************************************************
# Minimum and maximum E's (in the center of mass frame)              *
#*********************************************************************
  0  = ej     ! minimum E for the jets 
  0  = eb     ! minimum E for the b 
  0  = ea     ! minimum E for the photons 
  0  = el     ! minimum E for the charged leptons 
 -1   = ejmax ! maximum E for the jets
 -1   = ebmax ! maximum E for the b
 -1   = eamax ! maximum E for the photons
 -1   = elmax ! maximum E for the charged leptons
#*********************************************************************
# Maximum and minimum absolute rapidity (for max, -1 means no cut)   *
#*********************************************************************
   5  = etaj    ! max rap for the jets 
  -1  = etab    ! max rap for the b
 2.5  = etaa    ! max rap for the photons 
 2.5  = etal    ! max rap for the charged leptons 
 0.6  = etaonium ! max rap for the quarkonium states
   0  = etajmin ! min rap for the jets
   0  = etabmin ! min rap for the b
   0  = etaamin ! min rap for the photons
   0  = etalmin ! main rap for the charged leptons
#*********************************************************************
# Minimum and maximum DeltaR distance                                *
#*********************************************************************
 0.4 = drjj    ! min distance between jets 
 0   = drbb    ! min distance between b's 
 0.4 = drll    ! min distance between leptons 
 0.4 = draa    ! min distance between gammas 
 0   = drbj    ! min distance between b and jet 
 0.4 = draj    ! min distance between gamma and jet 
 0.4 = drjl    ! min distance between jet and lepton 
 0   = drab    ! min distance between gamma and b 
 0   = drbl    ! min distance between b and lepton 
 0.4 = dral    ! min distance between gamma and lepton 
 -1  = drjjmax ! max distance between jets
 -1  = drbbmax ! max distance between b's
 -1  = drllmax ! max distance between leptons
 -1  = draamax ! max distance between gammas
 -1  = drbjmax ! max distance between b and jet
 -1  = drajmax ! max distance between gamma and jet
 -1  = drjlmax ! max distance between jet and lepton
 -1  = drabmax ! max distance between gamma and b
 -1  = drblmax ! max distance between b and lepton
 -1  = dralmax ! maxdistance between gamma and lepton
#*********************************************************************
# Minimum and maximum invariant mass for pairs                       *
# WARNING: for four lepton final state mmll cut require to have      *
#          different lepton masses for each flavor!                  *           
#*********************************************************************
 0   = mmjj    ! min invariant mass of a jet pair 
 0   = mmbb    ! min invariant mass of a b pair 
 0   = mmaa    ! min invariant mass of gamma gamma pair
 0   = mmll    ! min invariant mass of l+l- (same flavour) lepton pair
 -1  = mmjjmax ! max invariant mass of a jet pair
 -1  = mmbbmax ! max invariant mass of a b pair
 -1  = mmaamax ! max invariant mass of gamma gamma pair
 -1  = mmllmax ! max invariant mass of l+l- (same flavour) lepton pair
#*********************************************************************
# Minimum and maximum invariant mass for all letpons                 *
#*********************************************************************
 0   = mmnl    ! min invariant mass for all letpons (l+- and vl) 
 -1  = mmnlmax ! max invariant mass for all letpons (l+- and vl) 
#*********************************************************************
# Minimum and maximum pt for 4-momenta sum of leptons                *
#*********************************************************************
 0   = ptllmin  ! Minimum pt for 4-momenta sum of leptons(l and vl)
 -1  = ptllmax  ! Maximum pt for 4-momenta sum of leptons(l and vl)
#*********************************************************************
# Inclusive cuts                                                     *
#*********************************************************************
 0  = xptj ! minimum pt for at least one jet  
 0  = xptb ! minimum pt for at least one b 
 0  = xpta ! minimum pt for at least one photon 
 0  = xptl ! minimum pt for at least one charged lepton 
#*********************************************************************
# Control the pt's of the jets sorted by pt                          *
#*********************************************************************
 0   = ptj1min ! minimum pt for the leading jet in pt
 0   = ptj2min ! minimum pt for the second jet in pt
 0   = ptj3min ! minimum pt for the third jet in pt
 0   = ptj4min ! minimum pt for the fourth jet in pt
 -1  = ptj1max ! maximum pt for the leading jet in pt 
 -1  = ptj2max ! maximum pt for the second jet in pt
 -1  = ptj3max ! maximum pt for the third jet in pt
 -1  = ptj4max ! maximum pt for the fourth jet in pt
 0   = cutuse  ! reject event if fails any (0) / all (1) jet pt cuts
#*********************************************************************
# Control the pt's of leptons sorted by pt                           *
#*********************************************************************
 0   = ptl1min ! minimum pt for the leading lepton in pt
 0   = ptl2min ! minimum pt for the second lepton in pt
 0   = ptl3min ! minimum pt for the third lepton in pt
 0   = ptl4min ! minimum pt for the fourth lepton in pt
 -1  = ptl1max ! maximum pt for the leading lepton in pt 
 -1  = ptl2max ! maximum pt for the second lepton in pt
 -1  = ptl3max ! maximum pt for the third lepton in pt
 -1  = ptl4max ! maximum pt for the fourth lepton in pt
#*********************************************************************
# Control the Ht(k)=Sum of k leading jets                            *
#*********************************************************************
 0   = htjmin ! minimum jet HT=Sum(jet pt)
 -1  = htjmax ! maximum jet HT=Sum(jet pt)
 0   = ihtmin  !inclusive Ht for all partons (including b)
 -1  = ihtmax  !inclusive Ht for all partons (including b)
 0   = ht2min ! minimum Ht for the two leading jets
 0   = ht3min ! minimum Ht for the three leading jets
 0   = ht4min ! minimum Ht for the four leading jets
 -1  = ht2max ! maximum Ht for the two leading jets
 -1  = ht3max ! maximum Ht for the three leading jets
 -1  = ht4max ! maximum Ht for the four leading jets
#***********************************************************************
# Photon-isolation cuts, according to hep-ph/9801442                   *
# When ptgmin=0, all the other parameters are ignored                  *
# When ptgmin>0, pta and draj are not going to be used                 *
#***********************************************************************
   0 = ptgmin ! Min photon transverse momentum
 0.4 = R0gamma ! Radius of isolation code
 1.0 = xn ! n parameter of eq.(3.4) in hep-ph/9801442
 1.0 = epsgamma ! epsilon_gamma parameter of eq.(3.4) in hep-ph/9801442
 .true. = isoEM ! isolate photons from EM energy (photons and leptons)
#*********************************************************************
# WBF cuts                                                           *
#*********************************************************************
 0   = xetamin ! minimum rapidity for two jets in the WBF case  
 0   = deltaeta ! minimum rapidity for two jets in the WBF case 
#*********************************************************************
# KT DURHAM CUT                                                      *
#*********************************************************************
 -1    =  ktdurham        
 0.4  =  dparameter 
#*********************************************************************
# maximal pdg code for quark to be considered as a light jet         *
# (otherwise b cuts are applied)                                     *
#*********************************************************************
 4 = maxjetflavor    ! Maximum jet pdg code
#*********************************************************************
# Jet measure cuts                                                   *
#*********************************************************************
 0   = xqcut   ! minimum kt jet measure between partons
#*********************************************************************
#
#*********************************************************************
# Store info for systematics studies                                 *
# WARNING: If use_syst is T, matched Pythia output is                *
#          meaningful ONLY if plotted taking matchscale              *
#          reweighting into account!                                 *
#*********************************************************************
   F  = use_syst      ! Enable systematics studies
#
#**************************************
# Parameter of the systematics study
#  will be used by SysCalc (if installed)
#**************************************                                  
#
0.5 1 2 = sys_scalefact  # factorization/renormalization scale factor
0.5 1 2 = sys_alpsfact  # \alpha_s emission scale factors
30 50 = sys_matchscale # variation of merging scale
# PDF sets and number of members (0 or none for all members).
CT10nlo.LHgrid = sys_pdf # matching scales
# MSTW2008nlo68cl.LHgrid 1  = sys_pdf
</MGRunCard>
<slha>
######################################################################
## PARAM_CARD AUTOMATICALY GENERATED BY MG5 FOLLOWING UFO MODEL   ####
######################################################################
##                                                                  ##
##  Width set on Auto will be computed following the information    ##
##        present in the decay.py files of the model.               ##
##        See  arXiv:1402.1178 for more details.                    ##
##                                                                  ##
######################################################################

###################################
## INFORMATION FOR CKMBLOCK
###################################
Block ckmblock 
    1 2.277360e-01 # cabi 

###################################
## INFORMATION FOR FRBLOCK
###################################
Block frblock 
    1 6.000000e-01 # gz 

###################################
## INFORMATION FOR MASS
###################################
Block mass 
    1 5.040000e-03 # MD 
    2 2.550000e-03 # MU 
    3 1.010000e-01 # MS 
    4 1.270000e+00 # MC 
    5 4.700000e+00 # MB 
    6 1.720000e+02 # MT 
   11 5.110000e-04 # Me 
   13 1.056600e-01 # MM 
   15 1.777000e+00 # MTA 
   23 9.118760e+01 # MZ 
   25 1.200000e+02 # MH 
  10030 2.300000e+03 # MZph 
  10031 3.000000e+02 # MZpl 
## Dependent parameters, given by model restrictions.
## Those values should be edited following the 
## analytical expression. MG5 ignores those values 
## but they are important for interfacing the output of MG5
## to external program such as Pythia.
  12 0.000000 # ve : 0.0 
  14 0.000000 # vm : 0.0 
  16 0.000000 # vt : 0.0 
  21 0.000000 # g : 0.0 
  22 0.000000 # a : 0.0 
  24 79.824360 # w+ : cmath.sqrt(MZ__exp__2/2. + cmath.sqrt(MZ__exp__4/4. - (aEW*cmath.pi*MZ__exp__2)/(Gf*sqrt__2))) 

###################################
## INFORMATION FOR SMINPUTS
###################################
Block sminputs 
    1 1.279000e+02 # aEWM1 
    2 1.166370e-05 # Gf 
    3 1.184000e-01 # aS 

###################################
## INFORMATION FOR YUKAWA
###################################
Block yukawa 
    1 5.040000e-03 # ymdo 
    2 2.550000e-03 # ymup 
    3 1.010000e-01 # yms 
    4 1.270000e+00 # ymc 
    5 4.700000e+00 # ymb 
    6 1.720000e+02 # ymt 
   11 5.110000e-04 # yme 
   13 1.056600e-01 # ymm 
   15 1.777000e+00 # ymtau 

###################################
## INFORMATION FOR DECAY
###################################
DECAY   6 1.508336e+00 # WT 
DECAY  23 2.495200e+00 # WZ 
DECAY  24 2.085000e+00 # WW 
DECAY  25 5.753088e-03 # WH 
## Dependent parameters, given by model restrictions.
## Those values should be edited following the 
## analytical expression. MG5 ignores those values 
## but they are important for interfacing the output of MG5
## to external program such as Pythia.
DECAY  1 0.000000 # d : 0.0 
DECAY  2 0.000000 # u : 0.0 
DECAY  3 0.000000 # s : 0.0 
DECAY  4 0.000000 # c : 0.0 
DECAY  5 0.000000 # b : 0.0 
DECAY  11 0.000000 # e- : 0.0 
DECAY  12 0.000000 # ve : 0.0 
DECAY  13 0.000000 # mu- : 0.0 
DECAY  14 0.000000 # vm : 0.0 
DECAY  15 0.000000 # ta- : 0.0 
DECAY  16 0.000000 # vt : 0.0 
DECAY  21 0.000000 # g : 0.0 
DECAY  22 0.000000 # a : 0.0 
DECAY  10030 0.308725 # zph : (gz__exp__2*MZph*(5 + cmath.sqrt(1 - (4*MT__exp__2)/MZph__exp__2)))/(144.*cmath.pi) 
DECAY  10031 0.132629 # zpl : (5*gz__exp__2*MZpl)/(144.*cmath.pi) 
#===========================================================
# QUANTUM NUMBERS OF NEW STATE(S) (NON SM PDG CODE)
#===========================================================

Block QNUMBERS 10030  # zph 
        1 0  # 3 times electric charge
        2 3  # number of spin states (2S+1)
        3 1  # colour rep (1: singlet, 3: triplet, 8: octet)
        4 0  # Particle/Antiparticle distinction (0=own anti)
Block QNUMBERS 10031  # zpl 
        1 0  # 3 times electric charge
        2 3  # number of spin states (2S+1)
        3 1  # colour rep (1: singlet, 3: triplet, 8: octet)
        4 0  # Particle/Antiparticle distinction (0=own anti)
</slha>
## END BANNER##
<MGGenerationInfo>
#  Number of Events        :         3927
#  Integrated weight (pb)  :  0.45639E-02
#  Max wgt                 :  0.16979E-05
#  Average wgt             :  0.11622E-05
</MGGenerationInfo>
</header>
<init>
     2212     2212  0.40000000000E+04  0.40000000000E+04 0 0  247000  247000 2   1
  0.45666463846E-02  0.89089578540E-05  0.16978550000E-05   0
</init>
<event>
 5   0  0.1588969E-05  0.2286535E+04  0.7818609E-02  0.8483249E-01
       -2   -1    0    0    0  501  0.00000000000E+00  0.00000000000E+00  0.64817043410E+03  0.64817043410E+03  0.25500000920E-02 0. -1.
        2   -1    0    0  501    0  0.00000000000E+00  0.00000000000E+00 -0.20165383320E+04  0.20165383320E+04  0.25500000920E-02 0.  1.
    10030    2    1    2    0    0  0.00000000000E+00  0.00000000000E+00 -0.13683678979E+04  0.26647087661E+04  0.22865349558E+04 0.  0.
        1    1    3    3  502    0 -0.77164465743E+03  0.25785094187E+03  0.25186421818E+03  0.85167961699E+03  0.50400001928E-02 0. -1.
       -1    1    3    3    0  502  0.77164465743E+03 -0.25785094187E+03 -0.16202321161E+04  0.18130291492E+04  0.50400001928E-02 0.  1.
</event>
<event>
 5   0  0.1588969E-05  0.2302109E+04  0.7818609E-02  0.8477090E-01
        2   -1    0    0  501    0  0.00000000000E+00  0.00000000000E+00  0.12849414513E+04  0.12849414513E+04  0.25500000920E-02 0.  1.
       -2   -1    0    0    0  501  0.00000000000E+00  0.00000000000E+00 -0.10311181586E+04  0.10311181586E+04  0.25500000920E-02 0. -1.
    10030    2    1    2    0    0  0.00000000000E+00  0.00000000000E+00  0.25382329273E+03  0.23160596100E+04  0.23021090011E+04 0.  0.
        1    1    3    3  502    0  0.93577654086E+03  0.11238992270E+03 -0.53786275414E+03  0.10851753644E+04  0.50400001928E-02 0. -1.
       -1    1    3    3    0  502 -0.93577654086E+03 -0.11238992270E+03  0.79168604688E+03  0.12308842456E+04  0.50400001928E-02 0.  1.
</event>
<event>
 5   0  0.1602809E-05  0.2370566E+04  0.7818609E-02  0.8450606E-01
       -2   -1    0    0    0  501  0.00000000000E+00  0.00000000000E+00  0.17304517895E+04  0.17304517895E+04  0.25500000920E-02 0.  1.
        2   -1    0    0  501    0  0.00000000000E+00  0.00000000000E+00 -0.81186672805E+03  0.81186672805E+03  0.25500000920E-02 0. -1.
    10030    2    1    2    0    0  0.00000000000E+00  0.00000000000E+00  0.91858506141E+03  0.25423185175E+04  0.23705663731E+04 0.  0.
        3    1    3    3  502    0  0.21936508162E+03 -0.57315979511E+03  0.15467942505E+04  0.16640930423E+04  0.10100000352E+00 0.  1.
       -3    1    3    3    0  502 -0.21936508162E+03  0.57315979511E+03 -0.62820918914E+03  0.87822547520E+03  0.10100000352E+00 0. -1.
</event>
<event>
 5   0  0.1588969E-05  0.2309308E+04  0.7818609E-02  0.8474260E-01
        2   -1    0    0  501    0  0.00000000000E+00  0.00000000000E+00  0.31148285272E+04  0.31148285272E+04  0.25500000920E-02 0.  1.
       -2   -1    0    0    0  501  0.00000000000E+00  0.00000000000E+00 -0.42802551506E+03  0.42802551506E+03  0.25500000920E-02 0. -1.
    10030    2    1    2    0    0  0.00000000000E+00  0.00000000000E+00  0.26868030122E+04  0.35428540423E+04  0.23093081948E+04 0.  0.
        1    1    3    3  502    0  0.25517395901E+03 -0.57413495632E+03  0.28296252520E+04  0.28985382116E+04  0.50400001928E-02 0.  1.
       -1    1    3    3    0  502 -0.25517395901E+03  0.57413495632E+03 -0.14282223984E+03  0.64431583066E+03  0.50400001928E-02 0. -1.
</event>
<event>
 5   0  0.1602809E-05  0.2278748E+04  0.7818609E-02  0.8486348E-01
        2   -1    0    0  501    0  0.00000000000E+00  0.00000000000E+00  0.19574546875E+04  0.19574546875E+04  0.25500000920E-02 0. -1.
       -2   -1    0    0    0  501  0.00000000000E+00  0.00000000000E+00 -0.66319419306E+03  0.66319419306E+03  0.25500000920E-02 0.  1.
    10030    2    1    2    0    0  0.00000000000E+00  0.00000000000E+00  0.12942604944E+04  0.26206488805E+04  0.22787475349E+04 0.  0.
        3    1    3    3  502    0 -0.30783356311E+03 -0.61170452681E+03  0.16943788084E+04  0.18275293397E+04  0.10100000352E+00 0. -1.
       -3    1    3    3    0  502  0.30783356311E+03  0.61170452681E+03 -0.40011831401E+03  0.79311954087E+03  0.10100000352E+00 0.  1.
</event>
<event>
 5   0  0.7391007E-06  0.2299834E+04  0.7818609E-02  0.8477987E-01
       -1   -1    0    0    0  501  0.00000000000E+00  0.00000000000E+00  0.99213664120E+03  0.99213664121E+03  0.50400001928E-02 0.  1.
        1   -1    0    0  501    0  0.00000000000E+00  0.00000000000E+00 -0.13327894633E+04  0.13327894633E+04  0.50400001928E-02 0. -1.
    10030    2    1    2    0    0  0.00000000000E+00  0.00000000000E+00 -0.34065282211E+03  0.23249261045E+04  0.22998341345E+04 0.  0.
        1    1    3    3  502    0 -0.56518402624E+03 -0.93528143779E+03 -0.53217711783E+03  0.12154821414E+04  0.50400001928E-02 0. -1.
       -1    1    3    3    0  502  0.56518402624E+03  0.93528143779E+03  0.19152429572E+03  0.11094439631E+04  0.50400001928E-02 0.  1.
</event>
<event>
 5   0  0.7183014E-06  0.2297099E+04  0.7818609E-02  0.8479066E-01
       -1   -1    0    0    0  501  0.00000000000E+00  0.00000000000E+00  0.99358489789E+03  0.99358489790E+03  0.50400001928E-02 0. -1.
        1   -1    0    0  501    0  0.00000000000E+00  0.00000000000E+00 -0.13276831363E+04  0.13276831363E+04  0.50400001928E-02 0.  1.
    10030    2    1    2    0    0  0.00000000000E+00  0.00000000000E+00 -0.33409823843E+03  0.23212680342E+04  0.22970989647E+04 0.  0.
        3    1    3    3  502    0 -0.91102618718E+03 -0.13207904368E+03 -0.86111805158E+03  0.12605307995E+04  0.10100000352E+00 0.  1.
       -3    1    3    3    0  502  0.91102618718E+03  0.13207904368E+03  0.52701981315E+03  0.10607372347E+04  0.10100000352E+00 0. -1.
</event>
<event>
 5   0  0.1588969E-05  0.2297527E+04  0.7818609E-02  0.8478897E-01
       -2   -1    0    0    0  501  0.00000000000E+00  0.00000000000E+00  0.13187601656E+04  0.13187601656E+04  0.25500000920E-02 0.  1.
        2   -1    0    0  501    0  0.00000000000E+00  0.00000000000E+00 -0.10006804154E+04  0.10006804154E+04  0.25500000920E-02 0. -1.
    10030    2    1    2    0    0  0.00000000000E+00  0.00000000000E+00  0.31807975023E+03  0.23194405811E+04  0.22975269055E+04 0.  0.
        1    1    3    3  502    0 -0.78955339391E+03  0.56045876579E+03  0.78311797289E+03  0.12453041193E+04  0.50400001928E-02 0.  1.
       -1    1    3    3    0  502  0.78955339391E+03 -0.56045876579E+03 -0.46503822266E+03  0.10741364618E+04  0.50400001928E-02 0. -1.
</event>
<event>
 5   0  0.7202572E-06  0.2316024E+04  0.7818609E-02  0.8471630E-01
       -1   -1    0    0    0  501  0.00000000000E+00  0.00000000000E+00  0.73465841694E+03  0.73465841696E+03  0.50400001928E-02 0. -1.
        1   -1    0    0  501    0  0.00000000000E+00  0.00000000000E+00 -0.18253268185E+04  0.18253268185E+04  0.50400001928E-02 0.  1.
    10030    2    1    2    0    0  0.00000000000E+00  0.00000000000E+00 -0.10906684016E+04  0.25599852355E+04  0.23160239298E+04 0.  0.
        2    1    3    3  502    0 -0.89295710121E+03 -0.34615867252E+03  0.17423333899E+03  0.97342460806E+03  0.25500000920E-02 0. -1.
       -2    1    3    3    0  502  0.89295710121E+03  0.34615867252E+03 -0.12649017405E+04  0.15865606274E+04  0.25500000920E-02 0.  1.
</event>
<event>
 5   0  0.1588969E-05  0.2301381E+04  0.7818609E-02  0.8477377E-01
       -2   -1    0    0    0  501  0.00000000000E+00  0.00000000000E+00  0.12842216433E+04  0.12842216433E+04  0.25500000920E-02 0. -1.
        2   -1    0    0  501    0  0.00000000000E+00  0.00000000000E+00 -0.10310435081E+04  0.10310435082E+04  0.25500000920E-02 0.  1.
    10030    2    1    2    0    0  0.00000000000E+00  0.00000000000E+00  0.25317813518E+03  0.23152651515E+04  0.23013807928E+04 0.  0.
        1    1    3    3  502    0 -0.62521555418E+03 -0.91582928811E+03  0.43577138216E+03  0.11914421814E+04  0.50400001928E-02 0. -1.
       -1    1    3    3    0  502  0.62521555418E+03  0.91582928811E+03 -0.18259324698E+03  0.11238229701E+04  0.50400001928E-02 0.  1.
</event>
<event>
 5   0  0.5704875E-06  0.2300127E+04  0.7818609E-02  0.8477871E-01
        4   -1    0    0  501    0  0.00000000000E+00  0.00000000000E+00  0.11443670329E+04  0.11443677376E+04  0.12699999809E+01 0. -1.
       -4   -1    0    0    0  501  0.00000000000E+00  0.00000000000E+00 -0.11557870590E+04  0.11557877567E+04  0.12699999809E+01 0.  1.
    10030    2    1    2    0    0  0.00000000000E+00  0.00000000000E+00 -0.11420026078E+02  0.23001554943E+04  0.23001271445E+04 0.  0.
        1    1    3    3  502    0  0.59855201231E+03 -0.88705455142E+03  0.41562157547E+03  0.11479858809E+04  0.50400001928E-02 0. -1.
       -1    1    3    3    0  502 -0.59855201231E+03  0.88705455142E+03 -0.42704160155E+03  0.11521696134E+04  0.50400001928E-02 0.  1.
</event>
<event>
 5   0  0.1697855E-05  0.2311142E+04  0.7818609E-02  0.8473541E-01
       -2   -1    0    0    0  501  0.00000000000E+00  0.00000000000E+00  0.11895483592E+04  0.11895483592E+04  0.25500000920E-02 0.  1.
        2   -1    0    0  501    0  0.00000000000E+00  0.00000000000E+00 -0.11225639304E+04  0.11225639304E+04  0.25500000920E-02 0. -1.
    10030    2    1    2    0    0  0.00000000000E+00  0.00000000000E+00  0.66984428826E+02  0.23121122896E+04  0.23111417797E+04 0.  0.
        5    1    3    3  502    0  0.99970061290E+03  0.54870346014E+03 -0.15325483347E+03  0.11506458780E+04  0.46999998093E+01 0. -1.
       -5    1    3    3    0  502 -0.99970061290E+03 -0.54870346014E+03  0.22023926230E+03  0.11614664116E+04  0.46999998093E+01 0.  1.
</event>
<event>
 5   0  0.7278815E-06  0.2297562E+04  0.7818609E-02  0.8478883E-01
        1   -1    0    0  501    0  0.00000000000E+00  0.00000000000E+00  0.12586908073E+04  0.12586908073E+04  0.50400001928E-02 0.  1.
       -1   -1    0    0    0  501  0.00000000000E+00  0.00000000000E+00 -0.10484681928E+04  0.10484681928E+04  0.50400001928E-02 0. -1.
    10030    2    1    2    0    0  0.00000000000E+00  0.00000000000E+00  0.21022261446E+03  0.23071590001E+04  0.22975615562E+04 0.  0.
        5    1    3    3  502    0  0.96773520601E+03  0.34294342094E+03  0.62258281152E+03  0.12007302220E+04  0.46999998093E+01 0.  1.
       -5    1    3    3    0  502 -0.96773520601E+03 -0.34294342094E+03 -0.41236019706E+03  0.11064287781E+04  0.46999998093E+01 0. -1.
</event>
<event>
 5   0  0.7391007E-06  0.2407477E+04  0.7818609E-02  0.8436710E-01
       -1   -1    0    0    0  501  0.00000000000E+00  0.00000000000E+00  0.84022959297E+03  0.84022959299E+03  0.50400001928E-02 0. -1.
        1   -1    0    0  501    0  0.00000000000E+00  0.00000000000E+00 -0.17245120898E+04  0.17245120898E+04  0.50400001928E-02 0.  1.
    10030    2    1    2    0    0  0.00000000000E+00  0.00000000000E+00 -0.88428249685E+03  0.25647416828E+04  0.24074767632E+04 0.  0.
        1    1    3    3  502    0 -0.28550279984E+03  0.43160708224E+03  0.71567949919E+03  0.88317250169E+03  0.50400001928E-02 0. -1.
       -1    1    3    3    0  502  0.28550279984E+03 -0.43160708224E+03 -0.15999619960E+04  0.16815691811E+04  0.50400001928E-02 0.  1.
</event>
<event>
 5   0  0.7183014E-06  0.2301781E+04  0.7818609E-02  0.8477219E-01
        1   -1    0    0  501    0  0.00000000000E+00  0.00000000000E+00  0.76140512701E+03  0.76140512702E+03  0.50400001928E-02 0. -1.
       -1   -1    0    0    0  501  0.00000000000E+00  0.00000000000E+00 -0.17396119474E+04  0.17396119474E+04  0.50400001928E-02 0.  1.
    10030    2    1    2    0    0  0.00000000000E+00  0.00000000000E+00 -0.97820682041E+03  0.25010170744E+04  0.23017814456E+04 0.  0.
        3    1    3    3  502    0  0.10649670624E+04  0.43409633153E+03 -0.53714566031E+03  0.12692989954E+04  0.10100000352E+00 0.  1.
       -3    1    3    3    0  502 -0.10649670624E+04 -0.43409633153E+03 -0.44106116010E+03  0.12317180791E+04  0.10100000352E+00 0. -1.
</event>
<event>
 5   0  0.7183014E-06  0.2297098E+04  0.7818609E-02  0.8479066E-01
       -1   -1    0    0    0  501  0.00000000000E+00  0.00000000000E+00  0.15443625876E+04  0.15443625876E+04  0.50400001928E-02 0.  1.
        1   -1    0    0  501    0  0.00000000000E+00  0.00000000000E+00 -0.85418068117E+03  0.85418068119E+03  0.50400001928E-02 0. -1.
    10030    2    1    2    0    0  0.00000000000E+00  0.00000000000E+00  0.69018190642E+03  0.23985432688E+04  0.22970978970E+04 0.  0.
        3    1    3    3  502    0  0.28275436084E+03  0.34008079004E+03  0.14518832576E+04  0.15177516187E+04  0.10100000352E+00 0.  1.
       -3    1    3    3    0  502 -0.28275436084E+03 -0.34008079004E+03 -0.76170135114E+03  0.88079165008E+03  0.10100000352E+00 0. -1.
</event>
<event>
 5   0  0.1588969E-05  0.2301916E+04  0.7818609E-02  0.8477166E-01
       -2   -1    0    0    0  501  0.00000000000E+00  0.00000000000E+00  0.13137130008E+04  0.13137130008E+04  0.25500000920E-02 0. -1.
        2   -1    0    0  501    0  0.00000000000E+00  0.00000000000E+00 -0.10083664099E+04  0.10083664099E+04  0.25500000920E-02 0.  1.
    10030    2    1    2    0    0  0.00000000000E+00  0.00000000000E+00  0.30534659094E+03  0.23220794107E+04  0.23019157780E+04 0.  0.
        1    1    3    3  502    0 -0.12339691645E+03  0.20805476032E+03  0.12877812312E+04  0.13103030496E+04  0.50400001928E-02 0. -1.
       -1    1    3    3    0  502  0.12339691645E+03 -0.20805476032E+03 -0.98243464031E+03  0.10117763611E+04  0.50400001928E-02 0.  1.
</event>
<event>
 5   0  0.7416556E-06  0.2275440E+04  0.7818609E-02  0.8487668E-01
       -1   -1    0    0    0  501  0.00000000000E+00  0.00000000000E+00  0.17495652826E+04  0.17495652826E+04  0.50400001928E-02 0.  1.
        1   -1    0    0  501    0  0.00000000000E+00  0.00000000000E+00 -0.73984489283E+03  0.73984489284E+03  0.50400001928E-02 0. -1.
    10030    2    1    2    0    0  0.00000000000E+00  0.00000000000E+00  0.10097203898E+04  0.24894101755E+04  0.22754401236E+04 0.  0.
        4    1    3    3  502    0  0.91456508061E+03 -0.36395267526E+03 -0.11932894910E+03  0.99153005375E+03  0.12699999809E+01 0. -1.
       -4    1    3    3    0  502 -0.91456508061E+03  0.36395267526E+03  0.11290493389E+04  0.14978801217E+04  0.12699999809E+01 0.  1.
</event>
<event>
 5   0  0.7391007E-06  0.2308074E+04  0.7818609E-02  0.8474744E-01
       -1   -1    0    0    0  501  0.00000000000E+00  0.00000000000E+00  0.10444489426E+04  0.10444489426E+04  0.50400001928E-02 0. -1.
        1   -1    0    0  501    0  0.00000000000E+00  0.00000000000E+00 -0.12751239166E+04  0.12751239166E+04  0.50400001928E-02 0.  1.
    10030    2    1    2    0    0  0.00000000000E+00  0.00000000000E+00 -0.23067497399E+03  0.23195728592E+04  0.23080743717E+04 0.  0.
        1    1    3    3  502    0 -0.59109002138E+03 -0.74997910138E+03 -0.76659811009E+03  0.12245524604E+04  0.50400001928E-02 0.  1.
       -1    1    3    3    0  502  0.59109002138E+03  0.74997910138E+03  0.53592313610E+03  0.10950203988E+04  0.50400001928E-02 0. -1.
</event>
<event>
 5   0  0.1635955E-05  0.2313207E+04  0.7818609E-02  0.8472732E-01
       -2   -1    0    0    0  501  0.00000000000E+00  0.00000000000E+00  0.90043241778E+03  0.90043241778E+03  0.25500000920E-02 0.  1.
        2   -1    0    0  501    0  0.00000000000E+00  0.00000000000E+00 -0.14856540781E+04  0.14856540781E+04  0.25500000920E-02 0. -1.
    10030    2    1    2    0    0  0.00000000000E+00  0.00000000000E+00 -0.58522166029E+03  0.23860864959E+04  0.23132065135E+04 0.  0.
        2    1    3    3  502    0  0.50021943137E+03 -0.76089579008E+03  0.44298332298E+03  0.10126283165E+04  0.25500000920E-02 0.  1.
       -2    1    3    3    0  502 -0.50021943137E+03  0.76089579008E+03 -0.10282049833E+04  0.13734581794E+04  0.25500000920E-02 0. -1.
</event>
<event>
 5   0  0.7183014E-06  0.2292440E+04  0.7818609E-02  0.8480908E-01
        1   -1    0    0  501    0  0.00000000000E+00  0.00000000000E+00  0.18153553980E+04  0.18153553980E+04  0.50400001928E-02 0.  1.
       -1   -1    0    0    0  501  0.00000000000E+00  0.00000000000E+00 -0.72372607354E+03  0.72372607356E+03  0.50400001928E-02 0. -1.
    10030    2    1    2    0    0  0.00000000000E+00  0.00000000000E+00  0.10916293245E+04  0.25390814716E+04  0.22924397783E+04 0.  0.
        3    1    3    3  502    0  0.47985875383E+03  0.86044858428E+03 -0.10303205497E+03  0.99058154857E+03  0.10100000352E+00 0. -1.
       -3    1    3    3    0  502 -0.47985875383E+03 -0.86044858428E+03  0.11946613794E+04  0.15484999230E+04  0.10100000352E+00 0.  1.
</event>
<event>
 5   0  0.1602809E-05  0.2302253E+04  0.7818609E-02  0.8477033E-01
        2   -1    0    0  501    0  0.00000000000E+00  0.00000000000E+00  0.10498999348E+04  0.10498999349E+04  0.25500000920E-02 0. -1.
       -2   -1    0    0    0  501  0.00000000000E+00  0.00000000000E+00 -0.12621126205E+04  0.12621126205E+04  0.25500000920E-02 0.  1.
    10030    2    1    2    0    0  0.00000000000E+00  0.00000000000E+00 -0.21221268564E+03  0.23120125553E+04  0.23022527733E+04 0.  0.
        3    1    3    3  502    0 -0.41634206459E+03  0.29520655368E+03 -0.11422770159E+04  0.12511132704E+04  0.10100000352E+00 0.  1.
       -3    1    3    3    0  502  0.41634206459E+03 -0.29520655368E+03  0.93006433029E+03  0.10608992849E+04  0.10100000352E+00 0. -1.
</event>
<event>
 5   0  0.7391007E-06  0.2298019E+04  0.7818609E-02  0.8478703E-01
       -1   -1    0    0    0  501  0.00000000000E+00  0.00000000000E+00  0.12463079524E+04  0.12463079524E+04  0.50400001928E-02 0.  1.
        1   -1    0    0  501    0  0.00000000000E+00  0.00000000000E+00 -0.10593070169E+04  0.10593070169E+04  0.50400001928E-02 0. -1.
    10030    2    1    2    0    0  0.00000000000E+00  0.00000000000E+00  0.18700093548E+03  0.23056149693E+04  0.22980189375E+04 0.  0.
        1    1    3    3  502    0 -0.42542316230E+03  0.66535636922E+03  0.93084817348E+03  0.12207220352E+04  0.50400001928E-02 0.  1.
       -1    1    3    3    0  502  0.42542316230E+03 -0.66535636922E+03 -0.74384723800E+03  0.10848929342E+04  0.50400001928E-02 0. -1.
</event>
<event>
 5   0  0.1635955E-05  0.2299892E+04  0.7818609E-02  0.8477964E-01
       -2   -1    0    0    0  501  0.00000000000E+00  0.00000000000E+00  0.17781328176E+04  0.17781328176E+04  0.25500000920E-02 0.  1.
        2   -1    0    0  501    0  0.00000000000E+00  0.00000000000E+00 -0.74368782632E+03  0.74368782632E+03  0.25500000920E-02 0. -1.
    10030    2    1    2    0    0  0.00000000000E+00  0.00000000000E+00  0.10344449913E+04  0.25218206439E+04  0.22998919366E+04 0.  0.
        2    1    3    3  502    0 -0.25790057719E+03  0.85568467680E+03 -0.27625436660E+03  0.93542794961E+03  0.25500000920E-02 0. -1.
       -2    1    3    3    0  502  0.25790057719E+03 -0.85568467680E+03  0.13106993579E+04  0.15863926943E+04  0.25500000920E-02 0.  1.
</event>
<event>
 5   0  0.7202572E-06  0.2284219E+04  0.7818609E-02  0.8484170E-01
       -1   -1    0    0    0  501  0.00000000000E+00  0.00000000000E+00  0.11691442800E+04  0.11691442800E+04  0.50400001928E-02 0.  1.
        1   -1    0    0  501    0  0.00000000000E+00  0.00000000000E+00 -0.11156994383E+04  0.11156994383E+04  0.50400001928E-02 0. -1.
    10030    2    1    2    0    0  0.00000000000E+00  0.00000000000E+00  0.53444841716E+02  0.22848437183E+04  0.22842185679E+04 0.  0.
        2    1    3    3  502    0 -0.70253712009E+03  0.39129571780E+01 -0.87399051125E+03  0.11213532584E+04  0.25500000920E-02 0. -1.
       -2    1    3    3    0  502  0.70253712009E+03 -0.39129571780E+01  0.92743535296E+03  0.11634904599E+04  0.25500000920E-02 0.  1.
</event>
<event>
 5   0  0.1602809E-05  0.2305233E+04  0.7818609E-02  0.8475861E-01
        2   -1    0    0  501    0  0.00000000000E+00  0.00000000000E+00  0.52189782729E+03  0.52189782729E+03  0.25500000920E-02 0.  1.
       -2   -1    0    0    0  501  0.00000000000E+00  0.00000000000E+00 -0.25455643341E+04  0.25455643341E+04  0.25500000920E-02 0. -1.
    10030    2    1    2    0    0  0.00000000000E+00  0.00000000000E+00 -0.20236665069E+04  0.30674621614E+04  0.23052327390E+04 0.  0.
        3    1    3    3  502    0  0.11442841663E+04  0.89855810085E+02 -0.87186686432E+03  0.14413924376E+04  0.10100000352E+00 0.  1.
       -3    1    3    3    0  502 -0.11442841663E+04 -0.89855810085E+02 -0.11517996425E+04  0.16260697238E+04  0.10100000352E+00 0. -1.
</event>
<event>
 5   0  0.1697855E-05  0.2298876E+04  0.7818609E-02  0.8478365E-01
        2   -1    0    0  501    0  0.00000000000E+00  0.00000000000E+00  0.11356825219E+04  0.11356825219E+04  0.25500000920E-02 0. -1.
       -2   -1    0    0    0  501  0.00000000000E+00  0.00000000000E+00 -0.11633598475E+04  0.11633598475E+04  0.25500000920E-02 0.  1.
    10030    2    1    2    0    0  0.00000000000E+00  0.00000000000E+00 -0.27677325561E+02  0.22990423694E+04  0.22988757648E+04 0.  0.
        5    1    3    3  502    0  0.93514294538E+03  0.66733183264E+03 -0.50736489454E+02  0.11499653841E+04  0.46999998093E+01 0.  1.
       -5    1    3    3    0  502 -0.93514294538E+03 -0.66733183264E+03  0.23059163893E+02  0.11490769853E+04  0.46999998093E+01 0. -1.
</event>
<event>
 5   0  0.7202572E-06  0.2312015E+04  0.7818609E-02  0.8473199E-01
       -1   -1    0    0    0  501  0.00000000000E+00  0.00000000000E+00  0.62214712472E+03  0.62214712474E+03  0.50400001928E-02 0. -1.
        1   -1    0    0  501    0  0.00000000000E+00  0.00000000000E+00 -0.21479694529E+04  0.21479694529E+04  0.50400001928E-02 0.  1.
    10030    2    1    2    0    0  0.00000000000E+00  0.00000000000E+00 -0.15258223282E+04  0.27701165776E+04  0.23120147224E+04 0.  0.
        2    1    3    3  502    0  0.26443857072E+03 -0.97408967795E+03 -0.14381078533E+04  0.17569668910E+04  0.25500000920E-02 0.  1.
       -2    1    3    3    0  502 -0.26443857072E+03  0.97408967795E+03 -0.87714474849E+02  0.10131496866E+04  0.25500000920E-02 0. -1.
</event>
<event>
 5   0  0.1602809E-05  0.2288647E+04  0.7818609E-02  0.8482411E-01
       -2   -1    0    0    0  501  0.00000000000E+00  0.00000000000E+00  0.96171686148E+03  0.96171686148E+03  0.25500000920E-02 0. -1.
        2   -1    0    0  501    0  0.00000000000E+00  0.00000000000E+00 -0.13616028131E+04  0.13616028131E+04  0.25500000920E-02 0.  1.
    10030    2    1    2    0    0  0.00000000000E+00  0.00000000000E+00 -0.39988595165E+03  0.23233196746E+04  0.22886470973E+04 0.  0.
        3    1    3    3  502    0  0.34547899040E+03  0.10875896936E+04 -0.11339111307E+03  0.11467626734E+04  0.10100000352E+00 0. -1.
       -3    1    3    3    0  502 -0.34547899040E+03 -0.10875896936E+04 -0.28649483858E+03  0.11765570012E+04  0.10100000352E+00 0.  1.
</event>
<event>
 5   0  0.1588969E-05  0.2288714E+04  0.7818609E-02  0.8482384E-01
        2   -1    0    0  501    0  0.00000000000E+00  0.00000000000E+00  0.17007751089E+04  0.17007751089E+04  0.25500000920E-02 0. -1.
       -2   -1    0    0    0  501  0.00000000000E+00  0.00000000000E+00 -0.76997435355E+03  0.76997435355E+03  0.25500000920E-02 0.  1.
    10030    2    1    2    0    0  0.00000000000E+00  0.00000000000E+00  0.93080075538E+03  0.24707494625E+04  0.22887142373E+04 0.  0.
        1    1    3    3  502    0 -0.75887450132E+03 -0.50896409381E+03  0.12091202030E+04  0.15155548894E+04  0.50400001928E-02 0. -1.
       -1    1    3    3    0  502  0.75887450132E+03  0.50896409381E+03 -0.27831944757E+03  0.95519457309E+03  0.50400001928E-02 0.  1.
</event>
<event>
 5   0  0.7278815E-06  0.2287729E+04  0.7818609E-02  0.8482775E-01
        1   -1    0    0  501    0  0.00000000000E+00  0.00000000000E+00  0.12155231584E+04  0.12155231584E+04  0.50400001928E-02 0.  1.
       -1   -1    0    0    0  501  0.00000000000E+00  0.00000000000E+00 -0.10764302936E+04  0.10764302937E+04  0.50400001928E-02 0. -1.
    10030    2    1    2    0    0  0.00000000000E+00  0.00000000000E+00  0.13909286476E+03  0.22919534521E+04  0.22877289615E+04 0.  0.
        5    1    3    3  502    0  0.33274857624E+03 -0.10812761035E+03  0.11605894101E+04  0.12121893680E+04  0.46999998093E+01 0.  1.
       -5    1    3    3    0  502 -0.33274857624E+03  0.10812761035E+03 -0.10214965453E+04  0.10797640841E+04  0.46999998093E+01 0. -1.
</event>
<event>
 5   0  0.1602809E-05  0.2302477E+04  0.7818609E-02  0.8476945E-01
       -2   -1    0    0    0  501  0.00000000000E+00  0.00000000000E+00  0.77548345530E+03  0.77548345530E+03  0.25500000920E-02 0. -1.
        2   -1    0    0  501    0  0.00000000000E+00  0.00000000000E+00 -0.17090629110E+04  0.17090629110E+04  0.25500000920E-02 0.  1.
    10030    2    1    2    0    0  0.00000000000E+00  0.00000000000E+00 -0.93357945567E+03  0.24845463663E+04  0.23024769371E+04 0.  0.
        3    1    3    3  502    0 -0.11064546248E+04  0.27970801835E+03 -0.62998214931E+03  0.13035934684E+04  0.10100000352E+00 0. -1.
       -3    1    3    3    0  502  0.11064546248E+04 -0.27970801835E+03 -0.30359730636E+03  0.11809528978E+04  0.10100000352E+00 0.  1.
</event>
<event>
 5   0  0.7416556E-06  0.2299551E+04  0.7818609E-02  0.8478098E-01
       -1   -1    0    0    0  501  0.00000000000E+00  0.00000000000E+00  0.11776445347E+04  0.11776445347E+04  0.50400001928E-02 0. -1.
        1   -1    0    0  501    0  0.00000000000E+00  0.00000000000E+00 -0.11225660858E+04  0.11225660858E+04  0.50400001928E-02 0.  1.
    10030    2    1    2    0    0  0.00000000000E+00  0.00000000000E+00  0.55078448865E+02  0.23002106205E+04  0.22995511003E+04 0.  0.
        4    1    3    3  502    0  0.70748087527E+03  0.90062465022E+02  0.92965250578E+03  0.11717063757E+04  0.12699999809E+01 0. -1.
       -4    1    3    3    0  502 -0.70748087527E+03 -0.90062465022E+02 -0.87457405691E+03  0.11285042447E+04  0.12699999809E+01 0.  1.
</event>
<event>
 5   0  0.7391007E-06  0.2327156E+04  0.7818609E-02  0.8467290E-01
        1   -1    0    0  501    0  0.00000000000E+00  0.00000000000E+00  0.21585412785E+04  0.21585412785E+04  0.50400001928E-02 0.  1.
       -1   -1    0    0    0  501  0.00000000000E+00  0.00000000000E+00 -0.62723537196E+03  0.62723537198E+03  0.50400001928E-02 0. -1.
    10030    2    1    2    0    0  0.00000000000E+00  0.00000000000E+00  0.15313059065E+04  0.27857766504E+04  0.23271557247E+04 0.  0.
        1    1    3    3  502    0  0.37718684216E+02 -0.86024242948E+03 -0.17118520662E+03  0.87792033329E+03  0.50400001928E-02 0. -1.
       -1    1    3    3    0  502 -0.37718684216E+02  0.86024242948E+03  0.17024911131E+04  0.19078563171E+04  0.50400001928E-02 0.  1.
</event>
<event>
 5   0  0.7183014E-06  0.2321046E+04  0.7818609E-02  0.8469669E-01
        1   -1    0    0  501    0  0.00000000000E+00  0.00000000000E+00  0.22491016389E+04  0.22491016389E+04  0.50400001928E-02 0.  1.
       -1   -1    0    0    0  501  0.00000000000E+00  0.00000000000E+00 -0.59882311276E+03  0.59882311279E+03  0.50400001928E-02 0. -1.
    10030    2    1    2    0    0  0.00000000000E+00  0.00000000000E+00  0.16502785261E+04  0.28479247517E+04  0.23210463540E+04 0.  0.
        3    1    3    3  502    0  0.62738291901E+02  0.48653848682E+03  0.21156253479E+04  0.21717565276E+04  0.10100000352E+00 0.  1.
       -3    1    3    3    0  502 -0.62738291901E+02 -0.48653848682E+03 -0.46534682179E+03  0.67616822403E+03  0.10100000352E+00 0. -1.
</event>
<event>
 5   0  0.1626636E-05  0.2298910E+04  0.7818609E-02  0.8478351E-01
       -2   -1    0    0    0  501  0.00000000000E+00  0.00000000000E+00  0.70051763028E+03  0.70051763029E+03  0.25500000920E-02 0.  1.
        2   -1    0    0  501    0  0.00000000000E+00  0.00000000000E+00 -0.18861012795E+04  0.18861012795E+04  0.25500000920E-02 0. -1.
    10030    2    1    2    0    0  0.00000000000E+00  0.00000000000E+00 -0.11855836492E+04  0.25866189098E+04  0.22989103495E+04 0.  0.
        4    1    3    3  502    0 -0.50145503087E+02  0.49359720590E+03  0.57383885195E+03  0.75858118489E+03  0.12699999809E+01 0.  1.
       -4    1    3    3    0  502  0.50145503087E+02 -0.49359720590E+03 -0.17594225011E+04  0.18280377249E+04  0.12699999809E+01 0. -1.
</event>
<event>
 5   0  0.1626636E-05  0.2296534E+04  0.7818609E-02  0.8479289E-01
       -2   -1    0    0    0  501  0.00000000000E+00  0.00000000000E+00  0.91811080340E+03  0.91811080341E+03  0.25500000920E-02 0. -1.
        2   -1    0    0  501    0  0.00000000000E+00  0.00000000000E+00 -0.14361191805E+04  0.14361191805E+04  0.25500000920E-02 0.  1.
    10030    2    1    2    0    0  0.00000000000E+00  0.00000000000E+00 -0.51800837712E+03  0.23542299839E+04  0.22965335048E+04 0.  0.
        4    1    3    3  502    0 -0.87875228272E+02  0.62792774922E+03 -0.12403955764E+04  0.13930535212E+04  0.12699999809E+01 0.  1.
       -4    1    3    3    0  502  0.87875228272E+02 -0.62792774922E+03  0.72238719928E+03  0.96117646276E+03  0.12699999809E+01 0. -1.
</event>
<event>
 5   0  0.7202572E-06  0.2305445E+04  0.7818609E-02  0.8475777E-01
        1   -1    0    0  501    0  0.00000000000E+00  0.00000000000E+00  0.12145215314E+04  0.12145215314E+04  0.50400001928E-02 0.  1.
       -1   -1    0    0    0  501  0.00000000000E+00  0.00000000000E+00 -0.10940680896E+04  0.10940680896E+04  0.50400001928E-02 0. -1.
    10030    2    1    2    0    0  0.00000000000E+00  0.00000000000E+00  0.12045344180E+03  0.23085896209E+04  0.23054450777E+04 0.  0.
        2    1    3    3  502    0  0.11122981446E+04 -0.18930305745E+03  0.29661319029E+03  0.11666285590E+04  0.25500000920E-02 0.  1.
       -2    1    3    3    0  502 -0.11122981446E+04  0.18930305745E+03 -0.17615974849E+03  0.11419610619E+04  0.25500000920E-02 0. -1.
</event>
<event>
 5   0  0.7278815E-06  0.2303511E+04  0.7818609E-02  0.8476538E-01
       -1   -1    0    0    0  501  0.00000000000E+00  0.00000000000E+00  0.10717831578E+04  0.10717831578E+04  0.50400001928E-02 0.  1.
        1   -1    0    0  501    0  0.00000000000E+00  0.00000000000E+00 -0.12376949382E+04  0.12376949383E+04  0.50400001928E-02 0. -1.
    10030    2    1    2    0    0  0.00000000000E+00  0.00000000000E+00 -0.16591178044E+03  0.23094780961E+04  0.23035108763E+04 0.  0.
        5    1    3    3  502    0  0.62525164248E+03  0.88821083113E+03 -0.46691061528E+03  0.11823221683E+04  0.46999998093E+01 0. -1.
       -5    1    3    3    0  502 -0.62525164248E+03 -0.88821083113E+03  0.30099883484E+03  0.11271559278E+04  0.46999998093E+01 0.  1.
</event>
<event>
 5   0  0.7278815E-06  0.2305572E+04  0.7818609E-02  0.8475727E-01
        1   -1    0    0  501    0  0.00000000000E+00  0.00000000000E+00  0.10580372833E+04  0.10580372833E+04  0.50400001928E-02 0.  1.
       -1   -1    0    0    0  501  0.00000000000E+00  0.00000000000E+00 -0.12560200880E+04  0.12560200880E+04  0.50400001928E-02 0. -1.
    10030    2    1    2    0    0  0.00000000000E+00  0.00000000000E+00 -0.19798280469E+03  0.23140573713E+04  0.23055724510E+04 0.  0.
        5    1    3    3  502    0  0.55428722709E+03  0.69087285784E+03  0.64152758587E+03  0.10936724232E+04  0.46999998093E+01 0.  1.
       -5    1    3    3    0  502 -0.55428722709E+03 -0.69087285784E+03 -0.83951039056E+03  0.12203849481E+04  0.46999998093E+01 0. -1.
</event>
<event>
 5   0  0.1635955E-05  0.2295676E+04  0.7818609E-02  0.8479628E-01
       -2   -1    0    0    0  501  0.00000000000E+00  0.00000000000E+00  0.59362944277E+03  0.59362944277E+03  0.25500000920E-02 0. -1.
        2   -1    0    0  501    0  0.00000000000E+00  0.00000000000E+00 -0.22194511009E+04  0.22194511009E+04  0.25500000920E-02 0.  1.
    10030    2    1    2    0    0  0.00000000000E+00  0.00000000000E+00 -0.16258216582E+04  0.28130805437E+04  0.22956755174E+04 0.  0.
        2    1    3    3  502    0  0.53229460921E+01 -0.92563748753E+03  0.18814695512E+02  0.92584398516E+03  0.25500000920E-02 0. -1.
       -2    1    3    3    0  502 -0.53229460921E+01  0.92563748753E+03 -0.16446363537E+04  0.18872365586E+04  0.25500000920E-02 0.  1.
</event>
<event>
 5   0  0.1602809E-05  0.2283663E+04  0.7818609E-02  0.8484391E-01
       -2   -1    0    0    0  501  0.00000000000E+00  0.00000000000E+00  0.19723613858E+04  0.19723613858E+04  0.25500000920E-02 0. -1.
        2   -1    0    0  501    0  0.00000000000E+00  0.00000000000E+00 -0.66102434707E+03  0.66102434708E+03  0.25500000920E-02 0.  1.
    10030    2    1    2    0    0  0.00000000000E+00  0.00000000000E+00  0.13113370387E+04  0.26333857328E+04  0.22836627573E+04 0.  0.
        3    1    3    3  502    0 -0.10552058594E+04 -0.18260140822E+03  0.11125456553E+04  0.15442022294E+04  0.10100000352E+00 0. -1.
       -3    1    3    3    0  502  0.10552058594E+04  0.18260140822E+03  0.19879138339E+03  0.10891835035E+04  0.10100000352E+00 0.  1.
</event>
<event>
 5   0  0.1588969E-05  0.2306529E+04  0.7818609E-02  0.8475351E-01
       -2   -1    0    0    0  501  0.00000000000E+00  0.00000000000E+00  0.79249597022E+03  0.79249597023E+03  0.25500000920E-02 0.  1.
        2   -1    0    0  501    0  0.00000000000E+00  0.00000000000E+00 -0.16782653325E+04  0.16782653325E+04  0.25500000920E-02 0. -1.
    10030    2    1    2    0    0  0.00000000000E+00  0.00000000000E+00 -0.88576936223E+03  0.24707613027E+04  0.23065285716E+04 0.  0.
        1    1    3    3  502    0  0.88434208100E+03  0.68781038334E+03 -0.14976914229E+03  0.11302985604E+04  0.50400001928E-02 0.  1.
       -1    1    3    3    0  502 -0.88434208100E+03 -0.68781038334E+03 -0.73600021994E+03  0.13404627423E+04  0.50400001928E-02 0. -1.
</event>
<event>
 5   0  0.1635955E-05  0.2284365E+04  0.7818609E-02  0.8484111E-01
        2   -1    0    0  501    0  0.00000000000E+00  0.00000000000E+00  0.13951263848E+04  0.13951263848E+04  0.25500000920E-02 0.  1.
       -2   -1    0    0    0  501  0.00000000000E+00  0.00000000000E+00 -0.93509899250E+03  0.93509899250E+03  0.25500000920E-02 0. -1.
    10030    2    1    2    0    0  0.00000000000E+00  0.00000000000E+00  0.46002739228E+03  0.23302253773E+04  0.22843653620E+04 0.  0.
        2    1    3    3  502    0 -0.78696271932E+03 -0.49335877889E+03  0.90809016209E+03  0.12989768854E+04  0.25500000920E-02 0.  1.
       -2    1    3    3    0  502  0.78696271932E+03  0.49335877889E+03 -0.44806276981E+03  0.10312484919E+04  0.25500000920E-02 0. -1.
</event>
<event>
 5   0  0.1602809E-05  0.2299050E+04  0.7818609E-02  0.8478296E-01
       -2   -1    0    0    0  501  0.00000000000E+00  0.00000000000E+00  0.59098434209E+03  0.59098434209E+03  0.25500000920E-02 0. -1.
        2   -1    0    0  501    0  0.00000000000E+00  0.00000000000E+00 -0.22359444108E+04  0.22359444108E+04  0.25500000920E-02 0.  1.
    10030    2    1    2    0    0  0.00000000000E+00  0.00000000000E+00 -0.16449600687E+04  0.28269287528E+04  0.22990503575E+04 0.  0.
        3    1    3    3  502    0 -0.70741449781E+03  0.58000480112E+03 -0.16784202350E+04  0.19115269646E+04  0.10100000352E+00 0.  1.
       -3    1    3    3    0  502  0.70741449781E+03 -0.58000480112E+03  0.33460166289E+02  0.91540178826E+03  0.10100000352E+00 0. -1.
</event>
<event>
 5   0  0.7183014E-06  0.2311135E+04  0.7818609E-02  0.8473544E-01
        1   -1    0    0  501    0  0.00000000000E+00  0.00000000000E+00  0.11718928202E+04  0.11718928202E+04  0.50400001928E-02 0.  1.
       -1   -1    0    0    0  501  0.00000000000E+00  0.00000000000E+00 -0.11394697292E+04  0.11394697293E+04  0.50400001928E-02 0. -1.
    10030    2    1    2    0    0  0.00000000000E+00  0.00000000000E+00  0.32423090921E+02  0.23113625494E+04  0.23111351276E+04 0.  0.
        3    1    3    3  502    0 -0.53868966895E+03 -0.85141404348E+03 -0.54974514923E+03  0.11477422063E+04  0.10100000352E+00 0. -1.
       -3    1    3    3    0  502  0.53868966895E+03  0.85141404348E+03  0.58216824015E+03  0.11636203431E+04  0.10100000352E+00 0.  1.
</event>
<event>
 5   0  0.1697855E-05  0.2301915E+04  0.7818609E-02  0.8477166E-01
        2   -1    0    0  501    0  0.00000000000E+00  0.00000000000E+00  0.10806247181E+04  0.10806247181E+04  0.25500000920E-02 0.  1.
       -2   -1    0    0    0  501  0.00000000000E+00  0.00000000000E+00 -0.12258683697E+04  0.12258683697E+04  0.25500000920E-02 0. -1.
    10030    2    1    2    0    0  0.00000000000E+00  0.00000000000E+00 -0.14524365158E+03  0.23064930878E+04  0.23019154298E+04 0.  0.
        5    1    3    3  502    0  0.26985759844E+03  0.24672582299E+03  0.10208709188E+04  0.10843875128E+04  0.46999998093E+01 0.  1.
       -5    1    3    3    0  502 -0.26985759844E+03 -0.24672582299E+03 -0.11661145704E+04  0.12221055750E+04  0.46999998093E+01 0. -1.
</event>
<event>
 5   0  0.7278815E-06  0.2299305E+04  0.7818609E-02  0.8478195E-01
        1   -1    0    0  501    0  0.00000000000E+00  0.00000000000E+00  0.19030025818E+04  0.19030025818E+04  0.50400001928E-02 0. -1.
       -1   -1    0    0    0  501  0.00000000000E+00  0.00000000000E+00 -0.69453428545E+03  0.69453428547E+03  0.50400001928E-02 0.  1.
    10030    2    1    2    0    0  0.00000000000E+00  0.00000000000E+00  0.12084682963E+04  0.25975368672E+04  0.22993047109E+04 0.  0.
        5    1    3    3  502    0  0.68628621788E+02 -0.43349791139E+03  0.18046215185E+04  0.18572321454E+04  0.46999998093E+01 0. -1.
       -5    1    3    3    0  502 -0.68628621788E+02  0.43349791139E+03 -0.59615322216E+03  0.74030472186E+03  0.46999998093E+01 0.  1.
</event>
<event>
 5   0  0.7183014E-06  0.2299014E+04  0.7818609E-02  0.8478310E-01
       -1   -1    0    0    0  501  0.00000000000E+00  0.00000000000E+00  0.11289420826E+04  0.11289420826E+04  0.50400001928E-02 0.  1.
        1   -1    0    0  501    0  0.00000000000E+00  0.00000000000E+00 -0.11704465880E+04  0.11704465880E+04  0.50400001928E-02 0. -1.
    10030    2    1    2    0    0  0.00000000000E+00  0.00000000000E+00 -0.41504505376E+02  0.22993886707E+04  0.22990140571E+04 0.  0.
        3    1    3    3  502    0 -0.41679348082E+03  0.48960542487E+03 -0.97376433694E+03  0.11668964272E+04  0.10100000352E+00 0. -1.
       -3    1    3    3    0  502  0.41679348082E+03 -0.48960542487E+03  0.93225983157E+03  0.11324922434E+04  0.10100000352E+00 0.  1.
</event>
<event>
 5   0  0.1602809E-05  0.2306660E+04  0.7818609E-02  0.8475300E-01
       -2   -1    0    0    0  501  0.00000000000E+00  0.00000000000E+00  0.14633773390E+04  0.14633773390E+04  0.25500000920E-02 0.  1.
        2   -1    0    0  501    0  0.00000000000E+00  0.00000000000E+00 -0.90897276257E+03  0.90897276257E+03  0.25500000920E-02 0. -1.
    10030    2    1    2    0    0  0.00000000000E+00  0.00000000000E+00  0.55440457644E+03  0.23723501016E+04  0.23066600465E+04 0.  0.
        3    1    3    3  502    0 -0.21712180794E+03  0.40447743748E+03  0.13653627252E+04  0.14404718874E+04  0.10100000352E+00 0.  1.
       -3    1    3    3    0  502  0.21712180794E+03 -0.40447743748E+03 -0.81095814871E+03  0.93187821419E+03  0.10100000352E+00 0. -1.
</event>
<event>
 5   0  0.7391007E-06  0.2297611E+04  0.7818609E-02  0.8478864E-01
        1   -1    0    0  501    0  0.00000000000E+00  0.00000000000E+00  0.26130684565E+04  0.26130684565E+04  0.50400001928E-02 0. -1.
       -1   -1    0    0    0  501  0.00000000000E+00  0.00000000000E+00 -0.50505899272E+03  0.50505899274E+03  0.50400001928E-02 0.  1.
    10030    2    1    2    0    0  0.00000000000E+00  0.00000000000E+00  0.21080094638E+04  0.31181274492E+04  0.22976106916E+04 0.  0.
        1    1    3    3  502    0  0.53936132300E+03  0.47584836332E+03 -0.16166602456E+03  0.73720974298E+03  0.50400001928E-02 0.  1.
       -1    1    3    3    0  502 -0.53936132300E+03 -0.47584836332E+03  0.22696754883E+04  0.23809177062E+04  0.50400001928E-02 0. -1.
</event>
<event>
 5   0  0.7183014E-06  0.2299027E+04  0.7818609E-02  0.8478305E-01
        1   -1    0    0  501    0  0.00000000000E+00  0.00000000000E+00  0.18824249825E+04  0.18824249825E+04  0.50400001928E-02 0.  1.
       -1   -1    0    0    0  501  0.00000000000E+00  0.00000000000E+00 -0.70195667208E+03  0.70195667210E+03  0.50400001928E-02 0. -1.
    10030    2    1    2    0    0  0.00000000000E+00  0.00000000000E+00  0.11804683104E+04  0.25843816546E+04  0.22990265559E+04 0.  0.
        3    1    3    3  502    0 -0.38981578038E+02  0.70884358549E+03 -0.42608591661E+03  0.82796618932E+03  0.10100000352E+00 0. -1.
       -3    1    3    3    0  502  0.38981578038E+02 -0.70884358549E+03  0.16065542270E+04  0.17564154653E+04  0.10100000352E+00 0.  1.
</event>
<event>
 5   0  0.7202572E-06  0.2297250E+04  0.7818609E-02  0.8479006E-01
        1   -1    0    0  501    0  0.00000000000E+00  0.00000000000E+00  0.21901651612E+04  0.21901651613E+04  0.50400001928E-02 0. -1.
       -1   -1    0    0    0  501  0.00000000000E+00  0.00000000000E+00 -0.60239244905E+03  0.60239244907E+03  0.50400001928E-02 0.  1.
    10030    2    1    2    0    0  0.00000000000E+00  0.00000000000E+00  0.15877727122E+04  0.27925576103E+04  0.22972496210E+04 0.  0.
        2    1    3    3  502    0 -0.11369310821E+04 -0.83692658745E+02  0.96460137459E+03  0.14933427464E+04  0.25500000920E-02 0.  1.
       -2    1    3    3    0  502  0.11369310821E+04  0.83692658745E+02  0.62317133760E+03  0.12992148639E+04  0.25500000920E-02 0. -1.
</event>
<event>
 5   0  0.7278815E-06  0.2300042E+04  0.7818609E-02  0.8477905E-01
       -1   -1    0    0    0  501  0.00000000000E+00  0.00000000000E+00  0.89446316079E+03  0.89446316080E+03  0.50400001928E-02 0.  1.
        1   -1    0    0  501    0  0.00000000000E+00  0.00000000000E+00 -0.14785940462E+04  0.14785940462E+04  0.50400001928E-02 0. -1.
    10030    2    1    2    0    0  0.00000000000E+00  0.00000000000E+00 -0.58413088539E+03  0.23730572070E+04  0.23000416554E+04 0.  0.
        5    1    3    3  502    0 -0.88813529886E+02 -0.31572154282E+03  0.84517715094E+03  0.90659497140E+03  0.46999998093E+01 0.  1.
       -5    1    3    3    0  502  0.88813529886E+02  0.31572154282E+03 -0.14293080363E+04  0.14664622356E+04  0.46999998093E+01 0. -1.
</event>
<event>
 5   0  0.1626636E-05  0.2310133E+04  0.7818609E-02  0.8473936E-01
        2   -1    0    0  501    0  0.00000000000E+00  0.00000000000E+00  0.10603136205E+04  0.10603136205E+04  0.25500000920E-02 0. -1.
       -2   -1    0    0    0  501  0.00000000000E+00  0.00000000000E+00 -0.12582868948E+04  0.12582868948E+04  0.25500000920E-02 0.  1.
    10030    2    1    2    0    0  0.00000000000E+00  0.00000000000E+00 -0.19797327427E+03  0.23186005152E+04  0.23101330983E+04 0.  0.
        4    1    3    3  502    0 -0.47889468914E+03  0.10501866552E+04 -0.14325028252E+03  0.11630797008E+04  0.12699999809E+01 0.  1.
       -4    1    3    3    0  502  0.47889468914E+03 -0.10501866552E+04 -0.54722991745E+02  0.11555208145E+04  0.12699999809E+01 0. -1.
</event>
<event>
 5   0  0.1588969E-05  0.2307497E+04  0.7818609E-02  0.8474971E-01
        2   -1    0    0  501    0  0.00000000000E+00  0.00000000000E+00  0.18902165474E+04  0.18902165474E+04  0.25500000920E-02 0.  1.
       -2   -1    0    0    0  501  0.00000000000E+00  0.00000000000E+00 -0.70422413275E+03  0.70422413276E+03  0.25500000920E-02 0. -1.
    10030    2    1    2    0    0  0.00000000000E+00  0.00000000000E+00  0.11859924146E+04  0.25944406801E+04  0.23074974399E+04 0.  0.
        1    1    3    3  502    0 -0.31018260999E+02  0.64448799461E+03  0.16683906293E+04  0.17888136291E+04  0.50400001928E-02 0.  1.
       -1    1    3    3    0  502  0.31018260999E+02 -0.64448799461E+03 -0.48239821472E+03  0.80562705100E+03  0.50400001928E-02 0. -1.
</event>
<event>
 5   0  0.7416556E-06  0.2298221E+04  0.7818609E-02  0.8478623E-01
       -1   -1    0    0    0  501  0.00000000000E+00  0.00000000000E+00  0.12952243038E+04  0.12952243038E+04  0.50400001928E-02 0.  1.
        1   -1    0    0  501    0  0.00000000000E+00  0.00000000000E+00 -0.10194795723E+04  0.10194795723E+04  0.50400001928E-02 0. -1.
    10030    2    1    2    0    0  0.00000000000E+00  0.00000000000E+00  0.27574473151E+03  0.23147038762E+04  0.22982208069E+04 0.  0.
        4    1    3    3  502    0 -0.70657086926E+03  0.90301919996E+03  0.61386694736E+02  0.11482403964E+04  0.12699999809E+01 0.  1.
       -4    1    3    3    0  502  0.70657086926E+03 -0.90301919996E+03  0.21435803677E+03  0.11664634798E+04  0.12699999809E+01 0. -1.
</event>
<event>
 5   0  0.1635955E-05  0.2292997E+04  0.7818609E-02  0.8480688E-01
        2   -1    0    0  501    0  0.00000000000E+00  0.00000000000E+00  0.17615419825E+04  0.17615419825E+04  0.25500000920E-02 0. -1.
       -2   -1    0    0    0  501  0.00000000000E+00  0.00000000000E+00 -0.74619751581E+03  0.74619751582E+03  0.25500000920E-02 0.  1.
    10030    2    1    2    0    0  0.00000000000E+00  0.00000000000E+00  0.10153444667E+04  0.25077394983E+04  0.22929965123E+04 0.  0.
        2    1    3    3  502    0 -0.66989233256E+03  0.65904985723E+03 -0.21061284931E+03  0.96304736323E+03  0.25500000920E-02 0.  1.
       -2    1    3    3    0  502  0.66989233256E+03 -0.65904985723E+03  0.12259573160E+04  0.15446921351E+04  0.25500000920E-02 0. -1.
</event>
<event>
 5   0  0.7278815E-06  0.2302843E+04  0.7818609E-02  0.8476801E-01
        1   -1    0    0  501    0  0.00000000000E+00  0.00000000000E+00  0.10798931506E+04  0.10798931506E+04  0.50400001928E-02 0.  1.
       -1   -1    0    0    0  501  0.00000000000E+00  0.00000000000E+00 -0.12276878380E+04  0.12276878380E+04  0.50400001928E-02 0. -1.
    10030    2    1    2    0    0  0.00000000000E+00  0.00000000000E+00 -0.14779468735E+03  0.23075809886E+04  0.23028431882E+04 0.  0.
        5    1    3    3  502    0 -0.49925562000E+03  0.81775971900E+03 -0.71377391591E+03  0.11947729597E+04  0.46999998093E+01 0. -1.
       -5    1    3    3    0  502  0.49925562000E+03 -0.81775971900E+03  0.56597922856E+03  0.11128080289E+04  0.46999998093E+01 0.  1.
</event>
<event>
 5   0  0.1635955E-05  0.2303856E+04  0.7818609E-02  0.8476402E-01
       -2   -1    0    0    0  501  0.00000000000E+00  0.00000000000E+00  0.82069799672E+03  0.82069799673E+03  0.25500000920E-02 0. -1.
        2   -1    0    0  501    0  0.00000000000E+00  0.00000000000E+00 -0.16168407314E+04  0.16168407314E+04  0.25500000920E-02 0.  1.
    10030    2    1    2    0    0  0.00000000000E+00  0.00000000000E+00 -0.79614273467E+03  0.24375387281E+04  0.23038558542E+04 0.  0.
        2    1    3    3  502    0  0.27848059044E+03  0.58472305321E+02 -0.15790704999E+04  0.16045043139E+04  0.25500000920E-02 0.  1.
       -2    1    3    3    0  502 -0.27848059044E+03 -0.58472305321E+02  0.78292776521E+03  0.83303441422E+03  0.25500000920E-02 0. -1.
</event>
<event>
 5   0  0.7416556E-06  0.2303862E+04  0.7818609E-02  0.8476400E-01
        1   -1    0    0  501    0  0.00000000000E+00  0.00000000000E+00  0.16438494383E+04  0.16438494383E+04  0.50400001928E-02 0.  1.
       -1   -1    0    0    0  501  0.00000000000E+00  0.00000000000E+00 -0.80721838002E+03  0.80721838004E+03  0.50400001928E-02 0. -1.
    10030    2    1    2    0    0  0.00000000000E+00  0.00000000000E+00  0.83663105826E+03  0.24510678183E+04  0.23038623922E+04 0.  0.
        4    1    3    3  502    0  0.95745901216E+03 -0.30613871707E+03 -0.18020954891E+03  0.10212373713E+04  0.12699999809E+01 0. -1.
       -4    1    3    3    0  502 -0.95745901216E+03  0.30613871707E+03  0.10168406072E+04  0.14298304471E+04  0.12699999809E+01 0.  1.
</event>
<event>
 5   0  0.7202572E-06  0.2296552E+04  0.7818609E-02  0.8479282E-01
        1   -1    0    0  501    0  0.00000000000E+00  0.00000000000E+00  0.14046403598E+04  0.14046403598E+04  0.50400001928E-02 0.  1.
       -1   -1    0    0    0  501  0.00000000000E+00  0.00000000000E+00 -0.93870143224E+03  0.93870143225E+03  0.50400001928E-02 0. -1.
    10030    2    1    2    0    0  0.00000000000E+00  0.00000000000E+00  0.46593892757E+03  0.23433417921E+04  0.22965521266E+04 0.  0.
        2    1    3    3  502    0 -0.39156139556E+03  0.21813041388E+03  0.13116917727E+04  0.13861589052E+04  0.25500000920E-02 0.  1.
       -2    1    3    3    0  502  0.39156139556E+03 -0.21813041388E+03 -0.84575284509E+03  0.95718288688E+03  0.25500000920E-02 0. -1.
</event>
<event>
 5   0  0.7202572E-06  0.2304041E+04  0.7818609E-02  0.8476329E-01
        1   -1    0    0  501    0  0.00000000000E+00  0.00000000000E+00  0.17117952588E+04  0.17117952588E+04  0.50400001928E-02 0.  1.
       -1   -1    0    0    0  501  0.00000000000E+00  0.00000000000E+00 -0.77529818558E+03  0.77529818559E+03  0.50400001928E-02 0. -1.
    10030    2    1    2    0    0  0.00000000000E+00  0.00000000000E+00  0.93649707318E+03  0.24870934444E+04  0.23040414564E+04 0.  0.
        2    1    3    3  502    0  0.82602842394E+03  0.14775612109E+03 -0.38376161018E+03  0.92272845514E+03  0.25500000920E-02 0. -1.
       -2    1    3    3    0  502 -0.82602842394E+03 -0.14775612109E+03  0.13202586834E+04  0.15643649892E+04  0.25500000920E-02 0.  1.
</event>
<event>
 5   0  0.1635955E-05  0.2297059E+04  0.7818609E-02  0.8479082E-01
        2   -1    0    0  501    0  0.00000000000E+00  0.00000000000E+00  0.18497474586E+04  0.18497474586E+04  0.25500000920E-02 0.  1.
       -2   -1    0    0    0  501  0.00000000000E+00  0.00000000000E+00 -0.71313532054E+03  0.71313532054E+03  0.25500000920E-02 0. -1.
    10030    2    1    2    0    0  0.00000000000E+00  0.00000000000E+00  0.11366121381E+04  0.25628827792E+04  0.22970592041E+04 0.  0.
        2    1    3    3  502    0  0.40455273885E+03 -0.10452554435E+04  0.28848764567E+03  0.11573447984E+04  0.25500000920E-02 0.  1.
       -2    1    3    3    0  502 -0.40455273885E+03  0.10452554435E+04  0.84812449240E+03  0.14055379807E+04  0.25500000920E-02 0. -1.
</event>
<event>
 5   0  0.5704875E-06  0.2294901E+04  0.7818609E-02  0.8479934E-01
       -3   -1    0    0    0  501  0.00000000000E+00  0.00000000000E+00  0.16546258839E+04  0.16546258870E+04  0.10100000352E+00 0.  1.
        3   -1    0    0  501    0  0.00000000000E+00  0.00000000000E+00 -0.79573455248E+03  0.79573455889E+03  0.10100000352E+00 0. -1.
    10030    2    1    2    0    0  0.00000000000E+00  0.00000000000E+00  0.85889133147E+03  0.24503604459E+04  0.22949013041E+04 0.  0.
        4    1    3    3  502    0 -0.83796415197E+03 -0.13093256043E+03  0.12546611247E+04  0.15144317106E+04  0.12699999809E+01 0.  1.
       -4    1    3    3    0  502  0.83796415197E+03  0.13093256043E+03 -0.39576979325E+03  0.93592873528E+03  0.12699999809E+01 0. -1.
</event>
<event>
 5   0  0.1697855E-05  0.2305882E+04  0.7818609E-02  0.8475606E-01
       -2   -1    0    0    0  501  0.00000000000E+00  0.00000000000E+00  0.10926057795E+04  0.10926057795E+04  0.25500000920E-02 0. -1.
        2   -1    0    0  501    0  0.00000000000E+00  0.00000000000E+00 -0.12166075390E+04  0.12166075390E+04  0.25500000920E-02 0.  1.
    10030    2    1    2    0    0  0.00000000000E+00  0.00000000000E+00 -0.12400175944E+03  0.23092133185E+04  0.23058815482E+04 0.  0.
        5    1    3    3  502    0 -0.93669258804E+03  0.46952698726E+03 -0.54373828804E+03  0.11804753331E+04  0.46999998093E+01 0.  1.
       -5    1    3    3    0  502  0.93669258804E+03 -0.46952698726E+03  0.41973652860E+03  0.11287379854E+04  0.46999998093E+01 0. -1.
</event>
<event>
 5   0  0.1697855E-05  0.2298289E+04  0.7818609E-02  0.8478596E-01
        2   -1    0    0  501    0  0.00000000000E+00  0.00000000000E+00  0.89516361328E+03  0.89516361328E+03  0.25500000920E-02 0.  1.
       -2   -1    0    0    0  501  0.00000000000E+00  0.00000000000E+00 -0.14751868964E+04  0.14751868964E+04  0.25500000920E-02 0. -1.
    10030    2    1    2    0    0  0.00000000000E+00  0.00000000000E+00 -0.58002328311E+03  0.23703505097E+04  0.22982894791E+04 0.  0.
        5    1    3    3  502    0 -0.57873063524E+03 -0.96618516122E+03 -0.52535172941E+03  0.12427628267E+04  0.46999998093E+01 0. -1.
       -5    1    3    3    0  502  0.57873063524E+03  0.96618516122E+03 -0.54671553698E+02  0.11275876829E+04  0.46999998093E+01 0.  1.
</event>
<event>
 5   0  0.1626636E-05  0.2326730E+04  0.7818609E-02  0.8467456E-01
        2   -1    0    0  501    0  0.00000000000E+00  0.00000000000E+00  0.22821825858E+04  0.22821825858E+04  0.25500000920E-02 0. -1.
       -2   -1    0    0    0  501  0.00000000000E+00  0.00000000000E+00 -0.59303688461E+03  0.59303688462E+03  0.25500000920E-02 0.  1.
    10030    2    1    2    0    0  0.00000000000E+00  0.00000000000E+00  0.16891457012E+04  0.28752194704E+04  0.23267302816E+04 0.  0.
        4    1    3    3  502    0  0.11208340162E+04  0.16625239067E+03  0.11703665129E+04  0.16290083293E+04  0.12699999809E+01 0. -1.
       -4    1    3    3    0  502 -0.11208340162E+04 -0.16625239067E+03  0.51877918827E+03  0.12462111412E+04  0.12699999809E+01 0.  1.
</event>
<event>
 5   0  0.7416556E-06  0.2298720E+04  0.7818609E-02  0.8478426E-01
        1   -1    0    0  501    0  0.00000000000E+00  0.00000000000E+00  0.11780827999E+04  0.11780827999E+04  0.50400001928E-02 0.  1.
       -1   -1    0    0    0  501  0.00000000000E+00  0.00000000000E+00 -0.11213374248E+04  0.11213374248E+04  0.50400001928E-02 0. -1.
    10030    2    1    2    0    0  0.00000000000E+00  0.00000000000E+00  0.56745375129E+02  0.22994202247E+04  0.22987199334E+04 0.  0.
        4    1    3    3  502    0  0.89237989473E+03  0.50336588382E+03  0.54940335878E+03  0.11625681714E+04  0.12699999809E+01 0.  1.
       -4    1    3    3    0  502 -0.89237989473E+03 -0.50336588382E+03 -0.49265798365E+03  0.11368520534E+04  0.12699999809E+01 0. -1.
</event>
<event>
 5   0  0.7202572E-06  0.2308200E+04  0.7818609E-02  0.8474695E-01
       -1   -1    0    0    0  501  0.00000000000E+00  0.00000000000E+00  0.92819340369E+03  0.92819340370E+03  0.50400001928E-02 0. -1.
        1   -1    0    0  501    0  0.00000000000E+00  0.00000000000E+00 -0.14349888827E+04  0.14349888827E+04  0.50400001928E-02 0.  1.
    10030    2    1    2    0    0  0.00000000000E+00  0.00000000000E+00 -0.50679547900E+03  0.23631822864E+04  0.23082003512E+04 0.  0.
        2    1    3    3  502    0 -0.16541682019E+03  0.80961486613E+03 -0.10782616211E+04  0.13584870553E+04  0.25500000920E-02 0.  1.
       -2    1    3    3    0  502  0.16541682019E+03 -0.80961486613E+03  0.57146614209E+03  0.10046952311E+04  0.25500000920E-02 0. -1.
</event>
<event>
 5   0  0.1635955E-05  0.2297911E+04  0.7818609E-02  0.8478745E-01
       -2   -1    0    0    0  501  0.00000000000E+00  0.00000000000E+00  0.12432642337E+04  0.12432642337E+04  0.25500000920E-02 0. -1.
        2   -1    0    0  501    0  0.00000000000E+00  0.00000000000E+00 -0.10618004138E+04  0.10618004138E+04  0.25500000920E-02 0.  1.
    10030    2    1    2    0    0  0.00000000000E+00  0.00000000000E+00  0.18146381990E+03  0.23050646475E+04  0.22979107709E+04 0.  0.
        2    1    3    3  502    0 -0.11100250384E+04 -0.26560278162E+03  0.22304423205E+03  0.11629484739E+04  0.25500000920E-02 0.  1.
       -2    1    3    3    0  502  0.11100250384E+04  0.26560278162E+03 -0.41580412154E+02  0.11421161736E+04  0.25500000920E-02 0. -1.
</event>
<event>
 5   0  0.7202572E-06  0.2299876E+04  0.7818609E-02  0.8477970E-01
        1   -1    0    0  501    0  0.00000000000E+00  0.00000000000E+00  0.11751657017E+04  0.11751657017E+04  0.50400001928E-02 0. -1.
       -1   -1    0    0    0  501  0.00000000000E+00  0.00000000000E+00 -0.11252514184E+04  0.11252514184E+04  0.50400001928E-02 0.  1.
    10030    2    1    2    0    0  0.00000000000E+00  0.00000000000E+00  0.49914283293E+02  0.23004171200E+04  0.22998755380E+04 0.  0.
        2    1    3    3  502    0  0.93261798703E+03  0.59628345818E+03 -0.28660714070E+03  0.11434482609E+04  0.25500000920E-02 0.  1.
       -2    1    3    3    0  502 -0.93261798703E+03 -0.59628345818E+03  0.33652142400E+03  0.11569688591E+04  0.25500000920E-02 0. -1.
</event>
<event>
 5   0  0.1602809E-05  0.2306986E+04  0.7818609E-02  0.8475172E-01
       -2   -1    0    0    0  501  0.00000000000E+00  0.00000000000E+00  0.10037668721E+04  0.10037668721E+04  0.25500000920E-02 0. -1.
        2   -1    0    0  501    0  0.00000000000E+00  0.00000000000E+00 -0.13255528112E+04  0.13255528112E+04  0.25500000920E-02 0.  1.
    10030    2    1    2    0    0  0.00000000000E+00  0.00000000000E+00 -0.32178593909E+03  0.23293196833E+04  0.23069859116E+04 0.  0.
        3    1    3    3  502    0 -0.99473436879E+03 -0.32468051868E+03  0.32922583716E+03  0.10969519432E+04  0.10100000352E+00 0. -1.
       -3    1    3    3    0  502  0.99473436879E+03  0.32468051868E+03 -0.65101177625E+03  0.12323677400E+04  0.10100000352E+00 0.  1.
</event>
<event>
 5   0  0.1697855E-05  0.2316277E+04  0.7818609E-02  0.8471531E-01
        2   -1    0    0  501    0  0.00000000000E+00  0.00000000000E+00  0.19385369980E+04  0.19385369980E+04  0.25500000920E-02 0. -1.
       -2   -1    0    0    0  501  0.00000000000E+00  0.00000000000E+00 -0.69190566249E+03  0.69190566249E+03  0.25500000920E-02 0.  1.
    10030    2    1    2    0    0  0.00000000000E+00  0.00000000000E+00  0.12466313355E+04  0.26304426605E+04  0.23162769488E+04 0.  0.
        5    1    3    3  502    0 -0.71895003931E+03  0.65751553457E+03 -0.87746070299E+02  0.97823172106E+03  0.46999998093E+01 0.  1.
       -5    1    3    3    0  502  0.71895003931E+03 -0.65751553457E+03  0.13343774058E+04  0.16522109394E+04  0.46999998093E+01 0. -1.
</event>
<event>
 5   0  0.7278815E-06  0.2305649E+04  0.7818609E-02  0.8475697E-01
        1   -1    0    0  501    0  0.00000000000E+00  0.00000000000E+00  0.10636513101E+04  0.10636513101E+04  0.50400001928E-02 0.  1.
       -1   -1    0    0    0  501  0.00000000000E+00  0.00000000000E+00 -0.12494737592E+04  0.12494737592E+04  0.50400001928E-02 0. -1.
    10030    2    1    2    0    0  0.00000000000E+00  0.00000000000E+00 -0.18582244906E+03  0.23131250693E+04  0.23056490635E+04 0.  0.
        5    1    3    3  502    0 -0.71147686334E+03 -0.76628481681E+03  0.39403931981E+03  0.11174438792E+04  0.46999998093E+01 0.  1.
       -5    1    3    3    0  502  0.71147686334E+03  0.76628481681E+03 -0.57986176887E+03  0.11956811902E+04  0.46999998093E+01 0. -1.
</event>
<event>
 5   0  0.7183014E-06  0.2298287E+04  0.7818609E-02  0.8478597E-01
        1   -1    0    0  501    0  0.00000000000E+00  0.00000000000E+00  0.15603957655E+04  0.15603957655E+04  0.50400001928E-02 0.  1.
       -1   -1    0    0    0  501  0.00000000000E+00  0.00000000000E+00 -0.84627932576E+03  0.84627932577E+03  0.50400001928E-02 0. -1.
    10030    2    1    2    0    0  0.00000000000E+00  0.00000000000E+00  0.71411643978E+03  0.24066750913E+04  0.22982869067E+04 0.  0.
        3    1    3    3  502    0 -0.60034828449E+03  0.11419293203E+03 -0.66201373807E+03  0.90095520866E+03  0.10100000352E+00 0. -1.
       -3    1    3    3    0  502  0.60034828449E+03 -0.11419293203E+03  0.13761301779E+04  0.15057198827E+04  0.10100000352E+00 0.  1.
</event>
<event>
 5   0  0.1602809E-05  0.2290466E+04  0.7818609E-02  0.8481690E-01
       -2   -1    0    0    0  501  0.00000000000E+00  0.00000000000E+00  0.61458120586E+03  0.61458120586E+03  0.25500000920E-02 0. -1.
        2   -1    0    0  501    0  0.00000000000E+00  0.00000000000E+00 -0.21340684715E+04  0.21340684715E+04  0.25500000920E-02 0.  1.
    10030    2    1    2    0    0  0.00000000000E+00  0.00000000000E+00 -0.15194872656E+04  0.27486496773E+04  0.22904657820E+04 0.  0.
        3    1    3    3  502    0 -0.35914187177E+03  0.81442366961E+03  0.10502590298E+03  0.89626962917E+03  0.10100000352E+00 0. -1.
       -3    1    3    3    0  502  0.35914187177E+03 -0.81442366961E+03 -0.16245131686E+04  0.18523800482E+04  0.10100000352E+00 0.  1.
</event>
<event>
 5   0  0.1588969E-05  0.2279954E+04  0.7818609E-02  0.8485867E-01
       -2   -1    0    0    0  501  0.00000000000E+00  0.00000000000E+00  0.54541414067E+03  0.54541414068E+03  0.25500000920E-02 0. -1.
        2   -1    0    0  501    0  0.00000000000E+00  0.00000000000E+00 -0.23826808571E+04  0.23826808571E+04  0.25500000920E-02 0.  1.
    10030    2    1    2    0    0  0.00000000000E+00  0.00000000000E+00 -0.18372667165E+04  0.29280949978E+04  0.22799542383E+04 0.  0.
        1    1    3    3  502    0 -0.51433685754E+03  0.19286018262E+03  0.36423779897E+03  0.65909530972E+03  0.50400001928E-02 0. -1.
       -1    1    3    3    0  502  0.51433685754E+03 -0.19286018262E+03 -0.22015045154E+04  0.22689996881E+04  0.50400001928E-02 0.  1.
</event>
<event>
 5   0  0.1588969E-05  0.2273713E+04  0.7818609E-02  0.8488358E-01
       -2   -1    0    0    0  501  0.00000000000E+00  0.00000000000E+00  0.73269826535E+03  0.73269826536E+03  0.25500000920E-02 0.  1.
        2   -1    0    0  501    0  0.00000000000E+00  0.00000000000E+00 -0.17639496565E+04  0.17639496565E+04  0.25500000920E-02 0. -1.
    10030    2    1    2    0    0  0.00000000000E+00  0.00000000000E+00 -0.10312513912E+04  0.24966479219E+04  0.22737131336E+04 0.  0.
        1    1    3    3  502    0  0.38583512839E+03  0.99531432140E+02 -0.16847602581E+04  0.17312401276E+04  0.50400001928E-02 0. -1.
       -1    1    3    3    0  502 -0.38583512839E+03 -0.99531432140E+02  0.65350886693E+03  0.76540779423E+03  0.50400001928E-02 0.  1.
</event>
<event>
 5   0  0.1635955E-05  0.2305614E+04  0.7818609E-02  0.8475711E-01
        2   -1    0    0  501    0  0.00000000000E+00  0.00000000000E+00  0.19637808083E+04  0.19637808083E+04  0.25500000920E-02 0.  1.
       -2   -1    0    0    0  501  0.00000000000E+00  0.00000000000E+00 -0.67673755731E+03  0.67673755731E+03  0.25500000920E-02 0. -1.
    10030    2    1    2    0    0  0.00000000000E+00  0.00000000000E+00  0.12870432510E+04  0.26405183657E+04  0.23056142152E+04 0.  0.
        2    1    3    3  502    0  0.55490130306E+03 -0.10098565476E+04  0.68382624706E+03  0.13399044888E+04  0.25500000920E-02 0.  1.
       -2    1    3    3    0  502 -0.55490130306E+03  0.10098565476E+04  0.60321700398E+03  0.13006138769E+04  0.25500000920E-02 0. -1.
</event>
<event>
 5   0  0.7391007E-06  0.2301393E+04  0.7818609E-02  0.8477372E-01
        1   -1    0    0  501    0  0.00000000000E+00  0.00000000000E+00  0.79353651315E+03  0.79353651316E+03  0.50400001928E-02 0.  1.
       -1   -1    0    0    0  501  0.00000000000E+00  0.00000000000E+00 -0.16686090586E+04  0.16686090586E+04  0.50400001928E-02 0. -1.
    10030    2    1    2    0    0  0.00000000000E+00  0.00000000000E+00 -0.87507254544E+03  0.24621455718E+04  0.23013928080E+04 0.  0.
        1    1    3    3  502    0  0.45007501168E+02 -0.85424857381E+03 -0.12609289632E+04  0.15237152461E+04  0.50400001928E-02 0. -1.
       -1    1    3    3    0  502 -0.45007501168E+02  0.85424857381E+03  0.38585641772E+03  0.93843032567E+03  0.50400001928E-02 0.  1.
</event>
<event>
 5   0  0.1588969E-05  0.2342910E+04  0.7818609E-02  0.8461192E-01
       -2   -1    0    0    0  501  0.00000000000E+00  0.00000000000E+00  0.10394426554E+04  0.10394426554E+04  0.25500000920E-02 0.  1.
        2   -1    0    0  501    0  0.00000000000E+00  0.00000000000E+00 -0.13202332354E+04  0.13202332354E+04  0.25500000920E-02 0. -1.
    10030    2    1    2    0    0  0.00000000000E+00  0.00000000000E+00 -0.28079057995E+03  0.23596758908E+04  0.23429099342E+04 0.  0.
        1    1    3    3  502    0 -0.10698970936E+04 -0.14506712575E+03  0.31737067831E+03  0.11253659002E+04  0.50400001928E-02 0.  1.
       -1    1    3    3    0  502  0.10698970936E+04  0.14506712575E+03 -0.59816125825E+03  0.12343099906E+04  0.50400001928E-02 0. -1.
</event>
<event>
 5   0  0.1626636E-05  0.2302551E+04  0.7818609E-02  0.8476916E-01
       -2   -1    0    0    0  501  0.00000000000E+00  0.00000000000E+00  0.73122779182E+03  0.73122779183E+03  0.25500000920E-02 0. -1.
        2   -1    0    0  501    0  0.00000000000E+00  0.00000000000E+00 -0.18126156119E+04  0.18126156119E+04  0.25500000920E-02 0.  1.
    10030    2    1    2    0    0  0.00000000000E+00  0.00000000000E+00 -0.10813878201E+04  0.25438434038E+04  0.23025506825E+04 0.  0.
        4    1    3    3  502    0  0.63861776152E+03 -0.81809888001E+03 -0.10912258792E+04  0.15059528396E+04  0.12699999809E+01 0.  1.
       -4    1    3    3    0  502 -0.63861776152E+03  0.81809888001E+03  0.98380591094E+01  0.10378905641E+04  0.12699999809E+01 0. -1.
</event>
<event>
 5   0  0.1602809E-05  0.2285288E+04  0.7818609E-02  0.8483745E-01
       -2   -1    0    0    0  501  0.00000000000E+00  0.00000000000E+00  0.55952454860E+03  0.55952454861E+03  0.25500000920E-02 0. -1.
        2   -1    0    0  501    0  0.00000000000E+00  0.00000000000E+00 -0.23334726308E+04  0.23334726308E+04  0.25500000920E-02 0.  1.
    10030    2    1    2    0    0  0.00000000000E+00  0.00000000000E+00 -0.17739480822E+04  0.28929971794E+04  0.22852879210E+04 0.  0.
        3    1    3    3  502    0 -0.74097069475E+03  0.39691538213E+03 -0.18667814784E+04  0.20473037121E+04  0.10100000352E+00 0.  1.
       -3    1    3    3    0  502  0.74097069475E+03 -0.39691538213E+03  0.92833396228E+02  0.84569346734E+03  0.10100000352E+00 0. -1.
</event>
<event>
 5   0  0.7278815E-06  0.2307636E+04  0.7818609E-02  0.8474917E-01
       -1   -1    0    0    0  501  0.00000000000E+00  0.00000000000E+00  0.10830653727E+04  0.10830653727E+04  0.50400001928E-02 0.  1.
        1   -1    0    0  501    0  0.00000000000E+00  0.00000000000E+00 -0.12291921320E+04  0.12291921320E+04  0.50400001928E-02 0. -1.
    10030    2    1    2    0    0  0.00000000000E+00  0.00000000000E+00 -0.14612675937E+03  0.23122575047E+04  0.23076355298E+04 0.  0.
        5    1    3    3  502    0  0.70645341931E+03 -0.75620563694E+02  0.83786607562E+03  0.10985611289E+04  0.46999998093E+01 0.  1.
       -5    1    3    3    0  502 -0.70645341931E+03  0.75620563694E+02 -0.98399283499E+03  0.12136963758E+04  0.46999998093E+01 0. -1.
</event>
<event>
 5   0  0.7202572E-06  0.2298628E+04  0.7818609E-02  0.8478462E-01
        1   -1    0    0  501    0  0.00000000000E+00  0.00000000000E+00  0.14203390396E+04  0.14203390396E+04  0.50400001928E-02 0. -1.
       -1   -1    0    0    0  501  0.00000000000E+00  0.00000000000E+00 -0.93000549672E+03  0.93000549673E+03  0.50400001928E-02 0.  1.
    10030    2    1    2    0    0  0.00000000000E+00  0.00000000000E+00  0.49033354291E+03  0.23503445364E+04  0.22986283859E+04 0.  0.
        2    1    3    3  502    0 -0.46424335544E+03  0.39646548861E+02 -0.82910394537E+03  0.95105577867E+03  0.25500000920E-02 0.  1.
       -2    1    3    3    0  502  0.46424335544E+03 -0.39646548861E+02  0.13194374883E+04  0.13992887577E+04  0.25500000920E-02 0. -1.
</event>
<event>
 5   0  0.1588969E-05  0.2300940E+04  0.7818609E-02  0.8477551E-01
        2   -1    0    0  501    0  0.00000000000E+00  0.00000000000E+00  0.77926396582E+03  0.77926396582E+03  0.25500000920E-02 0. -1.
       -2   -1    0    0    0  501  0.00000000000E+00  0.00000000000E+00 -0.16985011417E+04  0.16985011417E+04  0.25500000920E-02 0.  1.
    10030    2    1    2    0    0  0.00000000000E+00  0.00000000000E+00 -0.91923717586E+03  0.24777651075E+04  0.23009395782E+04 0.  0.
        1    1    3    3  502    0 -0.35998416812E+03 -0.52619392426E+03  0.57163655483E+03  0.85629258905E+03  0.50400001928E-02 0. -1.
       -1    1    3    3    0  502  0.35998416812E+03  0.52619392426E+03 -0.14908737307E+04  0.16214725185E+04  0.50400001928E-02 0.  1.
</event>
<event>
 5   0  0.1626636E-05  0.2301854E+04  0.7818609E-02  0.8477191E-01
       -2   -1    0    0    0  501  0.00000000000E+00  0.00000000000E+00  0.89204319935E+03  0.89204319935E+03  0.25500000920E-02 0.  1.
        2   -1    0    0  501    0  0.00000000000E+00  0.00000000000E+00 -0.14849424794E+04  0.14849424794E+04  0.25500000920E-02 0. -1.
    10030    2    1    2    0    0  0.00000000000E+00  0.00000000000E+00 -0.59289928007E+03  0.23769856788E+04  0.23018538965E+04 0.  0.
        4    1    3    3  502    0 -0.43155009438E+03 -0.72162875795E+03 -0.11080069939E+04  0.13909222335E+04  0.12699999809E+01 0. -1.
       -4    1    3    3    0  502  0.43155009438E+03  0.72162875795E+03  0.51510771386E+03  0.98606344524E+03  0.12699999809E+01 0.  1.
</event>
<event>
 5   0  0.1602809E-05  0.2294666E+04  0.7818609E-02  0.8480027E-01
       -2   -1    0    0    0  501  0.00000000000E+00  0.00000000000E+00  0.90595678663E+03  0.90595678664E+03  0.25500000920E-02 0. -1.
        2   -1    0    0  501    0  0.00000000000E+00  0.00000000000E+00 -0.14530199585E+04  0.14530199585E+04  0.25500000920E-02 0.  1.
    10030    2    1    2    0    0  0.00000000000E+00  0.00000000000E+00 -0.54706317190E+03  0.23589767452E+04  0.22946662438E+04 0.  0.
        3    1    3    3  502    0 -0.96501593479E+02  0.10916074739E+04 -0.62283943010E+03  0.12604952997E+04  0.10100000352E+00 0. -1.
       -3    1    3    3    0  502  0.96501593479E+02 -0.10916074739E+04  0.75776258200E+02  0.10984814455E+04  0.10100000352E+00 0.  1.
</event>
<event>
 5   0  0.7391007E-06  0.2298882E+04  0.7818609E-02  0.8478362E-01
        1   -1    0    0  501    0  0.00000000000E+00  0.00000000000E+00  0.11097324847E+04  0.11097324847E+04  0.50400001928E-02 0.  1.
       -1   -1    0    0    0  501  0.00000000000E+00  0.00000000000E+00 -0.11905707623E+04  0.11905707623E+04  0.50400001928E-02 0. -1.
    10030    2    1    2    0    0  0.00000000000E+00  0.00000000000E+00 -0.80838277573E+02  0.23003032471E+04  0.22988823809E+04 0.  0.
        1    1    3    3  502    0 -0.17330540980E+03 -0.11159462884E+04 -0.25466398404E+03  0.11576807110E+04  0.50400001928E-02 0. -1.
       -1    1    3    3    0  502  0.17330540980E+03  0.11159462884E+04  0.17382570647E+03  0.11426225361E+04  0.50400001928E-02 0.  1.
</event>
<event>
 5   0  0.1635955E-05  0.2296339E+04  0.7818609E-02  0.8479366E-01
        2   -1    0    0  501    0  0.00000000000E+00  0.00000000000E+00  0.10522293438E+04  0.10522293438E+04  0.25500000920E-02 0. -1.
       -2   -1    0    0    0  501  0.00000000000E+00  0.00000000000E+00 -0.12528576992E+04  0.12528576992E+04  0.25500000920E-02 0.  1.
    10030    2    1    2    0    0  0.00000000000E+00  0.00000000000E+00 -0.20062835542E+03  0.23050870429E+04  0.22963393779E+04 0.  0.
        2    1    3    3  502    0 -0.72833996791E+03  0.63620964470E+03 -0.72158365560E+03  0.12066170863E+04  0.25500000920E-02 0.  1.
       -2    1    3    3    0  502  0.72833996791E+03 -0.63620964470E+03  0.52095530018E+03  0.10984699566E+04  0.25500000920E-02 0. -1.
</event>
<event>
 5   0  0.7391007E-06  0.2298026E+04  0.7818609E-02  0.8478700E-01
       -1   -1    0    0    0  501  0.00000000000E+00  0.00000000000E+00  0.60008108709E+03  0.60008108711E+03  0.50400001928E-02 0. -1.
        1   -1    0    0  501    0  0.00000000000E+00  0.00000000000E+00 -0.22000882609E+04  0.22000882609E+04  0.50400001928E-02 0.  1.
    10030    2    1    2    0    0  0.00000000000E+00  0.00000000000E+00 -0.16000071738E+04  0.28001693480E+04  0.22980264188E+04 0.  0.
        1    1    3    3  502    0 -0.53229543172E+03  0.43441140201E+03 -0.19222111920E+04  0.20413102555E+04  0.50400001928E-02 0.  1.
       -1    1    3    3    0  502  0.53229543172E+03 -0.43441140201E+03  0.32220401819E+03  0.75885909245E+03  0.50400001928E-02 0. -1.
</event>
<event>
 5   0  0.7202572E-06  0.2289455E+04  0.7818609E-02  0.8482091E-01
        1   -1    0    0  501    0  0.00000000000E+00  0.00000000000E+00  0.10835125408E+04  0.10835125408E+04  0.50400001928E-02 0. -1.
       -1   -1    0    0    0  501  0.00000000000E+00  0.00000000000E+00 -0.12094006624E+04  0.12094006624E+04  0.50400001928E-02 0.  1.
    10030    2    1    2    0    0  0.00000000000E+00  0.00000000000E+00 -0.12588812162E+03  0.22929132032E+04  0.22894547687E+04 0.  0.
        2    1    3    3  502    0 -0.35082557199E+02  0.92949678652E+02  0.10791866094E+04  0.10837500480E+04  0.25500000920E-02 0. -1.
       -2    1    3    3    0  502  0.35082557199E+02 -0.92949678652E+02 -0.12050747310E+04  0.12091631552E+04  0.25500000920E-02 0.  1.
</event>
<event>
 5   0  0.1697855E-05  0.2304234E+04  0.7818609E-02  0.8476253E-01
        2   -1    0    0  501    0  0.00000000000E+00  0.00000000000E+00  0.10997234668E+04  0.10997234668E+04  0.25500000920E-02 0. -1.
       -2   -1    0    0    0  501  0.00000000000E+00  0.00000000000E+00 -0.12070070828E+04  0.12070070828E+04  0.25500000920E-02 0.  1.
    10030    2    1    2    0    0  0.00000000000E+00  0.00000000000E+00 -0.10728361606E+03  0.23067305496E+04  0.23042343749E+04 0.  0.
        5    1    3    3  502    0 -0.70609208296E+03  0.84808238532E+03 -0.38497189127E+03  0.11687750891E+04  0.46999998093E+01 0. -1.
       -5    1    3    3    0  502  0.70609208296E+03 -0.84808238532E+03  0.27768827520E+03  0.11379554605E+04  0.46999998093E+01 0.  1.
</event>
<event>
 5   0  0.7391007E-06  0.2308470E+04  0.7818609E-02  0.8474589E-01
        1   -1    0    0  501    0  0.00000000000E+00  0.00000000000E+00  0.89386937285E+03  0.89386937286E+03  0.50400001928E-02 0.  1.
       -1   -1    0    0    0  501  0.00000000000E+00  0.00000000000E+00 -0.14904394901E+04  0.14904394901E+04  0.50400001928E-02 0. -1.
    10030    2    1    2    0    0  0.00000000000E+00  0.00000000000E+00 -0.59657011729E+03  0.23843088630E+04  0.23084698069E+04 0.  0.
        1    1    3    3  502    0  0.72863090713E+03  0.88651383841E+03 -0.42666005904E+03  0.12242747202E+04  0.50400001928E-02 0.  1.
       -1    1    3    3    0  502 -0.72863090713E+03 -0.88651383841E+03 -0.16991005825E+03  0.11600341428E+04  0.50400001928E-02 0. -1.
</event>
<event>
 5   0  0.1626636E-05  0.2295714E+04  0.7818609E-02  0.8479613E-01
       -2   -1    0    0    0  501  0.00000000000E+00  0.00000000000E+00  0.76929768803E+03  0.76929768803E+03  0.25500000920E-02 0. -1.
        2   -1    0    0  501    0  0.00000000000E+00  0.00000000000E+00 -0.17126988916E+04  0.17126988916E+04  0.25500000920E-02 0.  1.
    10030    2    1    2    0    0  0.00000000000E+00  0.00000000000E+00 -0.94340120354E+03  0.24819965796E+04  0.22957136560E+04 0.  0.
        4    1    3    3  502    0 -0.77782049391E+03 -0.41527128523E+03  0.32286192211E+03  0.93898689806E+03  0.12699999809E+01 0. -1.
       -4    1    3    3    0  502  0.77782049391E+03  0.41527128523E+03 -0.12662631256E+04  0.15430096815E+04  0.12699999809E+01 0.  1.
</event>
<event>
 5   0  0.5704875E-06  0.2239783E+04  0.7818609E-02  0.8502050E-01
       -3   -1    0    0    0  501  0.00000000000E+00  0.00000000000E+00  0.61415082087E+03  0.61415082918E+03  0.10100000352E+00 0. -1.
        3   -1    0    0  501    0  0.00000000000E+00  0.00000000000E+00 -0.20420998716E+04  0.20420998741E+04  0.10100000352E+00 0.  1.
    10030    2    1    2    0    0  0.00000000000E+00  0.00000000000E+00 -0.14279490507E+04  0.26562507033E+04  0.22397833170E+04 0.  0.
        4    1    3    3  502    0 -0.57839622518E+02  0.10845667432E+04 -0.39022075103E+03  0.11540815785E+04  0.12699999809E+01 0. -1.
       -4    1    3    3    0  502  0.57839622518E+02 -0.10845667432E+04 -0.10377282997E+04  0.15021691247E+04  0.12699999809E+01 0.  1.
</event>
<event>
 5   0  0.1602809E-05  0.2265101E+04  0.7818609E-02  0.8491810E-01
       -2   -1    0    0    0  501  0.00000000000E+00  0.00000000000E+00  0.92935539360E+03  0.92935539360E+03  0.25500000920E-02 0. -1.
        2   -1    0    0  501    0  0.00000000000E+00  0.00000000000E+00 -0.13801728921E+04  0.13801728921E+04  0.25500000920E-02 0.  1.
    10030    2    1    2    0    0  0.00000000000E+00  0.00000000000E+00 -0.45081749848E+03  0.23095282857E+04  0.22651014294E+04 0.  0.
        3    1    3    3  502    0 -0.17557694520E+03 -0.99203626762E+03  0.30214439763E+03  0.10517863220E+04  0.10100000352E+00 0. -1.
       -3    1    3    3    0  502  0.17557694520E+03  0.99203626762E+03 -0.75296189611E+03  0.12577419637E+04  0.10100000352E+00 0.  1.
</event>
<event>
 5   0  0.1602809E-05  0.2303839E+04  0.7818609E-02  0.8476409E-01
        2   -1    0    0  501    0  0.00000000000E+00  0.00000000000E+00  0.16322312809E+04  0.16322312809E+04  0.25500000920E-02 0.  1.
       -2   -1    0    0    0  501  0.00000000000E+00  0.00000000000E+00 -0.81294791302E+03  0.81294791303E+03  0.25500000920E-02 0. -1.
    10030    2    1    2    0    0  0.00000000000E+00  0.00000000000E+00  0.81928336788E+03  0.24451791939E+04  0.23038394157E+04 0.  0.
        3    1    3    3  502    0  0.71416678814E+03 -0.88076207941E+03  0.19436040664E+03  0.11504573089E+04  0.10100000352E+00 0. -1.
       -3    1    3    3    0  502 -0.71416678814E+03  0.88076207941E+03  0.62492296124E+03  0.12947218850E+04  0.10100000352E+00 0.  1.
</event>
<event>
 5   0  0.7183014E-06  0.2309098E+04  0.7818609E-02  0.8474343E-01
        1   -1    0    0  501    0  0.00000000000E+00  0.00000000000E+00  0.13714844323E+04  0.13714844323E+04  0.50400001928E-02 0.  1.
       -1   -1    0    0    0  501  0.00000000000E+00  0.00000000000E+00 -0.97192740198E+03  0.97192740199E+03  0.50400001928E-02 0. -1.
    10030    2    1    2    0    0  0.00000000000E+00  0.00000000000E+00  0.39955703032E+03  0.23434118343E+04  0.23090979201E+04 0.  0.
        3    1    3    3  502    0 -0.76541869065E+03 -0.23951697153E+03 -0.64307451465E+03  0.10279975648E+04  0.10100000352E+00 0. -1.
       -3    1    3    3    0  502  0.76541869065E+03  0.23951697153E+03  0.10426315450E+04  0.13154142695E+04  0.10100000352E+00 0.  1.
</event>
<event>
 5   0  0.1635955E-05  0.2285544E+04  0.7818609E-02  0.8483643E-01
       -2   -1    0    0    0  501  0.00000000000E+00  0.00000000000E+00  0.63165871326E+03  0.63165871326E+03  0.25500000920E-02 0. -1.
        2   -1    0    0  501    0  0.00000000000E+00  0.00000000000E+00 -0.20674584174E+04  0.20674584174E+04  0.25500000920E-02 0.  1.
    10030    2    1    2    0    0  0.00000000000E+00  0.00000000000E+00 -0.14357997042E+04  0.26991171307E+04  0.22855442447E+04 0.  0.
        2    1    3    3  502    0 -0.98723769060E+03 -0.45475420360E+03 -0.11345741201E+04  0.15712091132E+04  0.25500000920E-02 0. -1.
       -2    1    3    3    0  502  0.98723769060E+03  0.45475420360E+03 -0.30122558411E+03  0.11279080175E+04  0.25500000920E-02 0.  1.
</event>
<event>
 5   0  0.1626636E-05  0.2306453E+04  0.7818609E-02  0.8475381E-01
        2   -1    0    0  501    0  0.00000000000E+00  0.00000000000E+00  0.15868602893E+04  0.15868602893E+04  0.25500000920E-02 0.  1.
       -2   -1    0    0    0  501  0.00000000000E+00  0.00000000000E+00 -0.83809009519E+03  0.83809009520E+03  0.25500000920E-02 0. -1.
    10030    2    1    2    0    0  0.00000000000E+00  0.00000000000E+00  0.74877019408E+03  0.24249503845E+04  0.23064534601E+04 0.  0.
        4    1    3    3  502    0  0.59874948669E+03 -0.63770844309E+03 -0.41572766598E+03  0.96850612355E+03  0.12699999809E+01 0. -1.
       -4    1    3    3    0  502 -0.59874948669E+03  0.63770844309E+03  0.11644978601E+04  0.14564442609E+04  0.12699999809E+01 0.  1.
</event>
<event>
 5   0  0.1626636E-05  0.2307651E+04  0.7818609E-02  0.8474910E-01
       -2   -1    0    0    0  501  0.00000000000E+00  0.00000000000E+00  0.84497980634E+03  0.84497980635E+03  0.25500000920E-02 0.  1.
        2   -1    0    0  501    0  0.00000000000E+00  0.00000000000E+00 -0.15755565268E+04  0.15755565268E+04  0.25500000920E-02 0. -1.
    10030    2    1    2    0    0  0.00000000000E+00  0.00000000000E+00 -0.73057672049E+03  0.24205363332E+04  0.23076511426E+04 0.  0.
        4    1    3    3  502    0 -0.10596607286E+04  0.26787725550E+03 -0.75306569452E+03  0.13273087948E+04  0.12699999809E+01 0. -1.
       -4    1    3    3    0  502  0.10596607286E+04 -0.26787725550E+03  0.22488974033E+02  0.10932275383E+04  0.12699999809E+01 0.  1.
</event>
<event>
 5   0  0.7416556E-06  0.2280154E+04  0.7818609E-02  0.8485787E-01
       -1   -1    0    0    0  501  0.00000000000E+00  0.00000000000E+00  0.70905488020E+03  0.70905488022E+03  0.50400001928E-02 0. -1.
        1   -1    0    0  501    0  0.00000000000E+00  0.00000000000E+00 -0.18331107143E+04  0.18331107143E+04  0.50400001928E-02 0.  1.
    10030    2    1    2    0    0  0.00000000000E+00  0.00000000000E+00 -0.11240558341E+04  0.25421655945E+04  0.22801544667E+04 0.  0.
        4    1    3    3  502    0 -0.26956420213E+03 -0.29764136417E+03  0.62759618863E+03  0.74507303643E+03  0.12699999809E+01 0. -1.
       -4    1    3    3    0  502  0.26956420213E+03  0.29764136417E+03 -0.17516520227E+04  0.17970925581E+04  0.12699999809E+01 0.  1.
</event>
<event>
 5   0  0.7183014E-06  0.2302246E+04  0.7818609E-02  0.8477036E-01
        1   -1    0    0  501    0  0.00000000000E+00  0.00000000000E+00  0.10692220408E+04  0.10692220408E+04  0.50400001928E-02 0. -1.
       -1   -1    0    0    0  501  0.00000000000E+00  0.00000000000E+00 -0.12392977242E+04  0.12392977242E+04  0.50400001928E-02 0.  1.
    10030    2    1    2    0    0  0.00000000000E+00  0.00000000000E+00 -0.17007568342E+03  0.23085197650E+04  0.23022462438E+04 0.  0.
        3    1    3    3  502    0 -0.52578763389E+02 -0.25845174123E+03 -0.12085922083E+04  0.12370355553E+04  0.10100000352E+00 0.  1.
       -3    1    3    3    0  502  0.52578763389E+02  0.25845174123E+03  0.10385165249E+04  0.10714842097E+04  0.10100000352E+00 0. -1.
</event>
<event>
 5   0  0.7391007E-06  0.2302338E+04  0.7818609E-02  0.8477000E-01
       -1   -1    0    0    0  501  0.00000000000E+00  0.00000000000E+00  0.12467955488E+04  0.12467955488E+04  0.50400001928E-02 0. -1.
        1   -1    0    0  501    0  0.00000000000E+00  0.00000000000E+00 -0.10628766085E+04  0.10628766085E+04  0.50400001928E-02 0.  1.
    10030    2    1    2    0    0  0.00000000000E+00  0.00000000000E+00  0.18391894030E+03  0.23096721573E+04  0.23023377896E+04 0.  0.
        1    1    3    3  502    0  0.61524958628E+03  0.36496623418E+03  0.99675138127E+03  0.12268845592E+04  0.50400001928E-02 0. -1.
       -1    1    3    3    0  502 -0.61524958628E+03 -0.36496623418E+03 -0.81283244097E+03  0.10827875981E+04  0.50400001928E-02 0.  1.
</event>
<event>
 5   0  0.7416556E-06  0.2305168E+04  0.7818609E-02  0.8475886E-01
       -1   -1    0    0    0  501  0.00000000000E+00  0.00000000000E+00  0.13653752416E+04  0.13653752416E+04  0.50400001928E-02 0.  1.
        1   -1    0    0  501    0  0.00000000000E+00  0.00000000000E+00 -0.97295550816E+03  0.97295550818E+03  0.50400001928E-02 0. -1.
    10030    2    1    2    0    0  0.00000000000E+00  0.00000000000E+00  0.39241973346E+03  0.23383307498E+04  0.23051675532E+04 0.  0.
        4    1    3    3  502    0 -0.91310730847E+03 -0.14145747313E+03 -0.50266675549E+03  0.10518795813E+04  0.12699999809E+01 0. -1.
       -4    1    3    3    0  502  0.91310730847E+03  0.14145747313E+03  0.89508648895E+03  0.12864511686E+04  0.12699999809E+01 0.  1.
</event>
<event>
 5   0  0.7391007E-06  0.2300324E+04  0.7818609E-02  0.8477794E-01
        1   -1    0    0  501    0  0.00000000000E+00  0.00000000000E+00  0.14468702140E+04  0.14468702140E+04  0.50400001928E-02 0. -1.
       -1   -1    0    0    0  501  0.00000000000E+00  0.00000000000E+00 -0.91429917221E+03  0.91429917223E+03  0.50400001928E-02 0.  1.
    10030    2    1    2    0    0  0.00000000000E+00  0.00000000000E+00  0.53257104174E+03  0.23611693862E+04  0.23003236633E+04 0.  0.
        1    1    3    3  502    0  0.85409087985E+03 -0.76931758636E+03  0.30671595230E+03  0.11897039359E+04  0.50400001928E-02 0.  1.
       -1    1    3    3    0  502 -0.85409087985E+03  0.76931758636E+03  0.22585508944E+03  0.11714654503E+04  0.50400001928E-02 0. -1.
</event>
<event>
 5   0  0.1635955E-05  0.2297167E+04  0.7818609E-02  0.8479039E-01
       -2   -1    0    0    0  501  0.00000000000E+00  0.00000000000E+00  0.87589066149E+03  0.87589066149E+03  0.25500000920E-02 0.  1.
        2   -1    0    0  501    0  0.00000000000E+00  0.00000000000E+00 -0.15061746738E+04  0.15061746738E+04  0.25500000920E-02 0. -1.
    10030    2    1    2    0    0  0.00000000000E+00  0.00000000000E+00 -0.63028401232E+03  0.23820653353E+04  0.22971672393E+04 0.  0.
        2    1    3    3  502    0  0.10831095607E+04 -0.18408178676E+03 -0.66253353648E+03  0.12829509389E+04  0.25500000920E-02 0.  1.
       -2    1    3    3    0  502 -0.10831095607E+04  0.18408178676E+03  0.32249524161E+02  0.10991143964E+04  0.25500000920E-02 0. -1.
</event>
<event>
 5   0  0.7416556E-06  0.2329633E+04  0.7818609E-02  0.8466328E-01
        1   -1    0    0  501    0  0.00000000000E+00  0.00000000000E+00  0.15791834281E+04  0.15791834281E+04  0.50400001928E-02 0. -1.
       -1   -1    0    0    0  501  0.00000000000E+00  0.00000000000E+00 -0.85917647888E+03  0.85917647889E+03  0.50400001928E-02 0.  1.
    10030    2    1    2    0    0  0.00000000000E+00  0.00000000000E+00  0.72000694926E+03  0.24383599070E+04  0.23296328100E+04 0.  0.
        4    1    3    3  502    0  0.78552597026E+03  0.76375087744E+03  0.77397382333E+03  0.13414184824E+04  0.12699999809E+01 0. -1.
       -4    1    3    3    0  502 -0.78552597026E+03 -0.76375087744E+03 -0.53966874069E+02  0.10969414247E+04  0.12699999809E+01 0.  1.
</event>
<event>
 5   0  0.1635955E-05  0.2296062E+04  0.7818609E-02  0.8479476E-01
       -2   -1    0    0    0  501  0.00000000000E+00  0.00000000000E+00  0.82042569336E+03  0.82042569336E+03  0.25500000920E-02 0. -1.
        2   -1    0    0  501    0  0.00000000000E+00  0.00000000000E+00 -0.16064525012E+04  0.16064525012E+04  0.25500000920E-02 0.  1.
    10030    2    1    2    0    0  0.00000000000E+00  0.00000000000E+00 -0.78602680783E+03  0.24268781945E+04  0.22960617650E+04 0.  0.
        2    1    3    3  502    0  0.79331207055E+03 -0.81586671219E+03 -0.23274189762E+03  0.11615297346E+04  0.25500000920E-02 0. -1.
       -2    1    3    3    0  502 -0.79331207055E+03  0.81586671219E+03 -0.55328491021E+03  0.12653484600E+04  0.25500000920E-02 0.  1.
</event>
<event>
 5   0  0.7391007E-06  0.2297926E+04  0.7818609E-02  0.8478739E-01
       -1   -1    0    0    0  501  0.00000000000E+00  0.00000000000E+00  0.12089368463E+04  0.12089368463E+04  0.50400001928E-02 0.  1.
        1   -1    0    0  501    0  0.00000000000E+00  0.00000000000E+00 -0.10919645209E+04  0.10919645209E+04  0.50400001928E-02 0. -1.
    10030    2    1    2    0    0  0.00000000000E+00  0.00000000000E+00  0.11697232539E+03  0.23009013672E+04  0.22979261470E+04 0.  0.
        1    1    3    3  502    0  0.38089639151E+03 -0.11742377892E+03  0.11374925167E+04  0.12053047874E+04  0.50400001928E-02 0.  1.
       -1    1    3    3    0  502 -0.38089639151E+03  0.11742377892E+03 -0.10205201913E+04  0.10955965799E+04  0.50400001928E-02 0. -1.
</event>
<event>
 5   0  0.7183014E-06  0.2308568E+04  0.7818609E-02  0.8474551E-01
       -1   -1    0    0    0  501  0.00000000000E+00  0.00000000000E+00  0.53728774110E+03  0.53728774112E+03  0.50400001928E-02 0. -1.
        1   -1    0    0  501    0  0.00000000000E+00  0.00000000000E+00 -0.24798092147E+04  0.24798092147E+04  0.50400001928E-02 0.  1.
    10030    2    1    2    0    0  0.00000000000E+00  0.00000000000E+00 -0.19425214736E+04  0.30170969558E+04  0.23085676003E+04 0.  0.
        3    1    3    3  502    0 -0.47962985210E+03  0.29969857616E+03 -0.22863211309E+04  0.23552342464E+04  0.10100000352E+00 0.  1.
       -3    1    3    3    0  502  0.47962985210E+03 -0.29969857616E+03  0.34379965730E+03  0.66186270943E+03  0.10100000352E+00 0. -1.
</event>
<event>
 5   0  0.1635955E-05  0.2283083E+04  0.7818609E-02  0.8484621E-01
        2   -1    0    0  501    0  0.00000000000E+00  0.00000000000E+00  0.12495587058E+04  0.12495587058E+04  0.25500000920E-02 0.  1.
       -2   -1    0    0    0  501  0.00000000000E+00  0.00000000000E+00 -0.10428615551E+04  0.10428615551E+04  0.25500000920E-02 0. -1.
    10030    2    1    2    0    0  0.00000000000E+00  0.00000000000E+00  0.20669715070E+03  0.22924202608E+04  0.22830827712E+04 0.  0.
        2    1    3    3  502    0 -0.84159248497E+03 -0.65083597615E+03  0.51886633570E+03  0.11836754846E+04  0.25500000920E-02 0.  1.
       -2    1    3    3    0  502  0.84159248497E+03  0.65083597615E+03 -0.31216918500E+03  0.11087447762E+04  0.25500000920E-02 0. -1.
</event>
<event>
 5   0  0.1588969E-05  0.2297239E+04  0.7818609E-02  0.8479011E-01
       -2   -1    0    0    0  501  0.00000000000E+00  0.00000000000E+00  0.69710908217E+03  0.69710908217E+03  0.25500000920E-02 0.  1.
        2   -1    0    0  501    0  0.00000000000E+00  0.00000000000E+00 -0.18925680469E+04  0.18925680469E+04  0.25500000920E-02 0. -1.
    10030    2    1    2    0    0  0.00000000000E+00  0.00000000000E+00 -0.11954589648E+04  0.25896771291E+04  0.22972386677E+04 0.  0.
        1    1    3    3  502    0 -0.40655389314E+03  0.28770776516E+03 -0.17645065101E+04  0.18334516766E+04  0.50400001928E-02 0. -1.
       -1    1    3    3    0  502  0.40655389314E+03 -0.28770776516E+03  0.56904754534E+03  0.75622545252E+03  0.50400001928E-02 0.  1.
</event>
<event>
 5   0  0.1697855E-05  0.2296004E+04  0.7818609E-02  0.8479498E-01
        2   -1    0    0  501    0  0.00000000000E+00  0.00000000000E+00  0.24959962815E+04  0.24959962815E+04  0.25500000920E-02 0.  1.
       -2   -1    0    0    0  501  0.00000000000E+00  0.00000000000E+00 -0.52800899097E+03  0.52800899097E+03  0.25500000920E-02 0. -1.
    10030    2    1    2    0    0  0.00000000000E+00  0.00000000000E+00  0.19679872905E+04  0.30240052725E+04  0.22960039007E+04 0.  0.
        5    1    3    3  502    0 -0.67340229839E+03  0.43252851191E+03  0.20679495692E+04  0.22174284836E+04  0.46999998093E+01 0.  1.
       -5    1    3    3    0  502  0.67340229839E+03 -0.43252851191E+03 -0.99962278735E+02  0.80657678882E+03  0.46999998093E+01 0. -1.
</event>
<event>
 5   0  0.7416556E-06  0.2313480E+04  0.7818609E-02  0.8472625E-01
        1   -1    0    0  501    0  0.00000000000E+00  0.00000000000E+00  0.71859946118E+03  0.71859946119E+03  0.50400001928E-02 0.  1.
       -1   -1    0    0    0  501  0.00000000000E+00  0.00000000000E+00 -0.18620208212E+04  0.18620208212E+04  0.50400001928E-02 0. -1.
    10030    2    1    2    0    0  0.00000000000E+00  0.00000000000E+00 -0.11434213600E+04  0.25806202824E+04  0.23134797677E+04 0.  0.
        4    1    3    3  502    0  0.17416836988E+03 -0.11355614302E+04 -0.42117923087E+03  0.12236126594E+04  0.12699999809E+01 0.  1.
       -4    1    3    3    0  502 -0.17416836988E+03  0.11355614302E+04 -0.72224212916E+03  0.13570076230E+04  0.12699999809E+01 0. -1.
</event>
<event>
 5   0  0.7391007E-06  0.2306552E+04  0.7818609E-02  0.8475342E-01
       -1   -1    0    0    0  501  0.00000000000E+00  0.00000000000E+00  0.91471098125E+03  0.91471098127E+03  0.50400001928E-02 0. -1.
        1   -1    0    0  501    0  0.00000000000E+00  0.00000000000E+00 -0.14540608377E+04  0.14540608377E+04  0.50400001928E-02 0.  1.
    10030    2    1    2    0    0  0.00000000000E+00  0.00000000000E+00 -0.53934985646E+03  0.23687718190E+04  0.23065518990E+04 0.  0.
        1    1    3    3  502    0 -0.36709124687E+03 -0.54155965815E+03  0.70568269763E+03  0.96230500187E+03  0.50400001928E-02 0. -1.
       -1    1    3    3    0  502  0.36709124687E+03  0.54155965815E+03 -0.12450325541E+04  0.14064668171E+04  0.50400001928E-02 0.  1.
</event>
<event>
 5   0  0.7183014E-06  0.2294221E+04  0.7818609E-02  0.8480203E-01
       -1   -1    0    0    0  501  0.00000000000E+00  0.00000000000E+00  0.55314478760E+03  0.55314478762E+03  0.50400001928E-02 0. -1.
        1   -1    0    0  501    0  0.00000000000E+00  0.00000000000E+00 -0.23788749562E+04  0.23788749562E+04  0.50400001928E-02 0.  1.
    10030    2    1    2    0    0  0.00000000000E+00  0.00000000000E+00 -0.18257301686E+04  0.29320197438E+04  0.22942208110E+04 0.  0.
        3    1    3    3  502    0 -0.17519092263E+03  0.54686570605E+03 -0.21819596526E+04  0.22562583841E+04  0.10100000352E+00 0.  1.
       -3    1    3    3    0  502  0.17519092263E+03 -0.54686570605E+03  0.35622948404E+03  0.67576135974E+03  0.10100000352E+00 0. -1.
</event>
<event>
 5   0  0.1602809E-05  0.2135974E+04  0.7818609E-02  0.8545560E-01
        2   -1    0    0  501    0  0.00000000000E+00  0.00000000000E+00  0.14730732895E+04  0.14730732895E+04  0.25500000920E-02 0. -1.
       -2   -1    0    0    0  501  0.00000000000E+00  0.00000000000E+00 -0.77429718490E+03  0.77429718490E+03  0.25500000920E-02 0.  1.
    10030    2    1    2    0    0  0.00000000000E+00  0.00000000000E+00  0.69877610460E+03  0.22473704744E+04  0.21359742519E+04 0.  0.
        3    1    3    3  502    0 -0.66845747119E+03 -0.15507397212E+03  0.12104275527E+04  0.13914087100E+04  0.10100000352E+00 0. -1.
       -3    1    3    3    0  502  0.66845747119E+03  0.15507397212E+03 -0.51165144811E+03  0.85596176443E+03  0.10100000352E+00 0.  1.
</event>
<event>
 5   0  0.1635955E-05  0.2303123E+04  0.7818609E-02  0.8476691E-01
        2   -1    0    0  501    0  0.00000000000E+00  0.00000000000E+00  0.24149257998E+04  0.24149257998E+04  0.25500000920E-02 0. -1.
       -2   -1    0    0    0  501  0.00000000000E+00  0.00000000000E+00 -0.54912401988E+03  0.54912401989E+03  0.25500000920E-02 0.  1.
    10030    2    1    2    0    0  0.00000000000E+00  0.00000000000E+00  0.18658017799E+04  0.29640498197E+04  0.23031228911E+04 0.  0.
        2    1    3    3  502    0 -0.49930877388E+03  0.10291921251E+04  0.76241705769E+03  0.13747092245E+04  0.25500000920E-02 0.  1.
       -2    1    3    3    0  502  0.49930877388E+03 -0.10291921251E+04  0.11033847222E+04  0.15893405951E+04  0.25500000920E-02 0. -1.
</event>
<event>
 5   0  0.7202572E-06  0.2309844E+04  0.7818609E-02  0.8474050E-01
       -1   -1    0    0    0  501  0.00000000000E+00  0.00000000000E+00  0.11271045621E+04  0.11271045621E+04  0.50400001928E-02 0. -1.
        1   -1    0    0  501    0  0.00000000000E+00  0.00000000000E+00 -0.11834264620E+04  0.11834264620E+04  0.50400001928E-02 0.  1.
    10030    2    1    2    0    0  0.00000000000E+00  0.00000000000E+00 -0.56321899898E+02  0.23105310241E+04  0.23098444660E+04 0.  0.
        2    1    3    3  502    0  0.72538722504E+03  0.89408557717E+03 -0.11912597308E+03  0.11574828910E+04  0.25500000920E-02 0.  1.
       -2    1    3    3    0  502 -0.72538722504E+03 -0.89408557717E+03  0.62804073182E+02  0.11530481331E+04  0.25500000920E-02 0. -1.
</event>
<event>
 5   0  0.7202572E-06  0.2291414E+04  0.7818609E-02  0.8481314E-01
       -1   -1    0    0    0  501  0.00000000000E+00  0.00000000000E+00  0.88869499173E+03  0.88869499175E+03  0.50400001928E-02 0. -1.
        1   -1    0    0  501    0  0.00000000000E+00  0.00000000000E+00 -0.14770468199E+04  0.14770468199E+04  0.50400001928E-02 0.  1.
    10030    2    1    2    0    0  0.00000000000E+00  0.00000000000E+00 -0.58835182820E+03  0.23657418117E+04  0.22914136348E+04 0.  0.
        2    1    3    3  502    0 -0.40314448591E+03  0.78887805204E+03 -0.10442332336E+04  0.13694075740E+04  0.25500000920E-02 0. -1.
       -2    1    3    3    0  502  0.40314448591E+03 -0.78887805204E+03  0.45588140537E+03  0.99633423773E+03  0.25500000920E-02 0.  1.
</event>
<event>
 5   0  0.1626636E-05  0.2298855E+04  0.7818609E-02  0.8478373E-01
        2   -1    0    0  501    0  0.00000000000E+00  0.00000000000E+00  0.78904148489E+03  0.78904148490E+03  0.25500000920E-02 0. -1.
       -2   -1    0    0    0  501  0.00000000000E+00  0.00000000000E+00 -0.16744155488E+04  0.16744155488E+04  0.25500000920E-02 0.  1.
    10030    2    1    2    0    0  0.00000000000E+00  0.00000000000E+00 -0.88537406393E+03  0.24634570337E+04  0.22988547853E+04 0.  0.
        4    1    3    3  502    0 -0.31296089696E+03 -0.33521384157E+02 -0.16273347613E+04  0.16574945684E+04  0.12699999809E+01 0.  1.
       -4    1    3    3    0  502  0.31296089696E+03  0.33521384157E+02  0.74196069732E+03  0.80596246531E+03  0.12699999809E+01 0. -1.
</event>
<event>
 5   0  0.7183014E-06  0.2298474E+04  0.7818609E-02  0.8478523E-01
       -1   -1    0    0    0  501  0.00000000000E+00  0.00000000000E+00  0.11274813466E+04  0.11274813466E+04  0.50400001928E-02 0. -1.
        1   -1    0    0  501    0  0.00000000000E+00  0.00000000000E+00 -0.11714122954E+04  0.11714122954E+04  0.50400001928E-02 0.  1.
    10030    2    1    2    0    0  0.00000000000E+00  0.00000000000E+00 -0.43930948741E+02  0.22988936420E+04  0.22984738522E+04 0.  0.
        3    1    3    3  502    0 -0.10546735921E+03 -0.78049088371E+03  0.81511994694E+03  0.11334504495E+04  0.10100000352E+00 0. -1.
       -3    1    3    3    0  502  0.10546735921E+03  0.78049088371E+03 -0.85905089568E+03  0.11654431925E+04  0.10100000352E+00 0.  1.
</event>
<event>
 5   0  0.1588969E-05  0.2300283E+04  0.7818609E-02  0.8477809E-01
        2   -1    0    0  501    0  0.00000000000E+00  0.00000000000E+00  0.14633113596E+04  0.14633113596E+04  0.25500000920E-02 0. -1.
       -2   -1    0    0    0  501  0.00000000000E+00  0.00000000000E+00 -0.90399465137E+03  0.90399465137E+03  0.25500000920E-02 0.  1.
    10030    2    1    2    0    0  0.00000000000E+00  0.00000000000E+00  0.55931670825E+03  0.23673060110E+04  0.23002831499E+04 0.  0.
        1    1    3    3  502    0 -0.10630476035E+04  0.30359853721E+02 -0.17109147494E+03  0.10771556159E+04  0.50400001928E-02 0.  1.
       -1    1    3    3    0  502  0.10630476035E+04 -0.30359853721E+02  0.73040818319E+03  0.12901503951E+04  0.50400001928E-02 0. -1.
</event>
<event>
 5   0  0.7202572E-06  0.2300660E+04  0.7818609E-02  0.8477661E-01
       -1   -1    0    0    0  501  0.00000000000E+00  0.00000000000E+00  0.15639609373E+04  0.15639609373E+04  0.50400001928E-02 0.  1.
        1   -1    0    0  501    0  0.00000000000E+00  0.00000000000E+00 -0.84609487230E+03  0.84609487232E+03  0.50400001928E-02 0. -1.
    10030    2    1    2    0    0  0.00000000000E+00  0.00000000000E+00  0.71786606502E+03  0.24100558096E+04  0.23006601918E+04 0.  0.
        2    1    3    3  502    0  0.11116319486E+03 -0.28960601232E+03  0.15193185197E+04  0.15506636201E+04  0.25500000920E-02 0.  1.
       -2    1    3    3    0  502 -0.11116319486E+03  0.28960601232E+03 -0.80145245472E+03  0.85939218955E+03  0.25500000920E-02 0. -1.
</event>
<event>
 5   0  0.7416556E-06  0.2302782E+04  0.7818609E-02  0.8476825E-01
        1   -1    0    0  501    0  0.00000000000E+00  0.00000000000E+00  0.89927473310E+03  0.89927473311E+03  0.50400001928E-02 0. -1.
       -1   -1    0    0    0  501  0.00000000000E+00  0.00000000000E+00 -0.14741896961E+04  0.14741896962E+04  0.50400001928E-02 0.  1.
    10030    2    1    2    0    0  0.00000000000E+00  0.00000000000E+00 -0.57491496305E+03  0.23734644293E+04  0.23027822698E+04 0.  0.
        4    1    3    3  502    0  0.70217127994E+03  0.91234054867E+03 -0.30501409695E+03  0.11909848846E+04  0.12699999809E+01 0. -1.
       -4    1    3    3    0  502 -0.70217127994E+03 -0.91234054867E+03 -0.26990086611E+03  0.11824795447E+04  0.12699999809E+01 0.  1.
</event>
<event>
 5   0  0.1626636E-05  0.2292677E+04  0.7818609E-02  0.8480814E-01
       -2   -1    0    0    0  501  0.00000000000E+00  0.00000000000E+00  0.76604074808E+03  0.76604074808E+03  0.25500000920E-02 0. -1.
        2   -1    0    0  501    0  0.00000000000E+00  0.00000000000E+00 -0.17154333149E+04  0.17154333149E+04  0.25500000920E-02 0.  1.
    10030    2    1    2    0    0  0.00000000000E+00  0.00000000000E+00 -0.94939256683E+03  0.24814740630E+04  0.22926768807E+04 0.  0.
        4    1    3    3  502    0 -0.12065139678E+03 -0.34125177445E+03 -0.16519608387E+04  0.16911492420E+04  0.12699999809E+01 0.  1.
       -4    1    3    3    0  502  0.12065139678E+03  0.34125177445E+03  0.70256827190E+03  0.79032482100E+03  0.12699999809E+01 0. -1.
</event>
<event>
 5   0  0.1635955E-05  0.2300714E+04  0.7818609E-02  0.8477640E-01
        2   -1    0    0  501    0  0.00000000000E+00  0.00000000000E+00  0.18475383275E+04  0.18475383275E+04  0.25500000920E-02 0.  1.
       -2   -1    0    0    0  501  0.00000000000E+00  0.00000000000E+00 -0.71626198776E+03  0.71626198776E+03  0.25500000920E-02 0. -1.
    10030    2    1    2    0    0  0.00000000000E+00  0.00000000000E+00  0.11312763397E+04  0.25638003153E+04  0.23007142151E+04 0.  0.
        2    1    3    3  502    0  0.95564040030E+03 -0.18060273155E+03  0.12502658130E+04  0.15839919585E+04  0.25500000920E-02 0.  1.
       -2    1    3    3    0  502 -0.95564040030E+03  0.18060273155E+03 -0.11898947324E+03  0.97980835681E+03  0.25500000920E-02 0. -1.
</event>
<event>
 5   0  0.7278815E-06  0.2296715E+04  0.7818609E-02  0.8479217E-01
        1   -1    0    0  501    0  0.00000000000E+00  0.00000000000E+00  0.19583333250E+04  0.19583333250E+04  0.50400001928E-02 0.  1.
       -1   -1    0    0    0  501  0.00000000000E+00  0.00000000000E+00 -0.67339161400E+03  0.67339161402E+03  0.50400001928E-02 0. -1.
    10030    2    1    2    0    0  0.00000000000E+00  0.00000000000E+00  0.12849417110E+04  0.26317249390E+04  0.22967152531E+04 0.  0.
        5    1    3    3  502    0  0.21714994061E+03  0.94842071933E+03 -0.56457010919E+02  0.97461040505E+03  0.46999998093E+01 0. -1.
       -5    1    3    3    0  502 -0.21714994061E+03 -0.94842071933E+03  0.13413987219E+04  0.16571145340E+04  0.46999998093E+01 0.  1.
</event>
<event>
 5   0  0.1697855E-05  0.2296881E+04  0.7818609E-02  0.8479152E-01
       -2   -1    0    0    0  501  0.00000000000E+00  0.00000000000E+00  0.11152390681E+04  0.11152390681E+04  0.25500000920E-02 0. -1.
        2   -1    0    0  501    0  0.00000000000E+00  0.00000000000E+00 -0.11826307710E+04  0.11826307710E+04  0.25500000920E-02 0.  1.
    10030    2    1    2    0    0  0.00000000000E+00  0.00000000000E+00 -0.67391702922E+02  0.22978698391E+04  0.22968813979E+04 0.  0.
        5    1    3    3  502    0  0.19892490558E+03  0.68267461174E+03 -0.93590332716E+03  0.11753947726E+04  0.46999998093E+01 0.  1.
       -5    1    3    3    0  502 -0.19892490558E+03 -0.68267461174E+03  0.86851162424E+03  0.11224750665E+04  0.46999998093E+01 0. -1.
</event>
<event>
 5   0  0.1635955E-05  0.2260452E+04  0.7818609E-02  0.8493679E-01
        2   -1    0    0  501    0  0.00000000000E+00  0.00000000000E+00  0.14230708225E+04  0.14230708226E+04  0.25500000920E-02 0.  1.
       -2   -1    0    0    0  501  0.00000000000E+00  0.00000000000E+00 -0.89764412595E+03  0.89764412595E+03  0.25500000920E-02 0. -1.
    10030    2    1    2    0    0  0.00000000000E+00  0.00000000000E+00  0.52542669660E+03  0.23207149485E+04  0.22604523129E+04 0.  0.
        2    1    3    3  502    0  0.29247805121E+03 -0.10835364931E+04  0.12567670858E+03  0.11293313851E+04  0.25500000920E-02 0. -1.
       -2    1    3    3    0  502 -0.29247805121E+03  0.10835364931E+04  0.39974998803E+03  0.11913835634E+04  0.25500000920E-02 0.  1.
</event>
<event>
 5   0  0.1697855E-05  0.2287736E+04  0.7818609E-02  0.8482772E-01
        2   -1    0    0  501    0  0.00000000000E+00  0.00000000000E+00  0.13249454179E+04  0.13249454179E+04  0.25500000920E-02 0. -1.
       -2   -1    0    0    0  501  0.00000000000E+00  0.00000000000E+00 -0.98753799064E+03  0.98753799064E+03  0.25500000920E-02 0.  1.
    10030    2    1    2    0    0  0.00000000000E+00  0.00000000000E+00  0.33740742729E+03  0.23124834086E+04  0.22877359426E+04 0.  0.
        5    1    3    3  502    0 -0.69229307796E+03  0.57028001747E+03 -0.54885055478E+03  0.10515455414E+04  0.46999998093E+01 0.  1.
       -5    1    3    3    0  502  0.69229307796E+03 -0.57028001747E+03  0.88625798207E+03  0.12609378672E+04  0.46999998093E+01 0. -1.
</event>
<event>
 5   0  0.7183014E-06  0.2299747E+04  0.7818609E-02  0.8478021E-01
       -1   -1    0    0    0  501  0.00000000000E+00  0.00000000000E+00  0.10662162307E+04  0.10662162307E+04  0.50400001928E-02 0.  1.
        1   -1    0    0  501    0  0.00000000000E+00  0.00000000000E+00 -0.12400950972E+04  0.12400950973E+04  0.50400001928E-02 0. -1.
    10030    2    1    2    0    0  0.00000000000E+00  0.00000000000E+00 -0.17387886653E+03  0.23063113280E+04  0.22997473951E+04 0.  0.
        3    1    3    3  502    0  0.78972095427E+03  0.83258636631E+03 -0.13585141056E+02  0.11476252913E+04  0.10100000352E+00 0.  1.
       -3    1    3    3    0  502 -0.78972095427E+03 -0.83258636631E+03 -0.16029372548E+03  0.11586860367E+04  0.10100000352E+00 0. -1.
</event>
<event>
 5   0  0.1588969E-05  0.2283131E+04  0.7818609E-02  0.8484602E-01
        2   -1    0    0  501    0  0.00000000000E+00  0.00000000000E+00  0.10615138712E+04  0.10615138712E+04  0.25500000920E-02 0.  1.
       -2   -1    0    0    0  501  0.00000000000E+00  0.00000000000E+00 -0.12276544222E+04  0.12276544222E+04  0.25500000920E-02 0. -1.
    10030    2    1    2    0    0  0.00000000000E+00  0.00000000000E+00 -0.16614055100E+03  0.22891682935E+04  0.22831313570E+04 0.  0.
        1    1    3    3  502    0 -0.96988463841E+03  0.39329227612E+03 -0.54014534977E+03  0.11777572013E+04  0.50400001928E-02 0. -1.
       -1    1    3    3    0  502  0.96988463841E+03 -0.39329227612E+03  0.37400479877E+03  0.11114110922E+04  0.50400001928E-02 0.  1.
</event>
<event>
 5   0  0.7183014E-06  0.2282482E+04  0.7818609E-02  0.8484860E-01
        1   -1    0    0  501    0  0.00000000000E+00  0.00000000000E+00  0.10305990541E+04  0.10305990542E+04  0.50400001928E-02 0.  1.
       -1   -1    0    0    0  501  0.00000000000E+00  0.00000000000E+00 -0.12637616580E+04  0.12637616580E+04  0.50400001928E-02 0. -1.
    10030    2    1    2    0    0  0.00000000000E+00  0.00000000000E+00 -0.23316260387E+03  0.22943607122E+04  0.22824824814E+04 0.  0.
        3    1    3    3  502    0 -0.10504655524E+04  0.33148466533E+03 -0.41658310777E+03  0.11776678038E+04  0.10100000352E+00 0. -1.
       -3    1    3    3    0  502  0.10504655524E+04 -0.33148466533E+03  0.18342050390E+03  0.11166929084E+04  0.10100000352E+00 0.  1.
</event>
<event>
 5   0  0.1635955E-05  0.2300377E+04  0.7818609E-02  0.8477773E-01
        2   -1    0    0  501    0  0.00000000000E+00  0.00000000000E+00  0.17597507353E+04  0.17597507353E+04  0.25500000920E-02 0.  1.
       -2   -1    0    0    0  501  0.00000000000E+00  0.00000000000E+00 -0.75177323728E+03  0.75177323729E+03  0.25500000920E-02 0. -1.
    10030    2    1    2    0    0  0.00000000000E+00  0.00000000000E+00  0.10079774980E+04  0.25115239726E+04  0.23003769318E+04 0.  0.
        2    1    3    3  502    0 -0.45959054471E+03  0.57811156293E+03  0.14666814998E+04  0.16421300404E+04  0.25500000920E-02 0.  1.
       -2    1    3    3    0  502  0.45959054471E+03 -0.57811156293E+03 -0.45870400177E+03  0.86939393213E+03  0.25500000920E-02 0. -1.
</event>
<event>
 5   0  0.1602809E-05  0.2308009E+04  0.7818609E-02  0.8474770E-01
        2   -1    0    0  501    0  0.00000000000E+00  0.00000000000E+00  0.10833623792E+04  0.10833623792E+04  0.25500000920E-02 0.  1.
       -2   -1    0    0    0  501  0.00000000000E+00  0.00000000000E+00 -0.12292530226E+04  0.12292530226E+04  0.25500000920E-02 0. -1.
    10030    2    1    2    0    0  0.00000000000E+00  0.00000000000E+00 -0.14589064341E+03  0.23126154017E+04  0.23080090807E+04 0.  0.
        3    1    3    3  502    0 -0.44444324055E+03  0.10627161068E+04 -0.33001178528E+01  0.11519141542E+04  0.10100000352E+00 0. -1.
       -3    1    3    3    0  502  0.44444324055E+03 -0.10627161068E+04 -0.14259052555E+03  0.11607012475E+04  0.10100000352E+00 0.  1.
</event>
<event>
 5   0  0.1588969E-05  0.2295280E+04  0.7818609E-02  0.8479784E-01
        2   -1    0    0  501    0  0.00000000000E+00  0.00000000000E+00  0.13997803317E+04  0.13997803317E+04  0.25500000920E-02 0. -1.
       -2   -1    0    0    0  501  0.00000000000E+00  0.00000000000E+00 -0.94091757861E+03  0.94091757862E+03  0.25500000920E-02 0.  1.
    10030    2    1    2    0    0  0.00000000000E+00  0.00000000000E+00  0.45886275306E+03  0.23406979103E+04  0.22952803056E+04 0.  0.
        1    1    3    3  502    0 -0.84288488085E+03 -0.76743855112E+03  0.36495597214E+03  0.11969167531E+04  0.50400001928E-02 0. -1.
       -1    1    3    3    0  502  0.84288488085E+03  0.76743855112E+03  0.93906780913E+02  0.11437811572E+04  0.50400001928E-02 0.  1.
</event>
<event>
 5   0  0.1697855E-05  0.2287481E+04  0.7818609E-02  0.8482874E-01
       -2   -1    0    0    0  501  0.00000000000E+00  0.00000000000E+00  0.12994647386E+04  0.12994647386E+04  0.25500000920E-02 0. -1.
        2   -1    0    0  501    0  0.00000000000E+00  0.00000000000E+00 -0.10066774585E+04  0.10066774585E+04  0.25500000920E-02 0.  1.
    10030    2    1    2    0    0  0.00000000000E+00  0.00000000000E+00  0.29278728010E+03  0.23061421971E+04  0.22874805883E+04 0.  0.
        5    1    3    3  502    0  0.70570674735E+03  0.45248223709E+03 -0.63800107406E+03  0.10534845270E+04  0.46999998093E+01 0.  1.
       -5    1    3    3    0  502 -0.70570674735E+03 -0.45248223709E+03  0.93078835416E+03  0.12526576701E+04  0.46999998093E+01 0. -1.
</event>
<event>
 5   0  0.7416556E-06  0.2298985E+04  0.7818609E-02  0.8478321E-01
        1   -1    0    0  501    0  0.00000000000E+00  0.00000000000E+00  0.15145791170E+04  0.15145791170E+04  0.50400001928E-02 0. -1.
       -1   -1    0    0    0  501  0.00000000000E+00  0.00000000000E+00 -0.87240968181E+03  0.87240968183E+03  0.50400001928E-02 0.  1.
    10030    2    1    2    0    0  0.00000000000E+00  0.00000000000E+00  0.64216943522E+03  0.23869887989E+04  0.22989854159E+04 0.  0.
        4    1    3    3  502    0  0.83973959131E+03 -0.26630838668E+03 -0.44559090989E+03  0.98723634957E+03  0.12699999809E+01 0.  1.
       -4    1    3    3    0  502 -0.83973959131E+03  0.26630838668E+03  0.10877603451E+04  0.13997524493E+04  0.12699999809E+01 0. -1.
</event>
<event>
 5   0  0.7278815E-06  0.2295805E+04  0.7818609E-02  0.8479577E-01
       -1   -1    0    0    0  501  0.00000000000E+00  0.00000000000E+00  0.82599937173E+03  0.82599937175E+03  0.50400001928E-02 0. -1.
        1   -1    0    0  501    0  0.00000000000E+00  0.00000000000E+00 -0.15952555751E+04  0.15952555751E+04  0.50400001928E-02 0.  1.
    10030    2    1    2    0    0  0.00000000000E+00  0.00000000000E+00 -0.76925620332E+03  0.24212549468E+04  0.22958049593E+04 0.  0.
        5    1    3    3  502    0  0.23118020656E+03  0.10615911985E+04  0.60710675271E+01  0.10864985543E+04  0.46999998093E+01 0. -1.
       -5    1    3    3    0  502 -0.23118020656E+03 -0.10615911985E+04 -0.77532727085E+03  0.13347563926E+04  0.46999998093E+01 0.  1.
</event>
<event>
 5   0  0.1626636E-05  0.2303347E+04  0.7818609E-02  0.8476603E-01
        2   -1    0    0  501    0  0.00000000000E+00  0.00000000000E+00  0.25168119186E+04  0.25168119186E+04  0.25500000920E-02 0.  1.
       -2   -1    0    0    0  501  0.00000000000E+00  0.00000000000E+00 -0.52699684511E+03  0.52699684512E+03  0.25500000920E-02 0. -1.
    10030    2    1    2    0    0  0.00000000000E+00  0.00000000000E+00  0.19898150735E+04  0.30438087637E+04  0.23033470784E+04 0.  0.
        4    1    3    3  502    0 -0.16057258793E+03 -0.25808196690E+02  0.25015599417E+04  0.25068413140E+04  0.12699999809E+01 0.  1.
       -4    1    3    3    0  502  0.16057258793E+03  0.25808196690E+02 -0.51174486819E+03  0.53696744969E+03  0.12699999809E+01 0. -1.
</event>
<event>
 5   0  0.7416556E-06  0.2301568E+04  0.7818609E-02  0.8477303E-01
       -1   -1    0    0    0  501  0.00000000000E+00  0.00000000000E+00  0.14395673395E+04  0.14395673395E+04  0.50400001928E-02 0. -1.
        1   -1    0    0  501    0  0.00000000000E+00  0.00000000000E+00 -0.91993170308E+03  0.91993170309E+03  0.50400001928E-02 0.  1.
    10030    2    1    2    0    0  0.00000000000E+00  0.00000000000E+00  0.51963563640E+03  0.23594990426E+04  0.23015678433E+04 0.  0.
        4    1    3    3  502    0 -0.13731555952E+03 -0.51330834427E+03 -0.78664007168E+03  0.94928669771E+03  0.12699999809E+01 0.  1.
       -4    1    3    3    0  502  0.13731555952E+03  0.51330834427E+03  0.13062757081E+04  0.14102123449E+04  0.12699999809E+01 0. -1.
</event>
<event>
 5   0  0.7391007E-06  0.2305052E+04  0.7818609E-02  0.8475932E-01
        1   -1    0    0  501    0  0.00000000000E+00  0.00000000000E+00  0.24119367661E+04  0.24119367661E+04  0.50400001928E-02 0.  1.
       -1   -1    0    0    0  501  0.00000000000E+00  0.00000000000E+00 -0.55072579934E+03  0.55072579936E+03  0.50400001928E-02 0. -1.
    10030    2    1    2    0    0  0.00000000000E+00  0.00000000000E+00  0.18612109667E+04  0.29626625655E+04  0.23050516727E+04 0.  0.
        1    1    3    3  502    0  0.69576508116E+02 -0.11383531391E+04  0.71697229024E+03  0.13471221269E+04  0.50400001928E-02 0. -1.
       -1    1    3    3    0  502 -0.69576508116E+02  0.11383531391E+04  0.11442386765E+04  0.16155404386E+04  0.50400001928E-02 0.  1.
</event>
<event>
 5   0  0.1588969E-05  0.2307105E+04  0.7818609E-02  0.8475125E-01
        2   -1    0    0  501    0  0.00000000000E+00  0.00000000000E+00  0.12559334619E+04  0.12559334619E+04  0.25500000920E-02 0. -1.
       -2   -1    0    0    0  501  0.00000000000E+00  0.00000000000E+00 -0.10595176462E+04  0.10595176462E+04  0.25500000920E-02 0.  1.
    10030    2    1    2    0    0  0.00000000000E+00  0.00000000000E+00  0.19641581570E+03  0.23154511081E+04  0.23071052558E+04 0.  0.
        1    1    3    3  502    0  0.96407577928E+03  0.17279873319E+03  0.70982374498E+03  0.12096078949E+04  0.50400001928E-02 0. -1.
       -1    1    3    3    0  502 -0.96407577928E+03 -0.17279873319E+03 -0.51340792928E+03  0.11058432132E+04  0.50400001928E-02 0.  1.
</event>
<event>
 5   0  0.7278815E-06  0.2277945E+04  0.7818609E-02  0.8486668E-01
        1   -1    0    0  501    0  0.00000000000E+00  0.00000000000E+00  0.13606105511E+04  0.13606105512E+04  0.50400001928E-02 0.  1.
       -1   -1    0    0    0  501  0.00000000000E+00  0.00000000000E+00 -0.95343836095E+03  0.95343836096E+03  0.50400001928E-02 0. -1.
    10030    2    1    2    0    0  0.00000000000E+00  0.00000000000E+00  0.40717219020E+03  0.23140489121E+04  0.22779449456E+04 0.  0.
        5    1    3    3  502    0  0.54033362172E+03 -0.72807476819E+03 -0.49667454837E+03  0.10338089707E+04  0.46999998093E+01 0. -1.
       -5    1    3    3    0  502 -0.54033362172E+03  0.72807476819E+03  0.90384673857E+03  0.12802399414E+04  0.46999998093E+01 0.  1.
</event>
<event>
 5   0  0.1626636E-05  0.2312046E+04  0.7818609E-02  0.8473187E-01
       -2   -1    0    0    0  501  0.00000000000E+00  0.00000000000E+00  0.90439797224E+03  0.90439797224E+03  0.25500000920E-02 0.  1.
        2   -1    0    0  501    0  0.00000000000E+00  0.00000000000E+00 -0.14776559866E+04  0.14776559866E+04  0.25500000920E-02 0. -1.
    10030    2    1    2    0    0  0.00000000000E+00  0.00000000000E+00 -0.57325801439E+03  0.23820539589E+04  0.23120459147E+04 0.  0.
        4    1    3    3  502    0 -0.69260218230E+03  0.87075301131E+03 -0.60994462284E+03  0.12688351530E+04  0.12699999809E+01 0. -1.
       -4    1    3    3    0  502  0.69260218230E+03 -0.87075301131E+03  0.36686608454E+02  0.11132188059E+04  0.12699999809E+01 0.  1.
</event>
<event>
 5   0  0.1588969E-05  0.2299321E+04  0.7818609E-02  0.8478189E-01
       -2   -1    0    0    0  501  0.00000000000E+00  0.00000000000E+00  0.86701164963E+03  0.86701164963E+03  0.25500000920E-02 0. -1.
        2   -1    0    0  501    0  0.00000000000E+00  0.00000000000E+00 -0.15244540525E+04  0.15244540525E+04  0.25500000920E-02 0.  1.
    10030    2    1    2    0    0  0.00000000000E+00  0.00000000000E+00 -0.65744240283E+03  0.23914657021E+04  0.22993211370E+04 0.  0.
        1    1    3    3  502    0 -0.10586735229E+03 -0.15747806975E+03 -0.15080540756E+04  0.15199455035E+04  0.50400001928E-02 0.  1.
       -1    1    3    3    0  502  0.10586735229E+03  0.15747806975E+03  0.85061167274E+03  0.87152019859E+03  0.50400001928E-02 0. -1.
</event>
<event>
 5   0  0.1602809E-05  0.2308649E+04  0.7818609E-02  0.8474519E-01
        2   -1    0    0  501    0  0.00000000000E+00  0.00000000000E+00  0.82456415325E+03  0.82456415326E+03  0.25500000920E-02 0.  1.
       -2   -1    0    0    0  501  0.00000000000E+00  0.00000000000E+00 -0.16159630314E+04  0.16159630314E+04  0.25500000920E-02 0. -1.
    10030    2    1    2    0    0  0.00000000000E+00  0.00000000000E+00 -0.79139887811E+03  0.24405271846E+04  0.23086491190E+04 0.  0.
        3    1    3    3  502    0  0.99565247366E+03 -0.44716144135E+02  0.21992574305E+03  0.10206325120E+04  0.10100000352E+00 0.  1.
       -3    1    3    3    0  502 -0.99565247366E+03  0.44716144135E+02 -0.10113246212E+04  0.14198946726E+04  0.10100000352E+00 0. -1.
</event>
<event>
 5   0  0.1635955E-05  0.2294896E+04  0.7818609E-02  0.8479936E-01
       -2   -1    0    0    0  501  0.00000000000E+00  0.00000000000E+00  0.63844975267E+03  0.63844975267E+03  0.25500000920E-02 0. -1.
        2   -1    0    0  501    0  0.00000000000E+00  0.00000000000E+00 -0.20622405610E+04  0.20622405610E+04  0.25500000920E-02 0.  1.
    10030    2    1    2    0    0  0.00000000000E+00  0.00000000000E+00 -0.14237908084E+04  0.27006903137E+04  0.22948960553E+04 0.  0.
        2    1    3    3  502    0  0.77297018713E+03 -0.13750896763E+03  0.27287929926E+03  0.83117671908E+03  0.25500000920E-02 0. -1.
       -2    1    3    3    0  502 -0.77297018713E+03  0.13750896763E+03 -0.16966701076E+04  0.18695135946E+04  0.25500000920E-02 0.  1.
</event>
<event>
 5   0  0.1588969E-05  0.2289200E+04  0.7818609E-02  0.8482191E-01
        2   -1    0    0  501    0  0.00000000000E+00  0.00000000000E+00  0.95715099860E+03  0.95715099861E+03  0.25500000920E-02 0. -1.
       -2   -1    0    0    0  501  0.00000000000E+00  0.00000000000E+00 -0.13687594870E+04  0.13687594870E+04  0.25500000920E-02 0.  1.
    10030    2    1    2    0    0  0.00000000000E+00  0.00000000000E+00 -0.41160848844E+03  0.23259104857E+04  0.22892003057E+04 0.  0.
        1    1    3    3  502    0 -0.28786653013E+03  0.10448958534E+04 -0.57972080399E+03  0.12291259880E+04  0.50400001928E-02 0.  1.
       -1    1    3    3    0  502  0.28786653013E+03 -0.10448958534E+04  0.16811231555E+03  0.10967844977E+04  0.50400001928E-02 0. -1.
</event>
<event>
 5   0  0.1602809E-05  0.2302387E+04  0.7818609E-02  0.8476981E-01
       -2   -1    0    0    0  501  0.00000000000E+00  0.00000000000E+00  0.81644031950E+03  0.81644031950E+03  0.25500000920E-02 0. -1.
        2   -1    0    0  501    0  0.00000000000E+00  0.00000000000E+00 -0.16232005088E+04  0.16232005088E+04  0.25500000920E-02 0.  1.
    10030    2    1    2    0    0  0.00000000000E+00  0.00000000000E+00 -0.80676018931E+03  0.24396408283E+04  0.23023868850E+04 0.  0.
        3    1    3    3  502    0  0.37719740109E+03  0.19962316097E+03 -0.15362846433E+04  0.15944584664E+04  0.10100000352E+00 0.  1.
       -3    1    3    3    0  502 -0.37719740109E+03 -0.19962316097E+03  0.72952445394E+03  0.84518236191E+03  0.10100000352E+00 0. -1.
</event>
<event>
 5   0  0.1635955E-05  0.2299134E+04  0.7818609E-02  0.8478263E-01
       -2   -1    0    0    0  501  0.00000000000E+00  0.00000000000E+00  0.96365476640E+03  0.96365476640E+03  0.25500000920E-02 0. -1.
        2   -1    0    0  501    0  0.00000000000E+00  0.00000000000E+00 -0.13713456065E+04  0.13713456065E+04  0.25500000920E-02 0.  1.
    10030    2    1    2    0    0  0.00000000000E+00  0.00000000000E+00 -0.40769084012E+03  0.23350003729E+04  0.22991335151E+04 0.  0.
        2    1    3    3  502    0  0.89379773774E+03  0.39840259057E+03 -0.81650129188E+03  0.12744698426E+04  0.25500000920E-02 0.  1.
       -2    1    3    3    0  502 -0.89379773774E+03 -0.39840259057E+03  0.40881045177E+03  0.10605305303E+04  0.25500000920E-02 0. -1.
</event>
<event>
 5   0  0.7183014E-06  0.2298330E+04  0.7818609E-02  0.8478580E-01
        1   -1    0    0  501    0  0.00000000000E+00  0.00000000000E+00  0.17320915959E+04  0.17320915959E+04  0.50400001928E-02 0. -1.
       -1   -1    0    0    0  501  0.00000000000E+00  0.00000000000E+00 -0.76241919532E+03  0.76241919534E+03  0.50400001928E-02 0.  1.
    10030    2    1    2    0    0  0.00000000000E+00  0.00000000000E+00  0.96967240058E+03  0.24945107913E+04  0.22983297247E+04 0.  0.
        3    1    3    3  502    0 -0.77425787042E+03 -0.52441019729E+03 -0.24008110364E+03  0.96546374943E+03  0.10100000352E+00 0.  1.
       -3    1    3    3    0  502  0.77425787042E+03  0.52441019729E+03  0.12097535042E+04  0.15290470418E+04  0.10100000352E+00 0. -1.
</event>
<event>
 5   0  0.7391007E-06  0.2301715E+04  0.7818609E-02  0.8477245E-01
        1   -1    0    0  501    0  0.00000000000E+00  0.00000000000E+00  0.92654574322E+03  0.92654574324E+03  0.50400001928E-02 0. -1.
       -1   -1    0    0    0  501  0.00000000000E+00  0.00000000000E+00 -0.14294738850E+04  0.14294738850E+04  0.50400001928E-02 0.  1.
    10030    2    1    2    0    0  0.00000000000E+00  0.00000000000E+00 -0.50292814181E+03  0.23560196283E+04  0.23017149635E+04 0.  0.
        1    1    3    3  502    0 -0.47149564107E+03  0.84204533325E+03 -0.89325325914E+03  0.13150094554E+04  0.50400001928E-02 0.  1.
       -1    1    3    3    0  502  0.47149564107E+03 -0.84204533325E+03  0.39032511733E+03  0.10410101729E+04  0.50400001928E-02 0. -1.
</event>
<event>
 5   0  0.1635955E-05  0.2299245E+04  0.7818609E-02  0.8478219E-01
        2   -1    0    0  501    0  0.00000000000E+00  0.00000000000E+00  0.19594752551E+04  0.19594752551E+04  0.25500000920E-02 0. -1.
       -2   -1    0    0    0  501  0.00000000000E+00  0.00000000000E+00 -0.67448228705E+03  0.67448228705E+03  0.25500000920E-02 0.  1.
    10030    2    1    2    0    0  0.00000000000E+00  0.00000000000E+00  0.12849929680E+04  0.26339575421E+04  0.22992445294E+04 0.  0.
        2    1    3    3  502    0  0.30455098323E+03 -0.24771297596E+03 -0.59531772135E+03  0.71310322479E+03  0.25500000920E-02 0.  1.
       -2    1    3    3    0  502 -0.30455098323E+03  0.24771297596E+03  0.18803106894E+04  0.19208543174E+04  0.25500000920E-02 0. -1.
</event>
<event>
 5   0  0.1697855E-05  0.2298659E+04  0.7818609E-02  0.8478450E-01
        2   -1    0    0  501    0  0.00000000000E+00  0.00000000000E+00  0.73282549087E+03  0.73282549087E+03  0.25500000920E-02 0. -1.
       -2   -1    0    0    0  501  0.00000000000E+00  0.00000000000E+00 -0.18025543472E+04  0.18025543472E+04  0.25500000920E-02 0.  1.
    10030    2    1    2    0    0  0.00000000000E+00  0.00000000000E+00 -0.10697288563E+04  0.25353798381E+04  0.22986585430E+04 0.  0.
        5    1    3    3  502    0 -0.61634853163E+03  0.96500692898E+03 -0.42560903406E+03  0.12215928230E+04  0.46999998093E+01 0.  1.
       -5    1    3    3    0  502  0.61634853163E+03 -0.96500692898E+03 -0.64411982225E+03  0.13137870150E+04  0.46999998093E+01 0. -1.
</event>
<event>
 5   0  0.1697855E-05  0.2296245E+04  0.7818609E-02  0.8479403E-01
       -2   -1    0    0    0  501  0.00000000000E+00  0.00000000000E+00  0.61366897394E+03  0.61366897395E+03  0.25500000920E-02 0.  1.
        2   -1    0    0  501    0  0.00000000000E+00  0.00000000000E+00 -0.21480400129E+04  0.21480400129E+04  0.25500000920E-02 0. -1.
    10030    2    1    2    0    0  0.00000000000E+00  0.00000000000E+00 -0.15343710389E+04  0.27617089868E+04  0.22962452053E+04 0.  0.
        5    1    3    3  502    0 -0.70436329826E+03 -0.71635761110E+02  0.31985362635E+03  0.77690911340E+03  0.46999998093E+01 0.  1.
       -5    1    3    3    0  502  0.70436329826E+03  0.71635761110E+02 -0.18542246653E+04  0.19847998734E+04  0.46999998093E+01 0. -1.
</event>
<event>
 5   0  0.7416556E-06  0.2269982E+04  0.7818609E-02  0.8489852E-01
       -1   -1    0    0    0  501  0.00000000000E+00  0.00000000000E+00  0.15095934396E+04  0.15095934396E+04  0.50400001928E-02 0.  1.
        1   -1    0    0  501    0  0.00000000000E+00  0.00000000000E+00 -0.85334525977E+03  0.85334525979E+03  0.50400001928E-02 0. -1.
    10030    2    1    2    0    0  0.00000000000E+00  0.00000000000E+00  0.65624817983E+03  0.23629386994E+04  0.22699818553E+04 0.  0.
        4    1    3    3  502    0  0.79035894850E+03  0.18546204820E+03  0.11537883679E+04  0.14107773210E+04  0.12699999809E+01 0.  1.
       -4    1    3    3    0  502 -0.79035894850E+03 -0.18546204820E+03 -0.49754018806E+03  0.95216137835E+03  0.12699999809E+01 0. -1.
</event>
<event>
 5   0  0.7278815E-06  0.2294745E+04  0.7818609E-02  0.8479996E-01
       -1   -1    0    0    0  501  0.00000000000E+00  0.00000000000E+00  0.83383058481E+03  0.83383058483E+03  0.50400001928E-02 0. -1.
        1   -1    0    0  501    0  0.00000000000E+00  0.00000000000E+00 -0.15788149172E+04  0.15788149172E+04  0.50400001928E-02 0.  1.
    10030    2    1    2    0    0  0.00000000000E+00  0.00000000000E+00 -0.74498433240E+03  0.24126455020E+04  0.22947454462E+04 0.  0.
        5    1    3    3  502    0 -0.48874180912E+03 -0.51917970185E+03  0.57259453862E+03  0.91449587996E+03  0.46999998093E+01 0. -1.
       -5    1    3    3    0  502  0.48874180912E+03  0.51917970185E+03 -0.13175788710E+04  0.14981496221E+04  0.46999998093E+01 0.  1.
</event>
<event>
 5   0  0.1588969E-05  0.2301223E+04  0.7818609E-02  0.8477439E-01
        2   -1    0    0  501    0  0.00000000000E+00  0.00000000000E+00  0.15852270660E+04  0.15852270660E+04  0.25500000920E-02 0. -1.
       -2   -1    0    0    0  501  0.00000000000E+00  0.00000000000E+00 -0.83515252138E+03  0.83515252138E+03  0.25500000920E-02 0.  1.
    10030    2    1    2    0    0  0.00000000000E+00  0.00000000000E+00  0.75007454465E+03  0.24203795874E+04  0.23012226152E+04 0.  0.
        1    1    3    3  502    0  0.79731528721E+03  0.19323479185E+03 -0.47349229623E+03  0.94723086236E+03  0.50400001928E-02 0.  1.
       -1    1    3    3    0  502 -0.79731528721E+03 -0.19323479185E+03  0.12235668409E+04  0.14731487250E+04  0.50400001928E-02 0. -1.
</event>
<event>
 5   0  0.1626636E-05  0.2299450E+04  0.7818609E-02  0.8478138E-01
       -2   -1    0    0    0  501  0.00000000000E+00  0.00000000000E+00  0.15882308175E+04  0.15882308175E+04  0.25500000920E-02 0. -1.
        2   -1    0    0  501    0  0.00000000000E+00  0.00000000000E+00 -0.83228929851E+03  0.83228929852E+03  0.25500000920E-02 0.  1.
    10030    2    1    2    0    0  0.00000000000E+00  0.00000000000E+00  0.75594151897E+03  0.24205201160E+04  0.22994499455E+04 0.  0.
        4    1    3    3  502    0  0.54720920207E+03  0.54616165321E+03 -0.51779536952E+03  0.93050745288E+03  0.12699999809E+01 0.  1.
       -4    1    3    3    0  502 -0.54720920207E+03 -0.54616165321E+03  0.12737368885E+04  0.14900126631E+04  0.12699999809E+01 0. -1.
</event>
<event>
 5   0  0.1635955E-05  0.2317666E+04  0.7818609E-02  0.8470988E-01
       -2   -1    0    0    0  501  0.00000000000E+00  0.00000000000E+00  0.99834449338E+03  0.99834449338E+03  0.25500000920E-02 0. -1.
        2   -1    0    0  501    0  0.00000000000E+00  0.00000000000E+00 -0.13451203448E+04  0.13451203448E+04  0.25500000920E-02 0.  1.
    10030    2    1    2    0    0  0.00000000000E+00  0.00000000000E+00 -0.34677585138E+03  0.23434648381E+04  0.23176656265E+04 0.  0.
        2    1    3    3  502    0  0.70915093306E+03 -0.36445713462E+02 -0.10993714418E+04  0.13087554787E+04  0.25500000920E-02 0.  1.
       -2    1    3    3    0  502 -0.70915093306E+03  0.36445713462E+02  0.75259559041E+03  0.10347093595E+04  0.25500000920E-02 0. -1.
</event>
<event>
 5   0  0.1635955E-05  0.2237271E+04  0.7818609E-02  0.8503073E-01
       -2   -1    0    0    0  501  0.00000000000E+00  0.00000000000E+00  0.47251659604E+03  0.47251659604E+03  0.25500000920E-02 0. -1.
        2   -1    0    0  501    0  0.00000000000E+00  0.00000000000E+00 -0.26482572642E+04  0.26482572642E+04  0.25500000920E-02 0.  1.
    10030    2    1    2    0    0  0.00000000000E+00  0.00000000000E+00 -0.21757406682E+04  0.31207738602E+04  0.22372711127E+04 0.  0.
        2    1    3    3  502    0  0.22626414130E+03 -0.90088407055E+03 -0.19573743201E+04  0.21665875932E+04  0.25500000920E-02 0.  1.
       -2    1    3    3    0  502 -0.22626414130E+03  0.90088407055E+03 -0.21836634811E+03  0.95418626704E+03  0.25500000920E-02 0. -1.
</event>
<event>
 5   0  0.7202572E-06  0.2301515E+04  0.7818609E-02  0.8477324E-01
       -1   -1    0    0    0  501  0.00000000000E+00  0.00000000000E+00  0.21246813196E+04  0.21246813197E+04  0.50400001928E-02 0.  1.
        1   -1    0    0  501    0  0.00000000000E+00  0.00000000000E+00 -0.62326647793E+03  0.62326647795E+03  0.50400001928E-02 0. -1.
    10030    2    1    2    0    0  0.00000000000E+00  0.00000000000E+00  0.15014148417E+04  0.27479477976E+04  0.23015148428E+04 0.  0.
        2    1    3    3  502    0 -0.10491154408E+04  0.38953570758E+02  0.13133744029E+04  0.16814020670E+04  0.25500000920E-02 0. -1.
       -2    1    3    3    0  502  0.10491154408E+04 -0.38953570758E+02  0.18804043885E+03  0.10665457306E+04  0.25500000920E-02 0.  1.
</event>
<event>
 5   0  0.7183014E-06  0.2308183E+04  0.7818609E-02  0.8474702E-01
       -1   -1    0    0    0  501  0.00000000000E+00  0.00000000000E+00  0.81425735412E+03  0.81425735413E+03  0.50400001928E-02 0.  1.
        1   -1    0    0  501    0  0.00000000000E+00  0.00000000000E+00 -0.16357571714E+04  0.16357571714E+04  0.50400001928E-02 0. -1.
    10030    2    1    2    0    0  0.00000000000E+00  0.00000000000E+00 -0.82149981724E+03  0.24500145255E+04  0.23081831005E+04 0.  0.
        3    1    3    3  502    0  0.90847842435E+03  0.71168121355E+03 -0.42157973620E+03  0.12286385479E+04  0.10100000352E+00 0. -1.
       -3    1    3    3    0  502 -0.90847842435E+03 -0.71168121355E+03 -0.39992008105E+03  0.12213759776E+04  0.10100000352E+00 0.  1.
</event>
<event>
 5   0  0.1697855E-05  0.2300130E+04  0.7818609E-02  0.8477870E-01
        2   -1    0    0  501    0  0.00000000000E+00  0.00000000000E+00  0.11421430773E+04  0.11421430773E+04  0.25500000920E-02 0.  1.
       -2   -1    0    0    0  501  0.00000000000E+00  0.00000000000E+00 -0.11580417134E+04  0.11580417134E+04  0.25500000920E-02 0. -1.
    10030    2    1    2    0    0  0.00000000000E+00  0.00000000000E+00 -0.15898636092E+02  0.23001847908E+04  0.23001298452E+04 0.  0.
        5    1    3    3  502    0 -0.79234745032E+03  0.44869584627E+03  0.69455218998E+03  0.11452367786E+04  0.46999998093E+01 0. -1.
       -5    1    3    3    0  502  0.79234745032E+03 -0.44869584627E+03 -0.71045082607E+03  0.11549480121E+04  0.46999998093E+01 0.  1.
</event>
<event>
 5   0  0.1588969E-05  0.2300337E+04  0.7818609E-02  0.8477788E-01
        2   -1    0    0  501    0  0.00000000000E+00  0.00000000000E+00  0.12373739879E+04  0.12373739879E+04  0.25500000920E-02 0. -1.
       -2   -1    0    0    0  501  0.00000000000E+00  0.00000000000E+00 -0.10691092628E+04  0.10691092628E+04  0.25500000920E-02 0.  1.
    10030    2    1    2    0    0  0.00000000000E+00  0.00000000000E+00  0.16826472512E+03  0.23064832507E+04  0.23003373596E+04 0.  0.
        1    1    3    3  502    0 -0.46288744985E+03  0.45298255608E+03 -0.86889644288E+03  0.10837153758E+04  0.50400001928E-02 0.  1.
       -1    1    3    3    0  502  0.46288744985E+03 -0.45298255608E+03  0.10371611680E+04  0.12227678749E+04  0.50400001928E-02 0. -1.
</event>
<event>
 5   0  0.7416556E-06  0.2295766E+04  0.7818609E-02  0.8479592E-01
        1   -1    0    0  501    0  0.00000000000E+00  0.00000000000E+00  0.20208290829E+04  0.20208290829E+04  0.50400001928E-02 0.  1.
       -1   -1    0    0    0  501  0.00000000000E+00  0.00000000000E+00 -0.65202702777E+03  0.65202702779E+03  0.50400001928E-02 0. -1.
    10030    2    1    2    0    0  0.00000000000E+00  0.00000000000E+00  0.13688020552E+04  0.26728561107E+04  0.22957658248E+04 0.  0.
        4    1    3    3  502    0 -0.83122836714E+03 -0.77520329349E+03  0.87123696517E+03  0.14321090067E+04  0.12699999809E+01 0.  1.
       -4    1    3    3    0  502  0.83122836714E+03  0.77520329349E+03  0.49756508999E+03  0.12407471041E+04  0.12699999809E+01 0. -1.
</event>
<event>
 5   0  0.7183014E-06  0.2290591E+04  0.7818609E-02  0.8481640E-01
       -1   -1    0    0    0  501  0.00000000000E+00  0.00000000000E+00  0.77740923835E+03  0.77740923836E+03  0.50400001928E-02 0. -1.
        1   -1    0    0  501    0  0.00000000000E+00  0.00000000000E+00 -0.16872732507E+04  0.16872732507E+04  0.50400001928E-02 0.  1.
    10030    2    1    2    0    0  0.00000000000E+00  0.00000000000E+00 -0.90986401234E+03  0.24646824891E+04  0.22905910266E+04 0.  0.
        3    1    3    3  502    0  0.54497214514E+03  0.90753948031E+03  0.15416960723E+02  0.10587068717E+04  0.10100000352E+00 0. -1.
       -3    1    3    3    0  502 -0.54497214514E+03 -0.90753948031E+03 -0.92528097306E+03  0.14059756174E+04  0.10100000352E+00 0.  1.
</event>
<event>
 5   0  0.1697855E-05  0.2304832E+04  0.7818609E-02  0.8476018E-01
       -2   -1    0    0    0  501  0.00000000000E+00  0.00000000000E+00  0.92164894746E+03  0.92164894747E+03  0.25500000920E-02 0.  1.
        2   -1    0    0  501    0  0.00000000000E+00  0.00000000000E+00 -0.14409638542E+04  0.14409638542E+04  0.25500000920E-02 0. -1.
    10030    2    1    2    0    0  0.00000000000E+00  0.00000000000E+00 -0.51931490678E+03  0.23626128017E+04  0.23048321584E+04 0.  0.
        5    1    3    3  502    0  0.87344918009E+03  0.16334600027E+03 -0.10118414008E+04  0.13466404481E+04  0.46999998093E+01 0. -1.
       -5    1    3    3    0  502 -0.87344918009E+03 -0.16334600027E+03  0.49252649404E+03  0.10159723536E+04  0.46999998093E+01 0.  1.
</event>
<event>
 5   0  0.1697855E-05  0.2299551E+04  0.7818609E-02  0.8478098E-01
       -2   -1    0    0    0  501  0.00000000000E+00  0.00000000000E+00  0.69473100601E+03  0.69473100601E+03  0.25500000920E-02 0.  1.
        2   -1    0    0  501    0  0.00000000000E+00  0.00000000000E+00 -0.19028717724E+04  0.19028717724E+04  0.25500000920E-02 0. -1.
    10030    2    1    2    0    0  0.00000000000E+00  0.00000000000E+00 -0.12081407664E+04  0.25976027784E+04  0.22995512786E+04 0.  0.
        5    1    3    3  502    0  0.38842402015E+03 -0.68922580531E+03 -0.15465064292E+04  0.17371268392E+04  0.46999998093E+01 0. -1.
       -5    1    3    3    0  502 -0.38842402015E+03  0.68922580531E+03  0.33836566279E+03  0.86047593917E+03  0.46999998093E+01 0.  1.
</event>
<event>
 5   0  0.1635955E-05  0.2298441E+04  0.7818609E-02  0.8478536E-01
        2   -1    0    0  501    0  0.00000000000E+00  0.00000000000E+00  0.20344865341E+04  0.20344865341E+04  0.25500000920E-02 0. -1.
       -2   -1    0    0    0  501  0.00000000000E+00  0.00000000000E+00 -0.64916024653E+03  0.64916024654E+03  0.25500000920E-02 0.  1.
    10030    2    1    2    0    0  0.00000000000E+00  0.00000000000E+00  0.13853262875E+04  0.26836467806E+04  0.22984410195E+04 0.  0.
        2    1    3    3  502    0 -0.51804467447E+03 -0.10078508422E+04  0.46936800922E+03  0.12265561271E+04  0.25500000920E-02 0. -1.
       -2    1    3    3    0  502  0.51804467447E+03  0.10078508422E+04  0.91595827831E+03  0.14570906535E+04  0.25500000920E-02 0.  1.
</event>
<event>
 5   0  0.1626636E-05  0.2312045E+04  0.7818609E-02  0.8473187E-01
       -2   -1    0    0    0  501  0.00000000000E+00  0.00000000000E+00  0.17351976322E+04  0.17351976322E+04  0.25500000920E-02 0.  1.
        2   -1    0    0  501    0  0.00000000000E+00  0.00000000000E+00 -0.77016460972E+03  0.77016460972E+03  0.25500000920E-02 0. -1.
    10030    2    1    2    0    0  0.00000000000E+00  0.00000000000E+00  0.96503302251E+03  0.25053622420E+04  0.23120448155E+04 0.  0.
        4    1    3    3  502    0 -0.64987760595E+02  0.77964468138E+02 -0.76532621271E+03  0.77202829746E+03  0.12699999809E+01 0. -1.
       -4    1    3    3    0  502  0.64987760595E+02 -0.77964468138E+02  0.17303592352E+04  0.17333339445E+04  0.12699999809E+01 0.  1.
</event>
<event>
 5   0  0.7391007E-06  0.2277025E+04  0.7818609E-02  0.8487035E-01
        1   -1    0    0  501    0  0.00000000000E+00  0.00000000000E+00  0.20144153752E+04  0.20144153752E+04  0.50400001928E-02 0. -1.
       -1   -1    0    0    0  501  0.00000000000E+00  0.00000000000E+00 -0.64346736689E+03  0.64346736691E+03  0.50400001928E-02 0.  1.
    10030    2    1    2    0    0  0.00000000000E+00  0.00000000000E+00  0.13709480083E+04  0.26578827421E+04  0.22770248636E+04 0.  0.
        1    1    3    3  502    0  0.11772666923E+03 -0.12985765579E+02 -0.63625659073E+03  0.64718671806E+03  0.50400001928E-02 0.  1.
       -1    1    3    3    0  502 -0.11772666923E+03  0.12985765579E+02  0.20072045990E+04  0.20106960240E+04  0.50400001928E-02 0. -1.
</event>
<event>
 5   0  0.7391007E-06  0.2294693E+04  0.7818609E-02  0.8480017E-01
       -1   -1    0    0    0  501  0.00000000000E+00  0.00000000000E+00  0.13601395322E+04  0.13601395322E+04  0.50400001928E-02 0. -1.
        1   -1    0    0  501    0  0.00000000000E+00  0.00000000000E+00 -0.96784447482E+03  0.96784447484E+03  0.50400001928E-02 0.  1.
    10030    2    1    2    0    0  0.00000000000E+00  0.00000000000E+00  0.39229505739E+03  0.23279840071E+04  0.22946925993E+04 0.  0.
        1    1    3    3  502    0  0.34306355670E+02  0.33218313399E+03  0.13097432412E+04  0.13516471131E+04  0.50400001928E-02 0. -1.
       -1    1    3    3    0  502 -0.34306355670E+02 -0.33218313399E+03 -0.91744818378E+03  0.97633689395E+03  0.50400001928E-02 0.  1.
</event>
<event>
 5   0  0.7278815E-06  0.2305185E+04  0.7818609E-02  0.8475880E-01
        1   -1    0    0  501    0  0.00000000000E+00  0.00000000000E+00  0.14496867408E+04  0.14496867408E+04  0.50400001928E-02 0. -1.
       -1   -1    0    0    0  501  0.00000000000E+00  0.00000000000E+00 -0.91638348713E+03  0.91638348714E+03  0.50400001928E-02 0.  1.
    10030    2    1    2    0    0  0.00000000000E+00  0.00000000000E+00  0.53330325366E+03  0.23660702279E+04  0.23051845833E+04 0.  0.
        5    1    3    3  502    0 -0.87142199320E+03 -0.72901024646E+03  0.67584036721E+02  0.11381660343E+04  0.46999998093E+01 0. -1.
       -5    1    3    3    0  502  0.87142199320E+03  0.72901024646E+03  0.46571921694E+03  0.12279041936E+04  0.46999998093E+01 0.  1.
</event>
<event>
 5   0  0.1588969E-05  0.2305984E+04  0.7818609E-02  0.8475565E-01
        2   -1    0    0  501    0  0.00000000000E+00  0.00000000000E+00  0.20692181545E+04  0.20692181545E+04  0.25500000920E-02 0.  1.
       -2   -1    0    0    0  501  0.00000000000E+00  0.00000000000E+00 -0.64246043933E+03  0.64246043934E+03  0.25500000920E-02 0. -1.
    10030    2    1    2    0    0  0.00000000000E+00  0.00000000000E+00  0.14267577152E+04  0.27116785939E+04  0.23059842191E+04 0.  0.
        1    1    3    3  502    0  0.57881828337E+03  0.15457078550E+02 -0.45909067652E+03  0.73894098258E+03  0.50400001928E-02 0. -1.
       -1    1    3    3    0  502 -0.57881828337E+03 -0.15457078550E+02  0.18858483917E+04  0.19727376113E+04  0.50400001928E-02 0.  1.
</event>
<event>
 5   0  0.1626636E-05  0.2248235E+04  0.7818609E-02  0.8498616E-01
        2   -1    0    0  501    0  0.00000000000E+00  0.00000000000E+00  0.20178298620E+04  0.20178298620E+04  0.25500000920E-02 0. -1.
       -2   -1    0    0    0  501  0.00000000000E+00  0.00000000000E+00 -0.62623719064E+03  0.62623719064E+03  0.25500000920E-02 0.  1.
    10030    2    1    2    0    0  0.00000000000E+00  0.00000000000E+00  0.13915926714E+04  0.26440670526E+04  0.22482349557E+04 0.  0.
        4    1    3    3  502    0  0.75428361015E+02 -0.22988271440E+03 -0.59525303622E+03  0.64254438761E+03  0.12699999809E+01 0.  1.
       -4    1    3    3    0  502 -0.75428361015E+02  0.22988271440E+03  0.19868457076E+04  0.20015226650E+04  0.12699999809E+01 0. -1.
</event>
<event>
 5   0  0.7416556E-06  0.2381118E+04  0.7818609E-02  0.8446607E-01
        1   -1    0    0  501    0  0.00000000000E+00  0.00000000000E+00  0.79457274148E+03  0.79457274150E+03  0.50400001928E-02 0.  1.
       -1   -1    0    0    0  501  0.00000000000E+00  0.00000000000E+00 -0.17838899078E+04  0.17838899078E+04  0.50400001928E-02 0. -1.
    10030    2    1    2    0    0  0.00000000000E+00  0.00000000000E+00 -0.98931716635E+03  0.25784626493E+04  0.23811176322E+04 0.  0.
        4    1    3    3  502    0  0.19518192590E+03  0.93964896016E+03  0.26828532920E+03  0.99650127110E+03  0.12699999809E+01 0.  1.
       -4    1    3    3    0  502 -0.19518192590E+03 -0.93964896016E+03 -0.12576024956E+04  0.15819613782E+04  0.12699999809E+01 0. -1.
</event>
<event>
 5   0  0.7278815E-06  0.2286885E+04  0.7818609E-02  0.8483110E-01
        1   -1    0    0  501    0  0.00000000000E+00  0.00000000000E+00  0.19533567779E+04  0.19533567779E+04  0.50400001928E-02 0. -1.
       -1   -1    0    0    0  501  0.00000000000E+00  0.00000000000E+00 -0.66934066157E+03  0.66934066158E+03  0.50400001928E-02 0.  1.
    10030    2    1    2    0    0  0.00000000000E+00  0.00000000000E+00  0.12840161164E+04  0.26226974395E+04  0.22868853212E+04 0.  0.
        5    1    3    3  502    0  0.30144665511E+03 -0.72870398817E+03  0.15915766973E+04  0.17762370511E+04  0.46999998093E+01 0. -1.
       -5    1    3    3    0  502 -0.30144665511E+03  0.72870398817E+03 -0.30756058094E+03  0.84646038844E+03  0.46999998093E+01 0.  1.
</event>
<event>
 5   0  0.1588969E-05  0.2308728E+04  0.7818609E-02  0.8474488E-01
       -2   -1    0    0    0  501  0.00000000000E+00  0.00000000000E+00  0.81524773683E+03  0.81524773684E+03  0.25500000920E-02 0. -1.
        2   -1    0    0  501    0  0.00000000000E+00  0.00000000000E+00 -0.16345414493E+04  0.16345414493E+04  0.25500000920E-02 0.  1.
    10030    2    1    2    0    0  0.00000000000E+00  0.00000000000E+00 -0.81929371244E+03  0.24497891861E+04  0.23087279764E+04 0.  0.
        1    1    3    3  502    0 -0.10360998713E+04 -0.68489351674E+02 -0.94480541458E+03  0.14038700104E+04  0.50400001928E-02 0.  1.
       -1    1    3    3    0  502  0.10360998713E+04  0.68489351674E+02  0.12551170214E+03  0.10459191757E+04  0.50400001928E-02 0. -1.
</event>
<event>
 5   0  0.7183014E-06  0.2315990E+04  0.7818609E-02  0.8471643E-01
       -1   -1    0    0    0  501  0.00000000000E+00  0.00000000000E+00  0.11309684468E+04  0.11309684468E+04  0.50400001928E-02 0. -1.
        1   -1    0    0  501    0  0.00000000000E+00  0.00000000000E+00 -0.11856675850E+04  0.11856675851E+04  0.50400001928E-02 0.  1.
    10030    2    1    2    0    0  0.00000000000E+00  0.00000000000E+00 -0.54699138226E+02  0.23166360319E+04  0.23159901788E+04 0.  0.
        3    1    3    3  502    0  0.38017222914E+03  0.44889839462E+03 -0.10250804436E+04  0.11818758896E+04  0.10100000352E+00 0.  1.
       -3    1    3    3    0  502 -0.38017222914E+03 -0.44889839462E+03  0.97038130533E+03  0.11347601423E+04  0.10100000352E+00 0. -1.
</event>
<event>
 5   0  0.1635955E-05  0.2303339E+04  0.7818609E-02  0.8476606E-01
        2   -1    0    0  501    0  0.00000000000E+00  0.00000000000E+00  0.12061566942E+04  0.12061566942E+04  0.25500000920E-02 0. -1.
       -2   -1    0    0    0  501  0.00000000000E+00  0.00000000000E+00 -0.10996433098E+04  0.10996433098E+04  0.25500000920E-02 0.  1.
    10030    2    1    2    0    0  0.00000000000E+00  0.00000000000E+00  0.10651338442E+03  0.23058000040E+04  0.23033385677E+04 0.  0.
        2    1    3    3  502    0 -0.66426344874E+03  0.71407408754E+03  0.66644241480E+03  0.11812253062E+04  0.25500000920E-02 0. -1.
       -2    1    3    3    0  502  0.66426344874E+03 -0.71407408754E+03 -0.55992903038E+03  0.11245746978E+04  0.25500000920E-02 0.  1.
</event>
<event>
 5   0  0.1635955E-05  0.2337256E+04  0.7818609E-02  0.8463375E-01
        2   -1    0    0  501    0  0.00000000000E+00  0.00000000000E+00  0.15829336993E+04  0.15829336993E+04  0.25500000920E-02 0. -1.
       -2   -1    0    0    0  501  0.00000000000E+00  0.00000000000E+00 -0.86275940997E+03  0.86275940997E+03  0.25500000920E-02 0.  1.
    10030    2    1    2    0    0  0.00000000000E+00  0.00000000000E+00  0.72017428930E+03  0.24456931092E+04  0.23372556081E+04 0.  0.
        2    1    3    3  502    0  0.94047715971E+03  0.69029471830E+03  0.43172402472E+03  0.12439412042E+04  0.25500000920E-02 0. -1.
       -2    1    3    3    0  502 -0.94047715971E+03 -0.69029471830E+03  0.28845026458E+03  0.12017519050E+04  0.25500000920E-02 0.  1.
</event>
<event>
 5   0  0.1626636E-05  0.2307000E+04  0.7818609E-02  0.8475166E-01
        2   -1    0    0  501    0  0.00000000000E+00  0.00000000000E+00  0.20342031192E+04  0.20342031192E+04  0.25500000920E-02 0. -1.
       -2   -1    0    0    0  501  0.00000000000E+00  0.00000000000E+00 -0.65409523350E+03  0.65409523351E+03  0.25500000920E-02 0.  1.
    10030    2    1    2    0    0  0.00000000000E+00  0.00000000000E+00  0.13801078857E+04  0.26882983527E+04  0.23070002724E+04 0.  0.
        4    1    3    3  502    0  0.54792307638E+03 -0.14445324100E+03 -0.48073200094E+03  0.74309575836E+03  0.12699999809E+01 0.  1.
       -4    1    3    3    0  502 -0.54792307638E+03  0.14445324100E+03  0.18608398866E+04  0.19452025944E+04  0.12699999809E+01 0. -1.
</event>
<event>
 5   0  0.1602809E-05  0.2298315E+04  0.7818609E-02  0.8478586E-01
       -2   -1    0    0    0  501  0.00000000000E+00  0.00000000000E+00  0.97159538502E+03  0.97159538503E+03  0.25500000920E-02 0. -1.
        2   -1    0    0  501    0  0.00000000000E+00  0.00000000000E+00 -0.13591701086E+04  0.13591701086E+04  0.25500000920E-02 0.  1.
    10030    2    1    2    0    0  0.00000000000E+00  0.00000000000E+00 -0.38757472354E+03  0.23307654936E+04  0.22983153874E+04 0.  0.
        3    1    3    3  502    0 -0.10542065129E+04  0.45415486034E+03 -0.13865633938E+03  0.11562152047E+04  0.10100000352E+00 0.  1.
       -3    1    3    3    0  502  0.10542065129E+04 -0.45415486034E+03 -0.24891838417E+03  0.11745502889E+04  0.10100000352E+00 0. -1.
</event>
<event>
 5   0  0.1588969E-05  0.2306699E+04  0.7818609E-02  0.8475285E-01
        2   -1    0    0  501    0  0.00000000000E+00  0.00000000000E+00  0.99134652717E+03  0.99134652717E+03  0.25500000920E-02 0. -1.
       -2   -1    0    0    0  501  0.00000000000E+00  0.00000000000E+00 -0.13418260942E+04  0.13418260942E+04  0.25500000920E-02 0.  1.
    10030    2    1    2    0    0  0.00000000000E+00  0.00000000000E+00 -0.35047956701E+03  0.23331726214E+04  0.23066986266E+04 0.  0.
        1    1    3    3  502    0 -0.48577476093E+03  0.42699646273E+02 -0.12324216249E+04  0.13253918061E+04  0.50400001928E-02 0.  1.
       -1    1    3    3    0  502  0.48577476093E+03 -0.42699646273E+02  0.88194205787E+03  0.10077808153E+04  0.50400001928E-02 0. -1.
</event>
<event>
 5   0  0.1697855E-05  0.2297934E+04  0.7818609E-02  0.8478736E-01
        2   -1    0    0  501    0  0.00000000000E+00  0.00000000000E+00  0.19614487420E+04  0.19614487420E+04  0.25500000920E-02 0. -1.
       -2   -1    0    0    0  501  0.00000000000E+00  0.00000000000E+00 -0.67303555429E+03  0.67303555430E+03  0.25500000920E-02 0.  1.
    10030    2    1    2    0    0  0.00000000000E+00  0.00000000000E+00  0.12884131877E+04  0.26344842963E+04  0.22979336294E+04 0.  0.
        5    1    3    3  502    0 -0.69027714324E+03  0.11149589470E+03 -0.40101402869E+03  0.80606960632E+03  0.46999998093E+01 0.  1.
       -5    1    3    3    0  502  0.69027714324E+03 -0.11149589470E+03  0.16894272164E+04  0.18284146900E+04  0.46999998093E+01 0. -1.
</event>
<event>
 5   0  0.7416556E-06  0.2269659E+04  0.7818609E-02  0.8489981E-01
        1   -1    0    0  501    0  0.00000000000E+00  0.00000000000E+00  0.18629615873E+04  0.18629615873E+04  0.50400001928E-02 0.  1.
       -1   -1    0    0    0  501  0.00000000000E+00  0.00000000000E+00 -0.69128533919E+03  0.69128533921E+03  0.50400001928E-02 0. -1.
    10030    2    1    2    0    0  0.00000000000E+00  0.00000000000E+00  0.11716762481E+04  0.25542469265E+04  0.22696590341E+04 0.  0.
        4    1    3    3  502    0  0.50917921835E+03 -0.97468988587E+03  0.90125320864E+03  0.14218096951E+04  0.12699999809E+01 0.  1.
       -4    1    3    3    0  502 -0.50917921835E+03  0.97468988587E+03  0.27042303949E+03  0.11324372315E+04  0.12699999809E+01 0. -1.
</event>
<event>
 5   0  0.7278815E-06  0.2295776E+04  0.7818609E-02  0.8479588E-01
        1   -1    0    0  501    0  0.00000000000E+00  0.00000000000E+00  0.14223608386E+04  0.14223608386E+04  0.50400001928E-02 0.  1.
       -1   -1    0    0    0  501  0.00000000000E+00  0.00000000000E+00 -0.92638016587E+03  0.92638016588E+03  0.50400001928E-02 0. -1.
    10030    2    1    2    0    0  0.00000000000E+00  0.00000000000E+00  0.49598067271E+03  0.23487410045E+04  0.22957760079E+04 0.  0.
        5    1    3    3  502    0  0.88528987489E+03  0.40766495003E+03 -0.37237855775E+03  0.10433679861E+04  0.46999998093E+01 0. -1.
       -5    1    3    3    0  502 -0.88528987489E+03 -0.40766495003E+03  0.86835923046E+03  0.13053730184E+04  0.46999998093E+01 0.  1.
</event>
<event>
 5   0  0.1626636E-05  0.2310135E+04  0.7818609E-02  0.8473936E-01
       -2   -1    0    0    0  501  0.00000000000E+00  0.00000000000E+00  0.13894452072E+04  0.13894452072E+04  0.25500000920E-02 0.  1.
        2   -1    0    0  501    0  0.00000000000E+00  0.00000000000E+00 -0.96022531515E+03  0.96022531516E+03  0.25500000920E-02 0. -1.
    10030    2    1    2    0    0  0.00000000000E+00  0.00000000000E+00  0.42921989205E+03  0.23496705224E+04  0.23101345952E+04 0.  0.
        4    1    3    3  502    0 -0.29040279031E+03 -0.34752260223E+03 -0.86615367242E+03  0.97740960545E+03  0.12699999809E+01 0. -1.
       -4    1    3    3    0  502  0.29040279031E+03  0.34752260223E+03  0.12953735645E+04  0.13722609169E+04  0.12699999809E+01 0.  1.
</event>
<event>
 5   0  0.1635955E-05  0.2311665E+04  0.7818609E-02  0.8473336E-01
       -2   -1    0    0    0  501  0.00000000000E+00  0.00000000000E+00  0.66654327904E+03  0.66654327904E+03  0.25500000920E-02 0.  1.
        2   -1    0    0  501    0  0.00000000000E+00  0.00000000000E+00 -0.20042943059E+04  0.20042943059E+04  0.25500000920E-02 0. -1.
    10030    2    1    2    0    0  0.00000000000E+00  0.00000000000E+00 -0.13377510268E+04  0.26708375849E+04  0.23116651131E+04 0.  0.
        2    1    3    3  502    0 -0.85137091096E+03 -0.72105437844E+03 -0.10177851506E+04  0.15101782866E+04  0.25500000920E-02 0. -1.
       -2    1    3    3    0  502  0.85137091096E+03  0.72105437844E+03 -0.31996587624E+03  0.11606592983E+04  0.25500000920E-02 0.  1.
</event>
<event>
 5   0  0.7278815E-06  0.2266204E+04  0.7818609E-02  0.8491367E-01
        1   -1    0    0  501    0  0.00000000000E+00  0.00000000000E+00  0.10484710174E+04  0.10484710174E+04  0.50400001928E-02 0.  1.
       -1   -1    0    0    0  501  0.00000000000E+00  0.00000000000E+00 -0.12245638737E+04  0.12245638737E+04  0.50400001928E-02 0. -1.
    10030    2    1    2    0    0  0.00000000000E+00  0.00000000000E+00 -0.17609285628E+03  0.22730348910E+04  0.22662036364E+04 0.  0.
        5    1    3    3  502    0  0.42507542208E+03 -0.17822656163E+03  0.95017950336E+03  0.10560856974E+04  0.46999998093E+01 0.  1.
       -5    1    3    3    0  502 -0.42507542208E+03  0.17822656163E+03 -0.11262723596E+04  0.12169491936E+04  0.46999998093E+01 0. -1.
</event>
<event>
 5   0  0.7202572E-06  0.2446910E+04  0.7818609E-02  0.8422147E-01
       -1   -1    0    0    0  501  0.00000000000E+00  0.00000000000E+00  0.10800764262E+04  0.10800764262E+04  0.50400001928E-02 0. -1.
        1   -1    0    0  501    0  0.00000000000E+00  0.00000000000E+00 -0.13858673923E+04  0.13858673923E+04  0.50400001928E-02 0.  1.
    10030    2    1    2    0    0  0.00000000000E+00  0.00000000000E+00 -0.30579096615E+03  0.24659438185E+04  0.24469104604E+04 0.  0.
        2    1    3    3  502    0  0.96880597336E+03 -0.70158730345E+03 -0.41186307798E+03  0.12650853542E+04  0.25500000920E-02 0.  1.
       -2    1    3    3    0  502 -0.96880597336E+03  0.70158730345E+03  0.10607211183E+03  0.12008584643E+04  0.25500000920E-02 0. -1.
</event>
<event>
 5   0  0.1697855E-05  0.2291549E+04  0.7818609E-02  0.8481261E-01
       -2   -1    0    0    0  501  0.00000000000E+00  0.00000000000E+00  0.62278111351E+03  0.62278111352E+03  0.25500000920E-02 0. -1.
        2   -1    0    0  501    0  0.00000000000E+00  0.00000000000E+00 -0.21079630951E+04  0.21079630951E+04  0.25500000920E-02 0.  1.
    10030    2    1    2    0    0  0.00000000000E+00  0.00000000000E+00 -0.14851819815E+04  0.27307442086E+04  0.22915493480E+04 0.  0.
        5    1    3    3  502    0 -0.33643985904E+03  0.72502039725E+03  0.23568090052E+03  0.83331502569E+03  0.46999998093E+01 0. -1.
       -5    1    3    3    0  502  0.33643985904E+03 -0.72502039725E+03 -0.17208628821E+04  0.18974291829E+04  0.46999998093E+01 0.  1.
</event>
<event>
 5   0  0.7202572E-06  0.2297583E+04  0.7818609E-02  0.8478875E-01
        1   -1    0    0  501    0  0.00000000000E+00  0.00000000000E+00  0.12210397152E+04  0.12210397152E+04  0.50400001928E-02 0. -1.
       -1   -1    0    0    0  501  0.00000000000E+00  0.00000000000E+00 -0.10808179153E+04  0.10808179153E+04  0.50400001928E-02 0.  1.
    10030    2    1    2    0    0  0.00000000000E+00  0.00000000000E+00  0.14022179989E+03  0.23018576306E+04  0.22975827294E+04 0.  0.
        2    1    3    3  502    0 -0.70204191067E+03 -0.56493780869E+02 -0.83913884751E+03  0.10955402307E+04  0.25500000920E-02 0.  1.
       -2    1    3    3    0  502  0.70204191067E+03  0.56493780869E+02  0.97936064740E+03  0.12063173999E+04  0.25500000920E-02 0. -1.
</event>
<event>
 5   0  0.7183014E-06  0.2313376E+04  0.7818609E-02  0.8472666E-01
        1   -1    0    0  501    0  0.00000000000E+00  0.00000000000E+00  0.82612446345E+03  0.82612446346E+03  0.50400001928E-02 0. -1.
       -1   -1    0    0    0  501  0.00000000000E+00  0.00000000000E+00 -0.16195218549E+04  0.16195218549E+04  0.50400001928E-02 0.  1.
    10030    2    1    2    0    0  0.00000000000E+00  0.00000000000E+00 -0.79339739147E+03  0.24456463184E+04  0.23133755626E+04 0.  0.
        3    1    3    3  502    0  0.51388306228E+03 -0.84651929400E+03 -0.10285824795E+04  0.14278139389E+04  0.10100000352E+00 0.  1.
       -3    1    3    3    0  502 -0.51388306228E+03  0.84651929400E+03  0.23518508807E+03  0.10178323795E+04  0.10100000352E+00 0. -1.
</event>
<event>
 5   0  0.7391007E-06  0.2298055E+04  0.7818609E-02  0.8478688E-01
       -1   -1    0    0    0  501  0.00000000000E+00  0.00000000000E+00  0.81750069602E+03  0.81750069603E+03  0.50400001928E-02 0.  1.
        1   -1    0    0  501    0  0.00000000000E+00  0.00000000000E+00 -0.16150004650E+04  0.16150004650E+04  0.50400001928E-02 0. -1.
    10030    2    1    2    0    0  0.00000000000E+00  0.00000000000E+00 -0.79749976896E+03  0.24325011610E+04  0.22980548333E+04 0.  0.
        1    1    3    3  502    0  0.10215450480E+04 -0.45934669998E+03 -0.12741259148E+03  0.11272921734E+04  0.50400001928E-02 0. -1.
       -1    1    3    3    0  502 -0.10215450480E+04  0.45934669998E+03 -0.67008717747E+03  0.13052089876E+04  0.50400001928E-02 0.  1.
</event>
<event>
 5   0  0.1588969E-05  0.2295207E+04  0.7818609E-02  0.8479813E-01
        2   -1    0    0  501    0  0.00000000000E+00  0.00000000000E+00  0.17689772393E+04  0.17689772393E+04  0.25500000920E-02 0. -1.
       -2   -1    0    0    0  501  0.00000000000E+00  0.00000000000E+00 -0.74449458181E+03  0.74449458181E+03  0.25500000920E-02 0.  1.
    10030    2    1    2    0    0  0.00000000000E+00  0.00000000000E+00  0.10244826575E+04  0.25134718211E+04  0.22952071541E+04 0.  0.
        1    1    3    3  502    0  0.41966174738E+03  0.90983004202E+03 -0.10051082331E+03  0.10069801950E+04  0.50400001928E-02 0.  1.
       -1    1    3    3    0  502 -0.41966174738E+03 -0.90983004202E+03  0.11249934808E+04  0.15064916261E+04  0.50400001928E-02 0. -1.
</event>
<event>
 5   0  0.1602809E-05  0.2300547E+04  0.7818609E-02  0.8477705E-01
       -2   -1    0    0    0  501  0.00000000000E+00  0.00000000000E+00  0.85110738207E+03  0.85110738208E+03  0.25500000920E-02 0. -1.
        2   -1    0    0  501    0  0.00000000000E+00  0.00000000000E+00 -0.15545977219E+04  0.15545977219E+04  0.25500000920E-02 0.  1.
    10030    2    1    2    0    0  0.00000000000E+00  0.00000000000E+00 -0.70349033987E+03  0.24057051040E+04  0.23005474108E+04 0.  0.
        3    1    3    3  502    0  0.26381377262E+03 -0.11124358216E+04 -0.48409429772E+03  0.12415548571E+04  0.10100000352E+00 0.  1.
       -3    1    3    3    0  502 -0.26381377262E+03  0.11124358216E+04 -0.21939604215E+03  0.11641502469E+04  0.10100000352E+00 0. -1.
</event>
<event>
 5   0  0.1697855E-05  0.2287134E+04  0.7818609E-02  0.8483011E-01
       -2   -1    0    0    0  501  0.00000000000E+00  0.00000000000E+00  0.96971963791E+03  0.96971963791E+03  0.25500000920E-02 0. -1.
        2   -1    0    0  501    0  0.00000000000E+00  0.00000000000E+00 -0.13485809670E+04  0.13485809670E+04  0.25500000920E-02 0.  1.
    10030    2    1    2    0    0  0.00000000000E+00  0.00000000000E+00 -0.37886132908E+03  0.23183006049E+04  0.22871339681E+04 0.  0.
        5    1    3    3  502    0  0.37231420627E+03 -0.10693470002E+04 -0.27242492424E+02  0.11326451865E+04  0.46999998093E+01 0. -1.
       -5    1    3    3    0  502 -0.37231420627E+03  0.10693470002E+04 -0.35161883666E+03  0.11856554185E+04  0.46999998093E+01 0.  1.
</event>
<event>
 5   0  0.1626636E-05  0.2317205E+04  0.7818609E-02  0.8471168E-01
        2   -1    0    0  501    0  0.00000000000E+00  0.00000000000E+00  0.10002916254E+04  0.10002916254E+04  0.25500000920E-02 0.  1.
       -2   -1    0    0    0  501  0.00000000000E+00  0.00000000000E+00 -0.13419679172E+04  0.13419679172E+04  0.25500000920E-02 0. -1.
    10030    2    1    2    0    0  0.00000000000E+00  0.00000000000E+00 -0.34167629174E+03  0.23422595426E+04  0.23172045823E+04 0.  0.
        4    1    3    3  502    0 -0.48379592164E+03  0.16120601749E+03  0.88075278372E+03  0.10177293121E+04  0.12699999809E+01 0.  1.
       -4    1    3    3    0  502  0.48379592164E+03 -0.16120601749E+03 -0.12224290755E+04  0.13245302304E+04  0.12699999809E+01 0. -1.
</event>
<event>
 5   0  0.1588969E-05  0.2304436E+04  0.7818609E-02  0.8476174E-01
        2   -1    0    0  501    0  0.00000000000E+00  0.00000000000E+00  0.19794014478E+04  0.19794014478E+04  0.25500000920E-02 0.  1.
       -2   -1    0    0    0  501  0.00000000000E+00  0.00000000000E+00 -0.67071120675E+03  0.67071120675E+03  0.25500000920E-02 0. -1.
    10030    2    1    2    0    0  0.00000000000E+00  0.00000000000E+00  0.13086902410E+04  0.26501126545E+04  0.23044363594E+04 0.  0.
        1    1    3    3  502    0 -0.92032870917E+03 -0.31463752299E+03 -0.56060947223E+02  0.97424049065E+03  0.50400001928E-02 0. -1.
       -1    1    3    3    0  502  0.92032870917E+03  0.31463752299E+03  0.13647511883E+04  0.16758721639E+04  0.50400001928E-02 0.  1.
</event>
<event>
 5   0  0.7202572E-06  0.2292091E+04  0.7818609E-02  0.8481046E-01
        1   -1    0    0  501    0  0.00000000000E+00  0.00000000000E+00  0.47095090368E+03  0.47095090371E+03  0.50400001928E-02 0.  1.
       -1   -1    0    0    0  501  0.00000000000E+00  0.00000000000E+00 -0.27888681800E+04  0.27888681800E+04  0.50400001928E-02 0. -1.
    10030    2    1    2    0    0  0.00000000000E+00  0.00000000000E+00 -0.23179172763E+04  0.32598190837E+04  0.22920907396E+04 0.  0.
        2    1    3    3  502    0  0.34712320392E+02  0.61761789500E+03 -0.25310444982E+04  0.26055408385E+04  0.25500000920E-02 0. -1.
       -2    1    3    3    0  502 -0.34712320392E+02 -0.61761789500E+03  0.21312722188E+03  0.65427824518E+03  0.25500000920E-02 0.  1.
</event>
<event>
 5   0  0.7183014E-06  0.2290457E+04  0.7818609E-02  0.8481693E-01
       -1   -1    0    0    0  501  0.00000000000E+00  0.00000000000E+00  0.95534088306E+03  0.95534088308E+03  0.50400001928E-02 0. -1.
        1   -1    0    0  501    0  0.00000000000E+00  0.00000000000E+00 -0.13728586006E+04  0.13728586006E+04  0.50400001928E-02 0.  1.
    10030    2    1    2    0    0  0.00000000000E+00  0.00000000000E+00 -0.41751771753E+03  0.23281994837E+04  0.22904566775E+04 0.  0.
        3    1    3    3  502    0 -0.16210054018E+03 -0.11196569858E+04 -0.38956513761E+03  0.11965238642E+04  0.10100000352E+00 0.  1.
       -3    1    3    3    0  502  0.16210054018E+03  0.11196569858E+04 -0.27952579928E+02  0.11316756195E+04  0.10100000352E+00 0. -1.
</event>
<event>
 5   0  0.1602809E-05  0.2246363E+04  0.7818609E-02  0.8499375E-01
        2   -1    0    0  501    0  0.00000000000E+00  0.00000000000E+00  0.12438677159E+04  0.12438677159E+04  0.25500000920E-02 0.  1.
       -2   -1    0    0    0  501  0.00000000000E+00  0.00000000000E+00 -0.10142044896E+04  0.10142044896E+04  0.25500000920E-02 0. -1.
    10030    2    1    2    0    0  0.00000000000E+00  0.00000000000E+00  0.22966322631E+03  0.22580722055E+04  0.22463625904E+04 0.  0.
        3    1    3    3  502    0 -0.28469920932E+03 -0.10621876354E+04  0.34458374392E+03  0.11524036529E+04  0.10100000352E+00 0.  1.
       -3    1    3    3    0  502  0.28469920932E+03  0.10621876354E+04 -0.11492051761E+03  0.11056685525E+04  0.10100000352E+00 0. -1.
</event>
<event>
 5   0  0.1602809E-05  0.2291177E+04  0.7818609E-02  0.8481408E-01
       -2   -1    0    0    0  501  0.00000000000E+00  0.00000000000E+00  0.88767093105E+03  0.88767093105E+03  0.25500000920E-02 0. -1.
        2   -1    0    0  501    0  0.00000000000E+00  0.00000000000E+00 -0.14784457425E+04  0.14784457425E+04  0.25500000920E-02 0.  1.
    10030    2    1    2    0    0  0.00000000000E+00  0.00000000000E+00 -0.59077481144E+03  0.23661166735E+04  0.22911772596E+04 0.  0.
        3    1    3    3  502    0 -0.54466264245E+03 -0.25967423120E+03 -0.13010376226E+04  0.14341502731E+04  0.10100000352E+00 0.  1.
       -3    1    3    3    0  502  0.54466264245E+03  0.25967423120E+03  0.71026281111E+03  0.93196640041E+03  0.10100000352E+00 0. -1.
</event>
<event>
 5   0  0.7202572E-06  0.2309108E+04  0.7818609E-02  0.8474338E-01
        1   -1    0    0  501    0  0.00000000000E+00  0.00000000000E+00  0.17054870199E+04  0.17054870199E+04  0.50400001928E-02 0. -1.
       -1   -1    0    0    0  501  0.00000000000E+00  0.00000000000E+00 -0.78159224361E+03  0.78159224363E+03  0.50400001928E-02 0.  1.
    10030    2    1    2    0    0  0.00000000000E+00  0.00000000000E+00  0.92389477625E+03  0.24870792635E+04  0.23091084222E+04 0.  0.
        2    1    3    3  502    0  0.62032989555E+03  0.95919638250E+03  0.64258947809E+03  0.13106441610E+04  0.25500000920E-02 0. -1.
       -2    1    3    3    0  502 -0.62032989555E+03 -0.95919638250E+03  0.28130529816E+03  0.11764351025E+04  0.25500000920E-02 0.  1.
</event>
<event>
 5   0  0.7391007E-06  0.2291154E+04  0.7818609E-02  0.8481417E-01
        1   -1    0    0  501    0  0.00000000000E+00  0.00000000000E+00  0.19347116100E+04  0.19347116100E+04  0.50400001928E-02 0.  1.
       -1   -1    0    0    0  501  0.00000000000E+00  0.00000000000E+00 -0.67831666452E+03  0.67831666454E+03  0.50400001928E-02 0. -1.
    10030    2    1    2    0    0  0.00000000000E+00  0.00000000000E+00  0.12563949455E+04  0.26130282746E+04  0.22911544044E+04 0.  0.
        1    1    3    3  502    0  0.42372632268E+03  0.89225430700E+03  0.12899595578E+04  0.16247022514E+04  0.50400001928E-02 0.  1.
       -1    1    3    3    0  502 -0.42372632268E+03 -0.89225430700E+03 -0.33564612294E+02  0.98832602319E+03  0.50400001928E-02 0. -1.
</event>
<event>
 5   0  0.1697855E-05  0.2295251E+04  0.7818609E-02  0.8479796E-01
        2   -1    0    0  501    0  0.00000000000E+00  0.00000000000E+00  0.17584525659E+04  0.17584525659E+04  0.25500000920E-02 0. -1.
       -2   -1    0    0    0  501  0.00000000000E+00  0.00000000000E+00 -0.74897897467E+03  0.74897897467E+03  0.25500000920E-02 0.  1.
    10030    2    1    2    0    0  0.00000000000E+00  0.00000000000E+00  0.10094735913E+04  0.25074315406E+04  0.22952507487E+04 0.  0.
        5    1    3    3  502    0  0.69196581089E+03  0.85452108286E+03  0.14572501151E+03  0.11091802529E+04  0.46999998093E+01 0. -1.
       -5    1    3    3    0  502 -0.69196581089E+03 -0.85452108286E+03  0.86374857977E+03  0.13982512877E+04  0.46999998093E+01 0.  1.
</event>
<event>
 5   0  0.7416556E-06  0.2302619E+04  0.7818609E-02  0.8476889E-01
       -1   -1    0    0    0  501  0.00000000000E+00  0.00000000000E+00  0.75463395850E+03  0.75463395851E+03  0.50400001928E-02 0.  1.
        1   -1    0    0  501    0  0.00000000000E+00  0.00000000000E+00 -0.17564986678E+04  0.17564986678E+04  0.50400001928E-02 0. -1.
    10030    2    1    2    0    0  0.00000000000E+00  0.00000000000E+00 -0.10018647093E+04  0.25111326263E+04  0.23026189809E+04 0.  0.
        4    1    3    3  502    0  0.12814795335E+03 -0.10116339705E+04 -0.10838304191E+04  0.14881247188E+04  0.12699999809E+01 0. -1.
       -4    1    3    3    0  502 -0.12814795335E+03  0.10116339705E+04  0.81965709873E+02  0.10230079075E+04  0.12699999809E+01 0.  1.
</event>
<event>
 5   0  0.7391007E-06  0.2285219E+04  0.7818609E-02  0.8483772E-01
       -1   -1    0    0    0  501  0.00000000000E+00  0.00000000000E+00  0.85265913545E+03  0.85265913547E+03  0.50400001928E-02 0.  1.
        1   -1    0    0  501    0  0.00000000000E+00  0.00000000000E+00 -0.15311591963E+04  0.15311591963E+04  0.50400001928E-02 0. -1.
    10030    2    1    2    0    0  0.00000000000E+00  0.00000000000E+00 -0.67850006088E+03  0.23838183318E+04  0.22852193563E+04 0.  0.
        1    1    3    3  502    0 -0.63931887022E+03  0.30308644715E+03 -0.12751604082E+04  0.14582949218E+04  0.50400001928E-02 0.  1.
       -1    1    3    3    0  502  0.63931887022E+03 -0.30308644715E+03  0.59666034736E+03  0.92552340997E+03  0.50400001928E-02 0. -1.
</event>
<event>
 5   0  0.1626636E-05  0.2282681E+04  0.7818609E-02  0.8484781E-01
        2   -1    0    0  501    0  0.00000000000E+00  0.00000000000E+00  0.14065370743E+04  0.14065370743E+04  0.25500000920E-02 0.  1.
       -2   -1    0    0    0  501  0.00000000000E+00  0.00000000000E+00 -0.92614557321E+03  0.92614557321E+03  0.25500000920E-02 0. -1.
    10030    2    1    2    0    0  0.00000000000E+00  0.00000000000E+00  0.48039150110E+03  0.23326826475E+04  0.22826809544E+04 0.  0.
        4    1    3    3  502    0  0.35703348843E+03  0.67677215327E+03 -0.62520921926E+03  0.98812025586E+03  0.12699999809E+01 0. -1.
       -4    1    3    3    0  502 -0.35703348843E+03 -0.67677215327E+03  0.11056007204E+04  0.13445623917E+04  0.12699999809E+01 0.  1.
</event>
<event>
 5   0  0.7183014E-06  0.2303937E+04  0.7818609E-02  0.8476370E-01
       -1   -1    0    0    0  501  0.00000000000E+00  0.00000000000E+00  0.86708035148E+03  0.86708035149E+03  0.50400001928E-02 0. -1.
        1   -1    0    0  501    0  0.00000000000E+00  0.00000000000E+00 -0.15304601935E+04  0.15304601936E+04  0.50400001928E-02 0.  1.
    10030    2    1    2    0    0  0.00000000000E+00  0.00000000000E+00 -0.66337984207E+03  0.23975405450E+04  0.23039374667E+04 0.  0.
        3    1    3    3  502    0  0.56095040096E+03  0.96689718366E+03 -0.62134429498E+03  0.12789152666E+04  0.10100000352E+00 0.  1.
       -3    1    3    3    0  502 -0.56095040096E+03 -0.96689718366E+03 -0.42035547090E+02  0.11186252784E+04  0.10100000352E+00 0. -1.
</event>
<event>
 5   0  0.7391007E-06  0.2301252E+04  0.7818609E-02  0.8477428E-01
       -1   -1    0    0    0  501  0.00000000000E+00  0.00000000000E+00  0.73858058252E+03  0.73858058254E+03  0.50400001928E-02 0. -1.
        1   -1    0    0  501    0  0.00000000000E+00  0.00000000000E+00 -0.17925470393E+04  0.17925470393E+04  0.50400001928E-02 0.  1.
    10030    2    1    2    0    0  0.00000000000E+00  0.00000000000E+00 -0.10539664568E+04  0.25311276218E+04  0.23012522126E+04 0.  0.
        1    1    3    3  502    0  0.46128547544E+02 -0.64238330340E+03  0.52175982423E+03  0.82886516732E+03  0.50400001928E-02 0. -1.
       -1    1    3    3    0  502 -0.46128547544E+02  0.64238330340E+03 -0.15757262810E+04  0.17022624545E+04  0.50400001928E-02 0.  1.
</event>
<event>
 5   0  0.7391007E-06  0.2299280E+04  0.7818609E-02  0.8478205E-01
       -1   -1    0    0    0  501  0.00000000000E+00  0.00000000000E+00  0.98095766411E+03  0.98095766412E+03  0.50400001928E-02 0.  1.
        1   -1    0    0  501    0  0.00000000000E+00  0.00000000000E+00 -0.13473284448E+04  0.13473284449E+04  0.50400001928E-02 0. -1.
    10030    2    1    2    0    0  0.00000000000E+00  0.00000000000E+00 -0.36637078074E+03  0.23282861090E+04  0.22992800300E+04 0.  0.
        1    1    3    3  502    0 -0.27404936977E+03  0.76582477804E+03  0.63951795940E+03  0.10346853957E+04  0.50400001928E-02 0.  1.
       -1    1    3    3    0  502  0.27404936977E+03 -0.76582477804E+03 -0.10058887401E+04  0.12936007132E+04  0.50400001928E-02 0. -1.
</event>
<event>
 5   0  0.7278815E-06  0.2302117E+04  0.7818609E-02  0.8477087E-01
        1   -1    0    0  501    0  0.00000000000E+00  0.00000000000E+00  0.21237469715E+04  0.21237469715E+04  0.50400001928E-02 0. -1.
       -1   -1    0    0    0  501  0.00000000000E+00  0.00000000000E+00 -0.62386690252E+03  0.62386690254E+03  0.50400001928E-02 0.  1.
    10030    2    1    2    0    0  0.00000000000E+00  0.00000000000E+00  0.14998800690E+04  0.27476138741E+04  0.23021168041E+04 0.  0.
        5    1    3    3  502    0  0.93592944408E+03 -0.55047965956E+01  0.15496129758E+04  0.18103360716E+04  0.46999998093E+01 0. -1.
       -5    1    3    3    0  502 -0.93592944408E+03  0.55047965956E+01 -0.49732906838E+02  0.93727780252E+03  0.46999998093E+01 0.  1.
</event>
<event>
 5   0  0.7278815E-06  0.2294534E+04  0.7818609E-02  0.8480079E-01
       -1   -1    0    0    0  501  0.00000000000E+00  0.00000000000E+00  0.10689271255E+04  0.10689271256E+04  0.50400001928E-02 0.  1.
        1   -1    0    0  501    0  0.00000000000E+00  0.00000000000E+00 -0.12313484129E+04  0.12313484129E+04  0.50400001928E-02 0. -1.
    10030    2    1    2    0    0  0.00000000000E+00  0.00000000000E+00 -0.16242128739E+03  0.23002755385E+04  0.22945341310E+04 0.  0.
        5    1    3    3  502    0  0.73096368415E+03 -0.85604884656E+03 -0.30328715984E+03  0.11658184793E+04  0.46999998093E+01 0.  1.
       -5    1    3    3    0  502 -0.73096368415E+03  0.85604884656E+03  0.14086587244E+03  0.11344570592E+04  0.46999998093E+01 0. -1.
</event>
<event>
 5   0  0.7202572E-06  0.2295138E+04  0.7818609E-02  0.8479840E-01
        1   -1    0    0  501    0  0.00000000000E+00  0.00000000000E+00  0.21915757365E+04  0.21915757365E+04  0.50400001928E-02 0. -1.
       -1   -1    0    0    0  501  0.00000000000E+00  0.00000000000E+00 -0.60089872520E+03  0.60089872522E+03  0.50400001928E-02 0.  1.
    10030    2    1    2    0    0  0.00000000000E+00  0.00000000000E+00  0.15906770113E+04  0.27924744618E+04  0.22951383978E+04 0.  0.
        2    1    3    3  502    0 -0.74366603015E+03 -0.74234890856E+03  0.23408376772E+03  0.10765297380E+04  0.25500000920E-02 0.  1.
       -2    1    3    3    0  502  0.74366603015E+03  0.74234890856E+03  0.13565932436E+04  0.17159447238E+04  0.25500000920E-02 0. -1.
</event>
<event>
 5   0  0.7202572E-06  0.2300890E+04  0.7818609E-02  0.8477570E-01
        1   -1    0    0  501    0  0.00000000000E+00  0.00000000000E+00  0.91365928285E+03  0.91365928287E+03  0.50400001928E-02 0. -1.
       -1   -1    0    0    0  501  0.00000000000E+00  0.00000000000E+00 -0.14485964361E+04  0.14485964361E+04  0.50400001928E-02 0.  1.
    10030    2    1    2    0    0  0.00000000000E+00  0.00000000000E+00 -0.53493715322E+03  0.23622557189E+04  0.23008898982E+04 0.  0.
        2    1    3    3  502    0 -0.86078972723E+03  0.12696637424E+03 -0.10401662879E+04  0.13561066777E+04  0.25500000920E-02 0.  1.
       -2    1    3    3    0  502  0.86078972723E+03 -0.12696637424E+03  0.50522913470E+03  0.10061490413E+04  0.25500000920E-02 0. -1.
</event>
<event>
 5   0  0.7202572E-06  0.2310515E+04  0.7818609E-02  0.8473787E-01
        1   -1    0    0  501    0  0.00000000000E+00  0.00000000000E+00  0.12950823640E+04  0.12950823640E+04  0.50400001928E-02 0. -1.
       -1   -1    0    0    0  501  0.00000000000E+00  0.00000000000E+00 -0.10305291214E+04  0.10305291214E+04  0.50400001928E-02 0.  1.
    10030    2    1    2    0    0  0.00000000000E+00  0.00000000000E+00  0.26455324261E+03  0.23256114854E+04  0.23105151726E+04 0.  0.
        2    1    3    3  502    0 -0.84168112744E+03 -0.17652311957E+03  0.90870017860E+03  0.12511289089E+04  0.25500000920E-02 0. -1.
       -2    1    3    3    0  502  0.84168112744E+03  0.17652311957E+03 -0.64414693599E+03  0.10744825765E+04  0.25500000920E-02 0.  1.
</event>
<event>
 5   0  0.1697855E-05  0.2293687E+04  0.7818609E-02  0.8480414E-01
       -2   -1    0    0    0  501  0.00000000000E+00  0.00000000000E+00  0.72742878656E+03  0.72742878656E+03  0.25500000920E-02 0. -1.
        2   -1    0    0  501    0  0.00000000000E+00  0.00000000000E+00 -0.18080809640E+04  0.18080809640E+04  0.25500000920E-02 0.  1.
    10030    2    1    2    0    0  0.00000000000E+00  0.00000000000E+00 -0.10806521775E+04  0.25355097506E+04  0.22936871118E+04 0.  0.
        5    1    3    3  502    0  0.18457105606E+03  0.70134089177E+03 -0.15224071950E+04  0.16863247845E+04  0.46999998093E+01 0.  1.
       -5    1    3    3    0  502 -0.18457105606E+03 -0.70134089177E+03  0.44175501755E+03  0.84918496615E+03  0.46999998093E+01 0. -1.
</event>
<event>
 5   0  0.7391007E-06  0.2306223E+04  0.7818609E-02  0.8475472E-01
        1   -1    0    0  501    0  0.00000000000E+00  0.00000000000E+00  0.15617577948E+04  0.15617577948E+04  0.50400001928E-02 0.  1.
       -1   -1    0    0    0  501  0.00000000000E+00  0.00000000000E+00 -0.85139040376E+03  0.85139040377E+03  0.50400001928E-02 0. -1.
    10030    2    1    2    0    0  0.00000000000E+00  0.00000000000E+00  0.71036739106E+03  0.24131481986E+04  0.23062225387E+04 0.  0.
        1    1    3    3  502    0 -0.11494977332E+04  0.49148865833E+02  0.27477724556E+03  0.11829045542E+04  0.50400001928E-02 0.  1.
       -1    1    3    3    0  502  0.11494977332E+04 -0.49148865833E+02  0.43559014549E+03  0.12302436444E+04  0.50400001928E-02 0. -1.
</event>
<event>
 5   0  0.5704875E-06  0.2306939E+04  0.7818609E-02  0.8475190E-01
       -3   -1    0    0    0  501  0.00000000000E+00  0.00000000000E+00  0.15177815914E+04  0.15177815948E+04  0.10100000352E+00 0.  1.
        3   -1    0    0  501    0  0.00000000000E+00  0.00000000000E+00 -0.87660262587E+03  0.87660263168E+03  0.10100000352E+00 0. -1.
    10030    2    1    2    0    0  0.00000000000E+00  0.00000000000E+00  0.64117896553E+03  0.23943842264E+04  0.23069385250E+04 0.  0.
        3    1    3    3  502    0  0.52508949202E+03 -0.41450679938E+03  0.12958653262E+04  0.14583558602E+04  0.10100000352E+00 0.  1.
       -3    1    3    3    0  502 -0.52508949202E+03  0.41450679938E+03 -0.65468636062E+03  0.93602836621E+03  0.10100000352E+00 0. -1.
</event>
<event>
 5   0  0.1602809E-05  0.2302673E+04  0.7818609E-02  0.8476868E-01
        2   -1    0    0  501    0  0.00000000000E+00  0.00000000000E+00  0.81109275542E+03  0.81109275542E+03  0.25500000920E-02 0. -1.
       -2   -1    0    0    0  501  0.00000000000E+00  0.00000000000E+00 -0.16343087993E+04  0.16343087993E+04  0.25500000920E-02 0.  1.
    10030    2    1    2    0    0  0.00000000000E+00  0.00000000000E+00 -0.82321604392E+03  0.24454015548E+04  0.23026732528E+04 0.  0.
        3    1    3    3  502    0  0.55304183279E+03 -0.52797031161E+03  0.50254231307E+03  0.91496267977E+03  0.10100000352E+00 0. -1.
       -3    1    3    3    0  502 -0.55304183279E+03  0.52797031161E+03 -0.13257583570E+04  0.15304388750E+04  0.10100000352E+00 0.  1.
</event>
<event>
 5   0  0.7416556E-06  0.2298188E+04  0.7818609E-02  0.8478636E-01
       -1   -1    0    0    0  501  0.00000000000E+00  0.00000000000E+00  0.97454725898E+03  0.97454725900E+03  0.50400001928E-02 0.  1.
        1   -1    0    0  501    0  0.00000000000E+00  0.00000000000E+00 -0.13549027152E+04  0.13549027152E+04  0.50400001928E-02 0. -1.
    10030    2    1    2    0    0  0.00000000000E+00  0.00000000000E+00 -0.38035545623E+03  0.23294499742E+04  0.22981877446E+04 0.  0.
        4    1    3    3  502    0  0.21418513941E+03  0.89612480286E+02 -0.13308794579E+04  0.13509801682E+04  0.12699999809E+01 0. -1.
       -4    1    3    3    0  502 -0.21418513941E+03 -0.89612480286E+02  0.95052400168E+03  0.97846980599E+03  0.12699999809E+01 0.  1.
</event>
<event>
 5   0  0.1626636E-05  0.2300761E+04  0.7818609E-02  0.8477621E-01
       -2   -1    0    0    0  501  0.00000000000E+00  0.00000000000E+00  0.86384676126E+03  0.86384676126E+03  0.25500000920E-02 0. -1.
        2   -1    0    0  501    0  0.00000000000E+00  0.00000000000E+00 -0.15319556741E+04  0.15319556741E+04  0.25500000920E-02 0.  1.
    10030    2    1    2    0    0  0.00000000000E+00  0.00000000000E+00 -0.66810891286E+03  0.23958024354E+04  0.23007606981E+04 0.  0.
        4    1    3    3  502    0  0.94754109798E+03  0.55692850093E+03  0.19637929278E+02  0.10992682788E+04  0.12699999809E+01 0.  1.
       -4    1    3    3    0  502 -0.94754109798E+03 -0.55692850093E+03 -0.68774684213E+03  0.12965341566E+04  0.12699999809E+01 0. -1.
</event>
<event>
 5   0  0.1588969E-05  0.2305294E+04  0.7818609E-02  0.8475837E-01
        2   -1    0    0  501    0  0.00000000000E+00  0.00000000000E+00  0.16269828686E+04  0.16269828686E+04  0.25500000920E-02 0.  1.
       -2   -1    0    0    0  501  0.00000000000E+00  0.00000000000E+00 -0.81660056373E+03  0.81660056374E+03  0.25500000920E-02 0. -1.
    10030    2    1    2    0    0  0.00000000000E+00  0.00000000000E+00  0.81038230485E+03  0.24435834323E+04  0.23052940183E+04 0.  0.
        1    1    3    3  502    0 -0.76275446896E+03  0.12116378509E+03 -0.50177694127E+03  0.92100767725E+03  0.50400001928E-02 0. -1.
       -1    1    3    3    0  502  0.76275446896E+03 -0.12116378509E+03  0.13121592461E+04  0.15225757551E+04  0.50400001928E-02 0.  1.
</event>
<event>
 5   0  0.7183014E-06  0.2300898E+04  0.7818609E-02  0.8477567E-01
        1   -1    0    0  501    0  0.00000000000E+00  0.00000000000E+00  0.12966678143E+04  0.12966678143E+04  0.50400001928E-02 0.  1.
       -1   -1    0    0    0  501  0.00000000000E+00  0.00000000000E+00 -0.10207187444E+04  0.10207187444E+04  0.50400001928E-02 0. -1.
    10030    2    1    2    0    0  0.00000000000E+00  0.00000000000E+00  0.27594906992E+03  0.23173865587E+04  0.23008982101E+04 0.  0.
        3    1    3    3  502    0  0.10126947835E+04  0.52700214586E+02  0.68519584639E+03  0.12238551365E+04  0.10100000352E+00 0. -1.
       -3    1    3    3    0  502 -0.10126947835E+04 -0.52700214586E+02 -0.40924677647E+03  0.10935314222E+04  0.10100000352E+00 0.  1.
</event>
<event>
 5   0  0.1602809E-05  0.2300450E+04  0.7818609E-02  0.8477744E-01
       -2   -1    0    0    0  501  0.00000000000E+00  0.00000000000E+00  0.10111599413E+04  0.10111599413E+04  0.25500000920E-02 0.  1.
        2   -1    0    0  501    0  0.00000000000E+00  0.00000000000E+00 -0.13084160021E+04  0.13084160021E+04  0.25500000920E-02 0. -1.
    10030    2    1    2    0    0  0.00000000000E+00  0.00000000000E+00 -0.29725606086E+03  0.23195759434E+04  0.23004502584E+04 0.  0.
        3    1    3    3  502    0 -0.55915821959E+03 -0.98805149399E+03  0.37607758565E+02  0.11359216624E+04  0.10100000352E+00 0.  1.
       -3    1    3    3    0  502  0.55915821959E+03  0.98805149399E+03 -0.33486381942E+03  0.11836542811E+04  0.10100000352E+00 0. -1.
</event>
<event>
 5   0  0.7416556E-06  0.2270048E+04  0.7818609E-02  0.8489825E-01
       -1   -1    0    0    0  501  0.00000000000E+00  0.00000000000E+00  0.78308697122E+03  0.78308697124E+03  0.50400001928E-02 0.  1.
        1   -1    0    0  501    0  0.00000000000E+00  0.00000000000E+00 -0.16451295427E+04  0.16451295427E+04  0.50400001928E-02 0. -1.
    10030    2    1    2    0    0  0.00000000000E+00  0.00000000000E+00 -0.86204257145E+03  0.24282165139E+04  0.22700480267E+04 0.  0.
        4    1    3    3  502    0  0.64313913068E+03  0.92322215004E+03 -0.59079675876E+03  0.12708302415E+04  0.12699999809E+01 0.  1.
       -4    1    3    3    0  502 -0.64313913068E+03 -0.92322215004E+03 -0.27124581269E+03  0.11573862724E+04  0.12699999809E+01 0. -1.
</event>
<event>
 5   0  0.1635955E-05  0.2334706E+04  0.7818609E-02  0.8464361E-01
        2   -1    0    0  501    0  0.00000000000E+00  0.00000000000E+00  0.17887278256E+04  0.17887278256E+04  0.25500000920E-02 0. -1.
       -2   -1    0    0    0  501  0.00000000000E+00  0.00000000000E+00 -0.76183377361E+03  0.76183377361E+03  0.25500000920E-02 0.  1.
    10030    2    1    2    0    0  0.00000000000E+00  0.00000000000E+00  0.10268940520E+04  0.25505615992E+04  0.23347062079E+04 0.  0.
        2    1    3    3  502    0  0.55772180163E+03  0.93390064450E+03  0.50615645361E+02  0.10889379989E+04  0.25500000920E-02 0.  1.
       -2    1    3    3    0  502 -0.55772180163E+03 -0.93390064450E+03  0.97627840660E+03  0.14616236003E+04  0.25500000920E-02 0. -1.
</event>
<event>
 5   0  0.7416556E-06  0.2307792E+04  0.7818609E-02  0.8474855E-01
       -1   -1    0    0    0  501  0.00000000000E+00  0.00000000000E+00  0.87983601901E+03  0.87983601902E+03  0.50400001928E-02 0. -1.
        1   -1    0    0  501    0  0.00000000000E+00  0.00000000000E+00 -0.15133228694E+04  0.15133228694E+04  0.50400001928E-02 0.  1.
    10030    2    1    2    0    0  0.00000000000E+00  0.00000000000E+00 -0.63348685035E+03  0.23931588884E+04  0.23077919914E+04 0.  0.
        4    1    3    3  502    0 -0.48713588572E+03  0.39044509679E+03 -0.13230656459E+04  0.14629603757E+04  0.12699999809E+01 0.  1.
       -4    1    3    3    0  502  0.48713588572E+03 -0.39044509679E+03  0.68957879554E+03  0.93019851264E+03  0.12699999809E+01 0. -1.
</event>
<event>
 5   0  0.7416556E-06  0.2297556E+04  0.7818609E-02  0.8478885E-01
        1   -1    0    0  501    0  0.00000000000E+00  0.00000000000E+00  0.10551088162E+04  0.10551088162E+04  0.50400001928E-02 0. -1.
       -1   -1    0    0    0  501  0.00000000000E+00  0.00000000000E+00 -0.12507625111E+04  0.12507625111E+04  0.50400001928E-02 0.  1.
    10030    2    1    2    0    0  0.00000000000E+00  0.00000000000E+00 -0.19565369496E+03  0.23058713273E+04  0.22975557033E+04 0.  0.
        4    1    3    3  502    0 -0.75372435017E+03  0.15772413932E+03 -0.95338607096E+03  0.12255300540E+04  0.12699999809E+01 0.  1.
       -4    1    3    3    0  502  0.75372435017E+03 -0.15772413932E+03  0.75773237600E+03  0.10803412733E+04  0.12699999809E+01 0. -1.
</event>
<event>
 5   0  0.7202572E-06  0.2293738E+04  0.7818609E-02  0.8480394E-01
       -1   -1    0    0    0  501  0.00000000000E+00  0.00000000000E+00  0.57817126527E+03  0.57817126530E+03  0.50400001928E-02 0. -1.
        1   -1    0    0  501    0  0.00000000000E+00  0.00000000000E+00 -0.22749469301E+04  0.22749469301E+04  0.50400001928E-02 0.  1.
    10030    2    1    2    0    0  0.00000000000E+00  0.00000000000E+00 -0.16967756649E+04  0.28531181954E+04  0.22937383853E+04 0.  0.
        2    1    3    3  502    0  0.83727017832E+03  0.71238746330E+03 -0.12548729243E+04  0.16682995251E+04  0.25500000920E-02 0.  1.
       -2    1    3    3    0  502 -0.83727017832E+03 -0.71238746330E+03 -0.44190274053E+03  0.11848186703E+04  0.25500000920E-02 0. -1.
</event>
<event>
 5   0  0.1635955E-05  0.2301510E+04  0.7818609E-02  0.8477326E-01
       -2   -1    0    0    0  501  0.00000000000E+00  0.00000000000E+00  0.16687618163E+04  0.16687618163E+04  0.25500000920E-02 0. -1.
        2   -1    0    0  501    0  0.00000000000E+00  0.00000000000E+00 -0.79354486664E+03  0.79354486665E+03  0.25500000920E-02 0.  1.
    10030    2    1    2    0    0  0.00000000000E+00  0.00000000000E+00  0.87521694968E+03  0.24623066830E+04  0.23015102633E+04 0.  0.
        2    1    3    3  502    0 -0.78923472688E+03 -0.83657798386E+03  0.47881144008E+03  0.12457987688E+04  0.25500000920E-02 0. -1.
       -2    1    3    3    0  502  0.78923472688E+03  0.83657798386E+03  0.39640550959E+03  0.12165079142E+04  0.25500000920E-02 0.  1.
</event>
<event>
 5   0  0.1588969E-05  0.2301580E+04  0.7818609E-02  0.8477299E-01
        2   -1    0    0  501    0  0.00000000000E+00  0.00000000000E+00  0.15243518359E+04  0.15243518359E+04  0.25500000920E-02 0.  1.
       -2   -1    0    0    0  501  0.00000000000E+00  0.00000000000E+00 -0.86877387380E+03  0.86877387381E+03  0.25500000920E-02 0. -1.
    10030    2    1    2    0    0  0.00000000000E+00  0.00000000000E+00  0.65557796209E+03  0.23931257097E+04  0.23015795007E+04 0.  0.
        1    1    3    3  502    0 -0.71199421731E+03  0.70268744980E+03  0.91928468329E+03  0.13585984493E+04  0.50400001928E-02 0.  1.
       -1    1    3    3    0  502  0.71199421731E+03 -0.70268744980E+03 -0.26370672121E+03  0.10345272604E+04  0.50400001928E-02 0. -1.
</event>
<event>
 5   0  0.1697855E-05  0.2305322E+04  0.7818609E-02  0.8475826E-01
       -2   -1    0    0    0  501  0.00000000000E+00  0.00000000000E+00  0.72323897025E+03  0.72323897025E+03  0.25500000920E-02 0.  1.
        2   -1    0    0  501    0  0.00000000000E+00  0.00000000000E+00 -0.18370522123E+04  0.18370522123E+04  0.25500000920E-02 0. -1.
    10030    2    1    2    0    0  0.00000000000E+00  0.00000000000E+00 -0.11138132421E+04  0.25602911826E+04  0.23053223205E+04 0.  0.
        5    1    3    3  502    0  0.68361209913E+03  0.25414906316E+03 -0.15481994295E+04  0.17113914841E+04  0.46999998093E+01 0. -1.
       -5    1    3    3    0  502 -0.68361209913E+03 -0.25414906316E+03  0.43438618737E+03  0.84889969852E+03  0.46999998093E+01 0.  1.
</event>
<event>
 5   0  0.1588969E-05  0.2332220E+04  0.7818609E-02  0.8465325E-01
       -2   -1    0    0    0  501  0.00000000000E+00  0.00000000000E+00  0.71343421157E+03  0.71343421157E+03  0.25500000920E-02 0. -1.
        2   -1    0    0  501    0  0.00000000000E+00  0.00000000000E+00 -0.19060094586E+04  0.19060094586E+04  0.25500000920E-02 0.  1.
    10030    2    1    2    0    0  0.00000000000E+00  0.00000000000E+00 -0.11925752470E+04  0.26194436702E+04  0.23322198484E+04 0.  0.
        1    1    3    3  502    0 -0.88927007475E+03 -0.25099959116E+03  0.20266173573E+03  0.94597771632E+03  0.50400001928E-02 0.  1.
       -1    1    3    3    0  502  0.88927007475E+03  0.25099959116E+03 -0.13952369828E+04  0.16734659539E+04  0.50400001928E-02 0. -1.
</event>
<event>
 5   0  0.7391007E-06  0.2283614E+04  0.7818609E-02  0.8484410E-01
        1   -1    0    0  501    0  0.00000000000E+00  0.00000000000E+00  0.22088706035E+04  0.22088706035E+04  0.50400001928E-02 0. -1.
       -1   -1    0    0    0  501  0.00000000000E+00  0.00000000000E+00 -0.59022175226E+03  0.59022175228E+03  0.50400001928E-02 0.  1.
    10030    2    1    2    0    0  0.00000000000E+00  0.00000000000E+00  0.16186488512E+04  0.27990923558E+04  0.22836142215E+04 0.  0.
        1    1    3    3  502    0  0.28747245708E+03 -0.78989036386E+03 -0.13786859728E+03  0.85180687402E+03  0.50400001928E-02 0.  1.
       -1    1    3    3    0  502 -0.28747245708E+03  0.78989036386E+03  0.17565174485E+04  0.19472854817E+04  0.50400001928E-02 0. -1.
</event>
<event>
 5   0  0.1697855E-05  0.2235882E+04  0.7818609E-02  0.8503640E-01
        2   -1    0    0  501    0  0.00000000000E+00  0.00000000000E+00  0.89515802627E+03  0.89515802628E+03  0.25500000920E-02 0. -1.
       -2   -1    0    0    0  501  0.00000000000E+00  0.00000000000E+00 -0.13961686607E+04  0.13961686608E+04  0.25500000920E-02 0.  1.
    10030    2    1    2    0    0  0.00000000000E+00  0.00000000000E+00 -0.50101063448E+03  0.22913266870E+04  0.22358815556E+04 0.  0.
        5    1    3    3  502    0 -0.57198210225E+03  0.88220244509E+03  0.13881648235E+03  0.10605360839E+04  0.46999998093E+01 0. -1.
       -5    1    3    3    0  502  0.57198210225E+03 -0.88220244509E+03 -0.63982711682E+03  0.12307906032E+04  0.46999998093E+01 0.  1.
</event>
<event>
 5   0  0.1626636E-05  0.2303923E+04  0.7818609E-02  0.8476376E-01
        2   -1    0    0  501    0  0.00000000000E+00  0.00000000000E+00  0.16204150341E+04  0.16204150341E+04  0.25500000920E-02 0. -1.
       -2   -1    0    0    0  501  0.00000000000E+00  0.00000000000E+00 -0.81893539913E+03  0.81893539914E+03  0.25500000920E-02 0.  1.
    10030    2    1    2    0    0  0.00000000000E+00  0.00000000000E+00  0.80147963498E+03  0.24393504333E+04  0.23039229438E+04 0.  0.
        4    1    3    3  502    0 -0.98957421522E+03 -0.43149544606E+03 -0.24843064667E+02  0.10798445435E+04  0.12699999809E+01 0.  1.
       -4    1    3    3    0  502  0.98957421522E+03  0.43149544606E+03  0.82632269965E+03  0.13595058897E+04  0.12699999809E+01 0. -1.
</event>
<event>
 5   0  0.1626636E-05  0.2236170E+04  0.7818609E-02  0.8503522E-01
        2   -1    0    0  501    0  0.00000000000E+00  0.00000000000E+00  0.18473267383E+04  0.18473267383E+04  0.25500000920E-02 0.  1.
       -2   -1    0    0    0  501  0.00000000000E+00  0.00000000000E+00 -0.67671509096E+03  0.67671509096E+03  0.25500000920E-02 0. -1.
    10030    2    1    2    0    0  0.00000000000E+00  0.00000000000E+00  0.11706116473E+04  0.25240418293E+04  0.22361698341E+04 0.  0.
        4    1    3    3  502    0 -0.85180430938E+03  0.76399909778E+02 -0.22762178282E+03  0.88499763650E+03  0.12699999809E+01 0. -1.
       -4    1    3    3    0  502  0.85180430938E+03 -0.76399909778E+02  0.13982334302E+04  0.16390441928E+04  0.12699999809E+01 0.  1.
</event>
<event>
 5   0  0.7202572E-06  0.2295913E+04  0.7818609E-02  0.8479534E-01
       -1   -1    0    0    0  501  0.00000000000E+00  0.00000000000E+00  0.20291386104E+04  0.20291386104E+04  0.50400001928E-02 0. -1.
        1   -1    0    0  501    0  0.00000000000E+00  0.00000000000E+00 -0.64944004623E+03  0.64944004625E+03  0.50400001928E-02 0.  1.
    10030    2    1    2    0    0  0.00000000000E+00  0.00000000000E+00  0.13796985642E+04  0.26785786567E+04  0.22959127797E+04 0.  0.
        2    1    3    3  502    0 -0.57955728094E+02 -0.49295880666E+03 -0.51777618118E+03  0.71725826959E+03  0.25500000920E-02 0.  1.
       -2    1    3    3    0  502  0.57955728094E+02  0.49295880666E+03  0.18974747454E+04  0.19613203871E+04  0.25500000920E-02 0. -1.
</event>
<event>
 5   0  0.7183014E-06  0.2306870E+04  0.7818609E-02  0.8475217E-01
        1   -1    0    0  501    0  0.00000000000E+00  0.00000000000E+00  0.11741412352E+04  0.11741412352E+04  0.50400001928E-02 0. -1.
       -1   -1    0    0    0  501  0.00000000000E+00  0.00000000000E+00 -0.11330941740E+04  0.11330941740E+04  0.50400001928E-02 0.  1.
    10030    2    1    2    0    0  0.00000000000E+00  0.00000000000E+00  0.41047061220E+02  0.23072354092E+04  0.23068702548E+04 0.  0.
        3    1    3    3  502    0  0.44388425663E+03 -0.41417236200E+03  0.10014134978E+04  0.11710683082E+04  0.10100000352E+00 0. -1.
       -3    1    3    3    0  502 -0.44388425663E+03  0.41417236200E+03 -0.96036643657E+03  0.11361671010E+04  0.10100000352E+00 0.  1.
</event>
<event>
 5   0  0.7278815E-06  0.2240094E+04  0.7818609E-02  0.8501923E-01
        1   -1    0    0  501    0  0.00000000000E+00  0.00000000000E+00  0.10485716713E+04  0.10485716713E+04  0.50400001928E-02 0.  1.
       -1   -1    0    0    0  501  0.00000000000E+00  0.00000000000E+00 -0.11963942686E+04  0.11963942686E+04  0.50400001928E-02 0. -1.
    10030    2    1    2    0    0  0.00000000000E+00  0.00000000000E+00 -0.14782259731E+03  0.22449659399E+04  0.22400938711E+04 0.  0.
        5    1    3    3  502    0  0.44192280565E+03  0.73892662050E+03  0.64400889660E+03  0.10752106145E+04  0.46999998093E+01 0.  1.
       -5    1    3    3    0  502 -0.44192280565E+03 -0.73892662050E+03 -0.79183149391E+03  0.11697553254E+04  0.46999998093E+01 0. -1.
</event>
<event>
 5   0  0.1626636E-05  0.2303203E+04  0.7818609E-02  0.8476659E-01
       -2   -1    0    0    0  501  0.00000000000E+00  0.00000000000E+00  0.78027453290E+03  0.78027453290E+03  0.25500000920E-02 0. -1.
        2   -1    0    0  501    0  0.00000000000E+00  0.00000000000E+00 -0.16996406962E+04  0.16996406962E+04  0.25500000920E-02 0.  1.
    10030    2    1    2    0    0  0.00000000000E+00  0.00000000000E+00 -0.91936616328E+03  0.24799152291E+04  0.23032032913E+04 0.  0.
        4    1    3    3  502    0 -0.84461122287E+03 -0.63900355997E+03  0.27219118256E+02  0.10594508770E+04  0.12699999809E+01 0. -1.
       -4    1    3    3    0  502  0.84461122287E+03  0.63900355997E+03 -0.94658528154E+03  0.14204643521E+04  0.12699999809E+01 0.  1.
</event>
<event>
 5   0  0.1697855E-05  0.2300670E+04  0.7818609E-02  0.8477657E-01
        2   -1    0    0  501    0  0.00000000000E+00  0.00000000000E+00  0.20535554598E+04  0.20535554598E+04  0.25500000920E-02 0.  1.
       -2   -1    0    0    0  501  0.00000000000E+00  0.00000000000E+00 -0.64438029343E+03  0.64438029344E+03  0.25500000920E-02 0. -1.
    10030    2    1    2    0    0  0.00000000000E+00  0.00000000000E+00  0.14091751664E+04  0.26979357533E+04  0.23006700501E+04 0.  0.
        5    1    3    3  502    0 -0.10627641459E+04  0.37690223061E+03  0.43788312261E+03  0.12096638542E+04  0.46999998093E+01 0. -1.
       -5    1    3    3    0  502  0.10627641459E+04 -0.37690223061E+03  0.97129204381E+03  0.14882718991E+04  0.46999998093E+01 0.  1.
</event>
<event>
 5   0  0.1588969E-05  0.2299590E+04  0.7818609E-02  0.8478083E-01
       -2   -1    0    0    0  501  0.00000000000E+00  0.00000000000E+00  0.95002545317E+03  0.95002545317E+03  0.25500000920E-02 0. -1.
        2   -1    0    0  501    0  0.00000000000E+00  0.00000000000E+00 -0.13915713972E+04  0.13915713972E+04  0.25500000920E-02 0.  1.
    10030    2    1    2    0    0  0.00000000000E+00  0.00000000000E+00 -0.44154594398E+03  0.23415968503E+04  0.22995897436E+04 0.  0.
        1    1    3    3  502    0 -0.17034414797E+03 -0.14960249045E+03 -0.13685865323E+04  0.13872372293E+04  0.50400001928E-02 0.  1.
       -1    1    3    3    0  502  0.17034414797E+03  0.14960249045E+03  0.92704058831E+03  0.95435962105E+03  0.50400001928E-02 0. -1.
</event>
<event>
 5   0  0.1588969E-05  0.2295433E+04  0.7818609E-02  0.8479724E-01
        2   -1    0    0  501    0  0.00000000000E+00  0.00000000000E+00  0.90788109502E+03  0.90788109503E+03  0.25500000920E-02 0.  1.
       -2   -1    0    0    0  501  0.00000000000E+00  0.00000000000E+00 -0.14509088128E+04  0.14509088128E+04  0.25500000920E-02 0. -1.
    10030    2    1    2    0    0  0.00000000000E+00  0.00000000000E+00 -0.54302771780E+03  0.23587899079E+04  0.22954325795E+04 0.  0.
        1    1    3    3  502    0 -0.85708625744E+03 -0.75953859522E+02 -0.10520086979E+04  0.13590762090E+04  0.50400001928E-02 0. -1.
       -1    1    3    3    0  502  0.85708625744E+03  0.75953859522E+02  0.50898098010E+03  0.99971369882E+03  0.50400001928E-02 0.  1.
</event>
<event>
 5   0  0.5704875E-06  0.2304284E+04  0.7818609E-02  0.8476234E-01
        3   -1    0    0  501    0  0.00000000000E+00  0.00000000000E+00  0.14925690112E+04  0.14925690146E+04  0.10100000352E+00 0. -1.
       -3   -1    0    0    0  501  0.00000000000E+00  0.00000000000E+00 -0.88936030960E+03  0.88936031533E+03  0.10100000352E+00 0.  1.
    10030    2    1    2    0    0  0.00000000000E+00  0.00000000000E+00  0.60320870160E+03  0.23819293299E+04  0.23042843998E+04 0.  0.
        2    1    3    3  502    0  0.44106312672E+03 -0.74485127045E+03  0.10875474479E+04  0.13899998375E+04  0.25500000920E-02 0. -1.
       -2    1    3    3    0  502 -0.44106312672E+03  0.74485127045E+03 -0.48433874628E+03  0.99192949245E+03  0.25500000920E-02 0.  1.
</event>
<event>
 5   0  0.5704875E-06  0.2201103E+04  0.7818609E-02  0.8517969E-01
       -3   -1    0    0    0  501  0.00000000000E+00  0.00000000000E+00  0.14549135173E+04  0.14549135208E+04  0.10100000352E+00 0.  1.
        3   -1    0    0  501    0  0.00000000000E+00  0.00000000000E+00 -0.83249866806E+03  0.83249867419E+03  0.10100000352E+00 0. -1.
    10030    2    1    2    0    0  0.00000000000E+00  0.00000000000E+00  0.62241484922E+03  0.22874121950E+04  0.22011029747E+04 0.  0.
        2    1    3    3  502    0  0.54588525230E+03  0.76945430800E+03 -0.27772678336E+03  0.98345452716E+03  0.25500000920E-02 0. -1.
       -2    1    3    3    0  502 -0.54588525230E+03 -0.76945430800E+03  0.90014163258E+03  0.13039576678E+04  0.25500000920E-02 0.  1.
</event>
<event>
 5   0  0.1626636E-05  0.2300763E+04  0.7818609E-02  0.8477620E-01
       -2   -1    0    0    0  501  0.00000000000E+00  0.00000000000E+00  0.11559355529E+04  0.11559355529E+04  0.25500000920E-02 0. -1.
        2   -1    0    0  501    0  0.00000000000E+00  0.00000000000E+00 -0.11448542683E+04  0.11448542683E+04  0.25500000920E-02 0.  1.
    10030    2    1    2    0    0  0.00000000000E+00  0.00000000000E+00  0.11081284651E+02  0.23007898212E+04  0.23007631357E+04 0.  0.
        4    1    3    3  502    0 -0.11074782719E+04  0.23740946578E+03 -0.19571963974E+03  0.11494255815E+04  0.12699999809E+01 0.  1.
       -4    1    3    3    0  502  0.11074782719E+04 -0.23740946578E+03  0.20680092439E+03  0.11513642397E+04  0.12699999809E+01 0. -1.
</event>
<event>
 5   0  0.7416556E-06  0.2319387E+04  0.7818609E-02  0.8470316E-01
       -1   -1    0    0    0  501  0.00000000000E+00  0.00000000000E+00  0.94568625167E+03  0.94568625168E+03  0.50400001928E-02 0.  1.
        1   -1    0    0  501    0  0.00000000000E+00  0.00000000000E+00 -0.14221304575E+04  0.14221304575E+04  0.50400001928E-02 0. -1.
    10030    2    1    2    0    0  0.00000000000E+00  0.00000000000E+00 -0.47644420583E+03  0.23678167092E+04  0.23193871792E+04 0.  0.
        4    1    3    3  502    0  0.15017531264E+03 -0.29758237838E+03 -0.13721714130E+04  0.14120778647E+04  0.12699999809E+01 0. -1.
       -4    1    3    3    0  502 -0.15017531264E+03  0.29758237838E+03  0.89572720712E+03  0.95573884452E+03  0.12699999809E+01 0.  1.
</event>
<event>
 5   0  0.1626636E-05  0.2289458E+04  0.7818609E-02  0.8482089E-01
       -2   -1    0    0    0  501  0.00000000000E+00  0.00000000000E+00  0.15697385042E+04  0.15697385042E+04  0.25500000920E-02 0.  1.
        2   -1    0    0  501    0  0.00000000000E+00  0.00000000000E+00 -0.83479128045E+03  0.83479128046E+03  0.25500000920E-02 0. -1.
    10030    2    1    2    0    0  0.00000000000E+00  0.00000000000E+00  0.73494722372E+03  0.24045297846E+04  0.22894575916E+04 0.  0.
        4    1    3    3  502    0 -0.98313882448E+03  0.58404726604E+03  0.31260564305E+03  0.11854944362E+04  0.12699999809E+01 0.  1.
       -4    1    3    3    0  502  0.98313882448E+03 -0.58404726604E+03  0.42234158067E+03  0.12190353485E+04  0.12699999809E+01 0. -1.
</event>
<event>
 5   0  0.7183014E-06  0.2302337E+04  0.7818609E-02  0.8477000E-01
        1   -1    0    0  501    0  0.00000000000E+00  0.00000000000E+00  0.23071256608E+04  0.23071256608E+04  0.50400001928E-02 0. -1.
       -1   -1    0    0    0  501  0.00000000000E+00  0.00000000000E+00 -0.57438938735E+03  0.57438938737E+03  0.50400001928E-02 0.  1.
    10030    2    1    2    0    0  0.00000000000E+00  0.00000000000E+00  0.17327362734E+04  0.28815150481E+04  0.23023366347E+04 0.  0.
        3    1    3    3  502    0  0.89215261289E+03  0.62138039747E+03  0.13398795516E+04  0.17254932935E+04  0.10100000352E+00 0.  1.
       -3    1    3    3    0  502 -0.89215261289E+03 -0.62138039747E+03  0.39285672182E+03  0.11560217546E+04  0.10100000352E+00 0. -1.
</event>
<event>
 5   0  0.7416556E-06  0.2313035E+04  0.7818609E-02  0.8472799E-01
        1   -1    0    0  501    0  0.00000000000E+00  0.00000000000E+00  0.93260820337E+03  0.93260820338E+03  0.50400001928E-02 0.  1.
       -1   -1    0    0    0  501  0.00000000000E+00  0.00000000000E+00 -0.14341853008E+04  0.14341853008E+04  0.50400001928E-02 0. -1.
    10030    2    1    2    0    0  0.00000000000E+00  0.00000000000E+00 -0.50157709744E+03  0.23667935042E+04  0.23130352152E+04 0.  0.
        4    1    3    3  502    0 -0.37729270446E+03 -0.10834975317E+04 -0.39982631892E+03  0.12149812279E+04  0.12699999809E+01 0. -1.
       -4    1    3    3    0  502  0.37729270446E+03  0.10834975317E+04 -0.10175077853E+03  0.11518122763E+04  0.12699999809E+01 0.  1.
</event>
<event>
 5   0  0.7202572E-06  0.2321089E+04  0.7818609E-02  0.8469652E-01
       -1   -1    0    0    0  501  0.00000000000E+00  0.00000000000E+00  0.74280777433E+03  0.74280777435E+03  0.50400001928E-02 0.  1.
        1   -1    0    0  501    0  0.00000000000E+00  0.00000000000E+00 -0.18132060892E+04  0.18132060893E+04  0.50400001928E-02 0. -1.
    10030    2    1    2    0    0  0.00000000000E+00  0.00000000000E+00 -0.10703983149E+04  0.25560138636E+04  0.23210890371E+04 0.  0.
        2    1    3    3  502    0 -0.38909543265E+03 -0.32199575878E+02  0.66831729302E+03  0.77400263084E+03  0.25500000920E-02 0.  1.
       -2    1    3    3    0  502  0.38909543265E+03  0.32199575878E+02 -0.17387156079E+04  0.17820112328E+04  0.25500000920E-02 0. -1.
</event>
<event>
 5   0  0.1588969E-05  0.2384117E+04  0.7818609E-02  0.8445474E-01
        2   -1    0    0  501    0  0.00000000000E+00  0.00000000000E+00  0.17546332876E+04  0.17546332876E+04  0.25500000920E-02 0. -1.
       -2   -1    0    0    0  501  0.00000000000E+00  0.00000000000E+00 -0.80985810382E+03  0.80985810382E+03  0.25500000920E-02 0.  1.
    10030    2    1    2    0    0  0.00000000000E+00  0.00000000000E+00  0.94477518374E+03  0.25644913914E+04  0.23841174360E+04 0.  0.
        1    1    3    3  502    0  0.42355608850E+01  0.48687695172E+03 -0.69802201103E+03  0.85105924236E+03  0.50400001928E-02 0.  1.
       -1    1    3    3    0  502 -0.42355608850E+01 -0.48687695172E+03  0.16427971948E+04  0.17134321490E+04  0.50400001928E-02 0. -1.
</event>
<event>
 5   0  0.7391007E-06  0.2287560E+04  0.7818609E-02  0.8482842E-01
       -1   -1    0    0    0  501  0.00000000000E+00  0.00000000000E+00  0.75978424428E+03  0.75978424430E+03  0.50400001928E-02 0. -1.
        1   -1    0    0  501    0  0.00000000000E+00  0.00000000000E+00 -0.17218474068E+04  0.17218474068E+04  0.50400001928E-02 0.  1.
    10030    2    1    2    0    0  0.00000000000E+00  0.00000000000E+00 -0.96206316252E+03  0.24816316511E+04  0.22875598622E+04 0.  0.
        1    1    3    3  502    0 -0.59416274033E+03  0.42334166952E+03  0.47460224702E+03  0.87034178577E+03  0.50400001928E-02 0. -1.
       -1    1    3    3    0  502  0.59416274033E+03 -0.42334166952E+03 -0.14366654095E+04  0.16112898653E+04  0.50400001928E-02 0.  1.
</event>
<event>
 5   0  0.1588969E-05  0.2254663E+04  0.7818609E-02  0.8496014E-01
        2   -1    0    0  501    0  0.00000000000E+00  0.00000000000E+00  0.12056925697E+04  0.12056925697E+04  0.25500000920E-02 0. -1.
       -2   -1    0    0    0  501  0.00000000000E+00  0.00000000000E+00 -0.10540632602E+04  0.10540632602E+04  0.25500000920E-02 0.  1.
    10030    2    1    2    0    0  0.00000000000E+00  0.00000000000E+00  0.15162930943E+03  0.22597558299E+04  0.22546629379E+04 0.  0.
        1    1    3    3  502    0  0.10173853843E+04  0.48010951918E+03  0.28623958800E+01  0.11249828283E+04  0.50400001928E-02 0.  1.
       -1    1    3    3    0  502 -0.10173853843E+04 -0.48010951918E+03  0.14876691355E+03  0.11347730016E+04  0.50400001928E-02 0. -1.
</event>
<event>
 5   0  0.1635955E-05  0.2291915E+04  0.7818609E-02  0.8481116E-01
       -2   -1    0    0    0  501  0.00000000000E+00  0.00000000000E+00  0.10164352202E+04  0.10164352202E+04  0.25500000920E-02 0. -1.
        2   -1    0    0  501    0  0.00000000000E+00  0.00000000000E+00 -0.12919846734E+04  0.12919846734E+04  0.25500000920E-02 0.  1.
    10030    2    1    2    0    0  0.00000000000E+00  0.00000000000E+00 -0.27554945323E+03  0.23084198937E+04  0.22919151172E+04 0.  0.
        2    1    3    3  502    0 -0.10551106611E+04  0.38591465414E+03 -0.36529991530E+03  0.11813689752E+04  0.25500000920E-02 0.  1.
       -2    1    3    3    0  502  0.10551106611E+04 -0.38591465414E+03  0.89750462066E+02  0.11270509185E+04  0.25500000920E-02 0. -1.
</event>
<event>
 5   0  0.1626636E-05  0.2311850E+04  0.7818609E-02  0.8473263E-01
       -2   -1    0    0    0  501  0.00000000000E+00  0.00000000000E+00  0.87089738092E+03  0.87089738092E+03  0.25500000920E-02 0.  1.
        2   -1    0    0  501    0  0.00000000000E+00  0.00000000000E+00 -0.15342371185E+04  0.15342371185E+04  0.25500000920E-02 0. -1.
    10030    2    1    2    0    0  0.00000000000E+00  0.00000000000E+00 -0.66333973758E+03  0.24051344994E+04  0.23118504175E+04 0.  0.
        4    1    3    3  502    0  0.41399549088E+03  0.17823601433E+03 -0.14390451095E+04  0.15079830182E+04  0.12699999809E+01 0. -1.
       -4    1    3    3    0  502 -0.41399549088E+03 -0.17823601433E+03  0.77570537191E+03  0.89715148118E+03  0.12699999809E+01 0.  1.
</event>
<event>
 5   0  0.7416556E-06  0.2295903E+04  0.7818609E-02  0.8479538E-01
       -1   -1    0    0    0  501  0.00000000000E+00  0.00000000000E+00  0.83151893822E+03  0.83151893823E+03  0.50400001928E-02 0.  1.
        1   -1    0    0  501    0  0.00000000000E+00  0.00000000000E+00 -0.15848013344E+04  0.15848013344E+04  0.50400001928E-02 0. -1.
    10030    2    1    2    0    0  0.00000000000E+00  0.00000000000E+00 -0.75328239619E+03  0.24163202726E+04  0.22959027182E+04 0.  0.
        4    1    3    3  502    0 -0.11499737564E+03 -0.30511229413E+03 -0.15350393328E+04  0.15692881426E+04  0.12699999809E+01 0. -1.
       -4    1    3    3    0  502  0.11499737564E+03  0.30511229413E+03  0.78175693662E+03  0.84703213002E+03  0.12699999809E+01 0.  1.
</event>
<event>
 5   0  0.7391007E-06  0.2308610E+04  0.7818609E-02  0.8474534E-01
        1   -1    0    0  501    0  0.00000000000E+00  0.00000000000E+00  0.23883302158E+04  0.23883302158E+04  0.50400001928E-02 0.  1.
       -1   -1    0    0    0  501  0.00000000000E+00  0.00000000000E+00 -0.55788747068E+03  0.55788747071E+03  0.50400001928E-02 0. -1.
    10030    2    1    2    0    0  0.00000000000E+00  0.00000000000E+00  0.18304427451E+04  0.29462176865E+04  0.23086095411E+04 0.  0.
        1    1    3    3  502    0  0.62607785060E+03  0.24891329250E+03 -0.28091945023E+03  0.72996372495E+03  0.50400001928E-02 0. -1.
       -1    1    3    3    0  502 -0.62607785060E+03 -0.24891329250E+03  0.21113621953E+04  0.22162539615E+04  0.50400001928E-02 0.  1.
</event>
<event>
 5   0  0.1626636E-05  0.2301376E+04  0.7818609E-02  0.8477379E-01
       -2   -1    0    0    0  501  0.00000000000E+00  0.00000000000E+00  0.64452989067E+03  0.64452989067E+03  0.25500000920E-02 0. -1.
        2   -1    0    0  501    0  0.00000000000E+00  0.00000000000E+00 -0.20543388245E+04  0.20543388245E+04  0.25500000920E-02 0.  1.
    10030    2    1    2    0    0  0.00000000000E+00  0.00000000000E+00 -0.14098089339E+04  0.26988687152E+04  0.23013759171E+04 0.  0.
        4    1    3    3  502    0 -0.33039035144E+03  0.13137505132E+02 -0.19974260073E+04  0.20246092576E+04  0.12699999809E+01 0.  1.
       -4    1    3    3    0  502  0.33039035144E+03 -0.13137505132E+02  0.58761707341E+03  0.67425945765E+03  0.12699999809E+01 0. -1.
</event>
<event>
 5   0  0.1602809E-05  0.2312018E+04  0.7818609E-02  0.8473198E-01
       -2   -1    0    0    0  501  0.00000000000E+00  0.00000000000E+00  0.47892085415E+03  0.47892085416E+03  0.25500000920E-02 0. -1.
        2   -1    0    0  501    0  0.00000000000E+00  0.00000000000E+00 -0.27903500033E+04  0.27903500033E+04  0.25500000920E-02 0.  1.
    10030    2    1    2    0    0  0.00000000000E+00  0.00000000000E+00 -0.23114291492E+04  0.32692708575E+04  0.23120179991E+04 0.  0.
        3    1    3    3  502    0  0.87636403912E+03 -0.72926377780E+03 -0.88550017563E+03  0.14435893315E+04  0.10100000352E+00 0.  1.
       -3    1    3    3    0  502 -0.87636403912E+03  0.72926377780E+03 -0.14259289735E+04  0.18256815260E+04  0.10100000352E+00 0. -1.
</event>
<event>
 5   0  0.7202572E-06  0.2299633E+04  0.7818609E-02  0.8478066E-01
       -1   -1    0    0    0  501  0.00000000000E+00  0.00000000000E+00  0.87773647161E+03  0.87773647162E+03  0.50400001928E-02 0. -1.
        1   -1    0    0  501    0  0.00000000000E+00  0.00000000000E+00 -0.15062353042E+04  0.15062353042E+04  0.50400001928E-02 0.  1.
    10030    2    1    2    0    0  0.00000000000E+00  0.00000000000E+00 -0.62849883263E+03  0.23839717759E+04  0.22996327197E+04 0.  0.
        2    1    3    3  502    0  0.10771580498E+03  0.11461832649E+03 -0.14950298113E+04  0.15032811421E+04  0.25500000920E-02 0.  1.
       -2    1    3    3    0  502 -0.10771580498E+03 -0.11461832649E+03  0.86653097868E+03  0.88069063378E+03  0.25500000920E-02 0. -1.
</event>
<event>
 5   0  0.7183014E-06  0.2294331E+04  0.7818609E-02  0.8480160E-01
       -1   -1    0    0    0  501  0.00000000000E+00  0.00000000000E+00  0.68634422907E+03  0.68634422909E+03  0.50400001928E-02 0. -1.
        1   -1    0    0  501    0  0.00000000000E+00  0.00000000000E+00 -0.19173889267E+04  0.19173889268E+04  0.50400001928E-02 0.  1.
    10030    2    1    2    0    0  0.00000000000E+00  0.00000000000E+00 -0.12310446977E+04  0.26037331558E+04  0.22943311224E+04 0.  0.
        3    1    3    3  502    0  0.33742263542E+03 -0.68342466208E+02  0.62633475452E+03  0.71471670086E+03  0.10100000352E+00 0. -1.
       -3    1    3    3    0  502 -0.33742263542E+03  0.68342466208E+02 -0.18573794522E+04  0.18890164550E+04  0.10100000352E+00 0.  1.
</event>
<event>
 5   0  0.1635955E-05  0.2214797E+04  0.7818609E-02  0.8512295E-01
       -2   -1    0    0    0  501  0.00000000000E+00  0.00000000000E+00  0.17420571109E+04  0.17420571109E+04  0.25500000920E-02 0. -1.
        2   -1    0    0  501    0  0.00000000000E+00  0.00000000000E+00 -0.70395566552E+03  0.70395566553E+03  0.25500000920E-02 0.  1.
    10030    2    1    2    0    0  0.00000000000E+00  0.00000000000E+00  0.10381014454E+04  0.24460127765E+04  0.22147965802E+04 0.  0.
        2    1    3    3  502    0 -0.74799907798E+03  0.69627705582E+03  0.47864783614E+02  0.10230324514E+04  0.25500000920E-02 0.  1.
       -2    1    3    3    0  502  0.74799907798E+03 -0.69627705582E+03  0.99023666180E+03  0.14229803251E+04  0.25500000920E-02 0. -1.
</event>
<event>
 5   0  0.1626636E-05  0.2292477E+04  0.7818609E-02  0.8480893E-01
        2   -1    0    0  501    0  0.00000000000E+00  0.00000000000E+00  0.14304581093E+04  0.14304581093E+04  0.25500000920E-02 0.  1.
       -2   -1    0    0    0  501  0.00000000000E+00  0.00000000000E+00 -0.91849047059E+03  0.91849047059E+03  0.25500000920E-02 0. -1.
    10030    2    1    2    0    0  0.00000000000E+00  0.00000000000E+00  0.51196763867E+03  0.23489485799E+04  0.22924765141E+04 0.  0.
        4    1    3    3  502    0 -0.11263128646E+04  0.54225294062E+02  0.45149472562E+02  0.11285216609E+04  0.12699999809E+01 0. -1.
       -4    1    3    3    0  502  0.11263128646E+04 -0.54225294062E+02  0.46681816610E+03  0.12204269189E+04  0.12699999809E+01 0.  1.
</event>
<event>
 5   0  0.7391007E-06  0.2397285E+04  0.7818609E-02  0.8440521E-01
       -1   -1    0    0    0  501  0.00000000000E+00  0.00000000000E+00  0.11766697947E+04  0.11766697947E+04  0.50400001928E-02 0.  1.
        1   -1    0    0  501    0  0.00000000000E+00  0.00000000000E+00 -0.12210259269E+04  0.12210259269E+04  0.50400001928E-02 0. -1.
    10030    2    1    2    0    0  0.00000000000E+00  0.00000000000E+00 -0.44356132229E+02  0.23976957216E+04  0.23972854037E+04 0.  0.
        1    1    3    3  502    0 -0.64175370766E+03 -0.32993455411E+03 -0.97944150939E+03  0.12165567400E+04  0.50400001928E-02 0. -1.
       -1    1    3    3    0  502  0.64175370766E+03  0.32993455411E+03  0.93508537716E+03  0.11811389816E+04  0.50400001928E-02 0.  1.
</event>
<event>
 5   0  0.7391007E-06  0.2294128E+04  0.7818609E-02  0.8480240E-01
       -1   -1    0    0    0  501  0.00000000000E+00  0.00000000000E+00  0.96262279197E+03  0.96262279198E+03  0.50400001928E-02 0. -1.
        1   -1    0    0  501    0  0.00000000000E+00  0.00000000000E+00 -0.13668448782E+04  0.13668448782E+04  0.50400001928E-02 0.  1.
    10030    2    1    2    0    0  0.00000000000E+00  0.00000000000E+00 -0.40422208619E+03  0.23294676702E+04  0.22941281855E+04 0.  0.
        1    1    3    3  502    0  0.45643705005E+01  0.28620981652E+03 -0.13299958806E+04  0.13604506368E+04  0.50400001928E-02 0.  1.
       -1    1    3    3    0  502 -0.45643705005E+01 -0.28620981652E+03  0.92577379443E+03  0.96901703340E+03  0.50400001928E-02 0. -1.
</event>
<event>
 5   0  0.1602809E-05  0.2293509E+04  0.7818609E-02  0.8480485E-01
        2   -1    0    0  501    0  0.00000000000E+00  0.00000000000E+00  0.88437108453E+03  0.88437108453E+03  0.25500000920E-02 0. -1.
       -2   -1    0    0    0  501  0.00000000000E+00  0.00000000000E+00 -0.14869836319E+04  0.14869836319E+04  0.25500000920E-02 0.  1.
    10030    2    1    2    0    0  0.00000000000E+00  0.00000000000E+00 -0.60261254734E+03  0.23713547164E+04  0.22935085151E+04 0.  0.
        3    1    3    3  502    0 -0.40212531104E+03  0.91385331351E+02  0.80505476731E+03  0.90452707706E+03  0.10100000352E+00 0. -1.
       -3    1    3    3    0  502  0.40212531104E+03 -0.91385331351E+02 -0.14076673147E+04  0.14668276393E+04  0.10100000352E+00 0.  1.
</event>
<event>
 5   0  0.7416556E-06  0.2321306E+04  0.7818609E-02  0.8469568E-01
        1   -1    0    0  501    0  0.00000000000E+00  0.00000000000E+00  0.15408263333E+04  0.15408263333E+04  0.50400001928E-02 0.  1.
       -1   -1    0    0    0  501  0.00000000000E+00  0.00000000000E+00 -0.87428087919E+03  0.87428087920E+03  0.50400001928E-02 0. -1.
    10030    2    1    2    0    0  0.00000000000E+00  0.00000000000E+00  0.66654545413E+03  0.24151072125E+04  0.23213056683E+04 0.  0.
        4    1    3    3  502    0 -0.54432332062E+03  0.92264816459E+03 -0.13148376050E+03  0.10792854605E+04  0.12699999809E+01 0. -1.
       -4    1    3    3    0  502  0.54432332062E+03 -0.92264816459E+03  0.79802921462E+03  0.13358217521E+04  0.12699999809E+01 0.  1.
</event>
<event>
 5   0  0.7391007E-06  0.2304559E+04  0.7818609E-02  0.8476126E-01
       -1   -1    0    0    0  501  0.00000000000E+00  0.00000000000E+00  0.62086530067E+03  0.62086530069E+03  0.50400001928E-02 0.  1.
        1   -1    0    0  501    0  0.00000000000E+00  0.00000000000E+00 -0.21385435508E+04  0.21385435509E+04  0.50400001928E-02 0. -1.
    10030    2    1    2    0    0  0.00000000000E+00  0.00000000000E+00 -0.15176782502E+04  0.27594088515E+04  0.23045585128E+04 0.  0.
        1    1    3    3  502    0 -0.73432048212E+03 -0.85421406718E+03 -0.46839550099E+03  0.12199600766E+04  0.50400001928E-02 0.  1.
       -1    1    3    3    0  502  0.73432048212E+03  0.85421406718E+03 -0.10492827492E+04  0.15394487750E+04  0.50400001928E-02 0. -1.
</event>
<event>
 5   0  0.7391007E-06  0.2298130E+04  0.7818609E-02  0.8478659E-01
       -1   -1    0    0    0  501  0.00000000000E+00  0.00000000000E+00  0.77796683236E+03  0.77796683238E+03  0.50400001928E-02 0. -1.
        1   -1    0    0  501    0  0.00000000000E+00  0.00000000000E+00 -0.16971814828E+04  0.16971814828E+04  0.50400001928E-02 0.  1.
    10030    2    1    2    0    0  0.00000000000E+00  0.00000000000E+00 -0.91921465040E+03  0.24751483151E+04  0.22981304594E+04 0.  0.
        1    1    3    3  502    0 -0.53516746552E+03 -0.99756242107E+03 -0.67180048997E+03  0.13163779467E+04  0.50400001928E-02 0. -1.
       -1    1    3    3    0  502  0.53516746552E+03  0.99756242107E+03 -0.24741416042E+03  0.11587703685E+04  0.50400001928E-02 0.  1.
</event>
<event>
 5   0  0.7183014E-06  0.2302965E+04  0.7818609E-02  0.8476753E-01
       -1   -1    0    0    0  501  0.00000000000E+00  0.00000000000E+00  0.82129204062E+03  0.82129204064E+03  0.50400001928E-02 0. -1.
        1   -1    0    0  501    0  0.00000000000E+00  0.00000000000E+00 -0.16144226037E+04  0.16144226037E+04  0.50400001928E-02 0.  1.
    10030    2    1    2    0    0  0.00000000000E+00  0.00000000000E+00 -0.79313056308E+03  0.24357146443E+04  0.23029654228E+04 0.  0.
        3    1    3    3  502    0  0.10687324904E+04 -0.14802466785E+03 -0.82201117306E+03  0.13563933121E+04  0.10100000352E+00 0.  1.
       -3    1    3    3    0  502 -0.10687324904E+04  0.14802466785E+03  0.28880609976E+02  0.10793213322E+04  0.10100000352E+00 0. -1.
</event>
<event>
 5   0  0.1697855E-05  0.2302556E+04  0.7818609E-02  0.8476914E-01
       -2   -1    0    0    0  501  0.00000000000E+00  0.00000000000E+00  0.83327007771E+03  0.83327007771E+03  0.25500000920E-02 0.  1.
        2   -1    0    0  501    0  0.00000000000E+00  0.00000000000E+00 -0.15906506420E+04  0.15906506420E+04  0.25500000920E-02 0. -1.
    10030    2    1    2    0    0  0.00000000000E+00  0.00000000000E+00 -0.75738056427E+03  0.24239207197E+04  0.23025564784E+04 0.  0.
        5    1    3    3  502    0  0.78030065225E+02  0.80066984542E+03  0.48828312109E+03  0.94106502898E+03  0.46999998093E+01 0.  1.
       -5    1    3    3    0  502 -0.78030065225E+02 -0.80066984542E+03 -0.12456636854E+04  0.14828556907E+04  0.46999998093E+01 0. -1.
</event>
<event>
 5   0  0.7416556E-06  0.2260209E+04  0.7818609E-02  0.8493777E-01
       -1   -1    0    0    0  501  0.00000000000E+00  0.00000000000E+00  0.70260857692E+03  0.70260857693E+03  0.50400001928E-02 0. -1.
        1   -1    0    0  501    0  0.00000000000E+00  0.00000000000E+00 -0.18177072345E+04  0.18177072345E+04  0.50400001928E-02 0.  1.
    10030    2    1    2    0    0  0.00000000000E+00  0.00000000000E+00 -0.11150986576E+04  0.25203158115E+04  0.22602094534E+04 0.  0.
        4    1    3    3  502    0 -0.39152038631E+02 -0.10522429030E+04 -0.10151226014E+04  0.14626084636E+04  0.12699999809E+01 0. -1.
       -4    1    3    3    0  502  0.39152038631E+02  0.10522429030E+04 -0.99976056241E+02  0.10577073479E+04  0.12699999809E+01 0.  1.
</event>
<event>
 5   0  0.7391007E-06  0.2316540E+04  0.7818609E-02  0.8471428E-01
       -1   -1    0    0    0  501  0.00000000000E+00  0.00000000000E+00  0.89285128311E+03  0.89285128313E+03  0.50400001928E-02 0.  1.
        1   -1    0    0  501    0  0.00000000000E+00  0.00000000000E+00 -0.15025898682E+04  0.15025898682E+04  0.50400001928E-02 0. -1.
    10030    2    1    2    0    0  0.00000000000E+00  0.00000000000E+00 -0.60973858512E+03  0.23954411514E+04  0.23165399128E+04 0.  0.
        1    1    3    3  502    0 -0.27374443409E+03 -0.57852610162E+03 -0.13031313114E+04  0.14518194378E+04  0.50400001928E-02 0. -1.
       -1    1    3    3    0  502  0.27374443409E+03  0.57852610162E+03  0.69339272623E+03  0.94362171354E+03  0.50400001928E-02 0.  1.
</event>
<event>
 5   0  0.7183014E-06  0.2316503E+04  0.7818609E-02  0.8471442E-01
       -1   -1    0    0    0  501  0.00000000000E+00  0.00000000000E+00  0.11544676700E+04  0.11544676700E+04  0.50400001928E-02 0.  1.
        1   -1    0    0  501    0  0.00000000000E+00  0.00000000000E+00 -0.11620479354E+04  0.11620479354E+04  0.50400001928E-02 0. -1.
    10030    2    1    2    0    0  0.00000000000E+00  0.00000000000E+00 -0.75802653653E+01  0.23165156054E+04  0.23165032031E+04 0.  0.
        3    1    3    3  502    0 -0.59439887158E+03  0.70176856465E+03  0.70031421604E+03  0.11559537829E+04  0.10100000352E+00 0.  1.
       -3    1    3    3    0  502  0.59439887158E+03 -0.70176856465E+03 -0.70789448140E+03  0.11605618225E+04  0.10100000352E+00 0. -1.
</event>
<event>
 5   0  0.1697855E-05  0.2294627E+04  0.7818609E-02  0.8480043E-01
        2   -1    0    0  501    0  0.00000000000E+00  0.00000000000E+00  0.14458036153E+04  0.14458036153E+04  0.25500000920E-02 0.  1.
       -2   -1    0    0    0  501  0.00000000000E+00  0.00000000000E+00 -0.91044730744E+03  0.91044730744E+03  0.25500000920E-02 0. -1.
    10030    2    1    2    0    0  0.00000000000E+00  0.00000000000E+00  0.53535630782E+03  0.23562509227E+04  0.22946267745E+04 0.  0.
        5    1    3    3  502    0 -0.20635231474E+03  0.10315912216E+04 -0.20237535084E+03  0.10713260936E+04  0.46999998093E+01 0. -1.
       -5    1    3    3    0  502  0.20635231474E+03 -0.10315912216E+04  0.73773165866E+03  0.12849248291E+04  0.46999998093E+01 0.  1.
</event>
<event>
 5   0  0.1626636E-05  0.2296338E+04  0.7818609E-02  0.8479366E-01
       -2   -1    0    0    0  501  0.00000000000E+00  0.00000000000E+00  0.74035229007E+03  0.74035229008E+03  0.25500000920E-02 0.  1.
        2   -1    0    0  501    0  0.00000000000E+00  0.00000000000E+00 -0.17806281993E+04  0.17806281993E+04  0.25500000920E-02 0. -1.
    10030    2    1    2    0    0  0.00000000000E+00  0.00000000000E+00 -0.10402759092E+04  0.25209804893E+04  0.22963380980E+04 0.  0.
        4    1    3    3  502    0 -0.81484690011E+03 -0.53234750283E+03  0.14847454577E+03  0.98458907064E+03  0.12699999809E+01 0.  1.
       -4    1    3    3    0  502  0.81484690011E+03  0.53234750283E+03 -0.11887504550E+04  0.15363914187E+04  0.12699999809E+01 0. -1.
</event>
<event>
 5   0  0.7278815E-06  0.2309101E+04  0.7818609E-02  0.8474341E-01
        1   -1    0    0  501    0  0.00000000000E+00  0.00000000000E+00  0.17813651504E+04  0.17813651504E+04  0.50400001928E-02 0.  1.
       -1   -1    0    0    0  501  0.00000000000E+00  0.00000000000E+00 -0.74829529158E+03  0.74829529160E+03  0.50400001928E-02 0. -1.
    10030    2    1    2    0    0  0.00000000000E+00  0.00000000000E+00  0.10330698588E+04  0.25296604420E+04  0.23091012578E+04 0.  0.
        5    1    3    3  502    0 -0.74818620433E+03  0.47127726046E+03 -0.29671991702E+03  0.93271091541E+03  0.46999998093E+01 0. -1.
       -5    1    3    3    0  502  0.74818620433E+03 -0.47127726046E+03  0.13297897758E+04  0.15969495266E+04  0.46999998093E+01 0.  1.
</event>
<event>
 5   0  0.1626636E-05  0.2301592E+04  0.7818609E-02  0.8477294E-01
        2   -1    0    0  501    0  0.00000000000E+00  0.00000000000E+00  0.18914063818E+04  0.18914063818E+04  0.25500000920E-02 0.  1.
       -2   -1    0    0    0  501  0.00000000000E+00  0.00000000000E+00 -0.70018328853E+03  0.70018328853E+03  0.25500000920E-02 0. -1.
    10030    2    1    2    0    0  0.00000000000E+00  0.00000000000E+00  0.11912230933E+04  0.25915896704E+04  0.23015917452E+04 0.  0.
        4    1    3    3  502    0 -0.15730883816E+02  0.94991412621E+03 -0.13563366175E+03  0.95967828514E+03  0.12699999809E+01 0.  1.
       -4    1    3    3    0  502  0.15730883816E+02 -0.94991412621E+03  0.13268567550E+04  0.16319113852E+04  0.12699999809E+01 0. -1.
</event>
<event>
 5   0  0.7183014E-06  0.2332718E+04  0.7818609E-02  0.8465131E-01
        1   -1    0    0  501    0  0.00000000000E+00  0.00000000000E+00  0.18532408719E+04  0.18532408719E+04  0.50400001928E-02 0.  1.
       -1   -1    0    0    0  501  0.00000000000E+00  0.00000000000E+00 -0.73406203272E+03  0.73406203274E+03  0.50400001928E-02 0. -1.
    10030    2    1    2    0    0  0.00000000000E+00  0.00000000000E+00  0.11191788392E+04  0.25873029046E+04  0.23327183813E+04 0.  0.
        3    1    3    3  502    0 -0.51083498362E+02  0.11616089953E+04  0.45764071890E+03  0.12495519276E+04  0.10100000352E+00 0. -1.
       -3    1    3    3    0  502  0.51083498362E+02 -0.11616089953E+04  0.66153812026E+03  0.13377509771E+04  0.10100000352E+00 0.  1.
</event>
<event>
 5   0  0.1635955E-05  0.2301759E+04  0.7818609E-02  0.8477228E-01
       -2   -1    0    0    0  501  0.00000000000E+00  0.00000000000E+00  0.89591817007E+03  0.89591817008E+03  0.25500000920E-02 0. -1.
        2   -1    0    0  501    0  0.00000000000E+00  0.00000000000E+00 -0.14783978666E+04  0.14783978666E+04  0.25500000920E-02 0.  1.
    10030    2    1    2    0    0  0.00000000000E+00  0.00000000000E+00 -0.58247969649E+03  0.23743160366E+04  0.23017589025E+04 0.  0.
        2    1    3    3  502    0  0.30465445043E+03 -0.75666336544E+03  0.54624570026E+03  0.98170165928E+03  0.25500000920E-02 0. -1.
       -2    1    3    3    0  502 -0.30465445043E+03  0.75666336544E+03 -0.11287253968E+04  0.13926143774E+04  0.25500000920E-02 0.  1.
</event>
<event>
 5   0  0.1588969E-05  0.2293565E+04  0.7818609E-02  0.8480462E-01
        2   -1    0    0  501    0  0.00000000000E+00  0.00000000000E+00  0.16470696439E+04  0.16470696439E+04  0.25500000920E-02 0. -1.
       -2   -1    0    0    0  501  0.00000000000E+00  0.00000000000E+00 -0.79845475628E+03  0.79845475628E+03  0.25500000920E-02 0.  1.
    10030    2    1    2    0    0  0.00000000000E+00  0.00000000000E+00  0.84861488761E+03  0.24455244002E+04  0.22935654262E+04 0.  0.
        1    1    3    3  502    0  0.44170890707E+03 -0.12343771417E+03 -0.69641019262E+03  0.83386496765E+03  0.50400001928E-02 0.  1.
       -1    1    3    3    0  502 -0.44170890707E+03  0.12343771417E+03  0.15450250802E+04  0.16116594325E+04  0.50400001928E-02 0. -1.
</event>
<event>
 5   0  0.7416556E-06  0.2299885E+04  0.7818609E-02  0.8477967E-01
        1   -1    0    0  501    0  0.00000000000E+00  0.00000000000E+00  0.19289188455E+04  0.19289188455E+04  0.50400001928E-02 0.  1.
       -1   -1    0    0    0  501  0.00000000000E+00  0.00000000000E+00 -0.68554839147E+03  0.68554839149E+03  0.50400001928E-02 0. -1.
    10030    2    1    2    0    0  0.00000000000E+00  0.00000000000E+00  0.12433704540E+04  0.26144672370E+04  0.22998845291E+04 0.  0.
        4    1    3    3  502    0  0.89622488037E+03 -0.67237756492E+03  0.91605463046E+03  0.14472278068E+04  0.12699999809E+01 0.  1.
       -4    1    3    3    0  502 -0.89622488037E+03  0.67237756492E+03  0.32731582353E+03  0.11672394301E+04  0.12699999809E+01 0. -1.
</event>
<event>
 5   0  0.1588969E-05  0.2293754E+04  0.7818609E-02  0.8480388E-01
        2   -1    0    0  501    0  0.00000000000E+00  0.00000000000E+00  0.21301568974E+04  0.21301568974E+04  0.25500000920E-02 0.  1.
       -2   -1    0    0    0  501  0.00000000000E+00  0.00000000000E+00 -0.61747909658E+03  0.61747909658E+03  0.25500000920E-02 0. -1.
    10030    2    1    2    0    0  0.00000000000E+00  0.00000000000E+00  0.15126778008E+04  0.27476359939E+04  0.22937544390E+04 0.  0.
        1    1    3    3  502    0  0.94017707891E+03 -0.51755808827E+03  0.12407436507E+04  0.16405011799E+04  0.50400001928E-02 0.  1.
       -1    1    3    3    0  502 -0.94017707891E+03  0.51755808827E+03  0.27193415003E+03  0.11071348140E+04  0.50400001928E-02 0. -1.
</event>
<event>
 5   0  0.7202572E-06  0.2309576E+04  0.7818609E-02  0.8474155E-01
        1   -1    0    0  501    0  0.00000000000E+00  0.00000000000E+00  0.18195643630E+04  0.18195643630E+04  0.50400001928E-02 0.  1.
       -1   -1    0    0    0  501  0.00000000000E+00  0.00000000000E+00 -0.73288745135E+03  0.73288745137E+03  0.50400001928E-02 0. -1.
    10030    2    1    2    0    0  0.00000000000E+00  0.00000000000E+00  0.10866769116E+04  0.25524518144E+04  0.23095764881E+04 0.  0.
        2    1    3    3  502    0 -0.34330366741E+03  0.78712206356E+03 -0.30994058670E+03  0.91295219935E+03  0.25500000920E-02 0. -1.
       -2    1    3    3    0  502  0.34330366741E+03 -0.78712206356E+03  0.13966174984E+04  0.16394996150E+04  0.25500000920E-02 0.  1.
</event>
<event>
 5   0  0.1626636E-05  0.2296884E+04  0.7818609E-02  0.8479151E-01
        2   -1    0    0  501    0  0.00000000000E+00  0.00000000000E+00  0.13722071051E+04  0.13722071051E+04  0.25500000920E-02 0.  1.
       -2   -1    0    0    0  501  0.00000000000E+00  0.00000000000E+00 -0.96116605422E+03  0.96116605423E+03  0.25500000920E-02 0. -1.
    10030    2    1    2    0    0  0.00000000000E+00  0.00000000000E+00  0.41104105086E+03  0.23333731593E+04  0.22968838793E+04 0.  0.
        4    1    3    3  502    0 -0.38078606833E+03 -0.84909852477E+03  0.88922865123E+03  0.12871268553E+04  0.12699999809E+01 0.  1.
       -4    1    3    3    0  502  0.38078606833E+03  0.84909852477E+03 -0.47818760036E+03  0.10462463040E+04  0.12699999809E+01 0. -1.
</event>
<event>
 5   0  0.1602809E-05  0.2297123E+04  0.7818609E-02  0.8479057E-01
       -2   -1    0    0    0  501  0.00000000000E+00  0.00000000000E+00  0.74628845113E+03  0.74628845114E+03  0.25500000920E-02 0.  1.
        2   -1    0    0  501    0  0.00000000000E+00  0.00000000000E+00 -0.17676717135E+04  0.17676717135E+04  0.25500000920E-02 0. -1.
    10030    2    1    2    0    0  0.00000000000E+00  0.00000000000E+00 -0.10213832624E+04  0.25139601646E+04  0.22971225350E+04 0.  0.
        3    1    3    3  502    0 -0.24664987610E+03  0.11133261995E+04 -0.36039012070E+03  0.11959148955E+04  0.10100000352E+00 0. -1.
       -3    1    3    3    0  502  0.24664987610E+03 -0.11133261995E+04 -0.66099314165E+03  0.13180452691E+04  0.10100000352E+00 0.  1.
</event>
<event>
 5   0  0.7202572E-06  0.2305035E+04  0.7818609E-02  0.8475939E-01
        1   -1    0    0  501    0  0.00000000000E+00  0.00000000000E+00  0.13406926187E+04  0.13406926187E+04  0.50400001928E-02 0.  1.
       -1   -1    0    0    0  501  0.00000000000E+00  0.00000000000E+00 -0.99075398062E+03  0.99075398064E+03  0.50400001928E-02 0. -1.
    10030    2    1    2    0    0  0.00000000000E+00  0.00000000000E+00  0.34993863808E+03  0.23314465994E+04  0.23050349662E+04 0.  0.
        2    1    3    3  502    0 -0.11038478597E+04 -0.86665749166E+02 -0.14854793262E+03  0.11171649555E+04  0.25500000920E-02 0. -1.
       -2    1    3    3    0  502  0.11038478597E+04  0.86665749166E+02  0.49848657070E+03  0.12142816439E+04  0.25500000920E-02 0.  1.
</event>
<event>
 5   0  0.7416556E-06  0.2295753E+04  0.7818609E-02  0.8479598E-01
       -1   -1    0    0    0  501  0.00000000000E+00  0.00000000000E+00  0.55009751595E+03  0.55009751597E+03  0.50400001928E-02 0. -1.
        1   -1    0    0  501    0  0.00000000000E+00  0.00000000000E+00 -0.23952485120E+04  0.23952485120E+04  0.50400001928E-02 0.  1.
    10030    2    1    2    0    0  0.00000000000E+00  0.00000000000E+00 -0.18451509961E+04  0.29453460280E+04  0.22957528234E+04 0.  0.
        4    1    3    3  502    0 -0.10405403804E+04 -0.46633584288E+03 -0.75321948988E+03  0.13665777015E+04  0.12699999809E+01 0. -1.
       -4    1    3    3    0  502  0.10405403804E+04  0.46633584288E+03 -0.10919315062E+04  0.15787683265E+04  0.12699999809E+01 0.  1.
</event>
<event>
 5   0  0.7183014E-06  0.2294636E+04  0.7818609E-02  0.8480039E-01
       -1   -1    0    0    0  501  0.00000000000E+00  0.00000000000E+00  0.96114554712E+03  0.96114554713E+03  0.50400001928E-02 0. -1.
        1   -1    0    0  501    0  0.00000000000E+00  0.00000000000E+00 -0.13695514589E+04  0.13695514589E+04  0.50400001928E-02 0.  1.
    10030    2    1    2    0    0  0.00000000000E+00  0.00000000000E+00 -0.40840591181E+03  0.23306970061E+04  0.22946357326E+04 0.  0.
        3    1    3    3  502    0  0.50248102221E+03  0.35732653630E+03 -0.11869667721E+04  0.13375573107E+04  0.10100000352E+00 0.  1.
       -3    1    3    3    0  502 -0.50248102221E+03 -0.35732653630E+03  0.77856086025E+03  0.99313969538E+03  0.10100000352E+00 0. -1.
</event>
<event>
 5   0  0.7183014E-06  0.2305742E+04  0.7818609E-02  0.8475660E-01
       -1   -1    0    0    0  501  0.00000000000E+00  0.00000000000E+00  0.90610119608E+03  0.90610119609E+03  0.50400001928E-02 0.  1.
        1   -1    0    0  501    0  0.00000000000E+00  0.00000000000E+00 -0.14668470240E+04  0.14668470240E+04  0.50400001928E-02 0. -1.
    10030    2    1    2    0    0  0.00000000000E+00  0.00000000000E+00 -0.56074582788E+03  0.23729482201E+04  0.23057422604E+04 0.  0.
        3    1    3    3  502    0  0.88772155495E+03 -0.41509687811E+03 -0.90532619641E+03  0.13341553543E+04  0.10100000352E+00 0.  1.
       -3    1    3    3    0  502 -0.88772155495E+03  0.41509687811E+03  0.34458036853E+03  0.10387928657E+04  0.10100000352E+00 0. -1.
</event>
<event>
 5   0  0.1588969E-05  0.2296365E+04  0.7818609E-02  0.8479356E-01
        2   -1    0    0  501    0  0.00000000000E+00  0.00000000000E+00  0.94874687745E+03  0.94874687745E+03  0.25500000920E-02 0. -1.
       -2   -1    0    0    0  501  0.00000000000E+00  0.00000000000E+00 -0.13895414238E+04  0.13895414238E+04  0.25500000920E-02 0.  1.
    10030    2    1    2    0    0  0.00000000000E+00  0.00000000000E+00 -0.44079454639E+03  0.23382883013E+04  0.22963650293E+04 0.  0.
        1    1    3    3  502    0  0.17148128311E+03 -0.11162550151E+04 -0.43128206886E+03  0.12088983879E+04  0.50400001928E-02 0.  1.
       -1    1    3    3    0  502 -0.17148128311E+03  0.11162550151E+04 -0.95124775297E+01  0.11293899134E+04  0.50400001928E-02 0. -1.
</event>
<event>
 5   0  0.1697855E-05  0.2298333E+04  0.7818609E-02  0.8478579E-01
        2   -1    0    0  501    0  0.00000000000E+00  0.00000000000E+00  0.19664698527E+04  0.19664698527E+04  0.25500000920E-02 0. -1.
       -2   -1    0    0    0  501  0.00000000000E+00  0.00000000000E+00 -0.67155025566E+03  0.67155025567E+03  0.25500000920E-02 0.  1.
    10030    2    1    2    0    0  0.00000000000E+00  0.00000000000E+00  0.12949195970E+04  0.26380201084E+04  0.22983327282E+04 0.  0.
        5    1    3    3  502    0 -0.30958614171E+03  0.89536559327E+03  0.13940030100E+04  0.16854642111E+04  0.46999998093E+01 0. -1.
       -5    1    3    3    0  502  0.30958614171E+03 -0.89536559327E+03 -0.99083413018E+02  0.95255589730E+03  0.46999998093E+01 0.  1.
</event>
<event>
 5   0  0.1635955E-05  0.2172082E+04  0.7818609E-02  0.8530139E-01
       -2   -1    0    0    0  501  0.00000000000E+00  0.00000000000E+00  0.71753913228E+03  0.71753913228E+03  0.25500000920E-02 0.  1.
        2   -1    0    0  501    0  0.00000000000E+00  0.00000000000E+00 -0.16437926414E+04  0.16437926414E+04  0.25500000920E-02 0. -1.
    10030    2    1    2    0    0  0.00000000000E+00  0.00000000000E+00 -0.92625350912E+03  0.23613317737E+04  0.21720824529E+04 0.  0.
        2    1    3    3  502    0 -0.44463733179E+03  0.97945586687E+03 -0.30024103493E+03  0.11167725064E+04  0.25500000920E-02 0.  1.
       -2    1    3    3    0  502  0.44463733179E+03 -0.97945586687E+03 -0.62601247419E+03  0.12445592673E+04  0.25500000920E-02 0. -1.
</event>
<event>
 5   0  0.7391007E-06  0.2300887E+04  0.7818609E-02  0.8477572E-01
       -1   -1    0    0    0  501  0.00000000000E+00  0.00000000000E+00  0.72105233824E+03  0.72105233826E+03  0.50400001928E-02 0.  1.
        1   -1    0    0  501    0  0.00000000000E+00  0.00000000000E+00 -0.18355395388E+04  0.18355395388E+04  0.50400001928E-02 0. -1.
    10030    2    1    2    0    0  0.00000000000E+00  0.00000000000E+00 -0.11144872006E+04  0.25565918771E+04  0.23008868520E+04 0.  0.
        1    1    3    3  502    0  0.55453603028E+03 -0.77370068565E+03 -0.12751054350E+04  0.15912312310E+04  0.50400001928E-02 0. -1.
       -1    1    3    3    0  502 -0.55453603028E+03  0.77370068565E+03  0.16061823445E+03  0.96536064614E+03  0.50400001928E-02 0.  1.
</event>
<event>
 5   0  0.1635955E-05  0.2278605E+04  0.7818609E-02  0.8486405E-01
        2   -1    0    0  501    0  0.00000000000E+00  0.00000000000E+00  0.12177154912E+04  0.12177154912E+04  0.25500000920E-02 0.  1.
       -2   -1    0    0    0  501  0.00000000000E+00  0.00000000000E+00 -0.10659389975E+04  0.10659389975E+04  0.25500000920E-02 0. -1.
    10030    2    1    2    0    0  0.00000000000E+00  0.00000000000E+00  0.15177649372E+03  0.22836544887E+04  0.22786052137E+04 0.  0.
        2    1    3    3  502    0  0.98813797146E+02 -0.59141459163E+03  0.10467841630E+04  0.12063550346E+04  0.25500000920E-02 0.  1.
       -2    1    3    3    0  502 -0.98813797146E+02  0.59141459163E+03 -0.89500766928E+03  0.10772994541E+04  0.25500000920E-02 0. -1.
</event>
<event>
 5   0  0.7391007E-06  0.2291850E+04  0.7818609E-02  0.8481141E-01
       -1   -1    0    0    0  501  0.00000000000E+00  0.00000000000E+00  0.11644045911E+04  0.11644045911E+04  0.50400001928E-02 0.  1.
        1   -1    0    0  501    0  0.00000000000E+00  0.00000000000E+00 -0.11277390802E+04  0.11277390802E+04  0.50400001928E-02 0. -1.
    10030    2    1    2    0    0  0.00000000000E+00  0.00000000000E+00  0.36665510950E+02  0.22921436713E+04  0.22918503987E+04 0.  0.
        1    1    3    3  502    0  0.42446921729E+03  0.88822362715E+03  0.60494786445E+03  0.11554554284E+04  0.50400001928E-02 0. -1.
       -1    1    3    3    0  502 -0.42446921729E+03 -0.88822362715E+03 -0.56828235350E+03  0.11366882429E+04  0.50400001928E-02 0.  1.
</event>
<event>
 5   0  0.7278815E-06  0.2300699E+04  0.7818609E-02  0.8477646E-01
        1   -1    0    0  501    0  0.00000000000E+00  0.00000000000E+00  0.95924233827E+03  0.95924233828E+03  0.50400001928E-02 0. -1.
       -1   -1    0    0    0  501  0.00000000000E+00  0.00000000000E+00 -0.13795298278E+04  0.13795298278E+04  0.50400001928E-02 0.  1.
    10030    2    1    2    0    0  0.00000000000E+00  0.00000000000E+00 -0.42028748949E+03  0.23387721660E+04  0.23006985180E+04 0.  0.
        5    1    3    3  502    0 -0.38812220875E+03 -0.98495187771E+03  0.24731705268E+03  0.10871783961E+04  0.46999998093E+01 0. -1.
       -5    1    3    3    0  502  0.38812220875E+03  0.98495187771E+03 -0.66760454217E+03  0.12515937700E+04  0.46999998093E+01 0.  1.
</event>
<event>
 5   0  0.1626636E-05  0.2338636E+04  0.7818609E-02  0.8462841E-01
        2   -1    0    0  501    0  0.00000000000E+00  0.00000000000E+00  0.12268178906E+04  0.12268178906E+04  0.25500000920E-02 0. -1.
       -2   -1    0    0    0  501  0.00000000000E+00  0.00000000000E+00 -0.11145131741E+04  0.11145131741E+04  0.25500000920E-02 0.  1.
    10030    2    1    2    0    0  0.00000000000E+00  0.00000000000E+00  0.11230471649E+03  0.23413310647E+04  0.23386360993E+04 0.  0.
        4    1    3    3  502    0  0.59981612169E+03 -0.30907975173E+03 -0.89993159601E+03  0.11248058335E+04  0.12699999809E+01 0.  1.
       -4    1    3    3    0  502 -0.59981612169E+03  0.30907975173E+03  0.10122363125E+04  0.12165252311E+04  0.12699999809E+01 0. -1.
</event>
<event>
 5   0  0.7183014E-06  0.2295115E+04  0.7818609E-02  0.8479850E-01
        1   -1    0    0  501    0  0.00000000000E+00  0.00000000000E+00  0.10866581233E+04  0.10866581233E+04  0.50400001928E-02 0. -1.
       -1   -1    0    0    0  501  0.00000000000E+00  0.00000000000E+00 -0.12118701584E+04  0.12118701584E+04  0.50400001928E-02 0.  1.
    10030    2    1    2    0    0  0.00000000000E+00  0.00000000000E+00 -0.12521203513E+03  0.22985282817E+04  0.22951152930E+04 0.  0.
        3    1    3    3  502    0  0.10194150374E+04  0.50950420504E+03 -0.19729388421E+03  0.11566012452E+04  0.10100000352E+00 0.  1.
       -3    1    3    3    0  502 -0.10194150374E+04 -0.50950420504E+03  0.72081849084E+02  0.11419270365E+04  0.10100000352E+00 0. -1.
</event>
<event>
 5   0  0.5704875E-06  0.2292516E+04  0.7818609E-02  0.8480878E-01
        3   -1    0    0  501    0  0.00000000000E+00  0.00000000000E+00  0.76496326598E+03  0.76496327265E+03  0.10100000352E+00 0. -1.
       -3   -1    0    0    0  501  0.00000000000E+00  0.00000000000E+00 -0.17176091726E+04  0.17176091756E+04  0.10100000352E+00 0.  1.
    10030    2    1    2    0    0  0.00000000000E+00  0.00000000000E+00 -0.95264590662E+03  0.24825724482E+04  0.22925164639E+04 0.  0.
        3    1    3    3  502    0  0.79467718249E+03  0.73684138390E+03 -0.88072715612E+03  0.13964696141E+04  0.10100000352E+00 0.  1.
       -3    1    3    3    0  502 -0.79467718249E+03 -0.73684138390E+03 -0.71918750503E+02  0.10861028341E+04  0.10100000352E+00 0. -1.
</event>
<event>
 5   0  0.7391007E-06  0.2295988E+04  0.7818609E-02  0.8479505E-01
       -1   -1    0    0    0  501  0.00000000000E+00  0.00000000000E+00  0.22211856731E+04  0.22211856731E+04  0.50400001928E-02 0.  1.
        1   -1    0    0  501    0  0.00000000000E+00  0.00000000000E+00 -0.59332721946E+03  0.59332721948E+03  0.50400001928E-02 0. -1.
    10030    2    1    2    0    0  0.00000000000E+00  0.00000000000E+00  0.16278584536E+04  0.28145128925E+04  0.22959877346E+04 0.  0.
        1    1    3    3  502    0 -0.31889250577E+03 -0.20202480798E+03  0.21429245950E+04  0.21759210172E+04  0.50400001928E-02 0.  1.
       -1    1    3    3    0  502  0.31889250577E+03  0.20202480798E+03 -0.51506614136E+03  0.63859187536E+03  0.50400001928E-02 0. -1.
</event>
<event>
 5   0  0.7202572E-06  0.2292073E+04  0.7818609E-02  0.8481053E-01
       -1   -1    0    0    0  501  0.00000000000E+00  0.00000000000E+00  0.10607838221E+04  0.10607838221E+04  0.50400001928E-02 0.  1.
        1   -1    0    0  501    0  0.00000000000E+00  0.00000000000E+00 -0.12381404251E+04  0.12381404251E+04  0.50400001928E-02 0. -1.
    10030    2    1    2    0    0  0.00000000000E+00  0.00000000000E+00 -0.17735660295E+03  0.22989242472E+04  0.22920727147E+04 0.  0.
        2    1    3    3  502    0 -0.35960589273E+03 -0.36206559822E+03 -0.11178994211E+04  0.12288641142E+04  0.25500000920E-02 0. -1.
       -2    1    3    3    0  502  0.35960589273E+03  0.36206559822E+03  0.94054281812E+03  0.10700601330E+04  0.25500000920E-02 0.  1.
</event>
<event>
 5   0  0.7416556E-06  0.2300000E+04  0.7818609E-02  0.8477921E-01
        1   -1    0    0  501    0  0.00000000000E+00  0.00000000000E+00  0.14178895697E+04  0.14178895697E+04  0.50400001928E-02 0.  1.
       -1   -1    0    0    0  501  0.00000000000E+00  0.00000000000E+00 -0.93272412792E+03  0.93272412793E+03  0.50400001928E-02 0. -1.
    10030    2    1    2    0    0  0.00000000000E+00  0.00000000000E+00  0.48516544174E+03  0.23506136976E+04  0.22999998368E+04 0.  0.
        4    1    3    3  502    0 -0.89407957324E+03  0.59535178419E+03 -0.17715724418E+03  0.10886727388E+04  0.12699999809E+01 0. -1.
       -4    1    3    3    0  502  0.89407957324E+03 -0.59535178419E+03  0.66232268591E+03  0.12619409588E+04  0.12699999809E+01 0.  1.
</event>
<event>
 5   0  0.5704875E-06  0.2300919E+04  0.7818609E-02  0.8477559E-01
        3   -1    0    0  501    0  0.00000000000E+00  0.00000000000E+00  0.14186719849E+04  0.14186719885E+04  0.10100000352E+00 0. -1.
       -3   -1    0    0    0  501  0.00000000000E+00  0.00000000000E+00 -0.93295471853E+03  0.93295472399E+03  0.10100000352E+00 0.  1.
    10030    2    1    2    0    0  0.00000000000E+00  0.00000000000E+00  0.48571726636E+03  0.23516267125E+04  0.23009187148E+04 0.  0.
        2    1    3    3  502    0  0.58482975460E+03  0.11946079752E+03 -0.76230952952E+03  0.96820067280E+03  0.25500000920E-02 0.  1.
       -2    1    3    3    0  502 -0.58482975460E+03 -0.11946079752E+03  0.12480267959E+04  0.13834260397E+04  0.25500000920E-02 0. -1.
</event>
<event>
 5   0  0.1588969E-05  0.2338366E+04  0.7818609E-02  0.8462946E-01
        2   -1    0    0  501    0  0.00000000000E+00  0.00000000000E+00  0.86046303926E+03  0.86046303926E+03  0.25500000920E-02 0.  1.
       -2   -1    0    0    0  501  0.00000000000E+00  0.00000000000E+00 -0.15886661066E+04  0.15886661066E+04  0.25500000920E-02 0. -1.
    10030    2    1    2    0    0  0.00000000000E+00  0.00000000000E+00 -0.72820306732E+03  0.24491291458E+04  0.23383656399E+04 0.  0.
        1    1    3    3  502    0  0.71769621606E+03 -0.71893386892E+03 -0.97034093730E+03  0.14048186008E+04  0.50400001928E-02 0. -1.
       -1    1    3    3    0  502 -0.71769621606E+03  0.71893386892E+03  0.24213786998E+03  0.10443105451E+04  0.50400001928E-02 0.  1.
</event>
<event>
 5   0  0.7202572E-06  0.2300998E+04  0.7818609E-02  0.8477528E-01
        1   -1    0    0  501    0  0.00000000000E+00  0.00000000000E+00  0.83989375244E+03  0.83989375246E+03  0.50400001928E-02 0.  1.
       -1   -1    0    0    0  501  0.00000000000E+00  0.00000000000E+00 -0.15759701923E+04  0.15759701924E+04  0.50400001928E-02 0. -1.
    10030    2    1    2    0    0  0.00000000000E+00  0.00000000000E+00 -0.73607643991E+03  0.24158639448E+04  0.23009976259E+04 0.  0.
        2    1    3    3  502    0 -0.24202646832E+03 -0.53805473690E+03 -0.14050532049E+04  0.15238944255E+04  0.25500000920E-02 0. -1.
       -2    1    3    3    0  502  0.24202646832E+03  0.53805473690E+03  0.66897676503E+03  0.89196951934E+03  0.25500000920E-02 0.  1.
</event>
<event>
 5   0  0.1602809E-05  0.2296719E+04  0.7818609E-02  0.8479216E-01
        2   -1    0    0  501    0  0.00000000000E+00  0.00000000000E+00  0.26718606292E+04  0.26718606292E+04  0.25500000920E-02 0.  1.
       -2   -1    0    0    0  501  0.00000000000E+00  0.00000000000E+00 -0.49356214617E+03  0.49356214618E+03  0.25500000920E-02 0. -1.
    10030    2    1    2    0    0  0.00000000000E+00  0.00000000000E+00  0.21782984831E+04  0.31654227754E+04  0.22967187607E+04 0.  0.
        3    1    3    3  502    0 -0.38397401538E+02  0.42173960529E+03 -0.38201181878E+03  0.57032595505E+03  0.10100000352E+00 0. -1.
       -3    1    3    3    0  502  0.38397401538E+02 -0.42173960529E+03  0.25603103019E+04  0.25950968204E+04  0.10100000352E+00 0.  1.
</event>
<event>
 5   0  0.7416556E-06  0.2301188E+04  0.7818609E-02  0.8477453E-01
       -1   -1    0    0    0  501  0.00000000000E+00  0.00000000000E+00  0.14222073005E+04  0.14222073005E+04  0.50400001928E-02 0.  1.
        1   -1    0    0  501    0  0.00000000000E+00  0.00000000000E+00 -0.93085378737E+03  0.93085378739E+03  0.50400001928E-02 0. -1.
    10030    2    1    2    0    0  0.00000000000E+00  0.00000000000E+00  0.49135351310E+03  0.23530610879E+04  0.23011884339E+04 0.  0.
        4    1    3    3  502    0 -0.16422975685E+03 -0.12763500603E+03 -0.91146970899E+03  0.93490146599E+03  0.12699999809E+01 0. -1.
       -4    1    3    3    0  502  0.16422975685E+03  0.12763500603E+03  0.14028232221E+04  0.14181596219E+04  0.12699999809E+01 0.  1.
</event>
<event>
 5   0  0.1588969E-05  0.2305822E+04  0.7818609E-02  0.8475629E-01
        2   -1    0    0  501    0  0.00000000000E+00  0.00000000000E+00  0.14148940988E+04  0.14148940988E+04  0.25500000920E-02 0. -1.
       -2   -1    0    0    0  501  0.00000000000E+00  0.00000000000E+00 -0.93943666617E+03  0.93943666617E+03  0.25500000920E-02 0.  1.
    10030    2    1    2    0    0  0.00000000000E+00  0.00000000000E+00  0.47545743266E+03  0.23543307650E+04  0.23058216715E+04 0.  0.
        1    1    3    3  502    0 -0.91897140592E+03 -0.64870952400E+03  0.49577243491E+03  0.12292773482E+04  0.50400001928E-02 0. -1.
       -1    1    3    3    0  502  0.91897140592E+03  0.64870952400E+03 -0.20315002251E+02  0.11250534169E+04  0.50400001928E-02 0.  1.
</event>
<event>
 5   0  0.7183014E-06  0.2302367E+04  0.7818609E-02  0.8476988E-01
       -1   -1    0    0    0  501  0.00000000000E+00  0.00000000000E+00  0.10961459156E+04  0.10961459156E+04  0.50400001928E-02 0. -1.
        1   -1    0    0  501    0  0.00000000000E+00  0.00000000000E+00 -0.12089843923E+04  0.12089843923E+04  0.50400001928E-02 0.  1.
    10030    2    1    2    0    0  0.00000000000E+00  0.00000000000E+00 -0.11283847677E+03  0.23051303079E+04  0.23023668723E+04 0.  0.
        3    1    3    3  502    0  0.97729404026E+02 -0.10250739923E+04  0.45887857391E+03  0.11273408011E+04  0.10100000352E+00 0. -1.
       -3    1    3    3    0  502 -0.97729404026E+02  0.10250739923E+04 -0.57171705068E+03  0.11777895068E+04  0.10100000352E+00 0.  1.
</event>
<event>
 5   0  0.1626636E-05  0.2301622E+04  0.7818609E-02  0.8477282E-01
       -2   -1    0    0    0  501  0.00000000000E+00  0.00000000000E+00  0.11203521330E+04  0.11203521330E+04  0.25500000920E-02 0.  1.
        2   -1    0    0  501    0  0.00000000000E+00  0.00000000000E+00 -0.11820974825E+04  0.11820974825E+04  0.25500000920E-02 0. -1.
    10030    2    1    2    0    0  0.00000000000E+00  0.00000000000E+00 -0.61745349414E+02  0.23024496155E+04  0.23016215466E+04 0.  0.
        4    1    3    3  502    0  0.11133767446E+04 -0.12646509967E+03 -0.29319330583E+03  0.11582595237E+04  0.12699999809E+01 0. -1.
       -4    1    3    3    0  502 -0.11133767446E+04  0.12646509967E+03  0.23144795642E+03  0.11441900918E+04  0.12699999809E+01 0.  1.
</event>
<event>
 5   0  0.1626636E-05  0.2231698E+04  0.7818609E-02  0.8505350E-01
       -2   -1    0    0    0  501  0.00000000000E+00  0.00000000000E+00  0.11400102837E+04  0.11400102837E+04  0.25500000920E-02 0.  1.
        2   -1    0    0  501    0  0.00000000000E+00  0.00000000000E+00 -0.10921994488E+04  0.10921994488E+04  0.25500000920E-02 0. -1.
    10030    2    1    2    0    0  0.00000000000E+00  0.00000000000E+00  0.47810834930E+02  0.22322097324E+04  0.22316976528E+04 0.  0.
        4    1    3    3  502    0 -0.51675863565E+03 -0.30091150642E+03 -0.91839873493E+03  0.10959220189E+04  0.12699999809E+01 0. -1.
       -4    1    3    3    0  502  0.51675863565E+03  0.30091150642E+03  0.96620956986E+03  0.11362877136E+04  0.12699999809E+01 0.  1.
</event>
<event>
 5   0  0.1697855E-05  0.2297209E+04  0.7818609E-02  0.8479022E-01
       -2   -1    0    0    0  501  0.00000000000E+00  0.00000000000E+00  0.60995828394E+03  0.60995828394E+03  0.25500000920E-02 0. -1.
        2   -1    0    0  501    0  0.00000000000E+00  0.00000000000E+00 -0.21629221448E+04  0.21629221448E+04  0.25500000920E-02 0.  1.
    10030    2    1    2    0    0  0.00000000000E+00  0.00000000000E+00 -0.15529638609E+04  0.27728804287E+04  0.22972089846E+04 0.  0.
        5    1    3    3  502    0 -0.33695847859E+03  0.10587337750E+04 -0.11280093486E+04  0.15833146886E+04  0.46999998093E+01 0.  1.
       -5    1    3    3    0  502  0.33695847859E+03 -0.10587337750E+04 -0.42495451226E+03  0.11895657401E+04  0.46999998093E+01 0. -1.
</event>
<event>
 5   0  0.1635955E-05  0.2304490E+04  0.7818609E-02  0.8476153E-01
        2   -1    0    0  501    0  0.00000000000E+00  0.00000000000E+00  0.91967855843E+03  0.91967855843E+03  0.25500000920E-02 0. -1.
       -2   -1    0    0    0  501  0.00000000000E+00  0.00000000000E+00 -0.14436218925E+04  0.14436218925E+04  0.25500000920E-02 0.  1.
    10030    2    1    2    0    0  0.00000000000E+00  0.00000000000E+00 -0.52394333402E+03  0.23633004509E+04  0.23044896190E+04 0.  0.
        2    1    3    3  502    0 -0.34326826625E+03  0.91646605854E+03  0.36176460554E+03  0.10433679930E+04  0.25500000920E-02 0. -1.
       -2    1    3    3    0  502  0.34326826625E+03 -0.91646605854E+03 -0.88570793956E+03  0.13199324578E+04  0.25500000920E-02 0.  1.
</event>
<event>
 5   0  0.1602809E-05  0.2293092E+04  0.7818609E-02  0.8480650E-01
       -2   -1    0    0    0  501  0.00000000000E+00  0.00000000000E+00  0.89877686553E+03  0.89877686554E+03  0.25500000920E-02 0. -1.
        2   -1    0    0  501    0  0.00000000000E+00  0.00000000000E+00 -0.14626182619E+04  0.14626182619E+04  0.25500000920E-02 0.  1.
    10030    2    1    2    0    0  0.00000000000E+00  0.00000000000E+00 -0.56384139641E+03  0.23613951275E+04  0.22930917617E+04 0.  0.
        3    1    3    3  502    0  0.10885525809E+03 -0.12408928286E+03 -0.14503177655E+04  0.14596812147E+04  0.10100000352E+00 0.  1.
       -3    1    3    3    0  502 -0.10885525809E+03  0.12408928286E+03  0.88647636911E+03  0.90171391279E+03  0.10100000352E+00 0. -1.
</event>
<event>
 5   0  0.1602809E-05  0.2333002E+04  0.7818609E-02  0.8465021E-01
       -2   -1    0    0    0  501  0.00000000000E+00  0.00000000000E+00  0.82891007228E+03  0.82891007229E+03  0.25500000920E-02 0.  1.
        2   -1    0    0  501    0  0.00000000000E+00  0.00000000000E+00 -0.16415830222E+04  0.16415830222E+04  0.25500000920E-02 0. -1.
    10030    2    1    2    0    0  0.00000000000E+00  0.00000000000E+00 -0.81267294995E+03  0.24704930945E+04  0.23330021017E+04 0.  0.
        3    1    3    3  502    0  0.54119021122E+03  0.61334242397E+02 -0.14986689100E+04  0.15945711794E+04  0.10100000352E+00 0. -1.
       -3    1    3    3    0  502 -0.54119021122E+03 -0.61334242397E+02  0.68599596007E+03  0.87592191515E+03  0.10100000352E+00 0.  1.
</event>
<event>
 5   0  0.1635955E-05  0.2282656E+04  0.7818609E-02  0.8484791E-01
        2   -1    0    0  501    0  0.00000000000E+00  0.00000000000E+00  0.11806940022E+04  0.11806940022E+04  0.25500000920E-02 0.  1.
       -2   -1    0    0    0  501  0.00000000000E+00  0.00000000000E+00 -0.11032747981E+04  0.11032747981E+04  0.25500000920E-02 0. -1.
    10030    2    1    2    0    0  0.00000000000E+00  0.00000000000E+00  0.77419204184E+02  0.22839688003E+04  0.22826562920E+04 0.  0.
        2    1    3    3  502    0  0.33444367946E+03  0.28576669001E+03  0.10924603274E+04  0.11777031641E+04  0.25500000920E-02 0.  1.
       -2    1    3    3    0  502 -0.33444367946E+03 -0.28576669001E+03 -0.10150411232E+04  0.11062656361E+04  0.25500000920E-02 0. -1.
</event>
<event>
 5   0  0.1697855E-05  0.2298160E+04  0.7818609E-02  0.8478647E-01
       -2   -1    0    0    0  501  0.00000000000E+00  0.00000000000E+00  0.83353304721E+03  0.83353304721E+03  0.25500000920E-02 0.  1.
        2   -1    0    0  501    0  0.00000000000E+00  0.00000000000E+00 -0.15840820005E+04  0.15840820005E+04  0.25500000920E-02 0. -1.
    10030    2    1    2    0    0  0.00000000000E+00  0.00000000000E+00 -0.75054895328E+03  0.24176150477E+04  0.22981598699E+04 0.  0.
        5    1    3    3  502    0 -0.82600326479E+03 -0.49115594936E+03 -0.10379767948E+04  0.14145435577E+04  0.46999998093E+01 0. -1.
       -5    1    3    3    0  502  0.82600326479E+03  0.49115594936E+03  0.28742784151E+03  0.10030714900E+04  0.46999998093E+01 0.  1.
</event>
<event>
 5   0  0.1602809E-05  0.2300861E+04  0.7818609E-02  0.8477582E-01
       -2   -1    0    0    0  501  0.00000000000E+00  0.00000000000E+00  0.97709619735E+03  0.97709619735E+03  0.25500000920E-02 0.  1.
        2   -1    0    0  501    0  0.00000000000E+00  0.00000000000E+00 -0.13545133249E+04  0.13545133249E+04  0.25500000920E-02 0. -1.
    10030    2    1    2    0    0  0.00000000000E+00  0.00000000000E+00 -0.37741712752E+03  0.23316095222E+04  0.23008605512E+04 0.  0.
        3    1    3    3  502    0  0.71382907908E+03  0.55462312359E+03 -0.90978748542E+03  0.12825256497E+04  0.10100000352E+00 0.  1.
       -3    1    3    3    0  502 -0.71382907908E+03 -0.55462312359E+03  0.53237035790E+03  0.10490838725E+04  0.10100000352E+00 0. -1.
</event>
<event>
 5   0  0.7416556E-06  0.2301710E+04  0.7818609E-02  0.8477247E-01
        1   -1    0    0  501    0  0.00000000000E+00  0.00000000000E+00  0.19227413438E+04  0.19227413438E+04  0.50400001928E-02 0.  1.
       -1   -1    0    0    0  501  0.00000000000E+00  0.00000000000E+00 -0.68884339871E+03  0.68884339873E+03  0.50400001928E-02 0. -1.
    10030    2    1    2    0    0  0.00000000000E+00  0.00000000000E+00  0.12338979451E+04  0.26115847426E+04  0.23017103920E+04 0.  0.
        4    1    3    3  502    0 -0.57719533239E+03 -0.77637631936E+03 -0.90308751324E+02  0.97163363695E+03  0.12699999809E+01 0. -1.
       -4    1    3    3    0  502  0.57719533239E+03  0.77637631936E+03  0.13242066964E+04  0.16399511056E+04  0.12699999809E+01 0.  1.
</event>
<event>
 5   0  0.1588969E-05  0.2306611E+04  0.7818609E-02  0.8475319E-01
        2   -1    0    0  501    0  0.00000000000E+00  0.00000000000E+00  0.16001100708E+04  0.16001100708E+04  0.25500000920E-02 0. -1.
       -2   -1    0    0    0  501  0.00000000000E+00  0.00000000000E+00 -0.83126411295E+03  0.83126411295E+03  0.25500000920E-02 0.  1.
    10030    2    1    2    0    0  0.00000000000E+00  0.00000000000E+00  0.76884595782E+03  0.24313741837E+04  0.23066114355E+04 0.  0.
        1    1    3    3  502    0 -0.32805722087E+03 -0.94420538885E+03 -0.22199327992E+03  0.10239269373E+04  0.50400001928E-02 0.  1.
       -1    1    3    3    0  502  0.32805722087E+03  0.94420538885E+03  0.99083923774E+03  0.14074472465E+04  0.50400001928E-02 0. -1.
</event>
<event>
 5   0  0.1635955E-05  0.2320019E+04  0.7818609E-02  0.8470069E-01
       -2   -1    0    0    0  501  0.00000000000E+00  0.00000000000E+00  0.89379402483E+03  0.89379402483E+03  0.25500000920E-02 0. -1.
        2   -1    0    0  501    0  0.00000000000E+00  0.00000000000E+00 -0.15055172696E+04  0.15055172696E+04  0.25500000920E-02 0.  1.
    10030    2    1    2    0    0  0.00000000000E+00  0.00000000000E+00 -0.61172324476E+03  0.23993112944E+04  0.23200192584E+04 0.  0.
        2    1    3    3  502    0  0.89957398471E+03  0.41221476811E+03 -0.93191738891E+03  0.13592734783E+04  0.25500000920E-02 0.  1.
       -2    1    3    3    0  502 -0.89957398471E+03 -0.41221476811E+03  0.32019414416E+03  0.10400378161E+04  0.25500000920E-02 0. -1.
</event>
<event>
 5   0  0.7202572E-06  0.2278360E+04  0.7818609E-02  0.8486503E-01
        1   -1    0    0  501    0  0.00000000000E+00  0.00000000000E+00  0.15953484776E+04  0.15953484776E+04  0.50400001928E-02 0. -1.
       -1   -1    0    0    0  501  0.00000000000E+00  0.00000000000E+00 -0.81344644574E+03  0.81344644576E+03  0.50400001928E-02 0.  1.
    10030    2    1    2    0    0  0.00000000000E+00  0.00000000000E+00  0.78190203184E+03  0.24087949234E+04  0.22783595404E+04 0.  0.
        2    1    3    3  502    0  0.11189499496E+04  0.20707626570E+03  0.44690519387E+03  0.12225603551E+04  0.25500000920E-02 0. -1.
       -2    1    3    3    0  502 -0.11189499496E+04 -0.20707626570E+03  0.33499683797E+03  0.11862345683E+04  0.25500000920E-02 0.  1.
</event>
<event>
 5   0  0.1697855E-05  0.2279749E+04  0.7818609E-02  0.8485949E-01
        2   -1    0    0  501    0  0.00000000000E+00  0.00000000000E+00  0.96734920840E+03  0.96734920841E+03  0.25500000920E-02 0.  1.
       -2   -1    0    0    0  501  0.00000000000E+00  0.00000000000E+00 -0.13431692147E+04  0.13431692147E+04  0.25500000920E-02 0. -1.
    10030    2    1    2    0    0  0.00000000000E+00  0.00000000000E+00 -0.37582000628E+03  0.23105184231E+04  0.22797488253E+04 0.  0.
        5    1    3    3  502    0 -0.96102574253E+03 -0.61059130595E+03 -0.13333749097E+03  0.11463826574E+04  0.46999998093E+01 0. -1.
       -5    1    3    3    0  502  0.96102574253E+03  0.61059130595E+03 -0.24248251531E+03  0.11641357657E+04  0.46999998093E+01 0.  1.
</event>
<event>
 5   0  0.7183014E-06  0.2294975E+04  0.7818609E-02  0.8479905E-01
       -1   -1    0    0    0  501  0.00000000000E+00  0.00000000000E+00  0.69815826890E+03  0.69815826892E+03  0.50400001928E-02 0.  1.
        1   -1    0    0  501    0  0.00000000000E+00  0.00000000000E+00 -0.18860021126E+04  0.18860021126E+04  0.50400001928E-02 0. -1.
    10030    2    1    2    0    0  0.00000000000E+00  0.00000000000E+00 -0.11878438437E+04  0.25841603816E+04  0.22949753551E+04 0.  0.
        3    1    3    3  502    0 -0.89607899146E+03 -0.34964732496E+02 -0.14000585484E+04  0.16626316612E+04  0.10100000352E+00 0. -1.
       -3    1    3    3    0  502  0.89607899146E+03  0.34964732496E+02  0.21221470469E+03  0.92152872041E+03  0.10100000352E+00 0.  1.
</event>
<event>
 5   0  0.7183014E-06  0.2299045E+04  0.7818609E-02  0.8478298E-01
        1   -1    0    0  501    0  0.00000000000E+00  0.00000000000E+00  0.11044347984E+04  0.11044347984E+04  0.50400001928E-02 0. -1.
       -1   -1    0    0    0  501  0.00000000000E+00  0.00000000000E+00 -0.11964513243E+04  0.11964513243E+04  0.50400001928E-02 0.  1.
    10030    2    1    2    0    0  0.00000000000E+00  0.00000000000E+00 -0.92016525843E+02  0.23008861227E+04  0.22990454342E+04 0.  0.
        3    1    3    3  502    0 -0.34861152573E+03 -0.95817598552E+03 -0.57725455463E+03  0.11716885449E+04  0.10100000352E+00 0.  1.
       -3    1    3    3    0  502  0.34861152573E+03  0.95817598552E+03  0.48523802879E+03  0.11291975779E+04  0.10100000352E+00 0. -1.
</event>
<event>
 5   0  0.7416556E-06  0.2301563E+04  0.7818609E-02  0.8477305E-01
        1   -1    0    0  501    0  0.00000000000E+00  0.00000000000E+00  0.94483477416E+03  0.94483477417E+03  0.50400001928E-02 0.  1.
       -1   -1    0    0    0  501  0.00000000000E+00  0.00000000000E+00 -0.14016187000E+04  0.14016187000E+04  0.50400001928E-02 0. -1.
    10030    2    1    2    0    0  0.00000000000E+00  0.00000000000E+00 -0.45678392582E+03  0.23464534742E+04  0.23015630236E+04 0.  0.
        4    1    3    3  502    0  0.41505411392E+03 -0.64479987059E+03  0.64639960026E+03  0.10029311276E+04  0.12699999809E+01 0.  1.
       -4    1    3    3    0  502 -0.41505411392E+03  0.64479987059E+03 -0.11031835261E+04  0.13435223466E+04  0.12699999809E+01 0. -1.
</event>
<event>
 5   0  0.1626636E-05  0.2298488E+04  0.7818609E-02  0.8478517E-01
        2   -1    0    0  501    0  0.00000000000E+00  0.00000000000E+00  0.23781873919E+04  0.23781873919E+04  0.25500000920E-02 0. -1.
       -2   -1    0    0    0  501  0.00000000000E+00  0.00000000000E+00 -0.55536507111E+03  0.55536507112E+03  0.25500000920E-02 0.  1.
    10030    2    1    2    0    0  0.00000000000E+00  0.00000000000E+00  0.18228223208E+04  0.29335524630E+04  0.22984883816E+04 0.  0.
        4    1    3    3  502    0  0.57592148055E+03 -0.36321868015E+03  0.20930350454E+04  0.22010021980E+04  0.12699999809E+01 0. -1.
       -4    1    3    3    0  502 -0.57592148055E+03  0.36321868015E+03 -0.27021272461E+03  0.73255026504E+03  0.12699999809E+01 0.  1.
</event>
<event>
 5   0  0.1635955E-05  0.2302413E+04  0.7818609E-02  0.8476970E-01
       -2   -1    0    0    0  501  0.00000000000E+00  0.00000000000E+00  0.63257645837E+03  0.63257645838E+03  0.25500000920E-02 0. -1.
        2   -1    0    0  501    0  0.00000000000E+00  0.00000000000E+00 -0.20950448018E+04  0.20950448018E+04  0.25500000920E-02 0.  1.
    10030    2    1    2    0    0  0.00000000000E+00  0.00000000000E+00 -0.14624683434E+04  0.27276212602E+04  0.23024126658E+04 0.  0.
        2    1    3    3  502    0 -0.52673299303E+03  0.96784670119E+03 -0.33635870274E+03  0.11520903002E+04  0.25500000920E-02 0. -1.
       -2    1    3    3    0  502  0.52673299303E+03 -0.96784670119E+03 -0.11261096407E+04  0.15755309600E+04  0.25500000920E-02 0.  1.
</event>
<event>
 5   0  0.1626636E-05  0.2299206E+04  0.7818609E-02  0.8478234E-01
        2   -1    0    0  501    0  0.00000000000E+00  0.00000000000E+00  0.16625244106E+04  0.16625244106E+04  0.25500000920E-02 0.  1.
       -2   -1    0    0    0  501  0.00000000000E+00  0.00000000000E+00 -0.79492776902E+03  0.79492776902E+03  0.25500000920E-02 0. -1.
    10030    2    1    2    0    0  0.00000000000E+00  0.00000000000E+00  0.86759664158E+03  0.24574521796E+04  0.22992057939E+04 0.  0.
        4    1    3    3  502    0  0.96294445373E+03  0.46866514128E+03  0.88050666352E+03  0.13864352250E+04  0.12699999809E+01 0.  1.
       -4    1    3    3    0  502 -0.96294445373E+03 -0.46866514128E+03 -0.12910021933E+02  0.10710169547E+04  0.12699999809E+01 0. -1.
</event>
<event>
 5   0  0.1588969E-05  0.2287943E+04  0.7818609E-02  0.8482690E-01
       -2   -1    0    0    0  501  0.00000000000E+00  0.00000000000E+00  0.13684127064E+04  0.13684127064E+04  0.25500000920E-02 0. -1.
        2   -1    0    0  501    0  0.00000000000E+00  0.00000000000E+00 -0.95634217208E+03  0.95634217208E+03  0.25500000920E-02 0.  1.
    10030    2    1    2    0    0  0.00000000000E+00  0.00000000000E+00  0.41207053436E+03  0.23247548785E+04  0.22879429888E+04 0.  0.
        1    1    3    3  502    0  0.46737752375E+03 -0.63808590390E+03 -0.63374621690E+03  0.10135233781E+04  0.50400001928E-02 0.  1.
       -1    1    3    3    0  502 -0.46737752375E+03  0.63808590390E+03  0.10458167513E+04  0.13112315004E+04  0.50400001928E-02 0. -1.
</event>
<event>
 5   0  0.1602809E-05  0.2319167E+04  0.7818609E-02  0.8470402E-01
        2   -1    0    0  501    0  0.00000000000E+00  0.00000000000E+00  0.22416159244E+04  0.22416159244E+04  0.25500000920E-02 0.  1.
       -2   -1    0    0    0  501  0.00000000000E+00  0.00000000000E+00 -0.59985008559E+03  0.59985008559E+03  0.25500000920E-02 0. -1.
    10030    2    1    2    0    0  0.00000000000E+00  0.00000000000E+00  0.16417658388E+04  0.28414660100E+04  0.23191666642E+04 0.  0.
        3    1    3    3  502    0 -0.34409224912E+03 -0.10269450657E+04  0.13284479977E+04  0.17139981729E+04  0.10100000352E+00 0.  1.
       -3    1    3    3    0  502  0.34409224912E+03  0.10269450657E+04  0.31331784110E+03  0.11274678371E+04  0.10100000352E+00 0. -1.
</event>
<event>
 5   0  0.7391007E-06  0.2303274E+04  0.7818609E-02  0.8476631E-01
        1   -1    0    0  501    0  0.00000000000E+00  0.00000000000E+00  0.14479270384E+04  0.14479270384E+04  0.50400001928E-02 0. -1.
       -1   -1    0    0    0  501  0.00000000000E+00  0.00000000000E+00 -0.91597679221E+03  0.91597679222E+03  0.50400001928E-02 0.  1.
    10030    2    1    2    0    0  0.00000000000E+00  0.00000000000E+00  0.53195024619E+03  0.23639038306E+04  0.23032738126E+04 0.  0.
        1    1    3    3  502    0 -0.21041700090E+03  0.52365584870E+01 -0.89606811960E+03  0.92045684896E+03  0.50400001928E-02 0.  1.
       -1    1    3    3    0  502  0.21041700090E+03 -0.52365584870E+01  0.14280183658E+04  0.14434469817E+04  0.50400001928E-02 0. -1.
</event>
<event>
 5   0  0.1635955E-05  0.2174194E+04  0.7818609E-02  0.8529247E-01
       -2   -1    0    0    0  501  0.00000000000E+00  0.00000000000E+00  0.81389769753E+03  0.81389769753E+03  0.25500000920E-02 0. -1.
        2   -1    0    0  501    0  0.00000000000E+00  0.00000000000E+00 -0.14520003385E+04  0.14520003385E+04  0.25500000920E-02 0.  1.
    10030    2    1    2    0    0  0.00000000000E+00  0.00000000000E+00 -0.63810264099E+03  0.22658980361E+04  0.21741938574E+04 0.  0.
        2    1    3    3  502    0 -0.33126793802E+03 -0.71458262089E+03  0.46182691227E+03  0.91304483227E+03  0.25500000920E-02 0. -1.
       -2    1    3    3    0  502  0.33126793802E+03  0.71458262089E+03 -0.10999295533E+04  0.13528532038E+04  0.25500000920E-02 0.  1.
</event>
<event>
 5   0  0.7202572E-06  0.2296581E+04  0.7818609E-02  0.8479270E-01
        1   -1    0    0  501    0  0.00000000000E+00  0.00000000000E+00  0.17289528901E+04  0.17289528901E+04  0.50400001928E-02 0.  1.
       -1   -1    0    0    0  501  0.00000000000E+00  0.00000000000E+00 -0.76264148951E+03  0.76264148953E+03  0.50400001928E-02 0. -1.
    10030    2    1    2    0    0  0.00000000000E+00  0.00000000000E+00  0.96631140057E+03  0.24915943796E+04  0.22965811176E+04 0.  0.
        2    1    3    3  502    0 -0.11495859739E+03  0.56238276604E+03  0.15621311419E+04  0.16642546557E+04  0.25500000920E-02 0.  1.
       -2    1    3    3    0  502  0.11495859739E+03 -0.56238276604E+03 -0.59581974129E+03  0.82733972392E+03  0.25500000920E-02 0. -1.
</event>
<event>
 5   0  0.1635955E-05  0.2298798E+04  0.7818609E-02  0.8478395E-01
        2   -1    0    0  501    0  0.00000000000E+00  0.00000000000E+00  0.22642934838E+04  0.22642934838E+04  0.25500000920E-02 0. -1.
       -2   -1    0    0    0  501  0.00000000000E+00  0.00000000000E+00 -0.58345696300E+03  0.58345696301E+03  0.25500000920E-02 0.  1.
    10030    2    1    2    0    0  0.00000000000E+00  0.00000000000E+00  0.16808365208E+04  0.28477504468E+04  0.22987977722E+04 0.  0.
        2    1    3    3  502    0 -0.63474069124E+02  0.10744903525E+04  0.13398856104E+04  0.17186773764E+04  0.25500000920E-02 0. -1.
       -2    1    3    3    0  502  0.63474069124E+02 -0.10744903525E+04  0.34095091032E+03  0.11290730704E+04  0.25500000920E-02 0.  1.
</event>
<event>
 5   0  0.1626636E-05  0.2301589E+04  0.7818609E-02  0.8477295E-01
       -2   -1    0    0    0  501  0.00000000000E+00  0.00000000000E+00  0.85516154823E+03  0.85516154824E+03  0.25500000920E-02 0.  1.
        2   -1    0    0  501    0  0.00000000000E+00  0.00000000000E+00 -0.15486296633E+04  0.15486296633E+04  0.25500000920E-02 0. -1.
    10030    2    1    2    0    0  0.00000000000E+00  0.00000000000E+00 -0.69346811507E+03  0.24037912115E+04  0.23015894860E+04 0.  0.
        4    1    3    3  502    0 -0.11441489891E+03 -0.18928169652E+03  0.83275400077E+03  0.86162588658E+03  0.12699999809E+01 0.  1.
       -4    1    3    3    0  502  0.11441489891E+03  0.18928169652E+03 -0.15262221158E+04  0.15421653250E+04  0.12699999809E+01 0. -1.
</event>
<event>
 5   0  0.7391007E-06  0.2302230E+04  0.7818609E-02  0.8477042E-01
       -1   -1    0    0    0  501  0.00000000000E+00  0.00000000000E+00  0.41758026467E+03  0.41758026470E+03  0.50400001928E-02 0.  1.
        1   -1    0    0  501    0  0.00000000000E+00  0.00000000000E+00 -0.31731993726E+04  0.31731993726E+04  0.50400001928E-02 0. -1.
    10030    2    1    2    0    0  0.00000000000E+00  0.00000000000E+00 -0.27556191079E+04  0.35907796373E+04  0.23022297313E+04 0.  0.
        1    1    3    3  502    0  0.46285662308E+03  0.69524306490E+03 -0.26132883179E+04  0.27435150820E+04  0.50400001928E-02 0. -1.
       -1    1    3    3    0  502 -0.46285662308E+03 -0.69524306490E+03 -0.14233079003E+03  0.84726455528E+03  0.50400001928E-02 0.  1.
</event>
<event>
 5   0  0.7183014E-06  0.2286724E+04  0.7818609E-02  0.8483174E-01
        1   -1    0    0  501    0  0.00000000000E+00  0.00000000000E+00  0.11487649256E+04  0.11487649256E+04  0.50400001928E-02 0. -1.
       -1   -1    0    0    0  501  0.00000000000E+00  0.00000000000E+00 -0.11379849562E+04  0.11379849562E+04  0.50400001928E-02 0.  1.
    10030    2    1    2    0    0  0.00000000000E+00  0.00000000000E+00  0.10779969396E+02  0.22867498818E+04  0.22867244728E+04 0.  0.
        3    1    3    3  502    0  0.13484544005E+03  0.97564286638E+03  0.58609851051E+03  0.11461124594E+04  0.10100000352E+00 0. -1.
       -3    1    3    3    0  502 -0.13484544005E+03 -0.97564286638E+03 -0.57531854112E+03  0.11406374224E+04  0.10100000352E+00 0.  1.
</event>
<event>
 5   0  0.1602809E-05  0.2297245E+04  0.7818609E-02  0.8479008E-01
        2   -1    0    0  501    0  0.00000000000E+00  0.00000000000E+00  0.16046276208E+04  0.16046276208E+04  0.25500000920E-02 0.  1.
       -2   -1    0    0    0  501  0.00000000000E+00  0.00000000000E+00 -0.82220581829E+03  0.82220581830E+03  0.25500000920E-02 0. -1.
    10030    2    1    2    0    0  0.00000000000E+00  0.00000000000E+00  0.78242180252E+03  0.24268334391E+04  0.22972454514E+04 0.  0.
        3    1    3    3  502    0 -0.28449522890E+03 -0.16964539668E+03 -0.77065637958E+03  0.83882558466E+03  0.10100000352E+00 0. -1.
       -3    1    3    3    0  502  0.28449522890E+03  0.16964539668E+03  0.15530781821E+04  0.15880078545E+04  0.10100000352E+00 0.  1.
</event>
<event>
 5   0  0.7278815E-06  0.2290686E+04  0.7818609E-02  0.8481603E-01
        1   -1    0    0  501    0  0.00000000000E+00  0.00000000000E+00  0.10874985565E+04  0.10874985566E+04  0.50400001928E-02 0. -1.
       -1   -1    0    0    0  501  0.00000000000E+00  0.00000000000E+00 -0.12062637716E+04  0.12062637716E+04  0.50400001928E-02 0.  1.
    10030    2    1    2    0    0  0.00000000000E+00  0.00000000000E+00 -0.11876521504E+03  0.22937623281E+04  0.22906855833E+04 0.  0.
        5    1    3    3  502    0  0.87516168055E+03  0.62281871262E+03  0.33861433258E+03  0.11262738886E+04  0.46999998093E+01 0. -1.
       -5    1    3    3    0  502 -0.87516168055E+03 -0.62281871262E+03 -0.45737954762E+03  0.11674884395E+04  0.46999998093E+01 0.  1.
</event>
<event>
 5   0  0.7416556E-06  0.2301287E+04  0.7818609E-02  0.8477414E-01
        1   -1    0    0  501    0  0.00000000000E+00  0.00000000000E+00  0.13293628200E+04  0.13293628200E+04  0.50400001928E-02 0.  1.
       -1   -1    0    0    0  501  0.00000000000E+00  0.00000000000E+00 -0.99595157720E+03  0.99595157721E+03  0.50400001928E-02 0. -1.
    10030    2    1    2    0    0  0.00000000000E+00  0.00000000000E+00  0.33341124284E+03  0.23253143972E+04  0.23012874634E+04 0.  0.
        4    1    3    3  502    0 -0.61608641654E+03  0.96826658671E+03  0.25049746735E+03  0.11746715497E+04  0.12699999809E+01 0.  1.
       -4    1    3    3    0  502  0.61608641654E+03 -0.96826658671E+03  0.82913775483E+02  0.11506428476E+04  0.12699999809E+01 0. -1.
</event>
<event>
 5   0  0.1626636E-05  0.2294676E+04  0.7818609E-02  0.8480023E-01
        2   -1    0    0  501    0  0.00000000000E+00  0.00000000000E+00  0.25725574351E+04  0.25725574351E+04  0.25500000920E-02 0. -1.
       -2   -1    0    0    0  501  0.00000000000E+00  0.00000000000E+00 -0.51170259974E+03  0.51170259975E+03  0.25500000920E-02 0.  1.
    10030    2    1    2    0    0  0.00000000000E+00  0.00000000000E+00  0.20608548354E+04  0.30842600349E+04  0.22946758617E+04 0.  0.
        4    1    3    3  502    0  0.11869189793E+03  0.91102756243E+02  0.25593869043E+04  0.25637570902E+04  0.12699999809E+01 0. -1.
       -4    1    3    3    0  502 -0.11869189793E+03 -0.91102756243E+02 -0.49853206888E+03  0.52050294469E+03  0.12699999809E+01 0.  1.
</event>
<event>
 5   0  0.1588969E-05  0.2284408E+04  0.7818609E-02  0.8484094E-01
        2   -1    0    0  501    0  0.00000000000E+00  0.00000000000E+00  0.20508129411E+04  0.20508129411E+04  0.25500000920E-02 0. -1.
       -2   -1    0    0    0  501  0.00000000000E+00  0.00000000000E+00 -0.63615273888E+03  0.63615273889E+03  0.25500000920E-02 0.  1.
    10030    2    1    2    0    0  0.00000000000E+00  0.00000000000E+00  0.14146602023E+04  0.26869656800E+04  0.22844082555E+04 0.  0.
        1    1    3    3  502    0 -0.13276919012E+03  0.69242565748E+03  0.17643250852E+04  0.18999799881E+04  0.50400001928E-02 0. -1.
       -1    1    3    3    0  502  0.13276919012E+03 -0.69242565748E+03 -0.34966488290E+03  0.78698569195E+03  0.50400001928E-02 0.  1.
</event>
<event>
 5   0  0.7202572E-06  0.2295464E+04  0.7818609E-02  0.8479712E-01
        1   -1    0    0  501    0  0.00000000000E+00  0.00000000000E+00  0.12401648666E+04  0.12401648666E+04  0.50400001928E-02 0. -1.
       -1   -1    0    0    0  501  0.00000000000E+00  0.00000000000E+00 -0.10621880993E+04  0.10621880993E+04  0.50400001928E-02 0.  1.
    10030    2    1    2    0    0  0.00000000000E+00  0.00000000000E+00  0.17797676737E+03  0.23023529659E+04  0.22954636678E+04 0.  0.
        2    1    3    3  502    0  0.64483927916E+03  0.50229895719E+03 -0.71913840985E+03  0.10887065679E+04  0.25500000920E-02 0.  1.
       -2    1    3    3    0  502 -0.64483927916E+03 -0.50229895719E+03  0.89711517722E+03  0.12136463981E+04  0.25500000920E-02 0. -1.
</event>
<event>
 5   0  0.1635955E-05  0.2303301E+04  0.7818609E-02  0.8476621E-01
       -2   -1    0    0    0  501  0.00000000000E+00  0.00000000000E+00  0.11723353190E+04  0.11723353190E+04  0.25500000920E-02 0. -1.
        2   -1    0    0  501    0  0.00000000000E+00  0.00000000000E+00 -0.11313305536E+04  0.11313305536E+04  0.25500000920E-02 0.  1.
    10030    2    1    2    0    0  0.00000000000E+00  0.00000000000E+00  0.41004765434E+02  0.23036658726E+04  0.23033009057E+04 0.  0.
        2    1    3    3  502    0  0.21728426010E+03  0.56360834270E+03  0.10011841156E+04  0.11692888638E+04  0.25500000920E-02 0. -1.
       -2    1    3    3    0  502 -0.21728426010E+03 -0.56360834270E+03 -0.96017935019E+03  0.11343770088E+04  0.25500000920E-02 0.  1.
</event>
<event>
 5   0  0.1588969E-05  0.2299940E+04  0.7818609E-02  0.8477945E-01
       -2   -1    0    0    0  501  0.00000000000E+00  0.00000000000E+00  0.10520235779E+04  0.10520235779E+04  0.25500000920E-02 0.  1.
        2   -1    0    0  501    0  0.00000000000E+00  0.00000000000E+00 -0.12570350662E+04  0.12570350662E+04  0.25500000920E-02 0. -1.
    10030    2    1    2    0    0  0.00000000000E+00  0.00000000000E+00 -0.20501148834E+03  0.23090586441E+04  0.22999395886E+04 0.  0.
        1    1    3    3  502    0 -0.10026476601E+04  0.40150112474E+03 -0.49894483570E+03  0.11897274615E+04  0.50400001928E-02 0. -1.
       -1    1    3    3    0  502  0.10026476601E+04 -0.40150112474E+03  0.29393334735E+03  0.11193311826E+04  0.50400001928E-02 0.  1.
</event>
<event>
 5   0  0.1602809E-05  0.2285824E+04  0.7818609E-02  0.8483532E-01
        2   -1    0    0  501    0  0.00000000000E+00  0.00000000000E+00  0.22414324993E+04  0.22414324993E+04  0.25500000920E-02 0. -1.
       -2   -1    0    0    0  501  0.00000000000E+00  0.00000000000E+00 -0.58277356633E+03  0.58277356634E+03  0.25500000920E-02 0.  1.
    10030    2    1    2    0    0  0.00000000000E+00  0.00000000000E+00  0.16586589330E+04  0.28242060656E+04  0.22858238001E+04 0.  0.
        3    1    3    3  502    0  0.46866419349E+03  0.92027152327E+03  0.22442153737E+03  0.10568400255E+04  0.10100000352E+00 0.  1.
       -3    1    3    3    0  502 -0.46866419349E+03 -0.92027152327E+03  0.14342373956E+04  0.17673660402E+04  0.10100000352E+00 0. -1.
</event>
<event>
 5   0  0.1635955E-05  0.2293543E+04  0.7818609E-02  0.8480472E-01
       -2   -1    0    0    0  501  0.00000000000E+00  0.00000000000E+00  0.75232581427E+03  0.75232581428E+03  0.25500000920E-02 0.  1.
        2   -1    0    0  501    0  0.00000000000E+00  0.00000000000E+00 -0.17480250126E+04  0.17480250126E+04  0.25500000920E-02 0. -1.
    10030    2    1    2    0    0  0.00000000000E+00  0.00000000000E+00 -0.99569919833E+03  0.25003508269E+04  0.22935425359E+04 0.  0.
        2    1    3    3  502    0  0.70938208702E+02 -0.35299843403E+03 -0.16848058490E+04  0.17228496373E+04  0.25500000920E-02 0. -1.
       -2    1    3    3    0  502 -0.70938208702E+02  0.35299843403E+03  0.68910665065E+03  0.77750118962E+03  0.25500000920E-02 0.  1.
</event>
<event>
 5   0  0.7278815E-06  0.2291783E+04  0.7818609E-02  0.8481168E-01
       -1   -1    0    0    0  501  0.00000000000E+00  0.00000000000E+00  0.19474007153E+04  0.19474007154E+04  0.50400001928E-02 0. -1.
        1   -1    0    0  501    0  0.00000000000E+00  0.00000000000E+00 -0.67426648816E+03  0.67426648818E+03  0.50400001928E-02 0.  1.
    10030    2    1    2    0    0  0.00000000000E+00  0.00000000000E+00  0.12731342272E+04  0.26216672035E+04  0.22917827483E+04 0.  0.
        5    1    3    3  502    0 -0.23376062855E+03  0.59911645344E+03 -0.44834644791E+03  0.78397779534E+03  0.46999998093E+01 0.  1.
       -5    1    3    3    0  502  0.23376062855E+03 -0.59911645344E+03  0.17214806751E+04  0.18376894082E+04  0.46999998093E+01 0. -1.
</event>
<event>
 5   0  0.1626636E-05  0.2298699E+04  0.7818609E-02  0.8478434E-01
        2   -1    0    0  501    0  0.00000000000E+00  0.00000000000E+00  0.11286100668E+04  0.11286100668E+04  0.25500000920E-02 0. -1.
       -2   -1    0    0    0  501  0.00000000000E+00  0.00000000000E+00 -0.11704697821E+04  0.11704697821E+04  0.25500000920E-02 0.  1.
    10030    2    1    2    0    0  0.00000000000E+00  0.00000000000E+00 -0.41859715348E+02  0.22990798489E+04  0.22986987441E+04 0.  0.
        4    1    3    3  502    0 -0.60201436855E+03  0.68991232923E+03 -0.71574068091E+03  0.11621904565E+04  0.12699999809E+01 0.  1.
       -4    1    3    3    0  502  0.60201436855E+03 -0.68991232923E+03  0.67388096556E+03  0.11368893924E+04  0.12699999809E+01 0. -1.
</event>
<event>
 5   0  0.7183014E-06  0.2294340E+04  0.7818609E-02  0.8480156E-01
       -1   -1    0    0    0  501  0.00000000000E+00  0.00000000000E+00  0.89011468442E+03  0.89011468444E+03  0.50400001928E-02 0. -1.
        1   -1    0    0  501    0  0.00000000000E+00  0.00000000000E+00 -0.14784603964E+04  0.14784603965E+04  0.50400001928E-02 0.  1.
    10030    2    1    2    0    0  0.00000000000E+00  0.00000000000E+00 -0.58834571202E+03  0.23685750809E+04  0.22943402618E+04 0.  0.
        3    1    3    3  502    0  0.11635745497E+03  0.60326148559E+03 -0.12942989448E+04  0.14327153402E+04  0.10100000352E+00 0.  1.
       -3    1    3    3    0  502 -0.11635745497E+03 -0.60326148559E+03  0.70595323273E+03  0.93585974074E+03  0.10100000352E+00 0. -1.
</event>
<event>
 5   0  0.7183014E-06  0.2295528E+04  0.7818609E-02  0.8479687E-01
       -1   -1    0    0    0  501  0.00000000000E+00  0.00000000000E+00  0.15072140958E+04  0.15072140958E+04  0.50400001928E-02 0.  1.
        1   -1    0    0  501    0  0.00000000000E+00  0.00000000000E+00 -0.87403767483E+03  0.87403767484E+03  0.50400001928E-02 0. -1.
    10030    2    1    2    0    0  0.00000000000E+00  0.00000000000E+00  0.63317642092E+03  0.23812517706E+04  0.22955277422E+04 0.  0.
        3    1    3    3  502    0 -0.37832967748E+03 -0.87259525430E+03 -0.34990512027E+03  0.10134048678E+04  0.10100000352E+00 0. -1.
       -3    1    3    3    0  502  0.37832967748E+03  0.87259525430E+03  0.98308154119E+03  0.13678469028E+04  0.10100000352E+00 0.  1.
</event>
<event>
 5   0  0.1602809E-05  0.2299885E+04  0.7818609E-02  0.8477967E-01
        2   -1    0    0  501    0  0.00000000000E+00  0.00000000000E+00  0.44573168181E+03  0.44573168182E+03  0.25500000920E-02 0. -1.
       -2   -1    0    0    0  501  0.00000000000E+00  0.00000000000E+00 -0.29667342830E+04  0.29667342830E+04  0.25500000920E-02 0.  1.
    10030    2    1    2    0    0  0.00000000000E+00  0.00000000000E+00 -0.25210026012E+04  0.34124659648E+04  0.22998847462E+04 0.  0.
        3    1    3    3  502    0 -0.86377807251E+03 -0.74014774738E+03 -0.10102950977E+04  0.15213899701E+04  0.10100000352E+00 0. -1.
       -3    1    3    3    0  502  0.86377807251E+03  0.74014774738E+03 -0.15107075035E+04  0.18910759947E+04  0.10100000352E+00 0.  1.
</event>
<event>
 5   0  0.5704875E-06  0.2341343E+04  0.7818609E-02  0.8461796E-01
       -3   -1    0    0    0  501  0.00000000000E+00  0.00000000000E+00  0.18170112335E+04  0.18170112363E+04  0.10100000352E+00 0.  1.
        3   -1    0    0  501    0  0.00000000000E+00  0.00000000000E+00 -0.75424529395E+03  0.75424530071E+03  0.10100000352E+00 0. -1.
    10030    2    1    2    0    0  0.00000000000E+00  0.00000000000E+00  0.10627659396E+04  0.25712565371E+04  0.23413433616E+04 0.  0.
        3    1    3    3  502    0 -0.76802037555E+03 -0.19060549570E+03  0.14788199861E+04  0.16772281639E+04  0.10100000352E+00 0.  1.
       -3    1    3    3    0  502  0.76802037555E+03  0.19060549570E+03 -0.41605404649E+03  0.89402837318E+03  0.10100000352E+00 0. -1.
</event>
<event>
 5   0  0.7183014E-06  0.2250486E+04  0.7818609E-02  0.8497704E-01
       -1   -1    0    0    0  501  0.00000000000E+00  0.00000000000E+00  0.14836899272E+04  0.14836899272E+04  0.50400001928E-02 0. -1.
        1   -1    0    0  501    0  0.00000000000E+00  0.00000000000E+00 -0.85339348462E+03  0.85339348463E+03  0.50400001928E-02 0.  1.
    10030    2    1    2    0    0  0.00000000000E+00  0.00000000000E+00  0.63029644256E+03  0.23370834118E+04  0.22504855628E+04 0.  0.
        3    1    3    3  502    0 -0.18926668548E+02  0.11138605923E+04  0.47976499417E+03  0.12129377963E+04  0.10100000352E+00 0. -1.
       -3    1    3    3    0  502  0.18926668548E+02 -0.11138605923E+04  0.15053144839E+03  0.11241456155E+04  0.10100000352E+00 0.  1.
</event>
<event>
 5   0  0.7416556E-06  0.2298136E+04  0.7818609E-02  0.8478656E-01
        1   -1    0    0  501    0  0.00000000000E+00  0.00000000000E+00  0.13741401545E+04  0.13741401545E+04  0.50400001928E-02 0. -1.
       -1   -1    0    0    0  501  0.00000000000E+00  0.00000000000E+00 -0.96086074764E+03  0.96086074766E+03  0.50400001928E-02 0.  1.
    10030    2    1    2    0    0  0.00000000000E+00  0.00000000000E+00  0.41327940688E+03  0.23350009022E+04  0.22981360589E+04 0.  0.
        4    1    3    3  502    0 -0.92338100648E+03 -0.41908041755E+03  0.75576728881E+03  0.12646923291E+04  0.12699999809E+01 0. -1.
       -4    1    3    3    0  502  0.92338100648E+03  0.41908041755E+03 -0.34248788193E+03  0.10703085731E+04  0.12699999809E+01 0.  1.
</event>
<event>
 5   0  0.7278815E-06  0.2256838E+04  0.7818609E-02  0.8495136E-01
       -1   -1    0    0    0  501  0.00000000000E+00  0.00000000000E+00  0.77301283814E+03  0.77301283815E+03  0.50400001928E-02 0. -1.
        1   -1    0    0  501    0  0.00000000000E+00  0.00000000000E+00 -0.16472298519E+04  0.16472298520E+04  0.50400001928E-02 0.  1.
    10030    2    1    2    0    0  0.00000000000E+00  0.00000000000E+00 -0.87421701381E+03  0.24202426901E+04  0.22568383398E+04 0.  0.
        5    1    3    3  502    0 -0.71650393310E+03 -0.59860201362E+03 -0.11167161884E+04  0.14556027591E+04  0.46999998093E+01 0. -1.
       -5    1    3    3    0  502  0.71650393310E+03  0.59860201362E+03  0.24249917457E+03  0.96463993102E+03  0.46999998093E+01 0.  1.
</event>
<event>
 5   0  0.7416556E-06  0.2300219E+04  0.7818609E-02  0.8477835E-01
        1   -1    0    0  501    0  0.00000000000E+00  0.00000000000E+00  0.17855402509E+04  0.17855402509E+04  0.50400001928E-02 0.  1.
       -1   -1    0    0    0  501  0.00000000000E+00  0.00000000000E+00 -0.74081349187E+03  0.74081349189E+03  0.50400001928E-02 0. -1.
    10030    2    1    2    0    0  0.00000000000E+00  0.00000000000E+00  0.10447267590E+04  0.25263537428E+04  0.23002193879E+04 0.  0.
        4    1    3    3  502    0 -0.45538401725E+02 -0.10900480853E+04  0.12261460024E+03  0.10978681739E+04  0.12699999809E+01 0. -1.
       -4    1    3    3    0  502  0.45538401725E+02  0.10900480853E+04  0.92211215877E+03  0.14284855689E+04  0.12699999809E+01 0.  1.
</event>
<event>
 5   0  0.1588969E-05  0.2311060E+04  0.7818609E-02  0.8473573E-01
       -2   -1    0    0    0  501  0.00000000000E+00  0.00000000000E+00  0.95489020725E+03  0.95489020725E+03  0.25500000920E-02 0. -1.
        2   -1    0    0  501    0  0.00000000000E+00  0.00000000000E+00 -0.13983273802E+04  0.13983273802E+04  0.25500000920E-02 0.  1.
    10030    2    1    2    0    0  0.00000000000E+00  0.00000000000E+00 -0.44343717294E+03  0.23532175874E+04  0.23110596028E+04 0.  0.
        1    1    3    3  502    0  0.10277541485E+04  0.17919435924E+03  0.28419486394E+03  0.10812751402E+04  0.50400001928E-02 0. -1.
       -1    1    3    3    0  502 -0.10277541485E+04 -0.17919435924E+03 -0.72763203688E+03  0.12719424473E+04  0.50400001928E-02 0.  1.
</event>
<event>
 5   0  0.7391007E-06  0.2307551E+04  0.7818609E-02  0.8474950E-01
        1   -1    0    0  501    0  0.00000000000E+00  0.00000000000E+00  0.21100184770E+04  0.21100184770E+04  0.50400001928E-02 0.  1.
       -1   -1    0    0    0  501  0.00000000000E+00  0.00000000000E+00 -0.63089373140E+03  0.63089373142E+03  0.50400001928E-02 0. -1.
    10030    2    1    2    0    0  0.00000000000E+00  0.00000000000E+00  0.14791247456E+04  0.27409122084E+04  0.23075505891E+04 0.  0.
        1    1    3    3  502    0  0.90239675173E+03 -0.53527672973E+02 -0.11202783497E+03  0.91089809811E+03  0.50400001928E-02 0. -1.
       -1    1    3    3    0  502 -0.90239675173E+03  0.53527672973E+02  0.15911525806E+04  0.18300141103E+04  0.50400001928E-02 0.  1.
</event>
<event>
 5   0  0.1602809E-05  0.2293223E+04  0.7818609E-02  0.8480598E-01
       -2   -1    0    0    0  501  0.00000000000E+00  0.00000000000E+00  0.83510718568E+03  0.83510718569E+03  0.25500000920E-02 0. -1.
        2   -1    0    0  501    0  0.00000000000E+00  0.00000000000E+00 -0.15743101265E+04  0.15743101265E+04  0.25500000920E-02 0.  1.
    10030    2    1    2    0    0  0.00000000000E+00  0.00000000000E+00 -0.73920294081E+03  0.24094173122E+04  0.22932227970E+04 0.  0.
        3    1    3    3  502    0  0.70348795109E+03  0.86252568608E+03 -0.80196448655E+02  0.11159199510E+04  0.10100000352E+00 0.  1.
       -3    1    3    3    0  502 -0.70348795109E+03 -0.86252568608E+03 -0.65900649216E+03  0.12934973612E+04  0.10100000352E+00 0. -1.
</event>
<event>
 5   0  0.1626636E-05  0.2302844E+04  0.7818609E-02  0.8476801E-01
       -2   -1    0    0    0  501  0.00000000000E+00  0.00000000000E+00  0.64278966603E+03  0.64278966604E+03  0.25500000920E-02 0. -1.
        2   -1    0    0  501    0  0.00000000000E+00  0.00000000000E+00 -0.20625295108E+04  0.20625295108E+04  0.25500000920E-02 0.  1.
    10030    2    1    2    0    0  0.00000000000E+00  0.00000000000E+00 -0.14197398448E+04  0.27053191769E+04  0.23028440290E+04 0.  0.
        4    1    3    3  502    0  0.74277034203E+03 -0.42666522347E+03  0.19403383955E+03  0.87829478976E+03  0.12699999809E+01 0. -1.
       -4    1    3    3    0  502 -0.74277034203E+03  0.42666522347E+03 -0.16137736844E+04  0.18270243871E+04  0.12699999809E+01 0.  1.
</event>
<event>
 5   0  0.7416556E-06  0.2301277E+04  0.7818609E-02  0.8477418E-01
       -1   -1    0    0    0  501  0.00000000000E+00  0.00000000000E+00  0.63592098482E+03  0.63592098484E+03  0.50400001928E-02 0. -1.
        1   -1    0    0  501    0  0.00000000000E+00  0.00000000000E+00 -0.20819701822E+04  0.20819701822E+04  0.50400001928E-02 0.  1.
    10030    2    1    2    0    0  0.00000000000E+00  0.00000000000E+00 -0.14460491974E+04  0.27178911670E+04  0.23012766271E+04 0.  0.
        4    1    3    3  502    0  0.10367689049E+04 -0.48156600126E+03 -0.87778695343E+03  0.14412866211E+04  0.12699999809E+01 0.  1.
       -4    1    3    3    0  502 -0.10367689049E+04  0.48156600126E+03 -0.56826224393E+03  0.12766045459E+04  0.12699999809E+01 0. -1.
</event>
<event>
 5   0  0.7391007E-06  0.2306373E+04  0.7818609E-02  0.8475413E-01
       -1   -1    0    0    0  501  0.00000000000E+00  0.00000000000E+00  0.93727682893E+03  0.93727682894E+03  0.50400001928E-02 0.  1.
        1   -1    0    0  501    0  0.00000000000E+00  0.00000000000E+00 -0.14188327924E+04  0.14188327924E+04  0.50400001928E-02 0. -1.
    10030    2    1    2    0    0  0.00000000000E+00  0.00000000000E+00 -0.48155596344E+03  0.23561096213E+04  0.23063729971E+04 0.  0.
        1    1    3    3  502    0  0.93329508931E+03 -0.66856518310E+03 -0.35184220492E+03  0.12007547897E+04  0.50400001928E-02 0.  1.
       -1    1    3    3    0  502 -0.93329508931E+03  0.66856518310E+03 -0.12971375853E+03  0.11553548316E+04  0.50400001928E-02 0. -1.
</event>
<event>
 5   0  0.1635955E-05  0.2303360E+04  0.7818609E-02  0.8476598E-01
       -2   -1    0    0    0  501  0.00000000000E+00  0.00000000000E+00  0.12126254552E+04  0.12126254552E+04  0.25500000920E-02 0.  1.
        2   -1    0    0  501    0  0.00000000000E+00  0.00000000000E+00 -0.10937974719E+04  0.10937974719E+04  0.25500000920E-02 0. -1.
    10030    2    1    2    0    0  0.00000000000E+00  0.00000000000E+00  0.11882798328E+03  0.23064229271E+04  0.23033598566E+04 0.  0.
        2    1    3    3  502    0  0.93612359806E+03  0.64843125773E+03 -0.11279194637E+03  0.11443393334E+04  0.25500000920E-02 0. -1.
       -2    1    3    3    0  502 -0.93612359806E+03 -0.64843125773E+03  0.23161992965E+03  0.11620835937E+04  0.25500000920E-02 0.  1.
</event>
<event>
 5   0  0.1602809E-05  0.2314661E+04  0.7818609E-02  0.8472163E-01
        2   -1    0    0  501    0  0.00000000000E+00  0.00000000000E+00  0.17235472199E+04  0.17235472199E+04  0.25500000920E-02 0.  1.
       -2   -1    0    0    0  501  0.00000000000E+00  0.00000000000E+00 -0.77712650437E+03  0.77712650437E+03  0.25500000920E-02 0. -1.
    10030    2    1    2    0    0  0.00000000000E+00  0.00000000000E+00  0.94642071550E+03  0.25006737242E+04  0.23146612937E+04 0.  0.
        3    1    3    3  502    0  0.30259200141E+03  0.11018985345E+04  0.27496478492E+03  0.11753075950E+04  0.10100000352E+00 0. -1.
       -3    1    3    3    0  502 -0.30259200141E+03 -0.11018985345E+04  0.67145593059E+03  0.13253661293E+04  0.10100000352E+00 0.  1.
</event>
<event>
 5   0  0.7416556E-06  0.2308957E+04  0.7818609E-02  0.8474398E-01
        1   -1    0    0  501    0  0.00000000000E+00  0.00000000000E+00  0.15427039989E+04  0.15427039990E+04  0.50400001928E-02 0. -1.
       -1   -1    0    0    0  501  0.00000000000E+00  0.00000000000E+00 -0.86395103589E+03  0.86395103591E+03  0.50400001928E-02 0.  1.
    10030    2    1    2    0    0  0.00000000000E+00  0.00000000000E+00  0.67875296305E+03  0.24066550349E+04  0.23089570962E+04 0.  0.
        4    1    3    3  502    0  0.90785945822E+03 -0.70656695235E+03  0.23846333715E+03  0.11748668138E+04  0.12699999809E+01 0. -1.
       -4    1    3    3    0  502 -0.90785945822E+03  0.70656695235E+03  0.44028962591E+03  0.12317882211E+04  0.12699999809E+01 0.  1.
</event>
<event>
 5   0  0.7202572E-06  0.2295672E+04  0.7818609E-02  0.8479630E-01
       -1   -1    0    0    0  501  0.00000000000E+00  0.00000000000E+00  0.10177743870E+04  0.10177743870E+04  0.50400001928E-02 0. -1.
        1   -1    0    0  501    0  0.00000000000E+00  0.00000000000E+00 -0.12945180064E+04  0.12945180064E+04  0.50400001928E-02 0.  1.
    10030    2    1    2    0    0  0.00000000000E+00  0.00000000000E+00 -0.27674361937E+03  0.23122923934E+04  0.22956718149E+04 0.  0.
        2    1    3    3  502    0 -0.45539924271E+02 -0.55939849654E+03 -0.11468834702E+04  0.12768485646E+04  0.25500000920E-02 0.  1.
       -2    1    3    3    0  502  0.45539924271E+02  0.55939849654E+03  0.87013985086E+03  0.10354438288E+04  0.25500000920E-02 0. -1.
</event>
<event>
 5   0  0.7391007E-06  0.2299007E+04  0.7818609E-02  0.8478313E-01
        1   -1    0    0  501    0  0.00000000000E+00  0.00000000000E+00  0.14372247569E+04  0.14372247569E+04  0.50400001928E-02 0. -1.
       -1   -1    0    0    0  501  0.00000000000E+00  0.00000000000E+00 -0.91938185402E+03  0.91938185404E+03  0.50400001928E-02 0.  1.
    10030    2    1    2    0    0  0.00000000000E+00  0.00000000000E+00  0.51784290288E+03  0.23566066110E+04  0.22990070567E+04 0.  0.
        1    1    3    3  502    0 -0.23681573762E+03 -0.30900433757E+03 -0.84974599120E+03  0.93468370255E+03  0.50400001928E-02 0.  1.
       -1    1    3    3    0  502  0.23681573762E+03  0.30900433757E+03  0.13675888941E+04  0.14219229084E+04  0.50400001928E-02 0. -1.
</event>
<event>
 5   0  0.1635955E-05  0.2307395E+04  0.7818609E-02  0.8475011E-01
       -2   -1    0    0    0  501  0.00000000000E+00  0.00000000000E+00  0.12650721932E+04  0.12650721932E+04  0.25500000920E-02 0. -1.
        2   -1    0    0  501    0  0.00000000000E+00  0.00000000000E+00 -0.10521278752E+04  0.10521278752E+04  0.25500000920E-02 0.  1.
    10030    2    1    2    0    0  0.00000000000E+00  0.00000000000E+00  0.21294431803E+03  0.23172000684E+04  0.23073948241E+04 0.  0.
        2    1    3    3  502    0 -0.75502537261E+03  0.83564019629E+03  0.35785541976E+03  0.11817014650E+04  0.25500000920E-02 0. -1.
       -2    1    3    3    0  502  0.75502537261E+03 -0.83564019629E+03 -0.14491110172E+03  0.11354986034E+04  0.25500000920E-02 0.  1.
</event>
<event>
 5   0  0.7278815E-06  0.2293804E+04  0.7818609E-02  0.8480368E-01
       -1   -1    0    0    0  501  0.00000000000E+00  0.00000000000E+00  0.84194124313E+03  0.84194124314E+03  0.50400001928E-02 0.  1.
        1   -1    0    0  501    0  0.00000000000E+00  0.00000000000E+00 -0.15623235189E+04  0.15623235190E+04  0.50400001928E-02 0. -1.
    10030    2    1    2    0    0  0.00000000000E+00  0.00000000000E+00 -0.72038227582E+03  0.24042647621E+04  0.22938043559E+04 0.  0.
        5    1    3    3  502    0  0.59633992893E+02 -0.11396346111E+04 -0.24050266601E+03  0.11662705013E+04  0.46999998093E+01 0.  1.
       -5    1    3    3    0  502 -0.59633992893E+02  0.11396346111E+04 -0.47987960981E+03  0.12379942608E+04  0.46999998093E+01 0. -1.
</event>
<event>
 5   0  0.7183014E-06  0.2290249E+04  0.7818609E-02  0.8481776E-01
        1   -1    0    0  501    0  0.00000000000E+00  0.00000000000E+00  0.11880301836E+04  0.11880301837E+04  0.50400001928E-02 0. -1.
       -1   -1    0    0    0  501  0.00000000000E+00  0.00000000000E+00 -0.11037682854E+04  0.11037682854E+04  0.50400001928E-02 0.  1.
    10030    2    1    2    0    0  0.00000000000E+00  0.00000000000E+00  0.84261898253E+02  0.22917984691E+04  0.22902489287E+04 0.  0.
        3    1    3    3  502    0 -0.56615989568E+03  0.30825842734E+03  0.98921185846E+03  0.11807202872E+04  0.10100000352E+00 0. -1.
       -3    1    3    3    0  502  0.56615989568E+03 -0.30825842734E+03 -0.90494996021E+03  0.11110781819E+04  0.10100000352E+00 0.  1.
</event>
<event>
 5   0  0.1602809E-05  0.2302523E+04  0.7818609E-02  0.8476927E-01
        2   -1    0    0  501    0  0.00000000000E+00  0.00000000000E+00  0.20376464412E+04  0.20376464412E+04  0.25500000920E-02 0. -1.
       -2   -1    0    0    0  501  0.00000000000E+00  0.00000000000E+00 -0.65045775025E+03  0.65045775026E+03  0.25500000920E-02 0.  1.
    10030    2    1    2    0    0  0.00000000000E+00  0.00000000000E+00  0.13871886909E+04  0.26881041915E+04  0.23025228945E+04 0.  0.
        3    1    3    3  502    0  0.10388837388E+03  0.10562069121E+04  0.17274858853E+03  0.10752710916E+04  0.10100000352E+00 0.  1.
       -3    1    3    3    0  502 -0.10388837388E+03 -0.10562069121E+04  0.12144401024E+04  0.16128330999E+04  0.10100000352E+00 0. -1.
</event>
<event>
 5   0  0.1602809E-05  0.2311491E+04  0.7818609E-02  0.8473404E-01
        2   -1    0    0  501    0  0.00000000000E+00  0.00000000000E+00  0.10711677655E+04  0.10711677655E+04  0.25500000920E-02 0.  1.
       -2   -1    0    0    0  501  0.00000000000E+00  0.00000000000E+00 -0.12470008298E+04  0.12470008298E+04  0.25500000920E-02 0. -1.
    10030    2    1    2    0    0  0.00000000000E+00  0.00000000000E+00 -0.17583306436E+03  0.23181685953E+04  0.23114905082E+04 0.  0.
        3    1    3    3  502    0 -0.27882110447E+03  0.21278072493E+03  0.10165053596E+04  0.10753139084E+04  0.10100000352E+00 0.  1.
       -3    1    3    3    0  502  0.27882110447E+03 -0.21278072493E+03 -0.11923384240E+04  0.12428546869E+04  0.10100000352E+00 0. -1.
</event>
<event>
 5   0  0.7391007E-06  0.2300024E+04  0.7818609E-02  0.8477912E-01
        1   -1    0    0  501    0  0.00000000000E+00  0.00000000000E+00  0.96749876285E+03  0.96749876286E+03  0.50400001928E-02 0.  1.
       -1   -1    0    0    0  501  0.00000000000E+00  0.00000000000E+00 -0.13669550737E+04  0.13669550737E+04  0.50400001928E-02 0. -1.
    10030    2    1    2    0    0  0.00000000000E+00  0.00000000000E+00 -0.39945631087E+03  0.23344538366E+04  0.23000237762E+04 0.  0.
        1    1    3    3  502    0 -0.22000775173E+03  0.67257221648E+03  0.72035747947E+03  0.10097879458E+04  0.50400001928E-02 0.  1.
       -1    1    3    3    0  502  0.22000775173E+03 -0.67257221648E+03 -0.11198137903E+04  0.13246658908E+04  0.50400001928E-02 0. -1.
</event>
<event>
 5   0  0.1588969E-05  0.2324930E+04  0.7818609E-02  0.8468156E-01
       -2   -1    0    0    0  501  0.00000000000E+00  0.00000000000E+00  0.10849345868E+04  0.10849345868E+04  0.25500000920E-02 0. -1.
        2   -1    0    0  501    0  0.00000000000E+00  0.00000000000E+00 -0.12455362186E+04  0.12455362186E+04  0.25500000920E-02 0.  1.
    10030    2    1    2    0    0  0.00000000000E+00  0.00000000000E+00 -0.16060163180E+03  0.23304708054E+04  0.23249303841E+04 0.  0.
        1    1    3    3  502    0  0.67201275183E+03  0.38165588634E+03 -0.95073817014E+03  0.12252205607E+04  0.50400001928E-02 0.  1.
       -1    1    3    3    0  502 -0.67201275183E+03 -0.38165588634E+03  0.79013653834E+03  0.11052502447E+04  0.50400001928E-02 0. -1.
</event>
<event>
 5   0  0.7202572E-06  0.2317448E+04  0.7818609E-02  0.8471073E-01
        1   -1    0    0  501    0  0.00000000000E+00  0.00000000000E+00  0.12850745594E+04  0.12850745594E+04  0.50400001928E-02 0. -1.
       -1   -1    0    0    0  501  0.00000000000E+00  0.00000000000E+00 -0.10447965306E+04  0.10447965306E+04  0.50400001928E-02 0.  1.
    10030    2    1    2    0    0  0.00000000000E+00  0.00000000000E+00  0.24027802877E+03  0.23298710900E+04  0.23174481148E+04 0.  0.
        2    1    3    3  502    0  0.52988210258E+02  0.33405425309E+03 -0.99406250720E+03  0.10500286961E+04  0.25500000920E-02 0.  1.
       -2    1    3    3    0  502 -0.52988210258E+02 -0.33405425309E+03  0.12343405360E+04  0.12798423939E+04  0.25500000920E-02 0. -1.
</event>
<event>
 5   0  0.7391007E-06  0.2326132E+04  0.7818609E-02  0.8467688E-01
       -1   -1    0    0    0  501  0.00000000000E+00  0.00000000000E+00  0.17288836065E+04  0.17288836065E+04  0.50400001928E-02 0.  1.
        1   -1    0    0  501    0  0.00000000000E+00  0.00000000000E+00 -0.78242541992E+03  0.78242541993E+03  0.50400001928E-02 0. -1.
    10030    2    1    2    0    0  0.00000000000E+00  0.00000000000E+00  0.94645818656E+03  0.25113090264E+04  0.23261319669E+04 0.  0.
        1    1    3    3  502    0  0.69029516485E+03  0.76334784110E+03  0.10581283405E+04  0.14760904193E+04  0.50400001928E-02 0.  1.
       -1    1    3    3    0  502 -0.69029516485E+03 -0.76334784110E+03 -0.11167015391E+03  0.10352186071E+04  0.50400001928E-02 0. -1.
</event>
<event>
 5   0  0.5704875E-06  0.2296371E+04  0.7818609E-02  0.8479354E-01
       -4   -1    0    0    0  501  0.00000000000E+00  0.00000000000E+00  0.10050915981E+04  0.10050924005E+04  0.12699999809E+01 0.  1.
        4   -1    0    0  501    0  0.00000000000E+00  0.00000000000E+00 -0.13116493859E+04  0.13116500007E+04  0.12699999809E+01 0. -1.
    10030    2    1    2    0    0  0.00000000000E+00  0.00000000000E+00 -0.30655778774E+03  0.23167424012E+04  0.22963705442E+04 0.  0.
        4    1    3    3  502    0  0.52839238866E+03 -0.14979894271E+03 -0.11705341983E+04  0.12929772472E+04  0.12699999809E+01 0. -1.
       -4    1    3    3    0  502 -0.52839238866E+03  0.14979894271E+03  0.86397641054E+03  0.10237651540E+04  0.12699999809E+01 0.  1.
</event>
<event>
 5   0  0.1588969E-05  0.2299760E+04  0.7818609E-02  0.8478016E-01
        2   -1    0    0  501    0  0.00000000000E+00  0.00000000000E+00  0.15396649423E+04  0.15396649423E+04  0.25500000920E-02 0. -1.
       -2   -1    0    0    0  501  0.00000000000E+00  0.00000000000E+00 -0.85877412027E+03  0.85877412028E+03  0.25500000920E-02 0.  1.
    10030    2    1    2    0    0  0.00000000000E+00  0.00000000000E+00  0.68089082203E+03  0.23984390626E+04  0.22997603409E+04 0.  0.
        1    1    3    3  502    0 -0.11339847124E+04  0.17327398313E+03  0.25780386255E+03  0.11757584925E+04  0.50400001928E-02 0. -1.
       -1    1    3    3    0  502  0.11339847124E+04 -0.17327398313E+03  0.42308695948E+03  0.12226805701E+04  0.50400001928E-02 0.  1.
</event>
<event>
 5   0  0.7202572E-06  0.2275498E+04  0.7818609E-02  0.8487645E-01
        1   -1    0    0  501    0  0.00000000000E+00  0.00000000000E+00  0.12405349517E+04  0.12405349518E+04  0.50400001928E-02 0. -1.
       -1   -1    0    0    0  501  0.00000000000E+00  0.00000000000E+00 -0.10434796080E+04  0.10434796080E+04  0.50400001928E-02 0.  1.
    10030    2    1    2    0    0  0.00000000000E+00  0.00000000000E+00  0.19705534377E+03  0.22840145598E+04  0.22754981214E+04 0.  0.
        2    1    3    3  502    0  0.11362997036E+04 -0.53977302061E+02  0.11815487249E+03  0.11437006337E+04  0.25500000920E-02 0.  1.
       -2    1    3    3    0  502 -0.11362997036E+04  0.53977302061E+02  0.78900471274E+02  0.11403139261E+04  0.25500000920E-02 0. -1.
</event>
<event>
 5   0  0.7202572E-06  0.2290416E+04  0.7818609E-02  0.8481709E-01
       -1   -1    0    0    0  501  0.00000000000E+00  0.00000000000E+00  0.12199376064E+04  0.12199376064E+04  0.50400001928E-02 0.  1.
        1   -1    0    0  501    0  0.00000000000E+00  0.00000000000E+00 -0.10750563220E+04  0.10750563221E+04  0.50400001928E-02 0. -1.
    10030    2    1    2    0    0  0.00000000000E+00  0.00000000000E+00  0.14488128433E+03  0.22949939284E+04  0.22904162384E+04 0.  0.
        2    1    3    3  502    0 -0.56937112510E+03 -0.78980914480E+03 -0.53169030906E+03  0.11093586201E+04  0.25500000920E-02 0. -1.
       -2    1    3    3    0  502  0.56937112510E+03  0.78980914480E+03  0.67657159339E+03  0.11856353083E+04  0.25500000920E-02 0.  1.
</event>
<event>
 5   0  0.1635955E-05  0.2304950E+04  0.7818609E-02  0.8475972E-01
       -2   -1    0    0    0  501  0.00000000000E+00  0.00000000000E+00  0.53181689373E+03  0.53181689374E+03  0.25500000920E-02 0.  1.
        2   -1    0    0  501    0  0.00000000000E+00  0.00000000000E+00 -0.24974734681E+04  0.24974734681E+04  0.25500000920E-02 0. -1.
    10030    2    1    2    0    0  0.00000000000E+00  0.00000000000E+00 -0.19656565744E+04  0.30292903619E+04  0.23049499622E+04 0.  0.
        2    1    3    3  502    0  0.10171721915E+04  0.49872907089E+03 -0.70456422050E+03  0.13340842156E+04  0.25500000920E-02 0. -1.
       -2    1    3    3    0  502 -0.10171721915E+04 -0.49872907089E+03 -0.12610923539E+04  0.16952061463E+04  0.25500000920E-02 0.  1.
</event>
<event>
 5   0  0.7183014E-06  0.2306508E+04  0.7818609E-02  0.8475359E-01
       -1   -1    0    0    0  501  0.00000000000E+00  0.00000000000E+00  0.12028517369E+04  0.12028517370E+04  0.50400001928E-02 0. -1.
        1   -1    0    0  501    0  0.00000000000E+00  0.00000000000E+00 -0.11057017766E+04  0.11057017766E+04  0.50400001928E-02 0.  1.
    10030    2    1    2    0    0  0.00000000000E+00  0.00000000000E+00  0.97149960317E+02  0.23085535136E+04  0.23065084458E+04 0.  0.
        3    1    3    3  502    0 -0.97971586145E+02 -0.11442629358E+04 -0.56680966959E+02  0.11498473117E+04  0.10100000352E+00 0.  1.
       -3    1    3    3    0  502  0.97971586145E+02  0.11442629358E+04  0.15383092728E+03  0.11587062019E+04  0.10100000352E+00 0. -1.
</event>
<event>
 5   0  0.1697855E-05  0.2308362E+04  0.7818609E-02  0.8474632E-01
       -2   -1    0    0    0  501  0.00000000000E+00  0.00000000000E+00  0.90964890217E+03  0.90964890217E+03  0.25500000920E-02 0. -1.
        2   -1    0    0  501    0  0.00000000000E+00  0.00000000000E+00 -0.14644478864E+04  0.14644478864E+04  0.25500000920E-02 0.  1.
    10030    2    1    2    0    0  0.00000000000E+00  0.00000000000E+00 -0.55479898424E+03  0.23740967886E+04  0.23083616806E+04 0.  0.
        5    1    3    3  502    0  0.89619181049E+03  0.52204672902E+03  0.24339870684E+03  0.10653438736E+04  0.46999998093E+01 0. -1.
       -5    1    3    3    0  502 -0.89619181049E+03 -0.52204672902E+03 -0.79819769108E+03  0.13087529150E+04  0.46999998093E+01 0.  1.
</event>
<event>
 5   0  0.7183014E-06  0.2296959E+04  0.7818609E-02  0.8479121E-01
        1   -1    0    0  501    0  0.00000000000E+00  0.00000000000E+00  0.80303274647E+03  0.80303274648E+03  0.50400001928E-02 0. -1.
       -1   -1    0    0    0  501  0.00000000000E+00  0.00000000000E+00 -0.16425296724E+04  0.16425296724E+04  0.50400001928E-02 0.  1.
    10030    2    1    2    0    0  0.00000000000E+00  0.00000000000E+00 -0.83949692595E+03  0.24455624189E+04  0.22969589583E+04 0.  0.
        3    1    3    3  502    0  0.82984934799E+03 -0.63900494712E+03 -0.92143128941E+03  0.13949956610E+04  0.10100000352E+00 0. -1.
       -3    1    3    3    0  502 -0.82984934799E+03  0.63900494712E+03  0.81934363458E+02  0.10505667580E+04  0.10100000352E+00 0.  1.
</event>
<event>
 5   0  0.1635955E-05  0.2256549E+04  0.7818609E-02  0.8495253E-01
        2   -1    0    0  501    0  0.00000000000E+00  0.00000000000E+00  0.12969550019E+04  0.12969550019E+04  0.25500000920E-02 0. -1.
       -2   -1    0    0    0  501  0.00000000000E+00  0.00000000000E+00 -0.98153280855E+03  0.98153280855E+03  0.25500000920E-02 0.  1.
    10030    2    1    2    0    0  0.00000000000E+00  0.00000000000E+00  0.31542219338E+03  0.22784878105E+04  0.22565494771E+04 0.  0.
        2    1    3    3  502    0  0.22594612922E+03  0.14460264549E+03  0.12642864734E+04  0.12924325380E+04  0.25500000920E-02 0. -1.
       -2    1    3    3    0  502 -0.22594612922E+03 -0.14460264549E+03 -0.94886428005E+03  0.98605527247E+03  0.25500000920E-02 0.  1.
</event>
<event>
 5   0  0.1635955E-05  0.2307192E+04  0.7818609E-02  0.8475091E-01
       -2   -1    0    0    0  501  0.00000000000E+00  0.00000000000E+00  0.77933432099E+03  0.77933432100E+03  0.25500000920E-02 0. -1.
        2   -1    0    0  501    0  0.00000000000E+00  0.00000000000E+00 -0.17075907530E+04  0.17075907530E+04  0.25500000920E-02 0.  1.
    10030    2    1    2    0    0  0.00000000000E+00  0.00000000000E+00 -0.92825643199E+03  0.24869250740E+04  0.23071923024E+04 0.  0.
        2    1    3    3  502    0  0.25654247731E+03  0.52810438595E+03 -0.15344985310E+04  0.16429832704E+04  0.25500000920E-02 0.  1.
       -2    1    3    3    0  502 -0.25654247731E+03 -0.52810438595E+03  0.60624209906E+03  0.84394180356E+03  0.25500000920E-02 0. -1.
</event>
<event>
 5   0  0.7391007E-06  0.2301199E+04  0.7818609E-02  0.8477448E-01
       -1   -1    0    0    0  501  0.00000000000E+00  0.00000000000E+00  0.76992928623E+03  0.76992928624E+03  0.50400001928E-02 0. -1.
        1   -1    0    0  501    0  0.00000000000E+00  0.00000000000E+00 -0.17194819570E+04  0.17194819570E+04  0.50400001928E-02 0.  1.
    10030    2    1    2    0    0  0.00000000000E+00  0.00000000000E+00 -0.94955267073E+03  0.24894112432E+04  0.23011992663E+04 0.  0.
        1    1    3    3  502    0  0.93452028161E+03 -0.41389672611E+03  0.96875895384E+02  0.10266565130E+04  0.50400001928E-02 0. -1.
       -1    1    3    3    0  502 -0.93452028161E+03  0.41389672611E+03 -0.10464285661E+04  0.14627547302E+04  0.50400001928E-02 0.  1.
</event>
<event>
 5   0  0.1602809E-05  0.2307486E+04  0.7818609E-02  0.8474975E-01
        2   -1    0    0  501    0  0.00000000000E+00  0.00000000000E+00  0.12397347589E+04  0.12397347589E+04  0.25500000920E-02 0. -1.
       -2   -1    0    0    0  501  0.00000000000E+00  0.00000000000E+00 -0.10737158224E+04  0.10737158224E+04  0.25500000920E-02 0.  1.
    10030    2    1    2    0    0  0.00000000000E+00  0.00000000000E+00  0.16601893647E+03  0.23134505813E+04  0.23074859274E+04 0.  0.
        3    1    3    3  502    0 -0.54353919378E+03  0.55610857510E+03 -0.77150302008E+03  0.10954033607E+04  0.10100000352E+00 0.  1.
       -3    1    3    3    0  502  0.54353919378E+03 -0.55610857510E+03  0.93752195655E+03  0.12180472206E+04  0.10100000352E+00 0. -1.
</event>
<event>
 5   0  0.1635955E-05  0.2298831E+04  0.7818609E-02  0.8478382E-01
       -2   -1    0    0    0  501  0.00000000000E+00  0.00000000000E+00  0.54630001778E+03  0.54630001778E+03  0.25500000920E-02 0. -1.
        2   -1    0    0  501    0  0.00000000000E+00  0.00000000000E+00 -0.24183698437E+04  0.24183698437E+04  0.25500000920E-02 0.  1.
    10030    2    1    2    0    0  0.00000000000E+00  0.00000000000E+00 -0.18720698259E+04  0.29646698615E+04  0.22988305624E+04 0.  0.
        2    1    3    3  502    0 -0.82979679274E+03 -0.16669788257E+03 -0.19389794435E+04  0.21156540794E+04  0.25500000920E-02 0.  1.
       -2    1    3    3    0  502  0.82979679274E+03  0.16669788257E+03  0.66909617592E+02  0.84901578209E+03  0.25500000920E-02 0. -1.
</event>
<event>
 5   0  0.7183014E-06  0.2298622E+04  0.7818609E-02  0.8478465E-01
        1   -1    0    0  501    0  0.00000000000E+00  0.00000000000E+00  0.13804839090E+04  0.13804839091E+04  0.50400001928E-02 0.  1.
       -1   -1    0    0    0  501  0.00000000000E+00  0.00000000000E+00 -0.95684943533E+03  0.95684943535E+03  0.50400001928E-02 0. -1.
    10030    2    1    2    0    0  0.00000000000E+00  0.00000000000E+00  0.42363447372E+03  0.23373333444E+04  0.22986215425E+04 0.  0.
        3    1    3    3  502    0 -0.40779723273E+03  0.33903776935E+03 -0.82499699081E+03  0.98074728504E+03  0.10100000352E+00 0. -1.
       -3    1    3    3    0  502  0.40779723273E+03 -0.33903776935E+03  0.12486314645E+04  0.13565860594E+04  0.10100000352E+00 0.  1.
</event>
<event>
 5   0  0.7183014E-06  0.2308200E+04  0.7818609E-02  0.8474695E-01
       -1   -1    0    0    0  501  0.00000000000E+00  0.00000000000E+00  0.92352125246E+03  0.92352125248E+03  0.50400001928E-02 0. -1.
        1   -1    0    0  501    0  0.00000000000E+00  0.00000000000E+00 -0.14422485546E+04  0.14422485546E+04  0.50400001928E-02 0.  1.
    10030    2    1    2    0    0  0.00000000000E+00  0.00000000000E+00 -0.51872730218E+03  0.23657698071E+04  0.23082003306E+04 0.  0.
        3    1    3    3  502    0  0.61258191063E+03 -0.51375887235E+03 -0.11124340502E+04  0.13699322255E+04  0.10100000352E+00 0.  1.
       -3    1    3    3    0  502 -0.61258191063E+03  0.51375887235E+03  0.59370674804E+03  0.99583758164E+03  0.10100000352E+00 0. -1.
</event>
<event>
 5   0  0.7416556E-06  0.2296253E+04  0.7818609E-02  0.8479400E-01
        1   -1    0    0  501    0  0.00000000000E+00  0.00000000000E+00  0.11704143968E+04  0.11704143968E+04  0.50400001928E-02 0. -1.
       -1   -1    0    0    0  501  0.00000000000E+00  0.00000000000E+00 -0.11262628947E+04  0.11262628947E+04  0.50400001928E-02 0.  1.
    10030    2    1    2    0    0  0.00000000000E+00  0.00000000000E+00  0.44151502069E+02  0.22966772916E+04  0.22962528664E+04 0.  0.
        4    1    3    3  502    0  0.66599258172E+03  0.39169293060E+03 -0.82732984138E+03  0.11320096069E+04  0.12699999809E+01 0.  1.
       -4    1    3    3    0  502 -0.66599258172E+03 -0.39169293060E+03  0.87148134345E+03  0.11646676846E+04  0.12699999809E+01 0. -1.
</event>
<event>
 5   0  0.1602809E-05  0.2310064E+04  0.7818609E-02  0.8473964E-01
        2   -1    0    0  501    0  0.00000000000E+00  0.00000000000E+00  0.19861899442E+04  0.19861899442E+04  0.25500000920E-02 0.  1.
       -2   -1    0    0    0  501  0.00000000000E+00  0.00000000000E+00 -0.67168758775E+03  0.67168758775E+03  0.25500000920E-02 0. -1.
    10030    2    1    2    0    0  0.00000000000E+00  0.00000000000E+00  0.13145023564E+04  0.26578775319E+04  0.23100641830E+04 0.  0.
        3    1    3    3  502    0 -0.27943470129E+03 -0.30692281877E+03  0.18974153372E+04  0.19422848249E+04  0.10100000352E+00 0.  1.
       -3    1    3    3    0  502  0.27943470129E+03  0.30692281877E+03 -0.58291298079E+03  0.71559270702E+03  0.10100000352E+00 0. -1.
</event>
<event>
 5   0  0.1635955E-05  0.2296740E+04  0.7818609E-02  0.8479208E-01
        2   -1    0    0  501    0  0.00000000000E+00  0.00000000000E+00  0.13723402312E+04  0.13723402312E+04  0.25500000920E-02 0.  1.
       -2   -1    0    0    0  501  0.00000000000E+00  0.00000000000E+00 -0.96095247222E+03  0.96095247222E+03  0.25500000920E-02 0. -1.
    10030    2    1    2    0    0  0.00000000000E+00  0.00000000000E+00  0.41138775894E+03  0.23332927034E+04  0.22967400705E+04 0.  0.
        2    1    3    3  502    0  0.39687537299E+03 -0.53514548408E+03  0.11559209465E+04  0.13341828905E+04  0.25500000920E-02 0.  1.
       -2    1    3    3    0  502 -0.39687537299E+03  0.53514548408E+03 -0.74453318754E+03  0.99910981287E+03  0.25500000920E-02 0. -1.
</event>
<event>
 5   0  0.1626636E-05  0.2294195E+04  0.7818609E-02  0.8480213E-01
        2   -1    0    0  501    0  0.00000000000E+00  0.00000000000E+00  0.28955884401E+04  0.28955884401E+04  0.25500000920E-02 0.  1.
       -2   -1    0    0    0  501  0.00000000000E+00  0.00000000000E+00 -0.45442675670E+03  0.45442675671E+03  0.25500000920E-02 0. -1.
    10030    2    1    2    0    0  0.00000000000E+00  0.00000000000E+00  0.24411616834E+04  0.33500151968E+04  0.22941951648E+04 0.  0.
        4    1    3    3  502    0  0.64849535342E+03 -0.56310346143E+02 -0.15861721436E+03  0.66998366554E+03  0.12699999809E+01 0. -1.
       -4    1    3    3    0  502 -0.64849535342E+03  0.56310346143E+02  0.25997788978E+04  0.26800315313E+04  0.12699999809E+01 0.  1.
</event>
<event>
 5   0  0.7202572E-06  0.2295261E+04  0.7818609E-02  0.8479792E-01
       -1   -1    0    0    0  501  0.00000000000E+00  0.00000000000E+00  0.72916863238E+03  0.72916863240E+03  0.50400001928E-02 0. -1.
        1   -1    0    0  501    0  0.00000000000E+00  0.00000000000E+00 -0.18062433159E+04  0.18062433159E+04  0.50400001928E-02 0.  1.
    10030    2    1    2    0    0  0.00000000000E+00  0.00000000000E+00 -0.10770746835E+04  0.25354119483E+04  0.22952611777E+04 0.  0.
        2    1    3    3  502    0  0.84633786788E+03 -0.39624298987E+03  0.19731442831E+03  0.95510694546E+03  0.25500000920E-02 0. -1.
       -2    1    3    3    0  502 -0.84633786788E+03  0.39624298987E+03 -0.12743891118E+04  0.15803050028E+04  0.25500000920E-02 0.  1.
</event>
<event>
 5   0  0.5704875E-06  0.2312903E+04  0.7818609E-02  0.8472851E-01
        3   -1    0    0  501    0  0.00000000000E+00  0.00000000000E+00  0.10716988770E+04  0.10716988818E+04  0.10100000352E+00 0. -1.
       -3   -1    0    0    0  501  0.00000000000E+00  0.00000000000E+00 -0.12479067562E+04  0.12479067603E+04  0.10100000352E+00 0.  1.
    10030    2    1    2    0    0  0.00000000000E+00  0.00000000000E+00 -0.17620787917E+03  0.23196056421E+04  0.23129031796E+04 0.  0.
        5    1    3    3  502    0  0.42512933709E+03 -0.89000602126E+03 -0.69360223824E+03  0.12057992478E+04  0.46999998093E+01 0.  1.
       -5    1    3    3    0  502 -0.42512933709E+03  0.89000602126E+03  0.51739435907E+03  0.11138063943E+04  0.46999998093E+01 0. -1.
</event>
<event>
 5   0  0.1588969E-05  0.2292625E+04  0.7818609E-02  0.8480835E-01
       -2   -1    0    0    0  501  0.00000000000E+00  0.00000000000E+00  0.15737189057E+04  0.15737189057E+04  0.25500000920E-02 0. -1.
        2   -1    0    0  501    0  0.00000000000E+00  0.00000000000E+00 -0.83498549555E+03  0.83498549556E+03  0.25500000920E-02 0.  1.
    10030    2    1    2    0    0  0.00000000000E+00  0.00000000000E+00  0.73873341015E+03  0.24087044013E+04  0.22926250983E+04 0.  0.
        1    1    3    3  502    0  0.16573757423E+03  0.10516530167E+04  0.81584119564E+03  0.13412829186E+04  0.50400001928E-02 0. -1.
       -1    1    3    3    0  502 -0.16573757423E+03 -0.10516530167E+04 -0.77107785492E+02  0.10674214827E+04  0.50400001928E-02 0.  1.
</event>
<event>
 5   0  0.1635955E-05  0.2291488E+04  0.7818609E-02  0.8481285E-01
        2   -1    0    0  501    0  0.00000000000E+00  0.00000000000E+00  0.14407194896E+04  0.14407194896E+04  0.25500000920E-02 0. -1.
       -2   -1    0    0    0  501  0.00000000000E+00  0.00000000000E+00 -0.91116266102E+03  0.91116266102E+03  0.25500000920E-02 0.  1.
    10030    2    1    2    0    0  0.00000000000E+00  0.00000000000E+00  0.52955682854E+03  0.23518821506E+04  0.22914884280E+04 0.  0.
        2    1    3    3  502    0  0.11316141661E+03 -0.10525018919E+03  0.14299731634E+04  0.14382998146E+04  0.25500000920E-02 0. -1.
       -2    1    3    3    0  502 -0.11316141661E+03  0.10525018919E+03 -0.90041633488E+03  0.91358233600E+03  0.25500000920E-02 0.  1.
</event>
<event>
 5   0  0.7391007E-06  0.2298473E+04  0.7818609E-02  0.8478523E-01
       -1   -1    0    0    0  501  0.00000000000E+00  0.00000000000E+00  0.12311134368E+04  0.12311134368E+04  0.50400001928E-02 0.  1.
        1   -1    0    0  501    0  0.00000000000E+00  0.00000000000E+00 -0.10728050387E+04  0.10728050387E+04  0.50400001928E-02 0. -1.
    10030    2    1    2    0    0  0.00000000000E+00  0.00000000000E+00  0.15830839811E+03  0.23039184755E+04  0.22984731439E+04 0.  0.
        1    1    3    3  502    0  0.79684440947E+03  0.69946085883E+03 -0.36522237086E+03  0.11214249356E+04  0.50400001928E-02 0. -1.
       -1    1    3    3    0  502 -0.79684440947E+03 -0.69946085883E+03  0.52353076897E+03  0.11824935400E+04  0.50400001928E-02 0.  1.
</event>
<event>
 5   0  0.7183014E-06  0.2305042E+04  0.7818609E-02  0.8475936E-01
       -1   -1    0    0    0  501  0.00000000000E+00  0.00000000000E+00  0.88280098378E+03  0.88280098379E+03  0.50400001928E-02 0. -1.
        1   -1    0    0  501    0  0.00000000000E+00  0.00000000000E+00 -0.15046484115E+04  0.15046484116E+04  0.50400001928E-02 0.  1.
    10030    2    1    2    0    0  0.00000000000E+00  0.00000000000E+00 -0.62184742777E+03  0.23874493954E+04  0.23050423840E+04 0.  0.
        3    1    3    3  502    0  0.13504414869E+03 -0.11424263904E+04 -0.23819875521E+03  0.11747823785E+04  0.10100000352E+00 0.  1.
       -3    1    3    3    0  502 -0.13504414869E+03  0.11424263904E+04 -0.38364867256E+03  0.12126670169E+04  0.10100000352E+00 0. -1.
</event>
<event>
 5   0  0.7416556E-06  0.2347464E+04  0.7818609E-02  0.8459438E-01
        1   -1    0    0  501    0  0.00000000000E+00  0.00000000000E+00  0.23480488871E+04  0.23480488871E+04  0.50400001928E-02 0.  1.
       -1   -1    0    0    0  501  0.00000000000E+00  0.00000000000E+00 -0.58671963956E+03  0.58671963958E+03  0.50400001928E-02 0. -1.
    10030    2    1    2    0    0  0.00000000000E+00  0.00000000000E+00  0.17613292475E+04  0.29347685266E+04  0.23474636497E+04 0.  0.
        4    1    3    3  502    0 -0.98222417966E+03  0.13487479848E+03  0.16660858188E+04  0.19387622646E+04  0.12699999809E+01 0. -1.
       -4    1    3    3    0  502  0.98222417966E+03 -0.13487479848E+03  0.95243428748E+02  0.99600626202E+03  0.12699999809E+01 0.  1.
</event>
<event>
 5   0  0.7183014E-06  0.2233374E+04  0.7818609E-02  0.8504664E-01
       -1   -1    0    0    0  501  0.00000000000E+00  0.00000000000E+00  0.81783911855E+03  0.81783911856E+03  0.50400001928E-02 0. -1.
        1   -1    0    0  501    0  0.00000000000E+00  0.00000000000E+00 -0.15247379953E+04  0.15247379953E+04  0.50400001928E-02 0.  1.
    10030    2    1    2    0    0  0.00000000000E+00  0.00000000000E+00 -0.70689887671E+03  0.23425771138E+04  0.22333744676E+04 0.  0.
        3    1    3    3  502    0 -0.80277425882E+03 -0.59373803973E+03  0.17101839096E+03  0.10130245163E+04  0.10100000352E+00 0. -1.
       -3    1    3    3    0  502  0.80277425882E+03  0.59373803973E+03 -0.87791726768E+03  0.13295525975E+04  0.10100000352E+00 0.  1.
</event>
<event>
 5   0  0.1602809E-05  0.2300798E+04  0.7818609E-02  0.8477606E-01
        2   -1    0    0  501    0  0.00000000000E+00  0.00000000000E+00  0.23025373815E+04  0.23025373815E+04  0.25500000920E-02 0. -1.
       -2   -1    0    0    0  501  0.00000000000E+00  0.00000000000E+00 -0.57476515162E+03  0.57476515162E+03  0.25500000920E-02 0.  1.
    10030    2    1    2    0    0  0.00000000000E+00  0.00000000000E+00  0.17277722299E+04  0.28773025332E+04  0.23007983373E+04 0.  0.
        3    1    3    3  502    0  0.22645286036E+02 -0.10613648235E+04  0.14181147050E+04  0.17714563004E+04  0.10100000352E+00 0.  1.
       -3    1    3    3    0  502 -0.22645286036E+02  0.10613648235E+04  0.30965752490E+03  0.11058462327E+04  0.10100000352E+00 0. -1.
</event>
<event>
 5   0  0.7202572E-06  0.2334848E+04  0.7818609E-02  0.8464306E-01
        1   -1    0    0  501    0  0.00000000000E+00  0.00000000000E+00  0.16913581496E+04  0.16913581496E+04  0.50400001928E-02 0.  1.
       -1   -1    0    0    0  501  0.00000000000E+00  0.00000000000E+00 -0.80578981256E+03  0.80578981258E+03  0.50400001928E-02 0. -1.
    10030    2    1    2    0    0  0.00000000000E+00  0.00000000000E+00  0.88556833700E+03  0.24971479621E+04  0.23348483174E+04 0.  0.
        2    1    3    3  502    0 -0.52555273942E+03  0.91319324810E+02 -0.66782769153E+03  0.85471558227E+03  0.25500000920E-02 0. -1.
       -2    1    3    3    0  502  0.52555273942E+03 -0.91319324810E+02  0.15533960285E+04  0.16424323799E+04  0.25500000920E-02 0.  1.
</event>
<event>
 5   0  0.1588969E-05  0.2281313E+04  0.7818609E-02  0.8485326E-01
        2   -1    0    0  501    0  0.00000000000E+00  0.00000000000E+00  0.13919689043E+04  0.13919689043E+04  0.25500000920E-02 0. -1.
       -2   -1    0    0    0  501  0.00000000000E+00  0.00000000000E+00 -0.93471758496E+03  0.93471758497E+03  0.25500000920E-02 0.  1.
    10030    2    1    2    0    0  0.00000000000E+00  0.00000000000E+00  0.45725131932E+03  0.23266864893E+04  0.22813134923E+04 0.  0.
        1    1    3    3  502    0 -0.61883229856E+03  0.21903978209E+03  0.11800055058E+04  0.13503128651E+04  0.50400001928E-02 0. -1.
       -1    1    3    3    0  502  0.61883229856E+03 -0.21903978209E+03 -0.72275418648E+03  0.97637362417E+03  0.50400001928E-02 0.  1.
</event>
<event>
 5   0  0.7202572E-06  0.2300203E+04  0.7818609E-02  0.8477841E-01
       -1   -1    0    0    0  501  0.00000000000E+00  0.00000000000E+00  0.73244270431E+03  0.73244270433E+03  0.50400001928E-02 0. -1.
        1   -1    0    0  501    0  0.00000000000E+00  0.00000000000E+00 -0.18059211525E+04  0.18059211526E+04  0.50400001928E-02 0.  1.
    10030    2    1    2    0    0  0.00000000000E+00  0.00000000000E+00 -0.10734784482E+04  0.25383638569E+04  0.23002032717E+04 0.  0.
        2    1    3    3  502    0 -0.81359768739E+03 -0.39961069571E+03  0.24444153149E+03  0.93881924105E+03  0.25500000920E-02 0. -1.
       -2    1    3    3    0  502  0.81359768739E+03  0.39961069571E+03 -0.13179199797E+04  0.15995446158E+04  0.25500000920E-02 0.  1.
</event>
<event>
 5   0  0.7183014E-06  0.2292899E+04  0.7818609E-02  0.8480726E-01
        1   -1    0    0  501    0  0.00000000000E+00  0.00000000000E+00  0.20304680293E+04  0.20304680293E+04  0.50400001928E-02 0.  1.
       -1   -1    0    0    0  501  0.00000000000E+00  0.00000000000E+00 -0.64731220656E+03  0.64731220658E+03  0.50400001928E-02 0. -1.
    10030    2    1    2    0    0  0.00000000000E+00  0.00000000000E+00  0.13831558227E+04  0.26777802358E+04  0.22928992480E+04 0.  0.
        3    1    3    3  502    0  0.21041513855E+03  0.60838034274E+03  0.17994715758E+04  0.19111512588E+04  0.10100000352E+00 0.  1.
       -3    1    3    3    0  502 -0.21041513855E+03 -0.60838034274E+03 -0.41631575305E+03  0.76662897702E+03  0.10100000352E+00 0. -1.
</event>
<event>
 5   0  0.1626636E-05  0.2295345E+04  0.7818609E-02  0.8479759E-01
       -2   -1    0    0    0  501  0.00000000000E+00  0.00000000000E+00  0.10265791030E+04  0.10265791030E+04  0.25500000920E-02 0.  1.
        2   -1    0    0  501    0  0.00000000000E+00  0.00000000000E+00 -0.12830502139E+04  0.12830502139E+04  0.25500000920E-02 0. -1.
    10030    2    1    2    0    0  0.00000000000E+00  0.00000000000E+00 -0.25647111090E+03  0.23096293169E+04  0.22953453227E+04 0.  0.
        4    1    3    3  502    0 -0.35047489354E+03  0.42538220207E+03  0.88469086544E+03  0.10423349793E+04  0.12699999809E+01 0.  1.
       -4    1    3    3    0  502  0.35047489354E+03 -0.42538220207E+03 -0.11411619763E+04  0.12672943375E+04  0.12699999809E+01 0. -1.
</event>
<event>
 5   0  0.7416556E-06  0.2307711E+04  0.7818609E-02  0.8474887E-01
       -1   -1    0    0    0  501  0.00000000000E+00  0.00000000000E+00  0.63825169812E+03  0.63825169814E+03  0.50400001928E-02 0.  1.
        1   -1    0    0  501    0  0.00000000000E+00  0.00000000000E+00 -0.20859827136E+04  0.20859827136E+04  0.50400001928E-02 0. -1.
    10030    2    1    2    0    0  0.00000000000E+00  0.00000000000E+00 -0.14477310155E+04  0.27242344118E+04  0.23077105618E+04 0.  0.
        4    1    3    3  502    0 -0.99252984293E+02 -0.11494313033E+04 -0.74553390888E+03  0.13736323737E+04  0.12699999809E+01 0.  1.
       -4    1    3    3    0  502  0.99252984293E+02  0.11494313033E+04 -0.70219710663E+03  0.13506020381E+04  0.12699999809E+01 0. -1.
</event>
<event>
 5   0  0.1635955E-05  0.2297491E+04  0.7818609E-02  0.8478911E-01
        2   -1    0    0  501    0  0.00000000000E+00  0.00000000000E+00  0.22521703352E+04  0.22521703352E+04  0.25500000920E-02 0.  1.
       -2   -1    0    0    0  501  0.00000000000E+00  0.00000000000E+00 -0.58593079280E+03  0.58593079280E+03  0.25500000920E-02 0. -1.
    10030    2    1    2    0    0  0.00000000000E+00  0.00000000000E+00  0.16662395424E+04  0.28381011280E+04  0.22974907617E+04 0.  0.
        2    1    3    3  502    0 -0.16133060719E+03 -0.12257025215E+03 -0.56368427547E+03  0.59899164764E+03  0.25500000920E-02 0. -1.
       -2    1    3    3    0  502  0.16133060719E+03  0.12257025215E+03  0.22299238179E+04  0.22391094804E+04  0.25500000920E-02 0.  1.
</event>
<event>
 5   0  0.7278815E-06  0.2298387E+04  0.7818609E-02  0.8478557E-01
       -1   -1    0    0    0  501  0.00000000000E+00  0.00000000000E+00  0.21294490697E+04  0.21294490697E+04  0.50400001928E-02 0. -1.
        1   -1    0    0  501    0  0.00000000000E+00  0.00000000000E+00 -0.62018198288E+03  0.62018198290E+03  0.50400001928E-02 0.  1.
    10030    2    1    2    0    0  0.00000000000E+00  0.00000000000E+00  0.15092670868E+04  0.27496310526E+04  0.22983872141E+04 0.  0.
        5    1    3    3  502    0  0.49781793554E+03  0.80140144772E+03  0.15396278250E+04  0.18056973464E+04  0.46999998093E+01 0. -1.
       -5    1    3    3    0  502 -0.49781793554E+03 -0.80140144772E+03 -0.30360738116E+02  0.94393370624E+03  0.46999998093E+01 0.  1.
</event>
<event>
 5   0  0.1602809E-05  0.2302177E+04  0.7818609E-02  0.8477063E-01
       -2   -1    0    0    0  501  0.00000000000E+00  0.00000000000E+00  0.16598655463E+04  0.16598655463E+04  0.25500000920E-02 0.  1.
        2   -1    0    0  501    0  0.00000000000E+00  0.00000000000E+00 -0.79826039055E+03  0.79826039055E+03  0.25500000920E-02 0. -1.
    10030    2    1    2    0    0  0.00000000000E+00  0.00000000000E+00  0.86160515571E+03  0.24581259368E+04  0.23021771602E+04 0.  0.
        3    1    3    3  502    0  0.11045541061E+04 -0.32388166609E+03  0.42214123570E+03  0.12260270552E+04  0.10100000352E+00 0. -1.
       -3    1    3    3    0  502 -0.11045541061E+04  0.32388166609E+03  0.43946392002E+03  0.12320988816E+04  0.10100000352E+00 0.  1.
</event>
<event>
 5   0  0.7202572E-06  0.2300112E+04  0.7818609E-02  0.8477877E-01
        1   -1    0    0  501    0  0.00000000000E+00  0.00000000000E+00  0.13740040110E+04  0.13740040110E+04  0.50400001928E-02 0.  1.
       -1   -1    0    0    0  501  0.00000000000E+00  0.00000000000E+00 -0.96260930705E+03  0.96260930706E+03  0.50400001928E-02 0. -1.
    10030    2    1    2    0    0  0.00000000000E+00  0.00000000000E+00  0.41139470399E+03  0.23366133181E+04  0.23001122138E+04 0.  0.
        2    1    3    3  502    0 -0.14774491038E+03  0.95396750036E+03 -0.42931967621E+03  0.10565026903E+04  0.25500000920E-02 0. -1.
       -2    1    3    3    0  502  0.14774491038E+03 -0.95396750036E+03  0.84071438020E+03  0.12801106278E+04  0.25500000920E-02 0.  1.
</event>
<event>
 5   0  0.1635955E-05  0.2299386E+04  0.7818609E-02  0.8478163E-01
        2   -1    0    0  501    0  0.00000000000E+00  0.00000000000E+00  0.12381539004E+04  0.12381539004E+04  0.25500000920E-02 0. -1.
       -2   -1    0    0    0  501  0.00000000000E+00  0.00000000000E+00 -0.10675521574E+04  0.10675521574E+04  0.25500000920E-02 0.  1.
    10030    2    1    2    0    0  0.00000000000E+00  0.00000000000E+00  0.17060174300E+03  0.23057060578E+04  0.22993858898E+04 0.  0.
        2    1    3    3  502    0 -0.78562106854E+03  0.12191065676E+03  0.91808418232E+03  0.12144715877E+04  0.25500000920E-02 0. -1.
       -2    1    3    3    0  502  0.78562106854E+03 -0.12191065676E+03 -0.74748243931E+03  0.10912344701E+04  0.25500000920E-02 0.  1.
</event>
<event>
 5   0  0.1588969E-05  0.2311847E+04  0.7818609E-02  0.8473265E-01
       -2   -1    0    0    0  501  0.00000000000E+00  0.00000000000E+00  0.74693768798E+03  0.74693768798E+03  0.25500000920E-02 0.  1.
        2   -1    0    0  501    0  0.00000000000E+00  0.00000000000E+00 -0.17888496581E+04  0.17888496581E+04  0.25500000920E-02 0. -1.
    10030    2    1    2    0    0  0.00000000000E+00  0.00000000000E+00 -0.10419119701E+04  0.25357873461E+04  0.23118470778E+04 0.  0.
        1    1    3    3  502    0 -0.77692386541E+03  0.68933346928E+03 -0.10774120999E+04  0.14965320436E+04  0.50400001928E-02 0. -1.
       -1    1    3    3    0  502  0.77692386541E+03 -0.68933346928E+03  0.35500129756E+02  0.10392553025E+04  0.50400001928E-02 0.  1.
</event>
<event>
 5   0  0.7183014E-06  0.2264540E+04  0.7818609E-02  0.8492035E-01
       -1   -1    0    0    0  501  0.00000000000E+00  0.00000000000E+00  0.62143069847E+03  0.62143069849E+03  0.50400001928E-02 0.  1.
        1   -1    0    0  501    0  0.00000000000E+00  0.00000000000E+00 -0.20630374513E+04  0.20630374513E+04  0.50400001928E-02 0. -1.
    10030    2    1    2    0    0  0.00000000000E+00  0.00000000000E+00 -0.14416067528E+04  0.26844681498E+04  0.22645395155E+04 0.  0.
        3    1    3    3  502    0 -0.33179856649E+03  0.10510290482E+04 -0.10282921294E+04  0.15073609596E+04  0.10100000352E+00 0. -1.
       -3    1    3    3    0  502  0.33179856649E+03 -0.10510290482E+04 -0.41331462338E+03  0.11771071901E+04  0.10100000352E+00 0.  1.
</event>
<event>
 5   0  0.7416556E-06  0.2289462E+04  0.7818609E-02  0.8482088E-01
        1   -1    0    0  501    0  0.00000000000E+00  0.00000000000E+00  0.10844171110E+04  0.10844171110E+04  0.50400001928E-02 0.  1.
       -1   -1    0    0    0  501  0.00000000000E+00  0.00000000000E+00 -0.12083997006E+04  0.12083997006E+04  0.50400001928E-02 0. -1.
    10030    2    1    2    0    0  0.00000000000E+00  0.00000000000E+00 -0.12398258959E+03  0.22928168116E+04  0.22894622183E+04 0.  0.
        4    1    3    3  502    0  0.41211505051E+03 -0.96415796362E+03  0.39799456763E+03  0.11215349671E+04  0.12699999809E+01 0.  1.
       -4    1    3    3    0  502 -0.41211505051E+03  0.96415796362E+03 -0.52197715722E+03  0.11712818445E+04  0.12699999809E+01 0. -1.
</event>
<event>
 5   0  0.1635955E-05  0.2319515E+04  0.7818609E-02  0.8470266E-01
        2   -1    0    0  501    0  0.00000000000E+00  0.00000000000E+00  0.11252000942E+04  0.11252000942E+04  0.25500000920E-02 0.  1.
       -2   -1    0    0    0  501  0.00000000000E+00  0.00000000000E+00 -0.11953757313E+04  0.11953757313E+04  0.25500000920E-02 0. -1.
    10030    2    1    2    0    0  0.00000000000E+00  0.00000000000E+00 -0.70175637186E+02  0.23205758255E+04  0.23195145056E+04 0.  0.
        2    1    3    3  502    0 -0.45479028474E+03  0.13565548371E+03  0.10236025332E+04  0.11282724668E+04  0.25500000920E-02 0.  1.
       -2    1    3    3    0  502  0.45479028474E+03 -0.13565548371E+03 -0.10937781703E+04  0.11923033587E+04  0.25500000920E-02 0. -1.
</event>
<event>
 5   0  0.1626636E-05  0.2305333E+04  0.7818609E-02  0.8475821E-01
       -2   -1    0    0    0  501  0.00000000000E+00  0.00000000000E+00  0.12315822890E+04  0.12315822890E+04  0.25500000920E-02 0.  1.
        2   -1    0    0  501    0  0.00000000000E+00  0.00000000000E+00 -0.10788074025E+04  0.10788074025E+04  0.25500000920E-02 0. -1.
    10030    2    1    2    0    0  0.00000000000E+00  0.00000000000E+00  0.15277488645E+03  0.23103896915E+04  0.23053330260E+04 0.  0.
        4    1    3    3  502    0 -0.83500879595E+02  0.68960867732E+03 -0.84547037104E+03  0.10942368509E+04  0.12699999809E+01 0. -1.
       -4    1    3    3    0  502  0.83500879595E+02 -0.68960867732E+03  0.99824525749E+03  0.12161528406E+04  0.12699999809E+01 0.  1.
</event>
<event>
 5   0  0.1602809E-05  0.2286012E+04  0.7818609E-02  0.8483457E-01
       -2   -1    0    0    0  501  0.00000000000E+00  0.00000000000E+00  0.57203515230E+03  0.57203515230E+03  0.25500000920E-02 0. -1.
        2   -1    0    0  501    0  0.00000000000E+00  0.00000000000E+00 -0.22838850971E+04  0.22838850971E+04  0.25500000920E-02 0.  1.
    10030    2    1    2    0    0  0.00000000000E+00  0.00000000000E+00 -0.17118499448E+04  0.28559202494E+04  0.22860118629E+04 0.  0.
        3    1    3    3  502    0  0.98288458791E+03  0.57041936002E+03 -0.10090457821E+04  0.15197413464E+04  0.10100000352E+00 0.  1.
       -3    1    3    3    0  502 -0.98288458791E+03 -0.57041936002E+03 -0.70280416269E+03  0.13361789030E+04  0.10100000352E+00 0. -1.
</event>
<event>
 5   0  0.1697855E-05  0.2304189E+04  0.7818609E-02  0.8476271E-01
       -2   -1    0    0    0  501  0.00000000000E+00  0.00000000000E+00  0.78849003661E+03  0.78849003661E+03  0.25500000920E-02 0.  1.
        2   -1    0    0  501    0  0.00000000000E+00  0.00000000000E+00 -0.16833717953E+04  0.16833717953E+04  0.25500000920E-02 0. -1.
    10030    2    1    2    0    0  0.00000000000E+00  0.00000000000E+00 -0.89488175871E+03  0.24718618319E+04  0.23041891316E+04 0.  0.
        5    1    3    3  502    0 -0.56443236214E+02  0.10729527798E+04 -0.13879995474E+01  0.10744475432E+04  0.46999998093E+01 0.  1.
       -5    1    3    3    0  502  0.56443236214E+02 -0.10729527798E+04 -0.89349375916E+03  0.13974142887E+04  0.46999998093E+01 0. -1.
</event>
<event>
 5   0  0.7416556E-06  0.2318128E+04  0.7818609E-02  0.8470808E-01
       -1   -1    0    0    0  501  0.00000000000E+00  0.00000000000E+00  0.60611707241E+03  0.60611707244E+03  0.50400001928E-02 0. -1.
        1   -1    0    0  501    0  0.00000000000E+00  0.00000000000E+00 -0.22164514310E+04  0.22164514310E+04  0.50400001928E-02 0.  1.
    10030    2    1    2    0    0  0.00000000000E+00  0.00000000000E+00 -0.16103343586E+04  0.28225685035E+04  0.23181277381E+04 0.  0.
        4    1    3    3  502    0 -0.98292769130E+03 -0.20531746549E+03 -0.15100399853E+04  0.18134289283E+04  0.12699999809E+01 0.  1.
       -4    1    3    3    0  502  0.98292769130E+03  0.20531746549E+03 -0.10029437334E+03  0.10091395752E+04  0.12699999809E+01 0. -1.
</event>
<event>
 5   0  0.7278815E-06  0.2306315E+04  0.7818609E-02  0.8475435E-01
       -1   -1    0    0    0  501  0.00000000000E+00  0.00000000000E+00  0.69252156555E+03  0.69252156556E+03  0.50400001928E-02 0. -1.
        1   -1    0    0  501    0  0.00000000000E+00  0.00000000000E+00 -0.19201892779E+04  0.19201892779E+04  0.50400001928E-02 0.  1.
    10030    2    1    2    0    0  0.00000000000E+00  0.00000000000E+00 -0.12276677124E+04  0.26127108435E+04  0.23063152299E+04 0.  0.
        5    1    3    3  502    0  0.60027231392E+03  0.13180695833E+03 -0.17191911127E+04  0.18257437107E+04  0.46999998093E+01 0.  1.
       -5    1    3    3    0  502 -0.60027231392E+03 -0.13180695833E+03  0.49152340029E+03  0.78696713283E+03  0.46999998093E+01 0. -1.
</event>
<event>
 5   0  0.7391007E-06  0.2298550E+04  0.7818609E-02  0.8478493E-01
       -1   -1    0    0    0  501  0.00000000000E+00  0.00000000000E+00  0.13401831856E+04  0.13401831856E+04  0.50400001928E-02 0. -1.
        1   -1    0    0  501    0  0.00000000000E+00  0.00000000000E+00 -0.98556135255E+03  0.98556135256E+03  0.50400001928E-02 0.  1.
    10030    2    1    2    0    0  0.00000000000E+00  0.00000000000E+00  0.35462183308E+03  0.23257445382E+04  0.22985497629E+04 0.  0.
        1    1    3    3  502    0 -0.51223729672E+03 -0.20979565091E+03 -0.84179532213E+03  0.10074823213E+04  0.50400001928E-02 0.  1.
       -1    1    3    3    0  502  0.51223729672E+03  0.20979565091E+03  0.11964171552E+04  0.13182622169E+04  0.50400001928E-02 0. -1.
</event>
<event>
 5   0  0.1626636E-05  0.2295890E+04  0.7818609E-02  0.8479543E-01
        2   -1    0    0  501    0  0.00000000000E+00  0.00000000000E+00  0.14180783105E+04  0.14180783105E+04  0.25500000920E-02 0. -1.
       -2   -1    0    0    0  501  0.00000000000E+00  0.00000000000E+00 -0.92927004611E+03  0.92927004611E+03  0.25500000920E-02 0.  1.
    10030    2    1    2    0    0  0.00000000000E+00  0.00000000000E+00  0.48880826436E+03  0.23473483566E+04  0.22958899773E+04 0.  0.
        4    1    3    3  502    0  0.51434101066E+03 -0.73428874980E+03  0.97744623419E+03  0.13263217547E+04  0.12699999809E+01 0. -1.
       -4    1    3    3    0  502 -0.51434101066E+03  0.73428874980E+03 -0.48863796983E+03  0.10210266019E+04  0.12699999809E+01 0.  1.
</event>
<event>
 5   0  0.1626636E-05  0.2304028E+04  0.7818609E-02  0.8476335E-01
        2   -1    0    0  501    0  0.00000000000E+00  0.00000000000E+00  0.98624240461E+03  0.98624240461E+03  0.25500000920E-02 0.  1.
       -2   -1    0    0    0  501  0.00000000000E+00  0.00000000000E+00 -0.13456486270E+04  0.13456486270E+04  0.25500000920E-02 0. -1.
    10030    2    1    2    0    0  0.00000000000E+00  0.00000000000E+00 -0.35940622237E+03  0.23318910316E+04  0.23040275499E+04 0.  0.
        4    1    3    3  502    0 -0.73666345215E+03 -0.47289686563E+03  0.57823904430E+03  0.10491265379E+04  0.12699999809E+01 0.  1.
       -4    1    3    3    0  502  0.73666345215E+03  0.47289686563E+03 -0.93764526668E+03  0.12827644937E+04  0.12699999809E+01 0. -1.
</event>
<event>
 5   0  0.5704875E-06  0.2295871E+04  0.7818609E-02  0.8479551E-01
        3   -1    0    0  501    0  0.00000000000E+00  0.00000000000E+00  0.14894804864E+04  0.14894804899E+04  0.10100000352E+00 0. -1.
       -3   -1    0    0    0  501  0.00000000000E+00  0.00000000000E+00 -0.88470855725E+03  0.88470856301E+03  0.10100000352E+00 0.  1.
    10030    2    1    2    0    0  0.00000000000E+00  0.00000000000E+00  0.60477192918E+03  0.23741890529E+04  0.22958712012E+04 0.  0.
        4    1    3    3  502    0  0.57418864634E+03 -0.94374128237E+03  0.62514557359E+03  0.12693103682E+04  0.12699999809E+01 0. -1.
       -4    1    3    3    0  502 -0.57418864634E+03  0.94374128237E+03 -0.20373644406E+02  0.11048786847E+04  0.12699999809E+01 0.  1.
</event>
<event>
 5   0  0.1635955E-05  0.2311867E+04  0.7818609E-02  0.8473257E-01
       -2   -1    0    0    0  501  0.00000000000E+00  0.00000000000E+00  0.94512784448E+03  0.94512784449E+03  0.25500000920E-02 0.  1.
        2   -1    0    0  501    0  0.00000000000E+00  0.00000000000E+00 -0.14137581950E+04  0.14137581950E+04  0.25500000920E-02 0. -1.
    10030    2    1    2    0    0  0.00000000000E+00  0.00000000000E+00 -0.46863035052E+03  0.23588860395E+04  0.23118669819E+04 0.  0.
        2    1    3    3  502    0  0.59685665301E+03 -0.53101174007E+03  0.61812277636E+03  0.10100926190E+04  0.25500000920E-02 0. -1.
       -2    1    3    3    0  502 -0.59685665301E+03  0.53101174007E+03 -0.10867531269E+04  0.13487934205E+04  0.25500000920E-02 0.  1.
</event>
<event>
 5   0  0.7202572E-06  0.2300425E+04  0.7818609E-02  0.8477754E-01
       -1   -1    0    0    0  501  0.00000000000E+00  0.00000000000E+00  0.79955906084E+03  0.79955906086E+03  0.50400001928E-02 0. -1.
        1   -1    0    0  501    0  0.00000000000E+00  0.00000000000E+00 -0.16546473971E+04  0.16546473972E+04  0.50400001928E-02 0.  1.
    10030    2    1    2    0    0  0.00000000000E+00  0.00000000000E+00 -0.85508833631E+03  0.24542064580E+04  0.23004245860E+04 0.  0.
        2    1    3    3  502    0  0.26702501483E+03  0.84857687699E+02 -0.16176838904E+04  0.16417686667E+04  0.25500000920E-02 0.  1.
       -2    1    3    3    0  502 -0.26702501483E+03 -0.84857687699E+02  0.76259555406E+03  0.81243779134E+03  0.25500000920E-02 0. -1.
</event>
<event>
 5   0  0.7183014E-06  0.2297578E+04  0.7818609E-02  0.8478876E-01
        1   -1    0    0  501    0  0.00000000000E+00  0.00000000000E+00  0.13836507222E+04  0.13836507223E+04  0.50400001928E-02 0. -1.
       -1   -1    0    0    0  501  0.00000000000E+00  0.00000000000E+00 -0.95379326185E+03  0.95379326186E+03  0.50400001928E-02 0.  1.
    10030    2    1    2    0    0  0.00000000000E+00  0.00000000000E+00  0.42985746040E+03  0.23374439841E+04  0.22975784954E+04 0.  0.
        3    1    3    3  502    0 -0.10911008511E+04 -0.25669640551E+02  0.57969801260E+03  0.12358032990E+04  0.10100000352E+00 0. -1.
       -3    1    3    3    0  502  0.10911008511E+04  0.25669640551E+02 -0.14984055220E+03  0.11016406851E+04  0.10100000352E+00 0.  1.
</event>
<event>
 5   0  0.1697855E-05  0.2299172E+04  0.7818609E-02  0.8478248E-01
       -2   -1    0    0    0  501  0.00000000000E+00  0.00000000000E+00  0.10298402856E+04  0.10298402856E+04  0.25500000920E-02 0.  1.
        2   -1    0    0  501    0  0.00000000000E+00  0.00000000000E+00 -0.12832556007E+04  0.12832556007E+04  0.25500000920E-02 0. -1.
    10030    2    1    2    0    0  0.00000000000E+00  0.00000000000E+00 -0.25341531515E+03  0.23130958863E+04  0.22991722983E+04 0.  0.
        5    1    3    3  502    0 -0.95625565067E+03  0.63403145744E+03 -0.54822404344E+02  0.11486724270E+04  0.46999998093E+01 0. -1.
       -5    1    3    3    0  502  0.95625565067E+03 -0.63403145744E+03 -0.19859291081E+03  0.11644234594E+04  0.46999998093E+01 0.  1.
</event>
<event>
 5   0  0.1588969E-05  0.2298064E+04  0.7818609E-02  0.8478685E-01
        2   -1    0    0  501    0  0.00000000000E+00  0.00000000000E+00  0.15662302167E+04  0.15662302167E+04  0.25500000920E-02 0. -1.
       -2   -1    0    0    0  501  0.00000000000E+00  0.00000000000E+00 -0.84296343265E+03  0.84296343265E+03  0.25500000920E-02 0.  1.
    10030    2    1    2    0    0  0.00000000000E+00  0.00000000000E+00  0.72326678401E+03  0.24091936493E+04  0.22980642287E+04 0.  0.
        1    1    3    3  502    0 -0.14630024107E+03  0.97497474051E+03 -0.25707121613E+03  0.10188548058E+04  0.50400001928E-02 0.  1.
       -1    1    3    3    0  502  0.14630024107E+03 -0.97497474051E+03  0.98033800014E+03  0.13903388435E+04  0.50400001928E-02 0. -1.
</event>
<event>
 5   0  0.7416556E-06  0.2266656E+04  0.7818609E-02  0.8491185E-01
       -1   -1    0    0    0  501  0.00000000000E+00  0.00000000000E+00  0.82523141330E+03  0.82523141332E+03  0.50400001928E-02 0.  1.
        1   -1    0    0  501    0  0.00000000000E+00  0.00000000000E+00 -0.15564511131E+04  0.15564511131E+04  0.50400001928E-02 0. -1.
    10030    2    1    2    0    0  0.00000000000E+00  0.00000000000E+00 -0.73121969975E+03  0.23816825264E+04  0.22666559967E+04 0.  0.
        4    1    3    3  502    0  0.56676569697E+03 -0.67674765224E+03 -0.11124686860E+04  0.14201404615E+04  0.12699999809E+01 0. -1.
       -4    1    3    3    0  502 -0.56676569697E+03  0.67674765224E+03  0.38124898630E+03  0.96154206488E+03  0.12699999809E+01 0.  1.
</event>
<event>
 5   0  0.7416556E-06  0.2288828E+04  0.7818609E-02  0.8482339E-01
       -1   -1    0    0    0  501  0.00000000000E+00  0.00000000000E+00  0.84466188127E+03  0.84466188128E+03  0.50400001928E-02 0. -1.
        1   -1    0    0  501    0  0.00000000000E+00  0.00000000000E+00 -0.15505420218E+04  0.15505420218E+04  0.50400001928E-02 0.  1.
    10030    2    1    2    0    0  0.00000000000E+00  0.00000000000E+00 -0.70588014053E+03  0.23952039031E+04  0.22888282951E+04 0.  0.
        4    1    3    3  502    0 -0.66228749365E+03 -0.90419064265E+02 -0.13250266124E+04  0.14840813548E+04  0.12699999809E+01 0.  1.
       -4    1    3    3    0  502  0.66228749365E+03  0.90419064265E+02  0.61914647184E+03  0.91112254824E+03  0.12699999809E+01 0. -1.
</event>
<event>
 5   0  0.7278815E-06  0.2254130E+04  0.7818609E-02  0.8496230E-01
        1   -1    0    0  501    0  0.00000000000E+00  0.00000000000E+00  0.11895981374E+04  0.11895981374E+04  0.50400001928E-02 0.  1.
       -1   -1    0    0    0  501  0.00000000000E+00  0.00000000000E+00 -0.10678192459E+04  0.10678192460E+04  0.50400001928E-02 0. -1.
    10030    2    1    2    0    0  0.00000000000E+00  0.00000000000E+00  0.12177889144E+03  0.22574173833E+04  0.22541302412E+04 0.  0.
        5    1    3    3  502    0 -0.64686354273E+03  0.50580443726E+03 -0.71223577478E+03  0.10870015918E+04  0.46999998093E+01 0. -1.
       -5    1    3    3    0  502  0.64686354273E+03 -0.50580443726E+03  0.83401466622E+03  0.11704157916E+04  0.46999998093E+01 0.  1.
</event>
<event>
 5   0  0.1626636E-05  0.2295403E+04  0.7818609E-02  0.8479736E-01
        2   -1    0    0  501    0  0.00000000000E+00  0.00000000000E+00  0.12360272687E+04  0.12360272687E+04  0.25500000920E-02 0.  1.
       -2   -1    0    0    0  501  0.00000000000E+00  0.00000000000E+00 -0.10656876614E+04  0.10656876614E+04  0.25500000920E-02 0. -1.
    10030    2    1    2    0    0  0.00000000000E+00  0.00000000000E+00  0.17033960729E+03  0.23017149300E+04  0.22954032407E+04 0.  0.
        4    1    3    3  502    0  0.92205876052E+03 -0.23873064408E+03  0.72726851810E+03  0.11983763134E+04  0.12699999809E+01 0.  1.
       -4    1    3    3    0  502 -0.92205876052E+03  0.23873064408E+03 -0.55692891081E+03  0.11033386166E+04  0.12699999809E+01 0. -1.
</event>
<event>
 5   0  0.7278815E-06  0.2298745E+04  0.7818609E-02  0.8478416E-01
        1   -1    0    0  501    0  0.00000000000E+00  0.00000000000E+00  0.15381954793E+04  0.15381954794E+04  0.50400001928E-02 0.  1.
       -1   -1    0    0    0  501  0.00000000000E+00  0.00000000000E+00 -0.85883536769E+03  0.85883536771E+03  0.50400001928E-02 0. -1.
    10030    2    1    2    0    0  0.00000000000E+00  0.00000000000E+00  0.67936011166E+03  0.23970308471E+04  0.22987445966E+04 0.  0.
        5    1    3    3  502    0  0.49283384577E+03 -0.73494221508E+03  0.11045327583E+04  0.14152879436E+04  0.46999998093E+01 0.  1.
       -5    1    3    3    0  502 -0.49283384577E+03  0.73494221508E+03 -0.42517264667E+03  0.98174290348E+03  0.46999998093E+01 0. -1.
</event>
<event>
 5   0  0.1602809E-05  0.2285324E+04  0.7818609E-02  0.8483730E-01
       -2   -1    0    0    0  501  0.00000000000E+00  0.00000000000E+00  0.13998542858E+04  0.13998542858E+04  0.25500000920E-02 0. -1.
        2   -1    0    0  501    0  0.00000000000E+00  0.00000000000E+00 -0.93272292846E+03  0.93272292847E+03  0.25500000920E-02 0.  1.
    10030    2    1    2    0    0  0.00000000000E+00  0.00000000000E+00  0.46713135736E+03  0.23325772143E+04  0.22853237748E+04 0.  0.
        3    1    3    3  502    0 -0.46805235824E+03  0.10283025585E+04  0.59161240860E+02  0.11313616683E+04  0.10100000352E+00 0.  1.
       -3    1    3    3    0  502  0.46805235824E+03 -0.10283025585E+04  0.40797011650E+03  0.12012155460E+04  0.10100000352E+00 0. -1.
</event>
<event>
 5   0  0.1602809E-05  0.2321390E+04  0.7818609E-02  0.8469535E-01
       -2   -1    0    0    0  501  0.00000000000E+00  0.00000000000E+00  0.72208423903E+03  0.72208423904E+03  0.25500000920E-02 0. -1.
        2   -1    0    0  501    0  0.00000000000E+00  0.00000000000E+00 -0.18657283969E+04  0.18657283969E+04  0.25500000920E-02 0.  1.
    10030    2    1    2    0    0  0.00000000000E+00  0.00000000000E+00 -0.11436441578E+04  0.25878126359E+04  0.23213901608E+04 0.  0.
        3    1    3    3  502    0 -0.11410717003E+04  0.20867846050E+03 -0.52692949953E+03  0.12740667301E+04  0.10100000352E+00 0.  1.
       -3    1    3    3    0  502  0.11410717003E+04 -0.20867846050E+03 -0.61671465831E+03  0.13137459058E+04  0.10100000352E+00 0. -1.
</event>
<event>
 5   0  0.5704875E-06  0.2287294E+04  0.7818609E-02  0.8482948E-01
       -3   -1    0    0    0  501  0.00000000000E+00  0.00000000000E+00  0.17375621389E+04  0.17375621418E+04  0.10100000352E+00 0. -1.
        3   -1    0    0  501    0  0.00000000000E+00  0.00000000000E+00 -0.75273775233E+03  0.75273775911E+03  0.10100000352E+00 0.  1.
    10030    2    1    2    0    0  0.00000000000E+00  0.00000000000E+00  0.98482438655E+03  0.24902999009E+04  0.22872941490E+04 0.  0.
        3    1    3    3  502    0  0.95005542549E+03  0.50098974852E+03  0.92013109422E+03  0.14142974512E+04  0.10100000352E+00 0.  1.
       -3    1    3    3    0  502 -0.95005542549E+03 -0.50098974852E+03  0.64693292329E+02  0.10760024498E+04  0.10100000352E+00 0. -1.
</event>
<event>
 5   0  0.7278815E-06  0.2296278E+04  0.7818609E-02  0.8479390E-01
        1   -1    0    0  501    0  0.00000000000E+00  0.00000000000E+00  0.18095079777E+04  0.18095079777E+04  0.50400001928E-02 0.  1.
       -1   -1    0    0    0  501  0.00000000000E+00  0.00000000000E+00 -0.72849784343E+03  0.72849784345E+03  0.50400001928E-02 0. -1.
    10030    2    1    2    0    0  0.00000000000E+00  0.00000000000E+00  0.10810101342E+04  0.25380058211E+04  0.22962775611E+04 0.  0.
        5    1    3    3  502    0  0.66368629901E+02 -0.11007272102E+04  0.89383779785E+03  0.14194975467E+04  0.46999998093E+01 0.  1.
       -5    1    3    3    0  502 -0.66368629901E+02  0.11007272102E+04  0.18717233640E+03  0.11185082744E+04  0.46999998093E+01 0. -1.
</event>
<event>
 5   0  0.1602809E-05  0.2298140E+04  0.7818609E-02  0.8478655E-01
        2   -1    0    0  501    0  0.00000000000E+00  0.00000000000E+00  0.10843684440E+04  0.10843684440E+04  0.25500000920E-02 0.  1.
       -2   -1    0    0    0  501  0.00000000000E+00  0.00000000000E+00 -0.12176318161E+04  0.12176318161E+04  0.25500000920E-02 0. -1.
    10030    2    1    2    0    0  0.00000000000E+00  0.00000000000E+00 -0.13326337204E+03  0.23020002601E+04  0.22981396979E+04 0.  0.
        3    1    3    3  502    0 -0.85723433313E+03  0.89682752066E+01 -0.83305122817E+03  0.11953683494E+04  0.10100000352E+00 0. -1.
       -3    1    3    3    0  502  0.85723433313E+03 -0.89682752066E+01  0.69978785613E+03  0.11066319106E+04  0.10100000352E+00 0.  1.
</event>
<event>
 5   0  0.1635955E-05  0.2294293E+04  0.7818609E-02  0.8480175E-01
        2   -1    0    0  501    0  0.00000000000E+00  0.00000000000E+00  0.20232225727E+04  0.20232225727E+04  0.25500000920E-02 0. -1.
       -2   -1    0    0    0  501  0.00000000000E+00  0.00000000000E+00 -0.65042023701E+03  0.65042023701E+03  0.25500000920E-02 0.  1.
    10030    2    1    2    0    0  0.00000000000E+00  0.00000000000E+00  0.13728023357E+04  0.26736428097E+04  0.22942928368E+04 0.  0.
        2    1    3    3  502    0 -0.66881171303E+03  0.75045077423E+02  0.17689835376E+04  0.18926815969E+04  0.25500000920E-02 0. -1.
       -2    1    3    3    0  502  0.66881171303E+03 -0.75045077423E+02 -0.39618120189E+03  0.78096121278E+03  0.25500000920E-02 0.  1.
</event>
<event>
 5   0  0.1588969E-05  0.2319482E+04  0.7818609E-02  0.8470279E-01
        2   -1    0    0  501    0  0.00000000000E+00  0.00000000000E+00  0.10312903523E+04  0.10312903523E+04  0.25500000920E-02 0. -1.
       -2   -1    0    0    0  501  0.00000000000E+00  0.00000000000E+00 -0.13041910389E+04  0.13041910389E+04  0.25500000920E-02 0.  1.
    10030    2    1    2    0    0  0.00000000000E+00  0.00000000000E+00 -0.27290068664E+03  0.23354813912E+04  0.23194823870E+04 0.  0.
        1    1    3    3  502    0 -0.20509765559E+03 -0.19568956845E+03  0.99586872330E+03  0.10354293649E+04  0.50400001928E-02 0. -1.
       -1    1    3    3    0  502  0.20509765559E+03  0.19568956845E+03 -0.12687694099E+04  0.13000520263E+04  0.50400001928E-02 0.  1.
</event>
<event>
 5   0  0.7391007E-06  0.2307105E+04  0.7818609E-02  0.8475125E-01
       -1   -1    0    0    0  501  0.00000000000E+00  0.00000000000E+00  0.92490003210E+03  0.92490003211E+03  0.50400001928E-02 0. -1.
        1   -1    0    0  501    0  0.00000000000E+00  0.00000000000E+00 -0.14387318831E+04  0.14387318831E+04  0.50400001928E-02 0.  1.
    10030    2    1    2    0    0  0.00000000000E+00  0.00000000000E+00 -0.51383185099E+03  0.23636319152E+04  0.23071048220E+04 0.  0.
        1    1    3    3  502    0  0.10677083588E+04 -0.24935558780E+03  0.11034145414E+03  0.11019775792E+04  0.50400001928E-02 0. -1.
       -1    1    3    3    0  502 -0.10677083588E+04  0.24935558780E+03 -0.62417330513E+03  0.12616543360E+04  0.50400001928E-02 0.  1.
</event>
<event>
 5   0  0.1626636E-05  0.2300016E+04  0.7818609E-02  0.8477915E-01
        2   -1    0    0  501    0  0.00000000000E+00  0.00000000000E+00  0.19164318478E+04  0.19164318478E+04  0.25500000920E-02 0. -1.
       -2   -1    0    0    0  501  0.00000000000E+00  0.00000000000E+00 -0.69009413187E+03  0.69009413188E+03  0.25500000920E-02 0.  1.
    10030    2    1    2    0    0  0.00000000000E+00  0.00000000000E+00  0.12263377159E+04  0.26065259797E+04  0.23000159759E+04 0.  0.
        4    1    3    3  502    0  0.94532641502E+03  0.50183765996E+03  0.13634369262E+03  0.10789227420E+04  0.12699999809E+01 0.  1.
       -4    1    3    3    0  502 -0.94532641502E+03 -0.50183765996E+03  0.10899940233E+04  0.15276032376E+04  0.12699999809E+01 0. -1.
</event>
<event>
 5   0  0.1626636E-05  0.2301331E+04  0.7818609E-02  0.8477397E-01
        2   -1    0    0  501    0  0.00000000000E+00  0.00000000000E+00  0.11758197855E+04  0.11758197855E+04  0.25500000920E-02 0.  1.
       -2   -1    0    0    0  501  0.00000000000E+00  0.00000000000E+00 -0.11260493036E+04  0.11260493036E+04  0.25500000920E-02 0. -1.
    10030    2    1    2    0    0  0.00000000000E+00  0.00000000000E+00  0.49770481914E+02  0.23018690891E+04  0.23013309633E+04 0.  0.
        4    1    3    3  502    0 -0.81429345165E+03 -0.40975716236E+03 -0.67745747564E+03  0.11357486525E+04  0.12699999809E+01 0.  1.
       -4    1    3    3    0  502  0.81429345165E+03  0.40975716236E+03  0.72722795755E+03  0.11661204366E+04  0.12699999809E+01 0. -1.
</event>
<event>
 5   0  0.1602809E-05  0.2301255E+04  0.7818609E-02  0.8477427E-01
       -2   -1    0    0    0  501  0.00000000000E+00  0.00000000000E+00  0.87449177967E+03  0.87449177968E+03  0.25500000920E-02 0.  1.
        2   -1    0    0  501    0  0.00000000000E+00  0.00000000000E+00 -0.15139574611E+04  0.15139574611E+04  0.25500000920E-02 0. -1.
    10030    2    1    2    0    0  0.00000000000E+00  0.00000000000E+00 -0.63946568145E+03  0.23884492408E+04  0.23012547486E+04 0.  0.
        3    1    3    3  502    0  0.87344727073E+03  0.42447395873E+03 -0.96025061808E+03  0.13657120985E+04  0.10100000352E+00 0. -1.
       -3    1    3    3    0  502 -0.87344727073E+03 -0.42447395873E+03  0.32078493664E+03  0.10227371423E+04  0.10100000352E+00 0.  1.
</event>
<event>
 5   0  0.7416556E-06  0.2161963E+04  0.7818609E-02  0.8534429E-01
       -1   -1    0    0    0  501  0.00000000000E+00  0.00000000000E+00  0.13179754868E+04  0.13179754868E+04  0.50400001928E-02 0. -1.
        1   -1    0    0  501    0  0.00000000000E+00  0.00000000000E+00 -0.88660291776E+03  0.88660291777E+03  0.50400001928E-02 0.  1.
    10030    2    1    2    0    0  0.00000000000E+00  0.00000000000E+00  0.43137256901E+03  0.22045784045E+04  0.21619629156E+04 0.  0.
        4    1    3    3  502    0  0.15096168697E+03  0.10453666292E+04  0.45030520786E+03  0.11481973757E+04  0.12699999809E+01 0. -1.
       -4    1    3    3    0  502 -0.15096168697E+03 -0.10453666292E+04 -0.18932638853E+02  0.10563810289E+04  0.12699999809E+01 0.  1.
</event>
<event>
 5   0  0.7202572E-06  0.2295542E+04  0.7818609E-02  0.8479681E-01
       -1   -1    0    0    0  501  0.00000000000E+00  0.00000000000E+00  0.79421086864E+03  0.79421086865E+03  0.50400001928E-02 0. -1.
        1   -1    0    0  501    0  0.00000000000E+00  0.00000000000E+00 -0.16587256949E+04  0.16587256949E+04  0.50400001928E-02 0.  1.
    10030    2    1    2    0    0  0.00000000000E+00  0.00000000000E+00 -0.86451482625E+03  0.24529365635E+04  0.22955417443E+04 0.  0.
        2    1    3    3  502    0 -0.67542707907E+03 -0.53306731643E+03  0.37944128849E+03  0.94039257463E+03  0.25500000920E-02 0. -1.
       -2    1    3    3    0  502  0.67542707907E+03  0.53306731643E+03 -0.12439561147E+04  0.15125439889E+04  0.25500000920E-02 0.  1.
</event>
<event>
 5   0  0.1602809E-05  0.2323625E+04  0.7818609E-02  0.8468664E-01
        2   -1    0    0  501    0  0.00000000000E+00  0.00000000000E+00  0.31112022379E+04  0.31112022379E+04  0.25500000920E-02 0. -1.
       -2   -1    0    0    0  501  0.00000000000E+00  0.00000000000E+00 -0.43385417883E+03  0.43385417883E+03  0.25500000920E-02 0.  1.
    10030    2    1    2    0    0  0.00000000000E+00  0.00000000000E+00  0.26773480590E+04  0.35450564167E+04  0.23236248338E+04 0.  0.
        3    1    3    3  502    0  0.34606356577E+03  0.87446014276E+03  0.23794450463E+04  0.25585541369E+04  0.10100000352E+00 0. -1.
       -3    1    3    3    0  502 -0.34606356577E+03 -0.87446014276E+03  0.29790301270E+03  0.98650227977E+03  0.10100000352E+00 0.  1.
</event>
<event>
 5   0  0.1626636E-05  0.2301463E+04  0.7818609E-02  0.8477344E-01
        2   -1    0    0  501    0  0.00000000000E+00  0.00000000000E+00  0.15362452769E+04  0.15362452769E+04  0.25500000920E-02 0.  1.
       -2   -1    0    0    0  501  0.00000000000E+00  0.00000000000E+00 -0.86196099490E+03  0.86196099490E+03  0.25500000920E-02 0. -1.
    10030    2    1    2    0    0  0.00000000000E+00  0.00000000000E+00  0.67428428201E+03  0.23982062718E+04  0.23014634538E+04 0.  0.
        4    1    3    3  502    0  0.83126423019E+03  0.87324704604E+02 -0.48702552624E+03  0.96737857147E+03  0.12699999809E+01 0.  1.
       -4    1    3    3    0  502 -0.83126423019E+03 -0.87324704604E+02  0.11613098083E+04  0.14308277003E+04  0.12699999809E+01 0. -1.
</event>
<event>
 5   0  0.1626636E-05  0.2297337E+04  0.7818609E-02  0.8478972E-01
       -2   -1    0    0    0  501  0.00000000000E+00  0.00000000000E+00  0.87729835478E+03  0.87729835478E+03  0.25500000920E-02 0. -1.
        2   -1    0    0  501    0  0.00000000000E+00  0.00000000000E+00 -0.15039808153E+04  0.15039808153E+04  0.25500000920E-02 0.  1.
    10030    2    1    2    0    0  0.00000000000E+00  0.00000000000E+00 -0.62668246047E+03  0.23812791700E+04  0.22973374979E+04 0.  0.
        4    1    3    3  502    0 -0.48620891639E+03  0.30501894108E+03  0.71800309438E+03  0.91922017016E+03  0.12699999809E+01 0. -1.
       -4    1    3    3    0  502  0.48620891639E+03 -0.30501894108E+03 -0.13446855549E+04  0.14620589999E+04  0.12699999809E+01 0.  1.
</event>
<event>
 5   0  0.7183014E-06  0.2315021E+04  0.7818609E-02  0.8472022E-01
       -1   -1    0    0    0  501  0.00000000000E+00  0.00000000000E+00  0.53867462057E+03  0.53867462059E+03  0.50400001928E-02 0.  1.
        1   -1    0    0  501    0  0.00000000000E+00  0.00000000000E+00 -0.24872732404E+04  0.24872732404E+04  0.50400001928E-02 0. -1.
    10030    2    1    2    0    0  0.00000000000E+00  0.00000000000E+00 -0.19485986198E+04  0.30259478610E+04  0.23150213555E+04 0.  0.
        3    1    3    3  502    0 -0.39489420790E+03 -0.98360158542E+03 -0.15823679013E+04  0.19045476364E+04  0.10100000352E+00 0. -1.
       -3    1    3    3    0  502  0.39489420790E+03  0.98360158542E+03 -0.36623071859E+03  0.11214002246E+04  0.10100000352E+00 0.  1.
</event>
<event>
 5   0  0.7391007E-06  0.2322667E+04  0.7818609E-02  0.8469037E-01
        1   -1    0    0  501    0  0.00000000000E+00  0.00000000000E+00  0.10320911289E+04  0.10320911290E+04  0.50400001928E-02 0. -1.
       -1   -1    0    0    0  501  0.00000000000E+00  0.00000000000E+00 -0.13067604349E+04  0.13067604349E+04  0.50400001928E-02 0.  1.
    10030    2    1    2    0    0  0.00000000000E+00  0.00000000000E+00 -0.27466930594E+03  0.23388515639E+04  0.23226673051E+04 0.  0.
        1    1    3    3  502    0 -0.21131588872E+03  0.85548048828E+03 -0.89904091141E+03  0.12588787992E+04  0.50400001928E-02 0.  1.
       -1    1    3    3    0  502  0.21131588872E+03 -0.85548048828E+03  0.62437160547E+03  0.10799727647E+04  0.50400001928E-02 0. -1.
</event>
<event>
 5   0  0.7202572E-06  0.2296070E+04  0.7818609E-02  0.8479472E-01
        1   -1    0    0  501    0  0.00000000000E+00  0.00000000000E+00  0.15522468822E+04  0.15522468822E+04  0.50400001928E-02 0. -1.
       -1   -1    0    0    0  501  0.00000000000E+00  0.00000000000E+00 -0.84908201489E+03  0.84908201490E+03  0.50400001928E-02 0.  1.
    10030    2    1    2    0    0  0.00000000000E+00  0.00000000000E+00  0.70316486727E+03  0.24013288971E+04  0.22960704783E+04 0.  0.
        2    1    3    3  502    0  0.84529299816E+03  0.76887596645E+03  0.23561923010E+03  0.11667077295E+04  0.25500000920E-02 0.  1.
       -2    1    3    3    0  502 -0.84529299816E+03 -0.76887596645E+03  0.46754563718E+03  0.12346211676E+04  0.25500000920E-02 0. -1.
</event>
<event>
 5   0  0.1588969E-05  0.2304098E+04  0.7818609E-02  0.8476307E-01
       -2   -1    0    0    0  501  0.00000000000E+00  0.00000000000E+00  0.50064176177E+03  0.50064176177E+03  0.25500000920E-02 0.  1.
        2   -1    0    0  501    0  0.00000000000E+00  0.00000000000E+00 -0.26510311359E+04  0.26510311359E+04  0.25500000920E-02 0. -1.
    10030    2    1    2    0    0  0.00000000000E+00  0.00000000000E+00 -0.21503893742E+04  0.31516728977E+04  0.23040980000E+04 0.  0.
        1    1    3    3  502    0  0.25096436147E+03 -0.74865526985E+03 -0.22226852129E+04  0.23587703109E+04  0.50400001928E-02 0. -1.
       -1    1    3    3    0  502 -0.25096436147E+03  0.74865526985E+03  0.72295838776E+02  0.79290258679E+03  0.50400001928E-02 0.  1.
</event>
<event>
 5   0  0.1626636E-05  0.2303473E+04  0.7818609E-02  0.8476553E-01
        2   -1    0    0  501    0  0.00000000000E+00  0.00000000000E+00  0.23128982957E+04  0.23128982957E+04  0.25500000920E-02 0.  1.
       -2   -1    0    0    0  501  0.00000000000E+00  0.00000000000E+00 -0.57352168454E+03  0.57352168454E+03  0.25500000920E-02 0. -1.
    10030    2    1    2    0    0  0.00000000000E+00  0.00000000000E+00  0.17393766111E+04  0.28864199802E+04  0.23034733137E+04 0.  0.
        4    1    3    3  502    0  0.58643992793E+03  0.41789801605E+03  0.19960225341E+04  0.21219467737E+04  0.12699999809E+01 0.  1.
       -4    1    3    3    0  502 -0.58643992793E+03 -0.41789801605E+03 -0.25664592292E+03  0.76447320656E+03  0.12699999809E+01 0. -1.
</event>
<event>
 5   0  0.7278815E-06  0.2287209E+04  0.7818609E-02  0.8482981E-01
       -1   -1    0    0    0  501  0.00000000000E+00  0.00000000000E+00  0.77437345107E+03  0.77437345108E+03  0.50400001928E-02 0. -1.
        1   -1    0    0  501    0  0.00000000000E+00  0.00000000000E+00 -0.16888902269E+04  0.16888902269E+04  0.50400001928E-02 0.  1.
    10030    2    1    2    0    0  0.00000000000E+00  0.00000000000E+00 -0.91451677586E+03  0.24632636780E+04  0.22872094382E+04 0.  0.
        5    1    3    3  502    0 -0.10194840748E+04  0.42015370345E+03 -0.78380117469E+03  0.13528648435E+04  0.46999998093E+01 0.  1.
       -5    1    3    3    0  502  0.10194840748E+04 -0.42015370345E+03 -0.13071560117E+03  0.11103988345E+04  0.46999998093E+01 0. -1.
</event>
<event>
 5   0  0.1588969E-05  0.2301060E+04  0.7818609E-02  0.8477503E-01
        2   -1    0    0  501    0  0.00000000000E+00  0.00000000000E+00  0.14115875287E+04  0.14115875288E+04  0.25500000920E-02 0. -1.
       -2   -1    0    0    0  501  0.00000000000E+00  0.00000000000E+00 -0.93775224247E+03  0.93775224247E+03  0.25500000920E-02 0.  1.
    10030    2    1    2    0    0  0.00000000000E+00  0.00000000000E+00  0.47383528628E+03  0.23493397712E+04  0.23010600779E+04 0.  0.
        1    1    3    3  502    0  0.10790655338E+04  0.39694065355E+03  0.19390217750E+03  0.11659941522E+04  0.50400001928E-02 0. -1.
       -1    1    3    3    0  502 -0.10790655338E+04 -0.39694065355E+03  0.27993310879E+03  0.11833456190E+04  0.50400001928E-02 0.  1.
</event>
<event>
 5   0  0.7183014E-06  0.2308715E+04  0.7818609E-02  0.8474493E-01
        1   -1    0    0  501    0  0.00000000000E+00  0.00000000000E+00  0.17631725883E+04  0.17631725883E+04  0.50400001928E-02 0.  1.
       -1   -1    0    0    0  501  0.00000000000E+00  0.00000000000E+00 -0.75576316290E+03  0.75576316291E+03  0.50400001928E-02 0. -1.
    10030    2    1    2    0    0  0.00000000000E+00  0.00000000000E+00  0.10074094254E+04  0.25189357513E+04  0.23087147005E+04 0.  0.
        3    1    3    3  502    0 -0.23773397309E+02  0.31134564123E+03  0.17162201133E+04  0.17443946716E+04  0.10100000352E+00 0.  1.
       -3    1    3    3    0  502  0.23773397309E+02 -0.31134564123E+03 -0.70881068784E+03  0.77454107970E+03  0.10100000352E+00 0. -1.
</event>
<event>
 5   0  0.5704875E-06  0.2302009E+04  0.7818609E-02  0.8477129E-01
       -3   -1    0    0    0  501  0.00000000000E+00  0.00000000000E+00  0.19733881411E+04  0.19733881437E+04  0.10100000352E+00 0. -1.
        3   -1    0    0  501    0  0.00000000000E+00  0.00000000000E+00 -0.67133850403E+03  0.67133851163E+03  0.10100000352E+00 0.  1.
    10030    2    1    2    0    0  0.00000000000E+00  0.00000000000E+00  0.13020496371E+04  0.26447266553E+04  0.23020090842E+04 0.  0.
        2    1    3    3  502    0 -0.20068405071E+03  0.11332196281E+04  0.67253806318E+03  0.13329547104E+04  0.25500000920E-02 0. -1.
       -2    1    3    3    0  502  0.20068405071E+03 -0.11332196281E+04  0.62951157388E+03  0.13117719449E+04  0.25500000920E-02 0.  1.
</event>
<event>
 5   0  0.7278815E-06  0.2313546E+04  0.7818609E-02  0.8472599E-01
       -1   -1    0    0    0  501  0.00000000000E+00  0.00000000000E+00  0.96513315505E+03  0.96513315506E+03  0.50400001928E-02 0.  1.
        1   -1    0    0  501    0  0.00000000000E+00  0.00000000000E+00 -0.13864651097E+04  0.13864651097E+04  0.50400001928E-02 0. -1.
    10030    2    1    2    0    0  0.00000000000E+00  0.00000000000E+00 -0.42133195468E+03  0.23515982648E+04  0.23135457166E+04 0.  0.
        5    1    3    3  502    0  0.12043232242E+03 -0.28642952751E+02 -0.13797032594E+04  0.13852536002E+04  0.46999998093E+01 0. -1.
       -5    1    3    3    0  502 -0.12043232242E+03  0.28642952751E+02  0.95837130471E+03  0.96634466456E+03  0.46999998093E+01 0.  1.
</event>
<event>
 5   0  0.1697855E-05  0.2298454E+04  0.7818609E-02  0.8478531E-01
       -2   -1    0    0    0  501  0.00000000000E+00  0.00000000000E+00  0.58379056193E+03  0.58379056194E+03  0.25500000920E-02 0. -1.
        2   -1    0    0  501    0  0.00000000000E+00  0.00000000000E+00 -0.22623219321E+04  0.22623219321E+04  0.25500000920E-02 0.  1.
    10030    2    1    2    0    0  0.00000000000E+00  0.00000000000E+00 -0.16785313701E+04  0.28461124940E+04  0.22984535601E+04 0.  0.
        5    1    3    3  502    0 -0.25013943545E+03  0.20190401680E+03  0.52697356505E+03  0.61729911504E+03  0.46999998093E+01 0. -1.
       -5    1    3    3    0  502  0.25013943545E+03 -0.20190401680E+03 -0.22055049352E+04  0.22288133790E+04  0.46999998093E+01 0.  1.
</event>
<event>
 5   0  0.1697855E-05  0.2318575E+04  0.7818609E-02  0.8470633E-01
       -2   -1    0    0    0  501  0.00000000000E+00  0.00000000000E+00  0.10671355324E+04  0.10671355324E+04  0.25500000920E-02 0.  1.
        2   -1    0    0  501    0  0.00000000000E+00  0.00000000000E+00 -0.12593973531E+04  0.12593973531E+04  0.25500000920E-02 0. -1.
    10030    2    1    2    0    0  0.00000000000E+00  0.00000000000E+00 -0.19226182071E+03  0.23265328854E+04  0.23185751356E+04 0.  0.
        5    1    3    3  502    0 -0.39510773707E+03 -0.72172453442E+03  0.72332929942E+03  0.10955472573E+04  0.46999998093E+01 0.  1.
       -5    1    3    3    0  502  0.39510773707E+03  0.72172453442E+03 -0.91559112013E+03  0.12309856282E+04  0.46999998093E+01 0. -1.
</event>
<event>
 5   0  0.1626636E-05  0.2298188E+04  0.7818609E-02  0.8478636E-01
        2   -1    0    0  501    0  0.00000000000E+00  0.00000000000E+00  0.11017097238E+04  0.11017097238E+04  0.25500000920E-02 0. -1.
       -2   -1    0    0    0  501  0.00000000000E+00  0.00000000000E+00 -0.11985160973E+04  0.11985160973E+04  0.25500000920E-02 0.  1.
    10030    2    1    2    0    0  0.00000000000E+00  0.00000000000E+00 -0.96806373569E+02  0.23002258211E+04  0.22981878414E+04 0.  0.
        4    1    3    3  502    0  0.42220085485E+03  0.88071108564E+03  0.55753407085E+03  0.11246116802E+04  0.12699999809E+01 0. -1.
       -4    1    3    3    0  502 -0.42220085485E+03 -0.88071108564E+03 -0.65434044442E+03  0.11756141409E+04  0.12699999809E+01 0.  1.
</event>
<event>
 5   0  0.7391007E-06  0.2306675E+04  0.7818609E-02  0.8475294E-01
       -1   -1    0    0    0  501  0.00000000000E+00  0.00000000000E+00  0.19693061004E+04  0.19693061004E+04  0.50400001928E-02 0.  1.
        1   -1    0    0  501    0  0.00000000000E+00  0.00000000000E+00 -0.67546014546E+03  0.67546014548E+03  0.50400001928E-02 0. -1.
    10030    2    1    2    0    0  0.00000000000E+00  0.00000000000E+00  0.12938459549E+04  0.26447662458E+04  0.23066753435E+04 0.  0.
        1    1    3    3  502    0  0.30702941037E+03  0.38021577821E+03 -0.55087665996E+03  0.73640762581E+03  0.50400001928E-02 0. -1.
       -1    1    3    3    0  502 -0.30702941037E+03 -0.38021577821E+03  0.18447226149E+04  0.19083586200E+04  0.50400001928E-02 0.  1.
</event>
<event>
 5   0  0.1697855E-05  0.2314115E+04  0.7818609E-02  0.8472376E-01
       -2   -1    0    0    0  501  0.00000000000E+00  0.00000000000E+00  0.10421707566E+04  0.10421707566E+04  0.25500000920E-02 0.  1.
        2   -1    0    0  501    0  0.00000000000E+00  0.00000000000E+00 -0.12846092153E+04  0.12846092153E+04  0.25500000920E-02 0. -1.
    10030    2    1    2    0    0  0.00000000000E+00  0.00000000000E+00 -0.24243845866E+03  0.23267799719E+04  0.23141150861E+04 0.  0.
        5    1    3    3  502    0  0.54354500670E+03  0.57495654569E+03 -0.97008125762E+03  0.12518370262E+04  0.46999998093E+01 0. -1.
       -5    1    3    3    0  502 -0.54354500670E+03 -0.57495654569E+03  0.72764279897E+03  0.10749429458E+04  0.46999998093E+01 0.  1.
</event>
<event>
 5   0  0.7278815E-06  0.2300948E+04  0.7818609E-02  0.8477547E-01
        1   -1    0    0  501    0  0.00000000000E+00  0.00000000000E+00  0.89270848377E+03  0.89270848378E+03  0.50400001928E-02 0. -1.
       -1   -1    0    0    0  501  0.00000000000E+00  0.00000000000E+00 -0.14826685729E+04  0.14826685729E+04  0.50400001928E-02 0.  1.
    10030    2    1    2    0    0  0.00000000000E+00  0.00000000000E+00 -0.58996008913E+03  0.23753770567E+04  0.23009483381E+04 0.  0.
        5    1    3    3  502    0 -0.42946896564E+03  0.58030126041E+03 -0.12197091785E+04  0.14173587109E+04  0.46999998093E+01 0.  1.
       -5    1    3    3    0  502  0.42946896564E+03 -0.58030126041E+03  0.62974908937E+03  0.95801834577E+03  0.46999998093E+01 0. -1.
</event>
<event>
 5   0  0.1602809E-05  0.2292773E+04  0.7818609E-02  0.8480776E-01
        2   -1    0    0  501    0  0.00000000000E+00  0.00000000000E+00  0.64525374939E+03  0.64525374940E+03  0.25500000920E-02 0.  1.
       -2   -1    0    0    0  501  0.00000000000E+00  0.00000000000E+00 -0.20367206786E+04  0.20367206786E+04  0.25500000920E-02 0. -1.
    10030    2    1    2    0    0  0.00000000000E+00  0.00000000000E+00 -0.13914669292E+04  0.26819744280E+04  0.22927726921E+04 0.  0.
        3    1    3    3  502    0 -0.72492378983E+03 -0.43464955497E+03 -0.16016431065E+04  0.18109929286E+04  0.10100000352E+00 0.  1.
       -3    1    3    3    0  502  0.72492378983E+03  0.43464955497E+03  0.21017617723E+03  0.87098149944E+03  0.10100000352E+00 0. -1.
</event>
<event>
 5   0  0.1697855E-05  0.2294110E+04  0.7818609E-02  0.8480247E-01
        2   -1    0    0  501    0  0.00000000000E+00  0.00000000000E+00  0.16142803753E+04  0.16142803753E+04  0.25500000920E-02 0. -1.
       -2   -1    0    0    0  501  0.00000000000E+00  0.00000000000E+00 -0.81505961602E+03  0.81505961602E+03  0.25500000920E-02 0.  1.
    10030    2    1    2    0    0  0.00000000000E+00  0.00000000000E+00  0.79922075927E+03  0.24293399913E+04  0.22941096250E+04 0.  0.
        5    1    3    3  502    0 -0.10462165699E+04  0.39023328008E+03  0.12172706999E+03  0.11232500583E+04  0.46999998093E+01 0.  1.
       -5    1    3    3    0  502  0.10462165699E+04 -0.39023328008E+03  0.67749368929E+03  0.13060899330E+04  0.46999998093E+01 0. -1.
</event>
<event>
 5   0  0.7416556E-06  0.2307889E+04  0.7818609E-02  0.8474817E-01
        1   -1    0    0  501    0  0.00000000000E+00  0.00000000000E+00  0.12792753363E+04  0.12792753363E+04  0.50400001928E-02 0. -1.
       -1   -1    0    0    0  501  0.00000000000E+00  0.00000000000E+00 -0.10408924207E+04  0.10408924207E+04  0.50400001928E-02 0.  1.
    10030    2    1    2    0    0  0.00000000000E+00  0.00000000000E+00  0.23838291561E+03  0.23201677571E+04  0.23078890802E+04 0.  0.
        4    1    3    3  502    0 -0.82871664793E+03  0.22870244636E+03  0.89303365175E+03  0.12395913873E+04  0.12699999809E+01 0. -1.
       -4    1    3    3    0  502  0.82871664793E+03 -0.22870244636E+03 -0.65465073614E+03  0.10805763697E+04  0.12699999809E+01 0.  1.
</event>
<event>
 5   0  0.1602809E-05  0.2330300E+04  0.7818609E-02  0.8466069E-01
       -2   -1    0    0    0  501  0.00000000000E+00  0.00000000000E+00  0.99003695481E+03  0.99003695481E+03  0.25500000920E-02 0. -1.
        2   -1    0    0  501    0  0.00000000000E+00  0.00000000000E+00 -0.13712365985E+04  0.13712365985E+04  0.25500000920E-02 0.  1.
    10030    2    1    2    0    0  0.00000000000E+00  0.00000000000E+00 -0.38119964372E+03  0.23612735533E+04  0.23303003294E+04 0.  0.
        3    1    3    3  502    0 -0.71149627973E+03 -0.88495917960E+03  0.74013241087E+02  0.11379181322E+04  0.10100000352E+00 0. -1.
       -3    1    3    3    0  502  0.71149627973E+03  0.88495917960E+03 -0.45521288481E+03  0.12233554211E+04  0.10100000352E+00 0.  1.
</event>
<event>
 5   0  0.1635955E-05  0.2293110E+04  0.7818609E-02  0.8480643E-01
        2   -1    0    0  501    0  0.00000000000E+00  0.00000000000E+00  0.10003369464E+04  0.10003369464E+04  0.25500000920E-02 0.  1.
       -2   -1    0    0    0  501  0.00000000000E+00  0.00000000000E+00 -0.13141458013E+04  0.13141458013E+04  0.25500000920E-02 0. -1.
    10030    2    1    2    0    0  0.00000000000E+00  0.00000000000E+00 -0.31380885497E+03  0.23144827477E+04  0.22931102006E+04 0.  0.
        2    1    3    3  502    0 -0.46812601552E+03 -0.10433128640E+04 -0.72791644425E+02  0.11458369526E+04  0.25500000920E-02 0.  1.
       -2    1    3    3    0  502  0.46812601552E+03  0.10433128640E+04 -0.24101721054E+03  0.11686457951E+04  0.25500000920E-02 0. -1.
</event>
<event>
 5   0  0.1626636E-05  0.2289219E+04  0.7818609E-02  0.8482184E-01
       -2   -1    0    0    0  501  0.00000000000E+00  0.00000000000E+00  0.14659603983E+04  0.14659603983E+04  0.25500000920E-02 0. -1.
        2   -1    0    0  501    0  0.00000000000E+00  0.00000000000E+00 -0.89370111483E+03  0.89370111483E+03  0.25500000920E-02 0.  1.
    10030    2    1    2    0    0  0.00000000000E+00  0.00000000000E+00  0.57225928346E+03  0.23596615131E+04  0.22892185935E+04 0.  0.
        4    1    3    3  502    0 -0.57236319035E+03  0.98076324486E+03  0.13806883542E+03  0.11439234154E+04  0.12699999809E+01 0.  1.
       -4    1    3    3    0  502  0.57236319035E+03 -0.98076324486E+03  0.43419044804E+03  0.12157380977E+04  0.12699999809E+01 0. -1.
</event>
<event>
 5   0  0.1602809E-05  0.2294467E+04  0.7818609E-02  0.8480106E-01
        2   -1    0    0  501    0  0.00000000000E+00  0.00000000000E+00  0.88442167679E+03  0.88442167679E+03  0.25500000920E-02 0. -1.
       -2   -1    0    0    0  501  0.00000000000E+00  0.00000000000E+00 -0.14881421234E+04  0.14881421234E+04  0.25500000920E-02 0.  1.
    10030    2    1    2    0    0  0.00000000000E+00  0.00000000000E+00 -0.60372044657E+03  0.23725638002E+04  0.22944673910E+04 0.  0.
        3    1    3    3  502    0  0.36376203178E+03 -0.44984991843E+02  0.82224705451E+03  0.90024257515E+03  0.10100000352E+00 0. -1.
       -3    1    3    3    0  502 -0.36376203178E+03  0.44984991843E+02 -0.14259675011E+04  0.14723212250E+04  0.10100000352E+00 0.  1.
</event>
<event>
 5   0  0.1588969E-05  0.2297647E+04  0.7818609E-02  0.8478849E-01
       -2   -1    0    0    0  501  0.00000000000E+00  0.00000000000E+00  0.10758157219E+04  0.10758157219E+04  0.25500000920E-02 0.  1.
        2   -1    0    0  501    0  0.00000000000E+00  0.00000000000E+00 -0.12267857305E+04  0.12267857305E+04  0.25500000920E-02 0. -1.
    10030    2    1    2    0    0  0.00000000000E+00  0.00000000000E+00 -0.15097000861E+03  0.23026014524E+04  0.22976469497E+04 0.  0.
        1    1    3    3  502    0 -0.10560034872E+04 -0.41320693634E+03  0.10906430727E+03  0.11392007551E+04  0.50400001928E-02 0.  1.
       -1    1    3    3    0  502  0.10560034872E+04  0.41320693634E+03 -0.26003431588E+03  0.11634006974E+04  0.50400001928E-02 0. -1.
</event>
<event>
 5   0  0.1588969E-05  0.2294467E+04  0.7818609E-02  0.8480106E-01
       -2   -1    0    0    0  501  0.00000000000E+00  0.00000000000E+00  0.61539352042E+03  0.61539352043E+03  0.25500000920E-02 0.  1.
        2   -1    0    0  501    0  0.00000000000E+00  0.00000000000E+00 -0.21387042918E+04  0.21387042918E+04  0.25500000920E-02 0. -1.
    10030    2    1    2    0    0  0.00000000000E+00  0.00000000000E+00 -0.15233107713E+04  0.27540978122E+04  0.22944670521E+04 0.  0.
        1    1    3    3  502    0 -0.98086210486E+03  0.55443850835E+03 -0.10209143379E+04  0.15204468467E+04  0.50400001928E-02 0.  1.
       -1    1    3    3    0  502  0.98086210486E+03 -0.55443850835E+03 -0.50239643346E+03  0.12336509655E+04  0.50400001928E-02 0. -1.
</event>
<event>
 5   0  0.7391007E-06  0.2300515E+04  0.7818609E-02  0.8477718E-01
        1   -1    0    0  501    0  0.00000000000E+00  0.00000000000E+00  0.13913960001E+04  0.13913960001E+04  0.50400001928E-02 0. -1.
       -1   -1    0    0    0  501  0.00000000000E+00  0.00000000000E+00 -0.95090997053E+03  0.95090997055E+03  0.50400001928E-02 0.  1.
    10030    2    1    2    0    0  0.00000000000E+00  0.00000000000E+00  0.44048602954E+03  0.23423059706E+04  0.23005150114E+04 0.  0.
        1    1    3    3  502    0  0.49108551420E+03 -0.38529172673E+03 -0.76347474475E+03  0.98615839643E+03  0.50400001928E-02 0.  1.
       -1    1    3    3    0  502 -0.49108551420E+03  0.38529172673E+03  0.12039607743E+04  0.13561475742E+04  0.50400001928E-02 0. -1.
</event>
<event>
 5   0  0.7202572E-06  0.2307397E+04  0.7818609E-02  0.8475010E-01
        1   -1    0    0  501    0  0.00000000000E+00  0.00000000000E+00  0.14260754461E+04  0.14260754461E+04  0.50400001928E-02 0.  1.
       -1   -1    0    0    0  501  0.00000000000E+00  0.00000000000E+00 -0.93334461161E+03  0.93334461163E+03  0.50400001928E-02 0. -1.
    10030    2    1    2    0    0  0.00000000000E+00  0.00000000000E+00  0.49273083453E+03  0.23594200578E+04  0.23073966572E+04 0.  0.
        2    1    3    3  502    0 -0.30270140547E+02 -0.11173016866E+04 -0.45983597404E+02  0.11186571555E+04  0.25500000920E-02 0. -1.
       -2    1    3    3    0  502  0.30270140547E+02  0.11173016866E+04  0.53871443193E+03  0.12407629022E+04  0.25500000920E-02 0.  1.
</event>
<event>
 5   0  0.1588969E-05  0.2304192E+04  0.7818609E-02  0.8476270E-01
       -2   -1    0    0    0  501  0.00000000000E+00  0.00000000000E+00  0.82242310582E+03  0.82242310582E+03  0.25500000920E-02 0.  1.
        2   -1    0    0  501    0  0.00000000000E+00  0.00000000000E+00 -0.16139203387E+04  0.16139203387E+04  0.25500000920E-02 0. -1.
    10030    2    1    2    0    0  0.00000000000E+00  0.00000000000E+00 -0.79149723293E+03  0.24363434446E+04  0.23041921600E+04 0.  0.
        1    1    3    3  502    0  0.40244770129E+03 -0.63723541379E+03  0.52560066030E+03  0.91885209855E+03  0.50400001928E-02 0.  1.
       -1    1    3    3    0  502 -0.40244770129E+03  0.63723541379E+03 -0.13170978932E+04  0.15174913460E+04  0.50400001928E-02 0. -1.
</event>
<event>
 5   0  0.7278815E-06  0.2324392E+04  0.7818609E-02  0.8468365E-01
        1   -1    0    0  501    0  0.00000000000E+00  0.00000000000E+00  0.13968501916E+04  0.13968501916E+04  0.50400001928E-02 0. -1.
       -1   -1    0    0    0  501  0.00000000000E+00  0.00000000000E+00 -0.96696069340E+03  0.96696069342E+03  0.50400001928E-02 0.  1.
    10030    2    1    2    0    0  0.00000000000E+00  0.00000000000E+00  0.42988949823E+03  0.23638108851E+04  0.23243917311E+04 0.  0.
        5    1    3    3  502    0 -0.75830778083E+03 -0.55988900878E+03 -0.47641586264E+03  0.10561725980E+04  0.46999998093E+01 0.  1.
       -5    1    3    3    0  502  0.75830778083E+03  0.55988900878E+03  0.90630536087E+03  0.13076382871E+04  0.46999998093E+01 0. -1.
</event>
<event>
 5   0  0.1697855E-05  0.2304351E+04  0.7818609E-02  0.8476207E-01
        2   -1    0    0  501    0  0.00000000000E+00  0.00000000000E+00  0.12865124157E+04  0.12865124157E+04  0.25500000920E-02 0. -1.
       -2   -1    0    0    0  501  0.00000000000E+00  0.00000000000E+00 -0.10318662713E+04  0.10318662713E+04  0.25500000920E-02 0.  1.
    10030    2    1    2    0    0  0.00000000000E+00  0.00000000000E+00  0.25464614446E+03  0.23183786870E+04  0.23043513355E+04 0.  0.
        5    1    3    3  502    0 -0.88246540643E+03  0.66084827473E+03 -0.20940977916E+03  0.11222032710E+04  0.46999998093E+01 0.  1.
       -5    1    3    3    0  502  0.88246540643E+03 -0.66084827473E+03  0.46405592362E+03  0.11961754161E+04  0.46999998093E+01 0. -1.
</event>
<event>
 5   0  0.7183014E-06  0.2291991E+04  0.7818609E-02  0.8481086E-01
        1   -1    0    0  501    0  0.00000000000E+00  0.00000000000E+00  0.17407136136E+04  0.17407136136E+04  0.50400001928E-02 0. -1.
       -1   -1    0    0    0  501  0.00000000000E+00  0.00000000000E+00 -0.75446376693E+03  0.75446376695E+03  0.50400001928E-02 0.  1.
    10030    2    1    2    0    0  0.00000000000E+00  0.00000000000E+00  0.98624984663E+03  0.24951773805E+04  0.22919907068E+04 0.  0.
        3    1    3    3  502    0  0.22776024776E+03 -0.61609017498E+03  0.15154505740E+04  0.16516755997E+04  0.10100000352E+00 0. -1.
       -3    1    3    3    0  502 -0.22776024776E+03  0.61609017498E+03 -0.52920072739E+03  0.84350178081E+03  0.10100000352E+00 0.  1.
</event>
<event>
 5   0  0.1635955E-05  0.2305280E+04  0.7818609E-02  0.8475842E-01
        2   -1    0    0  501    0  0.00000000000E+00  0.00000000000E+00  0.83289133964E+03  0.83289133965E+03  0.25500000920E-02 0. -1.
       -2   -1    0    0    0  501  0.00000000000E+00  0.00000000000E+00 -0.15951406015E+04  0.15951406015E+04  0.25500000920E-02 0.  1.
    10030    2    1    2    0    0  0.00000000000E+00  0.00000000000E+00 -0.76224926181E+03  0.24280319411E+04  0.23052798463E+04 0.  0.
        2    1    3    3  502    0  0.28074423896E+03 -0.61836983094E+03 -0.13620489426E+04  0.15219644863E+04  0.25500000920E-02 0.  1.
       -2    1    3    3    0  502 -0.28074423896E+03  0.61836983094E+03  0.59979968081E+03  0.90606745479E+03  0.25500000920E-02 0. -1.
</event>
<event>
 5   0  0.7416556E-06  0.2294178E+04  0.7818609E-02  0.8480220E-01
       -1   -1    0    0    0  501  0.00000000000E+00  0.00000000000E+00  0.10249225895E+04  0.10249225895E+04  0.50400001928E-02 0.  1.
        1   -1    0    0  501    0  0.00000000000E+00  0.00000000000E+00 -0.12838173885E+04  0.12838173885E+04  0.50400001928E-02 0. -1.
    10030    2    1    2    0    0  0.00000000000E+00  0.00000000000E+00 -0.25889479900E+03  0.23087399781E+04  0.22941782340E+04 0.  0.
        4    1    3    3  502    0 -0.80549395720E+03 -0.75498081540E+03  0.18397005192E+03  0.11192243473E+04  0.12699999809E+01 0.  1.
       -4    1    3    3    0  502  0.80549395720E+03  0.75498081540E+03 -0.44286485092E+03  0.11895156307E+04  0.12699999809E+01 0. -1.
</event>
<event>
 5   0  0.7278815E-06  0.2306707E+04  0.7818609E-02  0.8475281E-01
       -1   -1    0    0    0  501  0.00000000000E+00  0.00000000000E+00  0.13927438447E+04  0.13927438447E+04  0.50400001928E-02 0.  1.
        1   -1    0    0  501    0  0.00000000000E+00  0.00000000000E+00 -0.95511079051E+03  0.95511079052E+03  0.50400001928E-02 0. -1.
    10030    2    1    2    0    0  0.00000000000E+00  0.00000000000E+00  0.43763305418E+03  0.23478546352E+04  0.23067073282E+04 0.  0.
        5    1    3    3  502    0  0.67162652419E+03  0.18423688863E+03  0.11545509080E+04  0.13483453965E+04  0.46999998093E+01 0.  1.
       -5    1    3    3    0  502 -0.67162652419E+03 -0.18423688863E+03 -0.71691785383E+03  0.99950923871E+03  0.46999998093E+01 0. -1.
</event>
<event>
 5   0  0.7391007E-06  0.2301358E+04  0.7818609E-02  0.8477386E-01
        1   -1    0    0  501    0  0.00000000000E+00  0.00000000000E+00  0.20238697017E+04  0.20238697017E+04  0.50400001928E-02 0.  1.
       -1   -1    0    0    0  501  0.00000000000E+00  0.00000000000E+00 -0.65422326816E+03  0.65422326818E+03  0.50400001928E-02 0. -1.
    10030    2    1    2    0    0  0.00000000000E+00  0.00000000000E+00  0.13696464335E+04  0.26780929699E+04  0.23013584255E+04 0.  0.
        1    1    3    3  502    0 -0.50281224914E+03  0.82069814053E+03  0.14186905793E+04  0.17143653507E+04  0.50400001928E-02 0.  1.
       -1    1    3    3    0  502  0.50281224914E+03 -0.82069814053E+03 -0.49044145763E+02  0.96372761921E+03  0.50400001928E-02 0. -1.
</event>
<event>
 5   0  0.7202572E-06  0.2292313E+04  0.7818609E-02  0.8480958E-01
       -1   -1    0    0    0  501  0.00000000000E+00  0.00000000000E+00  0.48893040456E+03  0.48893040459E+03  0.50400001928E-02 0.  1.
        1   -1    0    0  501    0  0.00000000000E+00  0.00000000000E+00 -0.26868330390E+04  0.26868330390E+04  0.50400001928E-02 0. -1.
    10030    2    1    2    0    0  0.00000000000E+00  0.00000000000E+00 -0.21979026344E+04  0.31757634436E+04  0.22923126879E+04 0.  0.
        2    1    3    3  502    0 -0.63988361391E+03 -0.88510257819E+03 -0.61740522356E+03  0.12546102277E+04  0.25500000920E-02 0.  1.
       -2    1    3    3    0  502  0.63988361391E+03  0.88510257819E+03 -0.15804974108E+04  0.19211532159E+04  0.25500000920E-02 0. -1.
</event>
<event>
 5   0  0.1602809E-05  0.2294111E+04  0.7818609E-02  0.8480247E-01
        2   -1    0    0  501    0  0.00000000000E+00  0.00000000000E+00  0.14284416916E+04  0.14284416916E+04  0.25500000920E-02 0. -1.
       -2   -1    0    0    0  501  0.00000000000E+00  0.00000000000E+00 -0.92109897224E+03  0.92109897224E+03  0.25500000920E-02 0.  1.
    10030    2    1    2    0    0  0.00000000000E+00  0.00000000000E+00  0.50734271935E+03  0.23495406638E+04  0.22941108727E+04 0.  0.
        3    1    3    3  502    0  0.98464935928E+03  0.58507695260E+03  0.31752160526E+03  0.11885576895E+04  0.10100000352E+00 0.  1.
       -3    1    3    3    0  502 -0.98464935928E+03 -0.58507695260E+03  0.18982111409E+03  0.11609829744E+04  0.10100000352E+00 0. -1.
</event>
<event>
 5   0  0.1588969E-05  0.2287585E+04  0.7818609E-02  0.8482832E-01
       -2   -1    0    0    0  501  0.00000000000E+00  0.00000000000E+00  0.49959574566E+03  0.49959574567E+03  0.25500000920E-02 0.  1.
        2   -1    0    0  501    0  0.00000000000E+00  0.00000000000E+00 -0.26186405881E+04  0.26186405881E+04  0.25500000920E-02 0. -1.
    10030    2    1    2    0    0  0.00000000000E+00  0.00000000000E+00 -0.21190448424E+04  0.31182363338E+04  0.22875853621E+04 0.  0.
        1    1    3    3  502    0  0.94947828210E+03 -0.62000607302E+03 -0.12632845354E+04  0.16975878051E+04  0.50400001928E-02 0. -1.
       -1    1    3    3    0  502 -0.94947828210E+03  0.62000607302E+03 -0.85576030704E+03  0.14206485286E+04  0.50400001928E-02 0.  1.
</event>
<event>
 5   0  0.7202572E-06  0.2286159E+04  0.7818609E-02  0.8483398E-01
        1   -1    0    0  501    0  0.00000000000E+00  0.00000000000E+00  0.14737093279E+04  0.14737093279E+04  0.50400001928E-02 0.  1.
       -1   -1    0    0    0  501  0.00000000000E+00  0.00000000000E+00 -0.88662742056E+03  0.88662742057E+03  0.50400001928E-02 0. -1.
    10030    2    1    2    0    0  0.00000000000E+00  0.00000000000E+00  0.58708190737E+03  0.23603367485E+04  0.22861593121E+04 0.  0.
        2    1    3    3  502    0 -0.93047446382E+03  0.10856961216E+03  0.96982166860E+03  0.13483783436E+04  0.25500000920E-02 0.  1.
       -2    1    3    3    0  502  0.93047446382E+03 -0.10856961216E+03 -0.38273976123E+03  0.10119584049E+04  0.25500000920E-02 0. -1.
</event>
<event>
 5   0  0.7416556E-06  0.2293671E+04  0.7818609E-02  0.8480421E-01
        1   -1    0    0  501    0  0.00000000000E+00  0.00000000000E+00  0.26942013890E+04  0.26942013890E+04  0.50400001928E-02 0. -1.
       -1   -1    0    0    0  501  0.00000000000E+00  0.00000000000E+00 -0.48817132800E+03  0.48817132803E+03  0.50400001928E-02 0.  1.
    10030    2    1    2    0    0  0.00000000000E+00  0.00000000000E+00  0.22060300610E+04  0.31823727170E+04  0.22936711796E+04 0.  0.
        4    1    3    3  502    0  0.35739899047E+02  0.51468658266E+03 -0.31806360754E+03  0.60609049662E+03  0.12699999809E+01 0.  1.
       -4    1    3    3    0  502 -0.35739899047E+02 -0.51468658266E+03  0.25240936685E+04  0.25762822204E+04  0.12699999809E+01 0. -1.
</event>
<event>
 5   0  0.7183014E-06  0.2295973E+04  0.7818609E-02  0.8479511E-01
        1   -1    0    0  501    0  0.00000000000E+00  0.00000000000E+00  0.68335566210E+03  0.68335566212E+03  0.50400001928E-02 0. -1.
       -1   -1    0    0    0  501  0.00000000000E+00  0.00000000000E+00 -0.19285315722E+04  0.19285315722E+04  0.50400001928E-02 0.  1.
    10030    2    1    2    0    0  0.00000000000E+00  0.00000000000E+00 -0.12451759101E+04  0.26118872343E+04  0.22959729697E+04 0.  0.
        3    1    3    3  502    0  0.45631444356E+02 -0.11419211158E+04 -0.74619849869E+03  0.13648729879E+04  0.10100000352E+00 0.  1.
       -3    1    3    3    0  502 -0.45631444356E+02  0.11419211158E+04 -0.49897741141E+03  0.12470142464E+04  0.10100000352E+00 0. -1.
</event>
<event>
 5   0  0.7416556E-06  0.2298474E+04  0.7818609E-02  0.8478523E-01
        1   -1    0    0  501    0  0.00000000000E+00  0.00000000000E+00  0.90039607992E+03  0.90039607994E+03  0.50400001928E-02 0.  1.
       -1   -1    0    0    0  501  0.00000000000E+00  0.00000000000E+00 -0.14668499176E+04  0.14668499176E+04  0.50400001928E-02 0. -1.
    10030    2    1    2    0    0  0.00000000000E+00  0.00000000000E+00 -0.56645383767E+03  0.23672459975E+04  0.22984742032E+04 0.  0.
        4    1    3    3  502    0  0.92783525546E+03  0.51797625441E+03  0.16755210589E+03  0.10757569347E+04  0.12699999809E+01 0.  1.
       -4    1    3    3    0  502 -0.92783525546E+03 -0.51797625441E+03 -0.73400594356E+03  0.12914890629E+04  0.12699999809E+01 0. -1.
</event>
<event>
 5   0  0.1635955E-05  0.2340095E+04  0.7818609E-02  0.8462278E-01
       -2   -1    0    0    0  501  0.00000000000E+00  0.00000000000E+00  0.17619671903E+04  0.17619671903E+04  0.25500000920E-02 0.  1.
        2   -1    0    0  501    0  0.00000000000E+00  0.00000000000E+00 -0.77697862588E+03  0.77697862589E+03  0.25500000920E-02 0. -1.
    10030    2    1    2    0    0  0.00000000000E+00  0.00000000000E+00  0.98498856445E+03  0.25389458162E+04  0.23400947386E+04 0.  0.
        2    1    3    3  502    0 -0.77921772392E+03 -0.19731707044E+03 -0.42998807996E+03  0.91159422797E+03  0.25500000920E-02 0. -1.
       -2    1    3    3    0  502  0.77921772392E+03  0.19731707044E+03  0.14149766444E+04  0.16273515882E+04  0.25500000920E-02 0.  1.
</event>
<event>
 5   0  0.1588969E-05  0.2295829E+04  0.7818609E-02  0.8479568E-01
       -2   -1    0    0    0  501  0.00000000000E+00  0.00000000000E+00  0.11111158637E+04  0.11111158637E+04  0.25500000920E-02 0. -1.
        2   -1    0    0  501    0  0.00000000000E+00  0.00000000000E+00 -0.11859315379E+04  0.11859315379E+04  0.25500000920E-02 0.  1.
    10030    2    1    2    0    0  0.00000000000E+00  0.00000000000E+00 -0.74815674193E+02  0.22970474015E+04  0.22958286913E+04 0.  0.
        1    1    3    3  502    0  0.86702326712E+03  0.62187678448E+03  0.38619293805E+03  0.11347268686E+04  0.50400001928E-02 0. -1.
       -1    1    3    3    0  502 -0.86702326712E+03 -0.62187678448E+03 -0.46100861224E+03  0.11623205330E+04  0.50400001928E-02 0.  1.
</event>
<event>
 5   0  0.7391007E-06  0.2302075E+04  0.7818609E-02  0.8477104E-01
       -1   -1    0    0    0  501  0.00000000000E+00  0.00000000000E+00  0.10395043010E+04  0.10395043010E+04  0.50400001928E-02 0.  1.
        1   -1    0    0  501    0  0.00000000000E+00  0.00000000000E+00 -0.12745373436E+04  0.12745373436E+04  0.50400001928E-02 0. -1.
    10030    2    1    2    0    0  0.00000000000E+00  0.00000000000E+00 -0.23503304260E+03  0.23140416446E+04  0.23020747603E+04 0.  0.
        1    1    3    3  502    0  0.55439691724E+03  0.10753701048E+02  0.89639700027E+03  0.10540394518E+04  0.50400001928E-02 0.  1.
       -1    1    3    3    0  502 -0.55439691724E+03 -0.10753701048E+02 -0.11314300429E+04  0.12600021928E+04  0.50400001928E-02 0. -1.
</event>
<event>
 5   0  0.1635955E-05  0.2318007E+04  0.7818609E-02  0.8470855E-01
        2   -1    0    0  501    0  0.00000000000E+00  0.00000000000E+00  0.14237459281E+04  0.14237459281E+04  0.25500000920E-02 0. -1.
       -2   -1    0    0    0  501  0.00000000000E+00  0.00000000000E+00 -0.94348950885E+03  0.94348950886E+03  0.25500000920E-02 0.  1.
    10030    2    1    2    0    0  0.00000000000E+00  0.00000000000E+00  0.48025641925E+03  0.23672354370E+04  0.23180072014E+04 0.  0.
        2    1    3    3  502    0  0.36512124922E+03 -0.92063327722E+02  0.13595366824E+04  0.14107193816E+04  0.25500000920E-02 0. -1.
       -2    1    3    3    0  502 -0.36512124922E+03  0.92063327722E+02 -0.87928026314E+03  0.95651605533E+03  0.25500000920E-02 0.  1.
</event>
<event>
 5   0  0.7183014E-06  0.2302190E+04  0.7818609E-02  0.8477058E-01
       -1   -1    0    0    0  501  0.00000000000E+00  0.00000000000E+00  0.10462185778E+04  0.10462185778E+04  0.50400001928E-02 0. -1.
        1   -1    0    0  501    0  0.00000000000E+00  0.00000000000E+00 -0.12664849555E+04  0.12664849555E+04  0.50400001928E-02 0.  1.
    10030    2    1    2    0    0  0.00000000000E+00  0.00000000000E+00 -0.22026637768E+03  0.23127035334E+04  0.23021903388E+04 0.  0.
        3    1    3    3  502    0  0.47620142965E+03  0.10226877232E+04  0.11973943699E+03  0.11344582512E+04  0.10100000352E+00 0. -1.
       -3    1    3    3    0  502 -0.47620142965E+03 -0.10226877232E+04 -0.34000581467E+03  0.11782452822E+04  0.10100000352E+00 0.  1.
</event>
<event>
 5   0  0.1588969E-05  0.2304325E+04  0.7818609E-02  0.8476218E-01
       -2   -1    0    0    0  501  0.00000000000E+00  0.00000000000E+00  0.81614665649E+03  0.81614665649E+03  0.25500000920E-02 0.  1.
        2   -1    0    0  501    0  0.00000000000E+00  0.00000000000E+00 -0.16265194151E+04  0.16265194151E+04  0.25500000920E-02 0. -1.
    10030    2    1    2    0    0  0.00000000000E+00  0.00000000000E+00 -0.81037275865E+03  0.24426660716E+04  0.23043249618E+04 0.  0.
        1    1    3    3  502    0  0.64258952747E+03 -0.93341120759E+03 -0.62576698674E+03  0.12945123039E+04  0.50400001928E-02 0.  1.
       -1    1    3    3    0  502 -0.64258952747E+03  0.93341120759E+03 -0.18460577191E+03  0.11481537677E+04  0.50400001928E-02 0. -1.
</event>
<event>
 5   0  0.7183014E-06  0.2293379E+04  0.7818609E-02  0.8480536E-01
       -1   -1    0    0    0  501  0.00000000000E+00  0.00000000000E+00  0.15500184976E+04  0.15500184977E+04  0.50400001928E-02 0.  1.
        1   -1    0    0  501    0  0.00000000000E+00  0.00000000000E+00 -0.84831028155E+03  0.84831028156E+03  0.50400001928E-02 0. -1.
    10030    2    1    2    0    0  0.00000000000E+00  0.00000000000E+00  0.70170821610E+03  0.23983287792E+04  0.22933788419E+04 0.  0.
        3    1    3    3  502    0  0.93566833733E+03 -0.40298469096E+03  0.90127153926E+03  0.13602067109E+04  0.10100000352E+00 0. -1.
       -3    1    3    3    0  502 -0.93566833733E+03  0.40298469096E+03 -0.19956332317E+03  0.10381220683E+04  0.10100000352E+00 0.  1.
</event>
<event>
 5   0  0.1697855E-05  0.2307511E+04  0.7818609E-02  0.8474966E-01
        2   -1    0    0  501    0  0.00000000000E+00  0.00000000000E+00  0.13097620503E+04  0.13097620503E+04  0.25500000920E-02 0.  1.
       -2   -1    0    0    0  501  0.00000000000E+00  0.00000000000E+00 -0.10163308003E+04  0.10163308003E+04  0.25500000920E-02 0. -1.
    10030    2    1    2    0    0  0.00000000000E+00  0.00000000000E+00  0.29343124999E+03  0.23260928506E+04  0.23075107911E+04 0.  0.
        5    1    3    3  502    0  0.46570278069E+03  0.24525182381E+03 -0.88824684332E+03  0.10324882961E+04  0.46999998093E+01 0. -1.
       -5    1    3    3    0  502 -0.46570278069E+03 -0.24525182381E+03  0.11816780933E+04  0.12936045544E+04  0.46999998093E+01 0.  1.
</event>
<event>
 5   0  0.1588969E-05  0.2306947E+04  0.7818609E-02  0.8475187E-01
        2   -1    0    0  501    0  0.00000000000E+00  0.00000000000E+00  0.15282499899E+04  0.15282499899E+04  0.25500000920E-02 0.  1.
       -2   -1    0    0    0  501  0.00000000000E+00  0.00000000000E+00 -0.87060455485E+03  0.87060455485E+03  0.25500000920E-02 0. -1.
    10030    2    1    2    0    0  0.00000000000E+00  0.00000000000E+00  0.65764543508E+03  0.23988545448E+04  0.23069472488E+04 0.  0.
        1    1    3    3  502    0  0.74662672604E+03 -0.24491568307E+03 -0.54925142772E+03  0.95870344253E+03  0.50400001928E-02 0. -1.
       -1    1    3    3    0  502 -0.74662672604E+03  0.24491568307E+03  0.12068968628E+04  0.14401511022E+04  0.50400001928E-02 0.  1.
</event>
<event>
 5   0  0.7202572E-06  0.2270984E+04  0.7818609E-02  0.8489450E-01
       -1   -1    0    0    0  501  0.00000000000E+00  0.00000000000E+00  0.63535639998E+03  0.63535640000E+03  0.50400001928E-02 0.  1.
        1   -1    0    0  501    0  0.00000000000E+00  0.00000000000E+00 -0.20293211433E+04  0.20293211433E+04  0.50400001928E-02 0. -1.
    10030    2    1    2    0    0  0.00000000000E+00  0.00000000000E+00 -0.13939647433E+04  0.26646775433E+04  0.22709840828E+04 0.  0.
        2    1    3    3  502    0 -0.10661428250E+04 -0.20913631338E+03 -0.10842681442E+04  0.15349384122E+04  0.25500000920E-02 0. -1.
       -2    1    3    3    0  502  0.10661428250E+04  0.20913631338E+03 -0.30969659911E+03  0.11297391311E+04  0.25500000920E-02 0.  1.
</event>
<event>
 5   0  0.1635955E-05  0.2296127E+04  0.7818609E-02  0.8479450E-01
        2   -1    0    0  501    0  0.00000000000E+00  0.00000000000E+00  0.18131767046E+04  0.18131767046E+04  0.25500000920E-02 0. -1.
       -2   -1    0    0    0  501  0.00000000000E+00  0.00000000000E+00 -0.72692833689E+03  0.72692833689E+03  0.25500000920E-02 0.  1.
    10030    2    1    2    0    0  0.00000000000E+00  0.00000000000E+00  0.10862483677E+04  0.25401050415E+04  0.22961267616E+04 0.  0.
        2    1    3    3  502    0  0.68327013117E+03  0.87358659646E+03  0.87136356463E+03  0.14104205314E+04  0.25500000920E-02 0. -1.
       -2    1    3    3    0  502 -0.68327013117E+03 -0.87358659646E+03  0.21488480305E+03  0.11296845100E+04  0.25500000920E-02 0.  1.
</event>
<event>
 5   0  0.1588969E-05  0.2296178E+04  0.7818609E-02  0.8479430E-01
       -2   -1    0    0    0  501  0.00000000000E+00  0.00000000000E+00  0.10250140268E+04  0.10250140268E+04  0.25500000920E-02 0. -1.
        2   -1    0    0  501    0  0.00000000000E+00  0.00000000000E+00 -0.12859416251E+04  0.12859416251E+04  0.25500000920E-02 0.  1.
    10030    2    1    2    0    0  0.00000000000E+00  0.00000000000E+00 -0.26092759830E+03  0.23109556519E+04  0.22961778706E+04 0.  0.
        1    1    3    3  502    0 -0.87979649337E+03 -0.66696219589E+03  0.18656789701E+03  0.11196821070E+04  0.50400001928E-02 0. -1.
       -1    1    3    3    0  502  0.87979649337E+03  0.66696219589E+03 -0.44749549531E+03  0.11912735449E+04  0.50400001928E-02 0.  1.
</event>
<event>
 5   0  0.7202572E-06  0.2297606E+04  0.7818609E-02  0.8478865E-01
       -1   -1    0    0    0  501  0.00000000000E+00  0.00000000000E+00  0.15813591371E+04  0.15813591372E+04  0.50400001928E-02 0.  1.
        1   -1    0    0  501    0  0.00000000000E+00  0.00000000000E+00 -0.83456608830E+03  0.83456608831E+03  0.50400001928E-02 0. -1.
    10030    2    1    2    0    0  0.00000000000E+00  0.00000000000E+00  0.74679304884E+03  0.24159252255E+04  0.22976063277E+04 0.  0.
        2    1    3    3  502    0  0.13879214653E+03  0.32190052742E+03 -0.77695492499E+03  0.85237442768E+03  0.25500000920E-02 0. -1.
       -2    1    3    3    0  502 -0.13879214653E+03 -0.32190052742E+03  0.15237479738E+04  0.15635507978E+04  0.25500000920E-02 0.  1.
</event>
<event>
 5   0  0.7416556E-06  0.2298315E+04  0.7818609E-02  0.8478586E-01
       -1   -1    0    0    0  501  0.00000000000E+00  0.00000000000E+00  0.10084929978E+04  0.10084929978E+04  0.50400001928E-02 0. -1.
        1   -1    0    0  501    0  0.00000000000E+00  0.00000000000E+00 -0.13094415794E+04  0.13094415794E+04  0.50400001928E-02 0.  1.
    10030    2    1    2    0    0  0.00000000000E+00  0.00000000000E+00 -0.30094858159E+03  0.23179345773E+04  0.22983147425E+04 0.  0.
        4    1    3    3  502    0  0.47946619831E+03 -0.77050622256E+03 -0.86146998672E+03  0.12512792755E+04  0.12699999809E+01 0.  1.
       -4    1    3    3    0  502 -0.47946619831E+03  0.77050622256E+03  0.56052140513E+03  0.10666553018E+04  0.12699999809E+01 0. -1.
</event>
<event>
 5   0  0.1697855E-05  0.2297815E+04  0.7818609E-02  0.8478783E-01
        2   -1    0    0  501    0  0.00000000000E+00  0.00000000000E+00  0.27960708079E+04  0.27960708079E+04  0.25500000920E-02 0.  1.
       -2   -1    0    0    0  501  0.00000000000E+00  0.00000000000E+00 -0.47208672086E+03  0.47208672086E+03  0.25500000920E-02 0. -1.
    10030    2    1    2    0    0  0.00000000000E+00  0.00000000000E+00  0.23239840870E+04  0.32681575288E+04  0.22978145260E+04 0.  0.
        5    1    3    3  502    0 -0.72707430344E+03  0.87589270609E+03  0.13829772716E+04  0.17912211754E+04  0.46999998093E+01 0.  1.
       -5    1    3    3    0  502  0.72707430344E+03 -0.87589270609E+03  0.94100681544E+03  0.14769363534E+04  0.46999998093E+01 0. -1.
</event>
<event>
 5   0  0.7183014E-06  0.2338495E+04  0.7818609E-02  0.8462896E-01
        1   -1    0    0  501    0  0.00000000000E+00  0.00000000000E+00  0.21884065807E+04  0.21884065807E+04  0.50400001928E-02 0. -1.
       -1   -1    0    0    0  501  0.00000000000E+00  0.00000000000E+00 -0.62471905972E+03  0.62471905974E+03  0.50400001928E-02 0.  1.
    10030    2    1    2    0    0  0.00000000000E+00  0.00000000000E+00  0.15636875210E+04  0.28131256405E+04  0.23384946452E+04 0.  0.
        3    1    3    3  502    0  0.10179657462E+04 -0.49302186528E+03  0.11383242739E+04  0.16047139878E+04  0.10100000352E+00 0.  1.
       -3    1    3    3    0  502 -0.10179657462E+04  0.49302186528E+03  0.42536324713E+03  0.12084116526E+04  0.10100000352E+00 0. -1.
</event>
<event>
 5   0  0.7183014E-06  0.2300017E+04  0.7818609E-02  0.8477914E-01
        1   -1    0    0  501    0  0.00000000000E+00  0.00000000000E+00  0.16584238496E+04  0.16584238496E+04  0.50400001928E-02 0. -1.
       -1   -1    0    0    0  501  0.00000000000E+00  0.00000000000E+00 -0.79745559204E+03  0.79745559206E+03  0.50400001928E-02 0.  1.
    10030    2    1    2    0    0  0.00000000000E+00  0.00000000000E+00  0.86096825753E+03  0.24558794416E+04  0.23000168459E+04 0.  0.
        3    1    3    3  502    0  0.37614946491E+02 -0.47744263443E+03  0.15468755847E+04  0.16193178928E+04  0.10100000352E+00 0. -1.
       -3    1    3    3    0  502 -0.37614946491E+02  0.47744263443E+03 -0.68590732712E+03  0.83656154883E+03  0.10100000352E+00 0.  1.
</event>
<event>
 5   0  0.1602809E-05  0.2299750E+04  0.7818609E-02  0.8478020E-01
        2   -1    0    0  501    0  0.00000000000E+00  0.00000000000E+00  0.96012052259E+03  0.96012052259E+03  0.25500000920E-02 0. -1.
       -2   -1    0    0    0  501  0.00000000000E+00  0.00000000000E+00 -0.13771316037E+04  0.13771316037E+04  0.25500000920E-02 0.  1.
    10030    2    1    2    0    0  0.00000000000E+00  0.00000000000E+00 -0.41701108115E+03  0.23372521263E+04  0.22997498256E+04 0.  0.
        3    1    3    3  502    0  0.32242416409E+03 -0.82227817667E+03 -0.95679582344E+03  0.13021355534E+04  0.10100000352E+00 0.  1.
       -3    1    3    3    0  502 -0.32242416409E+03  0.82227817667E+03  0.53978474229E+03  0.10351165730E+04  0.10100000352E+00 0. -1.
</event>
<event>
 5   0  0.1697855E-05  0.2299167E+04  0.7818609E-02  0.8478249E-01
       -2   -1    0    0    0  501  0.00000000000E+00  0.00000000000E+00  0.79486215647E+03  0.79486215647E+03  0.25500000920E-02 0. -1.
        2   -1    0    0  501    0  0.00000000000E+00  0.00000000000E+00 -0.16626061675E+04  0.16626061675E+04  0.25500000920E-02 0.  1.
    10030    2    1    2    0    0  0.00000000000E+00  0.00000000000E+00 -0.86774401108E+03  0.24574683240E+04  0.22991674351E+04 0.  0.
        5    1    3    3  502    0 -0.78130325676E+03  0.80803097574E+03 -0.69166645874E+03  0.13197626366E+04  0.46999998093E+01 0.  1.
       -5    1    3    3    0  502  0.78130325676E+03 -0.80803097574E+03 -0.17607755233E+03  0.11377056874E+04  0.46999998093E+01 0. -1.
</event>
<event>
 5   0  0.7278815E-06  0.2296445E+04  0.7818609E-02  0.8479324E-01
       -1   -1    0    0    0  501  0.00000000000E+00  0.00000000000E+00  0.12177985283E+04  0.12177985284E+04  0.50400001928E-02 0.  1.
        1   -1    0    0  501    0  0.00000000000E+00  0.00000000000E+00 -0.10826213883E+04  0.10826213884E+04  0.50400001928E-02 0. -1.
    10030    2    1    2    0    0  0.00000000000E+00  0.00000000000E+00  0.13517714000E+03  0.23004199167E+04  0.22964448467E+04 0.  0.
        5    1    3    3  502    0 -0.51705314099E+02  0.47742555993E+03  0.11123627726E+04  0.12116029187E+04  0.46999998093E+01 0.  1.
       -5    1    3    3    0  502  0.51705314099E+02 -0.47742555993E+03 -0.97718563255E+03  0.10888169980E+04  0.46999998093E+01 0. -1.
</event>
<event>
 5   0  0.7202572E-06  0.2299679E+04  0.7818609E-02  0.8478048E-01
       -1   -1    0    0    0  501  0.00000000000E+00  0.00000000000E+00  0.10280723825E+04  0.10280723825E+04  0.50400001928E-02 0.  1.
        1   -1    0    0  501    0  0.00000000000E+00  0.00000000000E+00 -0.12860294906E+04  0.12860294906E+04  0.50400001928E-02 0. -1.
    10030    2    1    2    0    0  0.00000000000E+00  0.00000000000E+00 -0.25795710808E+03  0.23141018731E+04  0.22996794580E+04 0.  0.
        2    1    3    3  502    0 -0.10249787275E+04  0.48672917004E+03  0.58319700909E+02  0.11361724624E+04  0.25500000920E-02 0.  1.
       -2    1    3    3    0  502  0.10249787275E+04 -0.48672917004E+03 -0.31627680899E+03  0.11779294107E+04  0.25500000920E-02 0. -1.
</event>
<event>
 5   0  0.1626636E-05  0.2172238E+04  0.7818609E-02  0.8530073E-01
       -2   -1    0    0    0  501  0.00000000000E+00  0.00000000000E+00  0.47827355919E+03  0.47827355920E+03  0.25500000920E-02 0. -1.
        2   -1    0    0  501    0  0.00000000000E+00  0.00000000000E+00 -0.24664854300E+04  0.24664854300E+04  0.25500000920E-02 0.  1.
    10030    2    1    2    0    0  0.00000000000E+00  0.00000000000E+00 -0.19882118708E+04  0.29447589892E+04  0.21722382607E+04 0.  0.
        4    1    3    3  502    0  0.94267929260E+03  0.29983253325E+03 -0.16020427375E+04  0.18828399673E+04  0.12699999809E+01 0.  1.
       -4    1    3    3    0  502 -0.94267929260E+03 -0.29983253325E+03 -0.38616913328E+03  0.10619190219E+04  0.12699999809E+01 0. -1.
</event>
<event>
 5   0  0.1697855E-05  0.2302142E+04  0.7818609E-02  0.8477077E-01
        2   -1    0    0  501    0  0.00000000000E+00  0.00000000000E+00  0.11545054943E+04  0.11545054943E+04  0.25500000920E-02 0. -1.
       -2   -1    0    0    0  501  0.00000000000E+00  0.00000000000E+00 -0.11476470020E+04  0.11476470020E+04  0.25500000920E-02 0.  1.
    10030    2    1    2    0    0  0.00000000000E+00  0.00000000000E+00  0.68584923039E+01  0.23021524963E+04  0.23021422800E+04 0.  0.
        5    1    3    3  502    0 -0.43041083765E+03  0.42826464439E+03 -0.97447006974E+03  0.11481629247E+04  0.46999998093E+01 0.  1.
       -5    1    3    3    0  502  0.43041083765E+03 -0.42826464439E+03  0.98132856204E+03  0.11539895716E+04  0.46999998093E+01 0. -1.
</event>
<event>
 5   0  0.7391007E-06  0.2284635E+04  0.7818609E-02  0.8484004E-01
       -1   -1    0    0    0  501  0.00000000000E+00  0.00000000000E+00  0.91202592072E+03  0.91202592073E+03  0.50400001928E-02 0. -1.
        1   -1    0    0  501    0  0.00000000000E+00  0.00000000000E+00 -0.14307593906E+04  0.14307593906E+04  0.50400001928E-02 0.  1.
    10030    2    1    2    0    0  0.00000000000E+00  0.00000000000E+00 -0.51873346990E+03  0.23427853114E+04  0.22846353325E+04 0.  0.
        1    1    3    3  502    0  0.55373060120E+03 -0.89992308382E+03 -0.70447757585E+03  0.12699479479E+04  0.50400001928E-02 0.  1.
       -1    1    3    3    0  502 -0.55373060120E+03  0.89992308382E+03  0.18574410595E+03  0.10728373635E+04  0.50400001928E-02 0. -1.
</event>
<event>
 5   0  0.1635955E-05  0.2295820E+04  0.7818609E-02  0.8479571E-01
       -2   -1    0    0    0  501  0.00000000000E+00  0.00000000000E+00  0.49454006654E+03  0.49454006655E+03  0.25500000920E-02 0.  1.
        2   -1    0    0  501    0  0.00000000000E+00  0.00000000000E+00 -0.26644894828E+04  0.26644894828E+04  0.25500000920E-02 0. -1.
    10030    2    1    2    0    0  0.00000000000E+00  0.00000000000E+00 -0.21699494163E+04  0.31590295494E+04  0.22958195105E+04 0.  0.
        2    1    3    3  502    0  0.63259343671E+03 -0.93237879761E+02 -0.23967427486E+04  0.24805732324E+04  0.25500000920E-02 0. -1.
       -2    1    3    3    0  502 -0.63259343671E+03  0.93237879761E+02  0.22679333234E+03  0.67845631694E+03  0.25500000920E-02 0.  1.
</event>
<event>
 5   0  0.7202572E-06  0.2309641E+04  0.7818609E-02  0.8474129E-01
       -1   -1    0    0    0  501  0.00000000000E+00  0.00000000000E+00  0.67005840111E+03  0.67005840113E+03  0.50400001928E-02 0.  1.
        1   -1    0    0  501    0  0.00000000000E+00  0.00000000000E+00 -0.19902905047E+04  0.19902905047E+04  0.50400001928E-02 0. -1.
    10030    2    1    2    0    0  0.00000000000E+00  0.00000000000E+00 -0.13202321035E+04  0.26603489058E+04  0.23096414209E+04 0.  0.
        2    1    3    3  502    0 -0.10945890144E+04 -0.30951669432E+03 -0.88957669633E+03  0.14440472268E+04  0.25500000920E-02 0. -1.
       -2    1    3    3    0  502  0.10945890144E+04  0.30951669432E+03 -0.43065540721E+03  0.12163016790E+04  0.25500000920E-02 0.  1.
</event>
<event>
 5   0  0.1588969E-05  0.2345131E+04  0.7818609E-02  0.8460336E-01
        2   -1    0    0  501    0  0.00000000000E+00  0.00000000000E+00  0.11541562509E+04  0.11541562509E+04  0.25500000920E-02 0.  1.
       -2   -1    0    0    0  501  0.00000000000E+00  0.00000000000E+00 -0.11912681939E+04  0.11912681939E+04  0.25500000920E-02 0. -1.
    10030    2    1    2    0    0  0.00000000000E+00  0.00000000000E+00 -0.37111943003E+02  0.23454244449E+04  0.23451308130E+04 0.  0.
        1    1    3    3  502    0  0.19291838729E+03 -0.32051535590E+03  0.10928716291E+04  0.11551259651E+04  0.50400001928E-02 0.  1.
       -1    1    3    3    0  502 -0.19291838729E+03  0.32051535590E+03 -0.11299835721E+04  0.11902984797E+04  0.50400001928E-02 0. -1.
</event>
<event>
 5   0  0.7183014E-06  0.2334127E+04  0.7818609E-02  0.8464585E-01
       -1   -1    0    0    0  501  0.00000000000E+00  0.00000000000E+00  0.85726927309E+03  0.85726927311E+03  0.50400001928E-02 0.  1.
        1   -1    0    0  501    0  0.00000000000E+00  0.00000000000E+00 -0.15888094405E+04  0.15888094405E+04  0.50400001928E-02 0. -1.
    10030    2    1    2    0    0  0.00000000000E+00  0.00000000000E+00 -0.73154016742E+03  0.24460787136E+04  0.23341272580E+04 0.  0.
        3    1    3    3  502    0  0.76831151935E+03 -0.71267682349E+03  0.17250618890E+03  0.10620589630E+04  0.10100000352E+00 0. -1.
       -3    1    3    3    0  502 -0.76831151935E+03  0.71267682349E+03 -0.90404635632E+03  0.13840197506E+04  0.10100000352E+00 0.  1.
</event>
<event>
 5   0  0.7183014E-06  0.2305733E+04  0.7818609E-02  0.8475664E-01
        1   -1    0    0  501    0  0.00000000000E+00  0.00000000000E+00  0.18142172442E+04  0.18142172442E+04  0.50400001928E-02 0. -1.
       -1   -1    0    0    0  501  0.00000000000E+00  0.00000000000E+00 -0.73260281529E+03  0.73260281531E+03  0.50400001928E-02 0.  1.
    10030    2    1    2    0    0  0.00000000000E+00  0.00000000000E+00  0.10816144290E+04  0.25468200596E+04  0.23057325610E+04 0.  0.
        3    1    3    3  502    0  0.46426636442E+03  0.73154124702E+03  0.13808574780E+04  0.16301727632E+04  0.10100000352E+00 0. -1.
       -3    1    3    3    0  502 -0.46426636442E+03 -0.73154124702E+03 -0.29924304907E+03  0.91664729631E+03  0.10100000352E+00 0.  1.
</event>
<event>
 5   0  0.1626636E-05  0.2307582E+04  0.7818609E-02  0.8474938E-01
       -2   -1    0    0    0  501  0.00000000000E+00  0.00000000000E+00  0.11775989826E+04  0.11775989826E+04  0.25500000920E-02 0.  1.
        2   -1    0    0  501    0  0.00000000000E+00  0.00000000000E+00 -0.11304641096E+04  0.11304641096E+04  0.25500000920E-02 0. -1.
    10030    2    1    2    0    0  0.00000000000E+00  0.00000000000E+00  0.47134873003E+02  0.23080630922E+04  0.23075817518E+04 0.  0.
        4    1    3    3  502    0  0.16150900216E+03  0.69498923944E+03 -0.88333916715E+03  0.11355108532E+04  0.12699999809E+01 0. -1.
       -4    1    3    3    0  502 -0.16150900216E+03 -0.69498923944E+03  0.93047404015E+03  0.11725522389E+04  0.12699999809E+01 0.  1.
</event>
<event>
 5   0  0.1588969E-05  0.2289241E+04  0.7818609E-02  0.8482175E-01
        2   -1    0    0  501    0  0.00000000000E+00  0.00000000000E+00  0.13561805264E+04  0.13561805264E+04  0.25500000920E-02 0. -1.
       -2   -1    0    0    0  501  0.00000000000E+00  0.00000000000E+00 -0.96606291413E+03  0.96606291413E+03  0.25500000920E-02 0.  1.
    10030    2    1    2    0    0  0.00000000000E+00  0.00000000000E+00  0.39011761231E+03  0.23222434406E+04  0.22892406701E+04 0.  0.
        1    1    3    3  502    0  0.63383303089E+03 -0.76938670823E+02 -0.76863248479E+03  0.99922958664E+03  0.50400001928E-02 0.  1.
       -1    1    3    3    0  502 -0.63383303089E+03  0.76938670823E+02  0.11587500971E+04  0.13230138539E+04  0.50400001928E-02 0. -1.
</event>
<event>
 5   0  0.5704875E-06  0.2292160E+04  0.7818609E-02  0.8481019E-01
        4   -1    0    0  501    0  0.00000000000E+00  0.00000000000E+00  0.11330232681E+04  0.11330239798E+04  0.12699999809E+01 0.  1.
       -4   -1    0    0    0  501  0.00000000000E+00  0.00000000000E+00 -0.11592861422E+04  0.11592868378E+04  0.12699999809E+01 0. -1.
    10030    2    1    2    0    0  0.00000000000E+00  0.00000000000E+00 -0.26262874131E+02  0.22923108177E+04  0.22921603666E+04 0.  0.
        4    1    3    3  502    0 -0.37149750259E+03 -0.36659309387E+03 -0.10335401575E+04  0.11578461733E+04  0.12699999809E+01 0. -1.
       -4    1    3    3    0  502  0.37149750259E+03  0.36659309387E+03  0.10072772834E+04  0.11344646444E+04  0.12699999809E+01 0.  1.
</event>
<event>
 5   0  0.7416556E-06  0.2301066E+04  0.7818609E-02  0.8477501E-01
        1   -1    0    0  501    0  0.00000000000E+00  0.00000000000E+00  0.10501918310E+04  0.10501918310E+04  0.50400001928E-02 0. -1.
       -1   -1    0    0    0  501  0.00000000000E+00  0.00000000000E+00 -0.12604609648E+04  0.12604609648E+04  0.50400001928E-02 0.  1.
    10030    2    1    2    0    0  0.00000000000E+00  0.00000000000E+00 -0.21026913377E+03  0.23106527958E+04  0.23010656735E+04 0.  0.
        4    1    3    3  502    0 -0.76116935518E+03 -0.48895395942E+03  0.60865006260E+03  0.10903720802E+04  0.12699999809E+01 0. -1.
       -4    1    3    3    0  502  0.76116935518E+03  0.48895395942E+03 -0.81891919637E+03  0.12202807156E+04  0.12699999809E+01 0.  1.
</event>
<event>
 5   0  0.7278815E-06  0.2289069E+04  0.7818609E-02  0.8482243E-01
        1   -1    0    0  501    0  0.00000000000E+00  0.00000000000E+00  0.12664972854E+04  0.12664972854E+04  0.50400001928E-02 0.  1.
       -1   -1    0    0    0  501  0.00000000000E+00  0.00000000000E+00 -0.10343168985E+04  0.10343168985E+04  0.50400001928E-02 0. -1.
    10030    2    1    2    0    0  0.00000000000E+00  0.00000000000E+00  0.23218038691E+03  0.23008141839E+04  0.22890692818E+04 0.  0.
        5    1    3    3  502    0  0.21433417670E+03 -0.11241132480E+04  0.13536462582E+03  0.11523521187E+04  0.46999998093E+01 0.  1.
       -5    1    3    3    0  502 -0.21433417670E+03  0.11241132480E+04  0.96815761093E+02  0.11484620652E+04  0.46999998093E+01 0. -1.
</event>
<event>
 5   0  0.1635955E-05  0.2350645E+04  0.7818609E-02  0.8458216E-01
        2   -1    0    0  501    0  0.00000000000E+00  0.00000000000E+00  0.11044412360E+04  0.11044412361E+04  0.25500000920E-02 0.  1.
       -2   -1    0    0    0  501  0.00000000000E+00  0.00000000000E+00 -0.12507532704E+04  0.12507532704E+04  0.25500000920E-02 0. -1.
    10030    2    1    2    0    0  0.00000000000E+00  0.00000000000E+00 -0.14631203437E+03  0.23551945065E+04  0.23506454331E+04 0.  0.
        2    1    3    3  502    0 -0.90689674975E+03  0.24675508889E+03 -0.78023677527E+03  0.12215233170E+04  0.25500000920E-02 0. -1.
       -2    1    3    3    0  502  0.90689674975E+03 -0.24675508889E+03  0.63392474090E+03  0.11336711894E+04  0.25500000920E-02 0.  1.
</event>
<event>
 5   0  0.7416556E-06  0.2302999E+04  0.7818609E-02  0.8476739E-01
       -1   -1    0    0    0  501  0.00000000000E+00  0.00000000000E+00  0.17909073917E+04  0.17909073917E+04  0.50400001928E-02 0. -1.
        1   -1    0    0  501    0  0.00000000000E+00  0.00000000000E+00 -0.74037968127E+03  0.74037968129E+03  0.50400001928E-02 0.  1.
    10030    2    1    2    0    0  0.00000000000E+00  0.00000000000E+00  0.10505277104E+04  0.25312870730E+04  0.23029993000E+04 0.  0.
        4    1    3    3  502    0  0.11272270444E+04  0.23419165340E+03  0.50160605083E+03  0.12558251404E+04  0.12699999809E+01 0. -1.
       -4    1    3    3    0  502 -0.11272270444E+04 -0.23419165340E+03  0.54892165962E+03  0.12754619326E+04  0.12699999809E+01 0.  1.
</event>
<event>
 5   0  0.1697855E-05  0.2295713E+04  0.7818609E-02  0.8479613E-01
       -2   -1    0    0    0  501  0.00000000000E+00  0.00000000000E+00  0.81917689630E+03  0.81917689630E+03  0.25500000920E-02 0. -1.
        2   -1    0    0  501    0  0.00000000000E+00  0.00000000000E+00 -0.16084127723E+04  0.16084127723E+04  0.25500000920E-02 0.  1.
    10030    2    1    2    0    0  0.00000000000E+00  0.00000000000E+00 -0.78923587600E+03  0.24275896686E+04  0.22957130333E+04 0.  0.
        5    1    3    3  502    0 -0.11418368525E+04  0.78538677254E+02 -0.30247589451E+03  0.11838384511E+04  0.46999998093E+01 0. -1.
       -5    1    3    3    0  502  0.11418368525E+04 -0.78538677254E+02 -0.48675998148E+03  0.12437512175E+04  0.46999998093E+01 0.  1.
</event>
<event>
 5   0  0.7278815E-06  0.2313705E+04  0.7818609E-02  0.8472537E-01
       -1   -1    0    0    0  501  0.00000000000E+00  0.00000000000E+00  0.74484216026E+03  0.74484216027E+03  0.50400001928E-02 0.  1.
        1   -1    0    0  501    0  0.00000000000E+00  0.00000000000E+00 -0.17967664487E+04  0.17967664487E+04  0.50400001928E-02 0. -1.
    10030    2    1    2    0    0  0.00000000000E+00  0.00000000000E+00 -0.10519242884E+04  0.25416086089E+04  0.23137047375E+04 0.  0.
        5    1    3    3  502    0 -0.34132968864E+03 -0.40314082900E+03  0.60461805039E+03  0.80287829789E+03  0.46999998093E+01 0.  1.
       -5    1    3    3    0  502  0.34132968864E+03  0.40314082900E+03 -0.16565423388E+04  0.17387303111E+04  0.46999998093E+01 0. -1.
</event>
<event>
 5   0  0.7391007E-06  0.2302980E+04  0.7818609E-02  0.8476747E-01
        1   -1    0    0  501    0  0.00000000000E+00  0.00000000000E+00  0.12224777653E+04  0.12224777653E+04  0.50400001928E-02 0. -1.
       -1   -1    0    0    0  501  0.00000000000E+00  0.00000000000E+00 -0.10846240927E+04  0.10846240927E+04  0.50400001928E-02 0.  1.
    10030    2    1    2    0    0  0.00000000000E+00  0.00000000000E+00  0.13785367262E+03  0.23071018580E+04  0.23029796673E+04 0.  0.
        1    1    3    3  502    0 -0.64095646503E+03  0.29171737274E+03 -0.84374977352E+03  0.10990167860E+04  0.50400001928E-02 0.  1.
       -1    1    3    3    0  502  0.64095646503E+03 -0.29171737274E+03  0.98160344614E+03  0.12080850720E+04  0.50400001928E-02 0. -1.
</event>
<event>
 5   0  0.1635955E-05  0.2243625E+04  0.7818609E-02  0.8500487E-01
       -2   -1    0    0    0  501  0.00000000000E+00  0.00000000000E+00  0.18421761612E+04  0.18421761612E+04  0.25500000920E-02 0.  1.
        2   -1    0    0  501    0  0.00000000000E+00  0.00000000000E+00 -0.68313945175E+03  0.68313945176E+03  0.25500000920E-02 0. -1.
    10030    2    1    2    0    0  0.00000000000E+00  0.00000000000E+00  0.11590367094E+04  0.25253156129E+04  0.22436249355E+04 0.  0.
        2    1    3    3  502    0 -0.85626161841E+03  0.38384592456E+03  0.12714731626E+04  0.15802422777E+04  0.25500000920E-02 0.  1.
       -2    1    3    3    0  502  0.85626161841E+03 -0.38384592456E+03 -0.11243645319E+03  0.94507333523E+03  0.25500000920E-02 0. -1.
</event>
<event>
 5   0  0.7278815E-06  0.2291834E+04  0.7818609E-02  0.8481148E-01
       -1   -1    0    0    0  501  0.00000000000E+00  0.00000000000E+00  0.83971396215E+03  0.83971396217E+03  0.50400001928E-02 0.  1.
        1   -1    0    0  501    0  0.00000000000E+00  0.00000000000E+00 -0.15637780613E+04  0.15637780613E+04  0.50400001928E-02 0. -1.
    10030    2    1    2    0    0  0.00000000000E+00  0.00000000000E+00 -0.72406409913E+03  0.24034920235E+04  0.22918344371E+04 0.  0.
        5    1    3    3  502    0 -0.91814266293E+03 -0.11381694375E+03  0.34704826013E+03  0.98813199070E+03  0.46999998093E+01 0.  1.
       -5    1    3    3    0  502  0.91814266293E+03  0.11381694375E+03 -0.10711123593E+04  0.14153600328E+04  0.46999998093E+01 0. -1.
</event>
<event>
 5   0  0.1588969E-05  0.2290572E+04  0.7818609E-02  0.8481648E-01
        2   -1    0    0  501    0  0.00000000000E+00  0.00000000000E+00  0.16063236936E+04  0.16063236936E+04  0.25500000920E-02 0. -1.
       -2   -1    0    0    0  501  0.00000000000E+00  0.00000000000E+00 -0.81657239776E+03  0.81657239776E+03  0.25500000920E-02 0.  1.
    10030    2    1    2    0    0  0.00000000000E+00  0.00000000000E+00  0.78975129589E+03  0.24228960914E+04  0.22905716231E+04 0.  0.
        1    1    3    3  502    0  0.18126906722E+03 -0.78355192117E+03 -0.46762308568E+03  0.93031362356E+03  0.50400001928E-02 0.  1.
       -1    1    3    3    0  502 -0.18126906722E+03  0.78355192117E+03  0.12573743816E+04  0.14925824679E+04  0.50400001928E-02 0. -1.
</event>
<event>
 5   0  0.7391007E-06  0.2284455E+04  0.7818609E-02  0.8484076E-01
        1   -1    0    0  501    0  0.00000000000E+00  0.00000000000E+00  0.75903327084E+03  0.75903327086E+03  0.50400001928E-02 0.  1.
       -1   -1    0    0    0  501  0.00000000000E+00  0.00000000000E+00 -0.17188747434E+04  0.17188747434E+04  0.50400001928E-02 0. -1.
    10030    2    1    2    0    0  0.00000000000E+00  0.00000000000E+00 -0.95984147252E+03  0.24779080142E+04  0.22844545245E+04 0.  0.
        1    1    3    3  502    0  0.55718132969E+03  0.47705766581E+03 -0.14296518935E+04  0.16068414942E+04  0.50400001928E-02 0. -1.
       -1    1    3    3    0  502 -0.55718132969E+03 -0.47705766581E+03  0.46981042101E+03  0.87106652006E+03  0.50400001928E-02 0.  1.
</event>
<event>
 5   0  0.7202572E-06  0.2334183E+04  0.7818609E-02  0.8464564E-01
       -1   -1    0    0    0  501  0.00000000000E+00  0.00000000000E+00  0.17123131792E+04  0.17123131792E+04  0.50400001928E-02 0.  1.
        1   -1    0    0  501    0  0.00000000000E+00  0.00000000000E+00 -0.79547484184E+03  0.79547484185E+03  0.50400001928E-02 0. -1.
    10030    2    1    2    0    0  0.00000000000E+00  0.00000000000E+00  0.91683833739E+03  0.25077880211E+04  0.23341825597E+04 0.  0.
        2    1    3    3  502    0 -0.54493990592E+03  0.93144127282E+03 -0.19115815376E+02  0.10793089271E+04  0.25500000920E-02 0. -1.
       -2    1    3    3    0  502  0.54493990592E+03 -0.93144127282E+03  0.93595415276E+03  0.14284790940E+04  0.25500000920E-02 0.  1.
</event>
<event>
 5   0  0.1626636E-05  0.2308406E+04  0.7818609E-02  0.8474614E-01
        2   -1    0    0  501    0  0.00000000000E+00  0.00000000000E+00  0.18807891909E+04  0.18807891909E+04  0.25500000920E-02 0. -1.
       -2   -1    0    0    0  501  0.00000000000E+00  0.00000000000E+00 -0.70831123410E+03  0.70831123410E+03  0.25500000920E-02 0.  1.
    10030    2    1    2    0    0  0.00000000000E+00  0.00000000000E+00  0.11724779568E+04  0.25891004250E+04  0.23084056081E+04 0.  0.
        4    1    3    3  502    0 -0.21335828017E+03  0.11305796476E+04  0.48313497459E+03  0.12478594119E+04  0.12699999809E+01 0.  1.
       -4    1    3    3    0  502  0.21335828017E+03 -0.11305796476E+04  0.68934298223E+03  0.13412410131E+04  0.12699999809E+01 0. -1.
</event>
<event>
 5   0  0.1635955E-05  0.2306213E+04  0.7818609E-02  0.8475475E-01
       -2   -1    0    0    0  501  0.00000000000E+00  0.00000000000E+00  0.98745795136E+03  0.98745795136E+03  0.25500000920E-02 0. -1.
        2   -1    0    0  501    0  0.00000000000E+00  0.00000000000E+00 -0.13465434331E+04  0.13465434331E+04  0.25500000920E-02 0.  1.
    10030    2    1    2    0    0  0.00000000000E+00  0.00000000000E+00 -0.35908548179E+03  0.23340013845E+04  0.23062133639E+04 0.  0.
        2    1    3    3  502    0 -0.66269023641E+03  0.48785704704E+03 -0.99704559550E+03  0.12927732853E+04  0.25500000920E-02 0.  1.
       -2    1    3    3    0  502  0.66269023641E+03 -0.48785704704E+03  0.63796011371E+03  0.10412280992E+04  0.25500000920E-02 0. -1.
</event>
<event>
 5   0  0.1626636E-05  0.2303794E+04  0.7818609E-02  0.8476427E-01
        2   -1    0    0  501    0  0.00000000000E+00  0.00000000000E+00  0.13823237642E+04  0.13823237642E+04  0.25500000920E-02 0.  1.
       -2   -1    0    0    0  501  0.00000000000E+00  0.00000000000E+00 -0.95988143520E+03  0.95988143521E+03  0.25500000920E-02 0. -1.
    10030    2    1    2    0    0  0.00000000000E+00  0.00000000000E+00  0.42244232904E+03  0.23422051995E+04  0.23037941911E+04 0.  0.
        4    1    3    3  502    0 -0.13702129558E+03 -0.11124598936E+04 -0.58769068478E+02  0.11224069078E+04  0.12699999809E+01 0.  1.
       -4    1    3    3    0  502  0.13702129558E+03  0.11124598936E+04  0.48121139752E+03  0.12197982917E+04  0.12699999809E+01 0. -1.
</event>
<event>
 5   0  0.7202572E-06  0.2299816E+04  0.7818609E-02  0.8477994E-01
       -1   -1    0    0    0  501  0.00000000000E+00  0.00000000000E+00  0.16850971916E+04  0.16850971916E+04  0.50400001928E-02 0. -1.
        1   -1    0    0  501    0  0.00000000000E+00  0.00000000000E+00 -0.78469571472E+03  0.78469571474E+03  0.50400001928E-02 0.  1.
    10030    2    1    2    0    0  0.00000000000E+00  0.00000000000E+00  0.90040147687E+03  0.24697929063E+04  0.22998161189E+04 0.  0.
        2    1    3    3  502    0 -0.99811066614E+03 -0.46277076186E+03  0.90951554197E+02  0.11039265669E+04  0.25500000920E-02 0. -1.
       -2    1    3    3    0  502  0.99811066614E+03  0.46277076186E+03  0.80944992268E+03  0.13658663394E+04  0.25500000920E-02 0.  1.
</event>
<event>
 5   0  0.1588969E-05  0.2299427E+04  0.7818609E-02  0.8478147E-01
        2   -1    0    0  501    0  0.00000000000E+00  0.00000000000E+00  0.14704649479E+04  0.14704649479E+04  0.25500000920E-02 0.  1.
       -2   -1    0    0    0  501  0.00000000000E+00  0.00000000000E+00 -0.89892698604E+03  0.89892698605E+03  0.25500000920E-02 0. -1.
    10030    2    1    2    0    0  0.00000000000E+00  0.00000000000E+00  0.57153796185E+03  0.23693919339E+04  0.22994265578E+04 0.  0.
        1    1    3    3  502    0 -0.94544392338E+03 -0.34254549590E+02  0.95894883919E+03  0.13470784916E+04  0.50400001928E-02 0. -1.
       -1    1    3    3    0  502  0.94544392338E+03  0.34254549590E+02 -0.38741087734E+03  0.10223134423E+04  0.50400001928E-02 0.  1.
</event>
<event>
 5   0  0.7416556E-06  0.2260022E+04  0.7818609E-02  0.8493853E-01
        1   -1    0    0  501    0  0.00000000000E+00  0.00000000000E+00  0.89084419165E+03  0.89084419166E+03  0.50400001928E-02 0. -1.
       -1   -1    0    0    0  501  0.00000000000E+00  0.00000000000E+00 -0.14333872708E+04  0.14333872708E+04  0.50400001928E-02 0.  1.
    10030    2    1    2    0    0  0.00000000000E+00  0.00000000000E+00 -0.54254307911E+03  0.23242314624E+04  0.22600218800E+04 0.  0.
        4    1    3    3  502    0  0.10657019440E+04  0.13348659826E+03  0.89968444254E+02  0.10777918348E+04  0.12699999809E+01 0.  1.
       -4    1    3    3    0  502 -0.10657019440E+04 -0.13348659826E+03 -0.63251152336E+03  0.12464396276E+04  0.12699999809E+01 0. -1.
</event>
<event>
 5   0  0.7202572E-06  0.2300868E+04  0.7818609E-02  0.8477579E-01
        1   -1    0    0  501    0  0.00000000000E+00  0.00000000000E+00  0.16314695362E+04  0.16314695362E+04  0.50400001928E-02 0. -1.
       -1   -1    0    0    0  501  0.00000000000E+00  0.00000000000E+00 -0.81123093859E+03  0.81123093861E+03  0.50400001928E-02 0.  1.
    10030    2    1    2    0    0  0.00000000000E+00  0.00000000000E+00  0.82023859764E+03  0.24427004748E+04  0.23008681520E+04 0.  0.
        2    1    3    3  502    0 -0.30127695998E+02  0.55064743976E+03  0.14819993108E+04  0.15812786719E+04  0.25500000920E-02 0. -1.
       -2    1    3    3    0  502  0.30127695998E+02 -0.55064743976E+03 -0.66176071320E+03  0.86142180291E+03  0.25500000920E-02 0.  1.
</event>
<event>
 5   0  0.7391007E-06  0.2298491E+04  0.7818609E-02  0.8478516E-01
        1   -1    0    0  501    0  0.00000000000E+00  0.00000000000E+00  0.23823697292E+04  0.23823697292E+04  0.50400001928E-02 0.  1.
       -1   -1    0    0    0  501  0.00000000000E+00  0.00000000000E+00 -0.55439150597E+03  0.55439150599E+03  0.50400001928E-02 0. -1.
    10030    2    1    2    0    0  0.00000000000E+00  0.00000000000E+00  0.18279782232E+04  0.29367612352E+04  0.22984912808E+04 0.  0.
        1    1    3    3  502    0 -0.73758951513E+03  0.59044480982E+03  0.78002165917E+02  0.94802305045E+03  0.50400001928E-02 0. -1.
       -1    1    3    3    0  502  0.73758951513E+03 -0.59044480982E+03  0.17499760573E+04  0.19887381847E+04  0.50400001928E-02 0.  1.
</event>
<event>
 5   0  0.1588969E-05  0.2225797E+04  0.7818609E-02  0.8507767E-01
        2   -1    0    0  501    0  0.00000000000E+00  0.00000000000E+00  0.20898874402E+04  0.20898874402E+04  0.25500000920E-02 0. -1.
       -2   -1    0    0    0  501  0.00000000000E+00  0.00000000000E+00 -0.59263617010E+03  0.59263617010E+03  0.25500000920E-02 0.  1.
    10030    2    1    2    0    0  0.00000000000E+00  0.00000000000E+00  0.14972512701E+04  0.26825236103E+04  0.22257968358E+04 0.  0.
        1    1    3    3  502    0  0.36296551040E+03  0.10307189179E+04  0.49462500737E+03  0.11994912869E+04  0.50400001928E-02 0.  1.
       -1    1    3    3    0  502 -0.36296551040E+03 -0.10307189179E+04  0.10026262628E+04  0.14830323234E+04  0.50400001928E-02 0. -1.
</event>
<event>
 5   0  0.7183014E-06  0.2293086E+04  0.7818609E-02  0.8480652E-01
        1   -1    0    0  501    0  0.00000000000E+00  0.00000000000E+00  0.22329063793E+04  0.22329063793E+04  0.50400001928E-02 0. -1.
       -1   -1    0    0    0  501  0.00000000000E+00  0.00000000000E+00 -0.58872203111E+03  0.58872203113E+03  0.50400001928E-02 0.  1.
    10030    2    1    2    0    0  0.00000000000E+00  0.00000000000E+00  0.16441843482E+04  0.28216284105E+04  0.22930862862E+04 0.  0.
        3    1    3    3  502    0 -0.40631179011E+03  0.10687160183E+04  0.71682941650E+03  0.13494767953E+04  0.10100000352E+00 0.  1.
       -3    1    3    3    0  502  0.40631179011E+03 -0.10687160183E+04  0.92735493173E+03  0.14721516152E+04  0.10100000352E+00 0. -1.
</event>
<event>
 5   0  0.7278815E-06  0.2299276E+04  0.7818609E-02  0.8478206E-01
        1   -1    0    0  501    0  0.00000000000E+00  0.00000000000E+00  0.19206382527E+04  0.19206382527E+04  0.50400001928E-02 0. -1.
       -1   -1    0    0    0  501  0.00000000000E+00  0.00000000000E+00 -0.68813995626E+03  0.68813995628E+03  0.50400001928E-02 0.  1.
    10030    2    1    2    0    0  0.00000000000E+00  0.00000000000E+00  0.12324982965E+04  0.26087782090E+04  0.22992763412E+04 0.  0.
        5    1    3    3  502    0  0.11726196642E+03 -0.10608937235E+04  0.11008212101E+04  0.15333216518E+04  0.46999998093E+01 0.  1.
       -5    1    3    3    0  502 -0.11726196642E+03  0.10608937235E+04  0.13167708632E+03  0.10754565572E+04  0.46999998093E+01 0. -1.
</event>
<event>
 5   0  0.7183014E-06  0.2324242E+04  0.7818609E-02  0.8468424E-01
        1   -1    0    0  501    0  0.00000000000E+00  0.00000000000E+00  0.10315339027E+04  0.10315339027E+04  0.50400001928E-02 0.  1.
       -1   -1    0    0    0  501  0.00000000000E+00  0.00000000000E+00 -0.13092398196E+04  0.13092398196E+04  0.50400001928E-02 0. -1.
    10030    2    1    2    0    0  0.00000000000E+00  0.00000000000E+00 -0.27770591691E+03  0.23407737223E+04  0.23242420361E+04 0.  0.
        3    1    3    3  502    0  0.59919478483E+03  0.61363791824E+03  0.65090539740E+03  0.10766911031E+04  0.10100000352E+00 0.  1.
       -3    1    3    3    0  502 -0.59919478483E+03 -0.61363791824E+03 -0.92861131431E+03  0.12640826192E+04  0.10100000352E+00 0. -1.
</event>
<event>
 5   0  0.1635955E-05  0.2303761E+04  0.7818609E-02  0.8476440E-01
       -2   -1    0    0    0  501  0.00000000000E+00  0.00000000000E+00  0.65401882533E+03  0.65401882534E+03  0.25500000920E-02 0.  1.
        2   -1    0    0  501    0  0.00000000000E+00  0.00000000000E+00 -0.20287323575E+04  0.20287323575E+04  0.25500000920E-02 0. -1.
    10030    2    1    2    0    0  0.00000000000E+00  0.00000000000E+00 -0.13747135322E+04  0.26827511829E+04  0.23037614055E+04 0.  0.
        2    1    3    3  502    0  0.20451562238E+03  0.60686377346E+03 -0.18023211206E+04  0.19127131780E+04  0.25500000920E-02 0. -1.
       -2    1    3    3    0  502 -0.20451562238E+03 -0.60686377346E+03  0.42760758841E+03  0.77003800491E+03  0.25500000920E-02 0.  1.
</event>
<event>
 5   0  0.1635955E-05  0.2326172E+04  0.7818609E-02  0.8467673E-01
        2   -1    0    0  501    0  0.00000000000E+00  0.00000000000E+00  0.12932989617E+04  0.12932989617E+04  0.25500000920E-02 0. -1.
       -2   -1    0    0    0  501  0.00000000000E+00  0.00000000000E+00 -0.10459833505E+04  0.10459833505E+04  0.25500000920E-02 0.  1.
    10030    2    1    2    0    0  0.00000000000E+00  0.00000000000E+00  0.24731561115E+03  0.23392823122E+04  0.23261721185E+04 0.  0.
        2    1    3    3  502    0 -0.39682711663E+03 -0.52959934904E+03 -0.83819602596E+03  0.10679512203E+04  0.25500000920E-02 0.  1.
       -2    1    3    3    0  502  0.39682711663E+03  0.52959934904E+03  0.10855116371E+04  0.12713310919E+04  0.25500000920E-02 0. -1.
</event>
<event>
 5   0  0.1626636E-05  0.2292273E+04  0.7818609E-02  0.8480974E-01
       -2   -1    0    0    0  501  0.00000000000E+00  0.00000000000E+00  0.12541136131E+04  0.12541136131E+04  0.25500000920E-02 0. -1.
        2   -1    0    0  501    0  0.00000000000E+00  0.00000000000E+00 -0.10474561666E+04  0.10474561666E+04  0.25500000920E-02 0.  1.
    10030    2    1    2    0    0  0.00000000000E+00  0.00000000000E+00  0.20665744643E+03  0.23015697797E+04  0.22922731405E+04 0.  0.
        4    1    3    3  502    0  0.13885360508E+03 -0.35372195658E+03 -0.98236508705E+03  0.10533006804E+04  0.12699999809E+01 0.  1.
       -4    1    3    3    0  502 -0.13885360508E+03  0.35372195658E+03  0.11890225335E+04  0.12482690993E+04  0.12699999809E+01 0. -1.
</event>
<event>
 5   0  0.5704875E-06  0.2300954E+04  0.7818609E-02  0.8477545E-01
        3   -1    0    0  501    0  0.00000000000E+00  0.00000000000E+00  0.17853382922E+04  0.17853382950E+04  0.10100000352E+00 0. -1.
       -3   -1    0    0    0  501  0.00000000000E+00  0.00000000000E+00 -0.74137051462E+03  0.74137052150E+03  0.10100000352E+00 0.  1.
    10030    2    1    2    0    0  0.00000000000E+00  0.00000000000E+00  0.10439677775E+04  0.25267088165E+04  0.23009538724E+04 0.  0.
        3    1    3    3  502    0 -0.86289635597E+03 -0.67355423451E+03  0.91074053097E+03  0.14239781434E+04  0.10100000352E+00 0. -1.
       -3    1    3    3    0  502  0.86289635597E+03  0.67355423451E+03  0.13322724657E+03  0.11027306731E+04  0.10100000352E+00 0.  1.
</event>
<event>
 5   0  0.7183014E-06  0.2312000E+04  0.7818609E-02  0.8473205E-01
        1   -1    0    0  501    0  0.00000000000E+00  0.00000000000E+00  0.12103892849E+04  0.12103892849E+04  0.50400001928E-02 0. -1.
       -1   -1    0    0    0  501  0.00000000000E+00  0.00000000000E+00 -0.11040543132E+04  0.11040543132E+04  0.50400001928E-02 0.  1.
    10030    2    1    2    0    0  0.00000000000E+00  0.00000000000E+00  0.10633497168E+03  0.23144435982E+04  0.23119995768E+04 0.  0.
        3    1    3    3  502    0 -0.16731017449E+03  0.85807368863E+03 -0.70397346970E+03  0.11224356578E+04  0.10100000352E+00 0.  1.
       -3    1    3    3    0  502  0.16731017449E+03 -0.85807368863E+03  0.81030844138E+03  0.11920079404E+04  0.10100000352E+00 0. -1.
</event>
<event>
 5   0  0.7416556E-06  0.2309560E+04  0.7818609E-02  0.8474161E-01
       -1   -1    0    0    0  501  0.00000000000E+00  0.00000000000E+00  0.95702769421E+03  0.95702769422E+03  0.50400001928E-02 0.  1.
        1   -1    0    0  501    0  0.00000000000E+00  0.00000000000E+00 -0.13933943891E+04  0.13933943891E+04  0.50400001928E-02 0. -1.
    10030    2    1    2    0    0  0.00000000000E+00  0.00000000000E+00 -0.43636669487E+03  0.23504220833E+04  0.23095601480E+04 0.  0.
        4    1    3    3  502    0  0.96055482295E+03 -0.19457771744E+03  0.40335051917E+03  0.10598204141E+04  0.12699999809E+01 0. -1.
       -4    1    3    3    0  502 -0.96055482295E+03  0.19457771744E+03 -0.83971721403E+03  0.12906016692E+04  0.12699999809E+01 0.  1.
</event>
<event>
 5   0  0.1697855E-05  0.2345660E+04  0.7818609E-02  0.8460133E-01
        2   -1    0    0  501    0  0.00000000000E+00  0.00000000000E+00  0.90190672309E+03  0.90190672309E+03  0.25500000920E-02 0.  1.
       -2   -1    0    0    0  501  0.00000000000E+00  0.00000000000E+00 -0.15251357499E+04  0.15251357499E+04  0.25500000920E-02 0. -1.
    10030    2    1    2    0    0  0.00000000000E+00  0.00000000000E+00 -0.62322902680E+03  0.24270424730E+04  0.23456599809E+04 0.  0.
        5    1    3    3  502    0  0.32388213690E+03 -0.32070085961E+03 -0.14297360355E+04  0.15006384979E+04  0.46999998093E+01 0. -1.
       -5    1    3    3    0  502 -0.32388213690E+03  0.32070085961E+03  0.80650700874E+03  0.92640397511E+03  0.46999998093E+01 0.  1.
</event>
<event>
 5   0  0.7278815E-06  0.2303171E+04  0.7818609E-02  0.8476672E-01
       -1   -1    0    0    0  501  0.00000000000E+00  0.00000000000E+00  0.12268547486E+04  0.12268547486E+04  0.50400001928E-02 0. -1.
        1   -1    0    0  501    0  0.00000000000E+00  0.00000000000E+00 -0.10809337610E+04  0.10809337610E+04  0.50400001928E-02 0.  1.
    10030    2    1    2    0    0  0.00000000000E+00  0.00000000000E+00  0.14592098765E+03  0.23077885096E+04  0.23031706125E+04 0.  0.
        5    1    3    3  502    0 -0.25187826856E+03  0.10975601773E+04 -0.16844915990E+03  0.11386299726E+04  0.46999998093E+01 0. -1.
       -5    1    3    3    0  502  0.25187826856E+03 -0.10975601773E+04  0.31437014756E+03  0.11691585370E+04  0.46999998093E+01 0.  1.
</event>
<event>
 5   0  0.7202572E-06  0.2292264E+04  0.7818609E-02  0.8480978E-01
       -1   -1    0    0    0  501  0.00000000000E+00  0.00000000000E+00  0.15566535011E+04  0.15566535011E+04  0.50400001928E-02 0. -1.
        1   -1    0    0  501    0  0.00000000000E+00  0.00000000000E+00 -0.84387348809E+03  0.84387348811E+03  0.50400001928E-02 0.  1.
    10030    2    1    2    0    0  0.00000000000E+00  0.00000000000E+00  0.71278001297E+03  0.24005269892E+04  0.22922640509E+04 0.  0.
        2    1    3    3  502    0 -0.79055649242E+03 -0.65285441723E+03  0.89285396411E+03  0.13595538456E+04  0.25500000920E-02 0. -1.
       -2    1    3    3    0  502  0.79055649242E+03  0.65285441723E+03 -0.18007395114E+03  0.10409731436E+04  0.25500000920E-02 0.  1.
</event>
<event>
 5   0  0.1602809E-05  0.2304007E+04  0.7818609E-02  0.8476343E-01
       -2   -1    0    0    0  501  0.00000000000E+00  0.00000000000E+00  0.15864785210E+04  0.15864785210E+04  0.25500000920E-02 0.  1.
        2   -1    0    0  501    0  0.00000000000E+00  0.00000000000E+00 -0.83651469236E+03  0.83651469237E+03  0.25500000920E-02 0. -1.
    10030    2    1    2    0    0  0.00000000000E+00  0.00000000000E+00  0.74996382865E+03  0.24229932134E+04  0.23040074583E+04 0.  0.
        3    1    3    3  502    0  0.95167180189E+03  0.24576621341E+03  0.10068717436E+04  0.14070788778E+04  0.10100000352E+00 0.  1.
       -3    1    3    3    0  502 -0.95167180189E+03 -0.24576621341E+03 -0.25690791497E+03  0.10159143355E+04  0.10100000352E+00 0. -1.
</event>
<event>
 5   0  0.7183014E-06  0.2295480E+04  0.7818609E-02  0.8479705E-01
        1   -1    0    0  501    0  0.00000000000E+00  0.00000000000E+00  0.20537120637E+04  0.20537120637E+04  0.50400001928E-02 0. -1.
       -1   -1    0    0    0  501  0.00000000000E+00  0.00000000000E+00 -0.64142753569E+03  0.64142753571E+03  0.50400001928E-02 0.  1.
    10030    2    1    2    0    0  0.00000000000E+00  0.00000000000E+00  0.14122845280E+04  0.26951395994E+04  0.22954803141E+04 0.  0.
        3    1    3    3  502    0 -0.10126111641E+04  0.41305956299E+03  0.29720921659E+03  0.11332841219E+04  0.10100000352E+00 0.  1.
       -3    1    3    3    0  502  0.10126111641E+04 -0.41305956299E+03  0.11150753114E+04  0.15618554775E+04  0.10100000352E+00 0. -1.
</event>
<event>
 5   0  0.7183014E-06  0.2298138E+04  0.7818609E-02  0.8478656E-01
        1   -1    0    0  501    0  0.00000000000E+00  0.00000000000E+00  0.17664437247E+04  0.17664437247E+04  0.50400001928E-02 0.  1.
       -1   -1    0    0    0  501  0.00000000000E+00  0.00000000000E+00 -0.74746744730E+03  0.74746744732E+03  0.50400001928E-02 0. -1.
    10030    2    1    2    0    0  0.00000000000E+00  0.00000000000E+00  0.10189762774E+04  0.25139111720E+04  0.22981376649E+04 0.  0.
        3    1    3    3  502    0  0.10279383328E+04  0.24655090264E+03  0.10022425761E+04  0.14566862240E+04  0.10100000352E+00 0. -1.
       -3    1    3    3    0  502 -0.10279383328E+04 -0.24655090264E+03  0.16733701280E+02  0.10572249480E+04  0.10100000352E+00 0.  1.
</event>
<event>
 5   0  0.7183014E-06  0.2246344E+04  0.7818609E-02  0.8499382E-01
        1   -1    0    0  501    0  0.00000000000E+00  0.00000000000E+00  0.87423473661E+03  0.87423473663E+03  0.50400001928E-02 0. -1.
       -1   -1    0    0    0  501  0.00000000000E+00  0.00000000000E+00 -0.14429942108E+04  0.14429942108E+04  0.50400001928E-02 0.  1.
    10030    2    1    2    0    0  0.00000000000E+00  0.00000000000E+00 -0.56875947414E+03  0.23172289474E+04  0.22463442869E+04 0.  0.
        3    1    3    3  502    0  0.83060118782E+03 -0.60705607252E+03  0.18050774233E+03  0.10445087188E+04  0.10100000352E+00 0. -1.
       -3    1    3    3    0  502 -0.83060118782E+03  0.60705607252E+03 -0.74926721647E+03  0.12727202286E+04  0.10100000352E+00 0.  1.
</event>
<event>
 5   0  0.5704875E-06  0.2207037E+04  0.7818609E-02  0.8515505E-01
       -4   -1    0    0    0  501  0.00000000000E+00  0.00000000000E+00  0.13694519367E+04  0.13694525256E+04  0.12699999809E+01 0.  1.
        4   -1    0    0  501    0  0.00000000000E+00  0.00000000000E+00 -0.88922535416E+03  0.88922626108E+03  0.12699999809E+01 0. -1.
    10030    2    1    2    0    0  0.00000000000E+00  0.00000000000E+00  0.48022658256E+03  0.22586787867E+04  0.22070369935E+04 0.  0.
        3    1    3    3  502    0 -0.63267763529E+03 -0.13265152487E+03  0.11553977687E+04  0.13239416268E+04  0.10100000352E+00 0.  1.
       -3    1    3    3    0  502  0.63267763529E+03  0.13265152487E+03 -0.67517118611E+03  0.93473715984E+03  0.10100000352E+00 0. -1.
</event>
<event>
 5   0  0.7416556E-06  0.2308396E+04  0.7818609E-02  0.8474618E-01
        1   -1    0    0  501    0  0.00000000000E+00  0.00000000000E+00  0.86883214077E+03  0.86883214078E+03  0.50400001928E-02 0. -1.
       -1   -1    0    0    0  501  0.00000000000E+00  0.00000000000E+00 -0.15332909958E+04  0.15332909958E+04  0.50400001928E-02 0.  1.
    10030    2    1    2    0    0  0.00000000000E+00  0.00000000000E+00 -0.66445885500E+03  0.24021231366E+04  0.23083955452E+04 0.  0.
        4    1    3    3  502    0 -0.59333450302E+03 -0.23221850896E+03 -0.13336980281E+04  0.14780809556E+04  0.12699999809E+01 0.  1.
       -4    1    3    3    0  502  0.59333450302E+03  0.23221850896E+03  0.66923917310E+03  0.92404218091E+03  0.12699999809E+01 0. -1.
</event>
<event>
 5   0  0.7416556E-06  0.2346391E+04  0.7818609E-02  0.8459851E-01
        1   -1    0    0  501    0  0.00000000000E+00  0.00000000000E+00  0.79824658989E+03  0.79824658991E+03  0.50400001928E-02 0.  1.
       -1   -1    0    0    0  501  0.00000000000E+00  0.00000000000E+00 -0.17242641028E+04  0.17242641028E+04  0.50400001928E-02 0. -1.
    10030    2    1    2    0    0  0.00000000000E+00  0.00000000000E+00 -0.92601751286E+03  0.25225106927E+04  0.23463912207E+04 0.  0.
        4    1    3    3  502    0 -0.95733121747E+03 -0.45437464565E+03 -0.10042316070E+04  0.14599390782E+04  0.12699999809E+01 0.  1.
       -4    1    3    3    0  502  0.95733121747E+03  0.45437464565E+03  0.78214094120E+02  0.10625716145E+04  0.12699999809E+01 0. -1.
</event>
<event>
 5   0  0.1602809E-05  0.2299211E+04  0.7818609E-02  0.8478232E-01
       -2   -1    0    0    0  501  0.00000000000E+00  0.00000000000E+00  0.13547077720E+04  0.13547077720E+04  0.25500000920E-02 0.  1.
        2   -1    0    0  501    0  0.00000000000E+00  0.00000000000E+00 -0.97555563715E+03  0.97555563715E+03  0.25500000920E-02 0. -1.
    10030    2    1    2    0    0  0.00000000000E+00  0.00000000000E+00  0.37915213482E+03  0.23302634091E+04  0.22992109983E+04 0.  0.
        3    1    3    3  502    0  0.42097081805E+03  0.86596398627E+02  0.12702209703E+04  0.13409611066E+04  0.10100000352E+00 0.  1.
       -3    1    3    3    0  502 -0.42097081805E+03 -0.86596398627E+02 -0.89106883549E+03  0.98930230248E+03  0.10100000352E+00 0. -1.
</event>
<event>
 5   0  0.1626636E-05  0.2298980E+04  0.7818609E-02  0.8478324E-01
        2   -1    0    0  501    0  0.00000000000E+00  0.00000000000E+00  0.19398722232E+04  0.19398722232E+04  0.25500000920E-02 0. -1.
       -2   -1    0    0    0  501  0.00000000000E+00  0.00000000000E+00 -0.68114119812E+03  0.68114119812E+03  0.25500000920E-02 0.  1.
    10030    2    1    2    0    0  0.00000000000E+00  0.00000000000E+00  0.12587310250E+04  0.26210134213E+04  0.22989796783E+04 0.  0.
        4    1    3    3  502    0 -0.89461731850E+03 -0.67656419937E+03  0.34265032685E+03  0.11728129100E+04  0.12699999809E+01 0.  1.
       -4    1    3    3    0  502  0.89461731850E+03  0.67656419937E+03  0.91608069819E+03  0.14482005113E+04  0.12699999809E+01 0. -1.
</event>
<event>
 5   0  0.1626636E-05  0.2303428E+04  0.7818609E-02  0.8476571E-01
       -2   -1    0    0    0  501  0.00000000000E+00  0.00000000000E+00  0.18347885687E+04  0.18347885687E+04  0.25500000920E-02 0.  1.
        2   -1    0    0  501    0  0.00000000000E+00  0.00000000000E+00 -0.72294138797E+03  0.72294138797E+03  0.25500000920E-02 0. -1.
    10030    2    1    2    0    0  0.00000000000E+00  0.00000000000E+00  0.11118471807E+04  0.25577299567E+04  0.23034275283E+04 0.  0.
        4    1    3    3  502    0 -0.64749842560E+03 -0.82053044782E+03  0.10929708108E+04  0.15123198184E+04  0.12699999809E+01 0. -1.
       -4    1    3    3    0  502  0.64749842560E+03  0.82053044782E+03  0.18876369920E+02  0.10454101383E+04  0.12699999809E+01 0.  1.
</event>
<event>
 5   0  0.7278815E-06  0.2281863E+04  0.7818609E-02  0.8485107E-01
        1   -1    0    0  501    0  0.00000000000E+00  0.00000000000E+00  0.10259048216E+04  0.10259048216E+04  0.50400001928E-02 0. -1.
       -1   -1    0    0    0  501  0.00000000000E+00  0.00000000000E+00 -0.12688552355E+04  0.12688552355E+04  0.50400001928E-02 0.  1.
    10030    2    1    2    0    0  0.00000000000E+00  0.00000000000E+00 -0.24295041398E+03  0.22947600571E+04  0.22818630143E+04 0.  0.
        5    1    3    3  502    0  0.54057398510E+03 -0.59128540511E+03  0.69543611290E+03  0.10608921438E+04  0.46999998093E+01 0. -1.
       -5    1    3    3    0  502 -0.54057398510E+03  0.59128540511E+03 -0.93838652688E+03  0.12338679133E+04  0.46999998093E+01 0.  1.
</event>
<event>
 5   0  0.7183014E-06  0.2297600E+04  0.7818609E-02  0.8478868E-01
        1   -1    0    0  501    0  0.00000000000E+00  0.00000000000E+00  0.17980082877E+04  0.17980082877E+04  0.50400001928E-02 0.  1.
       -1   -1    0    0    0  501  0.00000000000E+00  0.00000000000E+00 -0.73400193770E+03  0.73400193772E+03  0.50400001928E-02 0. -1.
    10030    2    1    2    0    0  0.00000000000E+00  0.00000000000E+00  0.10640063500E+04  0.25320102254E+04  0.22976001107E+04 0.  0.
        3    1    3    3  502    0  0.10466878603E+03  0.99072671191E+03 -0.98414778772E+02  0.10010896320E+04  0.10100000352E+00 0. -1.
       -3    1    3    3    0  502 -0.10466878603E+03 -0.99072671191E+03  0.11624211287E+04  0.15309205934E+04  0.10100000352E+00 0.  1.
</event>
<event>
 5   0  0.1626636E-05  0.2300727E+04  0.7818609E-02  0.8477634E-01
       -2   -1    0    0    0  501  0.00000000000E+00  0.00000000000E+00  0.16406263807E+04  0.16406263807E+04  0.25500000920E-02 0.  1.
        2   -1    0    0  501    0  0.00000000000E+00  0.00000000000E+00 -0.80660443644E+03  0.80660443645E+03  0.25500000920E-02 0. -1.
    10030    2    1    2    0    0  0.00000000000E+00  0.00000000000E+00  0.83402194424E+03  0.24472308171E+04  0.23007272913E+04 0.  0.
        4    1    3    3  502    0  0.51362429527E+03  0.49662554004E+03 -0.54200350050E+03  0.89678104974E+03  0.12699999809E+01 0. -1.
       -4    1    3    3    0  502 -0.51362429527E+03 -0.49662554004E+03  0.13760254447E+04  0.15504497674E+04  0.12699999809E+01 0.  1.
</event>
<event>
 5   0  0.1697855E-05  0.2316075E+04  0.7818609E-02  0.8471610E-01
        2   -1    0    0  501    0  0.00000000000E+00  0.00000000000E+00  0.13861544893E+04  0.13861544893E+04  0.25500000920E-02 0. -1.
       -2   -1    0    0    0  501  0.00000000000E+00  0.00000000000E+00 -0.96746149445E+03  0.96746149445E+03  0.25500000920E-02 0.  1.
    10030    2    1    2    0    0  0.00000000000E+00  0.00000000000E+00  0.41869299481E+03  0.23536159837E+04  0.23160752092E+04 0.  0.
        5    1    3    3  502    0  0.24082401810E+03  0.31077130123E+03 -0.89755352983E+03  0.97989766725E+03  0.46999998093E+01 0.  1.
       -5    1    3    3    0  502 -0.24082401810E+03 -0.31077130123E+03  0.13162465246E+04  0.13737183165E+04  0.46999998093E+01 0. -1.
</event>
<event>
 5   0  0.7278815E-06  0.2296378E+04  0.7818609E-02  0.8479351E-01
        1   -1    0    0  501    0  0.00000000000E+00  0.00000000000E+00  0.12166160543E+04  0.12166160543E+04  0.50400001928E-02 0. -1.
       -1   -1    0    0    0  501  0.00000000000E+00  0.00000000000E+00 -0.10836101152E+04  0.10836101152E+04  0.50400001928E-02 0.  1.
    10030    2    1    2    0    0  0.00000000000E+00  0.00000000000E+00  0.13300593908E+03  0.23002261695E+04  0.22963775498E+04 0.  0.
        5    1    3    3  502    0 -0.88925855874E+02  0.68240957107E+03  0.98713240208E+03  0.12033466249E+04  0.46999998093E+01 0. -1.
       -5    1    3    3    0  502  0.88925855874E+02 -0.68240957107E+03 -0.85412646300E+03  0.10968795446E+04  0.46999998093E+01 0.  1.
</event>
<event>
 5   0  0.7183014E-06  0.2293437E+04  0.7818609E-02  0.8480513E-01
        1   -1    0    0  501    0  0.00000000000E+00  0.00000000000E+00  0.98734915851E+03  0.98734915852E+03  0.50400001928E-02 0.  1.
       -1   -1    0    0    0  501  0.00000000000E+00  0.00000000000E+00 -0.13318117149E+04  0.13318117149E+04  0.50400001928E-02 0. -1.
    10030    2    1    2    0    0  0.00000000000E+00  0.00000000000E+00 -0.34446255638E+03  0.23191608734E+04  0.22934368760E+04 0.  0.
        3    1    3    3  502    0  0.78727451235E+03 -0.59196531184E+03 -0.76596175438E+03  0.12477666078E+04  0.10100000352E+00 0. -1.
       -3    1    3    3    0  502 -0.78727451235E+03  0.59196531184E+03  0.42149919800E+03  0.10713942656E+04  0.10100000352E+00 0.  1.
</event>
<event>
 5   0  0.1635955E-05  0.2300241E+04  0.7818609E-02  0.8477826E-01
        2   -1    0    0  501    0  0.00000000000E+00  0.00000000000E+00  0.22992250129E+04  0.22992250129E+04  0.25500000920E-02 0. -1.
       -2   -1    0    0    0  501  0.00000000000E+00  0.00000000000E+00 -0.57531441859E+03  0.57531441859E+03  0.25500000920E-02 0.  1.
    10030    2    1    2    0    0  0.00000000000E+00  0.00000000000E+00  0.17239105943E+04  0.28745394315E+04  0.23002411191E+04 0.  0.
        2    1    3    3  502    0 -0.31060589808E+03 -0.15189586129E+03 -0.50882874378E+03  0.61518701798E+03  0.25500000920E-02 0.  1.
       -2    1    3    3    0  502  0.31060589808E+03  0.15189586129E+03  0.22327393381E+04  0.22593524135E+04  0.25500000920E-02 0. -1.
</event>
<event>
 5   0  0.1697855E-05  0.2301517E+04  0.7818609E-02  0.8477323E-01
       -2   -1    0    0    0  501  0.00000000000E+00  0.00000000000E+00  0.98587918188E+03  0.98587918188E+03  0.25500000920E-02 0. -1.
        2   -1    0    0  501    0  0.00000000000E+00  0.00000000000E+00 -0.13432127152E+04  0.13432127152E+04  0.25500000920E-02 0.  1.
    10030    2    1    2    0    0  0.00000000000E+00  0.00000000000E+00 -0.35733353334E+03  0.23290918971E+04  0.23015172845E+04 0.  0.
        5    1    3    3  502    0  0.74047832686E+03  0.85325376734E+03 -0.40008771054E+03  0.11985167542E+04  0.46999998093E+01 0.  1.
       -5    1    3    3    0  502 -0.74047832686E+03 -0.85325376734E+03  0.42754177202E+02  0.11305751429E+04  0.46999998093E+01 0. -1.
</event>
<event>
 5   0  0.1588969E-05  0.2297579E+04  0.7818609E-02  0.8478876E-01
        2   -1    0    0  501    0  0.00000000000E+00  0.00000000000E+00  0.81237319529E+03  0.81237319529E+03  0.25500000920E-02 0.  1.
       -2   -1    0    0    0  501  0.00000000000E+00  0.00000000000E+00 -0.16245204584E+04  0.16245204584E+04  0.25500000920E-02 0. -1.
    10030    2    1    2    0    0  0.00000000000E+00  0.00000000000E+00 -0.81214726307E+03  0.24368936537E+04  0.22975786172E+04 0.  0.
        1    1    3    3  502    0 -0.81355817287E+03  0.11192532696E+03  0.44594933409E+03  0.93449183414E+03  0.50400001928E-02 0.  1.
       -1    1    3    3    0  502  0.81355817287E+03 -0.11192532696E+03 -0.12580965972E+04  0.15024018195E+04  0.50400001928E-02 0. -1.
</event>
<event>
 5   0  0.1626636E-05  0.2296678E+04  0.7818609E-02  0.8479232E-01
       -2   -1    0    0    0  501  0.00000000000E+00  0.00000000000E+00  0.13007061755E+04  0.13007061756E+04  0.25500000920E-02 0.  1.
        2   -1    0    0  501    0  0.00000000000E+00  0.00000000000E+00 -0.10138201955E+04  0.10138201955E+04  0.25500000920E-02 0. -1.
    10030    2    1    2    0    0  0.00000000000E+00  0.00000000000E+00  0.28688598005E+03  0.23145263711E+04  0.22966777651E+04 0.  0.
        4    1    3    3  502    0  0.44320722375E+03  0.23876722882E+03  0.11835677194E+04  0.12861868418E+04  0.12699999809E+01 0.  1.
       -4    1    3    3    0  502 -0.44320722375E+03 -0.23876722882E+03 -0.89668173937E+03  0.10283395292E+04  0.12699999809E+01 0. -1.
</event>
<event>
 5   0  0.1697855E-05  0.2299430E+04  0.7818609E-02  0.8478146E-01
        2   -1    0    0  501    0  0.00000000000E+00  0.00000000000E+00  0.13106573881E+04  0.13106573881E+04  0.25500000920E-02 0. -1.
       -2   -1    0    0    0  501  0.00000000000E+00  0.00000000000E+00 -0.10085356397E+04  0.10085356397E+04  0.25500000920E-02 0.  1.
    10030    2    1    2    0    0  0.00000000000E+00  0.00000000000E+00  0.30212174840E+03  0.23191930278E+04  0.22994300923E+04 0.  0.
        5    1    3    3  502    0  0.14520284969E+03 -0.58113184730E+03 -0.83871156271E+03  0.10306586568E+04  0.46999998093E+01 0.  1.
       -5    1    3    3    0  502 -0.14520284969E+03  0.58113184730E+03  0.11408333111E+04  0.12885343710E+04  0.46999998093E+01 0. -1.
</event>
<event>
 5   0  0.1602809E-05  0.2296015E+04  0.7818609E-02  0.8479494E-01
       -2   -1    0    0    0  501  0.00000000000E+00  0.00000000000E+00  0.97145943843E+03  0.97145943844E+03  0.25500000920E-02 0. -1.
        2   -1    0    0  501    0  0.00000000000E+00  0.00000000000E+00 -0.13566409003E+04  0.13566409003E+04  0.25500000920E-02 0.  1.
    10030    2    1    2    0    0  0.00000000000E+00  0.00000000000E+00 -0.38518146187E+03  0.23281003387E+04  0.22960153372E+04 0.  0.
        3    1    3    3  502    0 -0.21444163198E+03 -0.10245617447E+04  0.28538773645E+03  0.10849691943E+04  0.10100000352E+00 0. -1.
       -3    1    3    3    0  502  0.21444163198E+03  0.10245617447E+04 -0.67056919831E+03  0.12431311444E+04  0.10100000352E+00 0.  1.
</event>
<event>
 5   0  0.7416556E-06  0.2293249E+04  0.7818609E-02  0.8480588E-01
        1   -1    0    0  501    0  0.00000000000E+00  0.00000000000E+00  0.91349189336E+03  0.91349189337E+03  0.50400001928E-02 0. -1.
       -1   -1    0    0    0  501  0.00000000000E+00  0.00000000000E+00 -0.14392544803E+04  0.14392544803E+04  0.50400001928E-02 0.  1.
    10030    2    1    2    0    0  0.00000000000E+00  0.00000000000E+00 -0.52576258697E+03  0.23527463737E+04  0.22932486130E+04 0.  0.
        4    1    3    3  502    0 -0.93234795122E+03  0.24792120851E+03  0.37288008687E+03  0.10343011166E+04  0.12699999809E+01 0. -1.
       -4    1    3    3    0  502  0.93234795122E+03 -0.24792120851E+03 -0.89864267384E+03  0.13184452571E+04  0.12699999809E+01 0.  1.
</event>
<event>
 5   0  0.1697855E-05  0.2310004E+04  0.7818609E-02  0.8473987E-01
        2   -1    0    0  501    0  0.00000000000E+00  0.00000000000E+00  0.13296374655E+04  0.13296374655E+04  0.25500000920E-02 0. -1.
       -2   -1    0    0    0  501  0.00000000000E+00  0.00000000000E+00 -0.10033031968E+04  0.10033031968E+04  0.25500000920E-02 0.  1.
    10030    2    1    2    0    0  0.00000000000E+00  0.00000000000E+00  0.32633426868E+03  0.23329406623E+04  0.23100039132E+04 0.  0.
        5    1    3    3  502    0 -0.61019852492E+03 -0.86087844071E+02 -0.82339169643E+03  0.10284694125E+04  0.46999998093E+01 0.  1.
       -5    1    3    3    0  502  0.61019852492E+03  0.86087844071E+02  0.11497259651E+04  0.13044712498E+04  0.46999998093E+01 0. -1.
</event>
<event>
 5   0  0.7278815E-06  0.2286832E+04  0.7818609E-02  0.8483131E-01
        1   -1    0    0  501    0  0.00000000000E+00  0.00000000000E+00  0.14010716321E+04  0.14010716321E+04  0.50400001928E-02 0.  1.
       -1   -1    0    0    0  501  0.00000000000E+00  0.00000000000E+00 -0.93314261039E+03  0.93314261041E+03  0.50400001928E-02 0. -1.
    10030    2    1    2    0    0  0.00000000000E+00  0.00000000000E+00  0.46792902168E+03  0.23342142425E+04  0.22868315549E+04 0.  0.
        5    1    3    3  502    0 -0.11742174206E+03  0.91622297878E+03  0.92181541066E+03  0.13049973769E+04  0.46999998093E+01 0.  1.
       -5    1    3    3    0  502  0.11742174206E+03 -0.91622297878E+03 -0.45388638898E+03  0.10292168656E+04  0.46999998093E+01 0. -1.
</event>
<event>
 5   0  0.7278815E-06  0.2294082E+04  0.7818609E-02  0.8480258E-01
       -1   -1    0    0    0  501  0.00000000000E+00  0.00000000000E+00  0.76383345010E+03  0.76383345012E+03  0.50400001928E-02 0.  1.
        1   -1    0    0  501    0  0.00000000000E+00  0.00000000000E+00 -0.17225003574E+04  0.17225003574E+04  0.50400001928E-02 0. -1.
    10030    2    1    2    0    0  0.00000000000E+00  0.00000000000E+00 -0.95866690726E+03  0.24863338075E+04  0.22940822921E+04 0.  0.
        5    1    3    3  502    0 -0.14569498654E+03 -0.14028592766E+03 -0.17030112036E+04  0.17149858367E+04  0.46999998093E+01 0. -1.
       -5    1    3    3    0  502  0.14569498654E+03  0.14028592766E+03  0.74434429630E+03  0.77134797079E+03  0.46999998093E+01 0.  1.
</event>
<event>
 5   0  0.7278815E-06  0.2303189E+04  0.7818609E-02  0.8476665E-01
        1   -1    0    0  501    0  0.00000000000E+00  0.00000000000E+00  0.16106498349E+04  0.16106498349E+04  0.50400001928E-02 0. -1.
       -1   -1    0    0    0  501  0.00000000000E+00  0.00000000000E+00 -0.82337550361E+03  0.82337550363E+03  0.50400001928E-02 0.  1.
    10030    2    1    2    0    0  0.00000000000E+00  0.00000000000E+00  0.78727433127E+03  0.24340253385E+04  0.23031887625E+04 0.  0.
        5    1    3    3  502    0  0.50581248216E+03 -0.36880823810E+03 -0.62785371487E+03  0.88661612937E+03  0.46999998093E+01 0.  1.
       -5    1    3    3    0  502 -0.50581248216E+03  0.36880823810E+03  0.14151280461E+04  0.15474092091E+04  0.46999998093E+01 0. -1.
</event>
<event>
 5   0  0.7391007E-06  0.2307535E+04  0.7818609E-02  0.8474956E-01
       -1   -1    0    0    0  501  0.00000000000E+00  0.00000000000E+00  0.18698859673E+04  0.18698859673E+04  0.50400001928E-02 0. -1.
        1   -1    0    0  501    0  0.00000000000E+00  0.00000000000E+00 -0.71190387183E+03  0.71190387184E+03  0.50400001928E-02 0.  1.
    10030    2    1    2    0    0  0.00000000000E+00  0.00000000000E+00  0.11579820954E+04  0.25817898391E+04  0.23075346671E+04 0.  0.
        1    1    3    3  502    0 -0.10642826044E+04 -0.72994393913E+02  0.10707178152E+04  0.15114437745E+04  0.50400001928E-02 0. -1.
       -1    1    3    3    0  502  0.10642826044E+04  0.72994393913E+02  0.87264280227E+02  0.10703460647E+04  0.50400001928E-02 0.  1.
</event>
<event>
 5   0  0.1602809E-05  0.2320526E+04  0.7818609E-02  0.8469872E-01
        2   -1    0    0  501    0  0.00000000000E+00  0.00000000000E+00  0.22759040268E+04  0.22759040268E+04  0.25500000920E-02 0.  1.
       -2   -1    0    0    0  501  0.00000000000E+00  0.00000000000E+00 -0.59150578365E+03  0.59150578366E+03  0.25500000920E-02 0. -1.
    10030    2    1    2    0    0  0.00000000000E+00  0.00000000000E+00  0.16843982431E+04  0.28674098105E+04  0.23205261428E+04 0.  0.
        3    1    3    3  502    0  0.11273137241E+04 -0.10751821472E+03  0.11543476103E+04  0.16170698237E+04  0.10100000352E+00 0.  1.
       -3    1    3    3    0  502 -0.11273137241E+04  0.10751821472E+03  0.53005063280E+03  0.12503399868E+04  0.10100000352E+00 0. -1.
</event>
<event>
 5   0  0.5704875E-06  0.2299989E+04  0.7818609E-02  0.8477925E-01
       -4   -1    0    0    0  501  0.00000000000E+00  0.00000000000E+00  0.17427399603E+04  0.17427404230E+04  0.12699999809E+01 0. -1.
        4   -1    0    0  501    0  0.00000000000E+00  0.00000000000E+00 -0.75885416444E+03  0.75885522716E+03  0.12699999809E+01 0.  1.
    10030    2    1    2    0    0  0.00000000000E+00  0.00000000000E+00  0.98388579584E+03  0.25015956502E+04  0.22999890299E+04 0.  0.
        2    1    3    3  502    0  0.58647108925E+03 -0.69127961946E+03  0.12615477522E+04  0.15534859452E+04  0.25500000920E-02 0. -1.
       -2    1    3    3    0  502 -0.58647108925E+03  0.69127961946E+03 -0.27766195631E+03  0.94810970504E+03  0.25500000920E-02 0.  1.
</event>
<event>
 5   0  0.7416556E-06  0.2286478E+04  0.7818609E-02  0.8483272E-01
        1   -1    0    0  501    0  0.00000000000E+00  0.00000000000E+00  0.26391229229E+04  0.26391229229E+04  0.50400001928E-02 0.  1.
       -1   -1    0    0    0  501  0.00000000000E+00  0.00000000000E+00 -0.49523875368E+03  0.49523875371E+03  0.50400001928E-02 0. -1.
    10030    2    1    2    0    0  0.00000000000E+00  0.00000000000E+00  0.21438841692E+04  0.31343616766E+04  0.22864784689E+04 0.  0.
        4    1    3    3  502    0 -0.47758393193E+03  0.84040386925E+03  0.19087397673E+04  0.21395453226E+04  0.12699999809E+01 0.  1.
       -4    1    3    3    0  502  0.47758393193E+03 -0.84040386925E+03  0.23514440194E+03  0.99481635398E+03  0.12699999809E+01 0. -1.
</event>
<event>
 5   0  0.1635955E-05  0.2296809E+04  0.7818609E-02  0.8479180E-01
        2   -1    0    0  501    0  0.00000000000E+00  0.00000000000E+00  0.14736762044E+04  0.14736762044E+04  0.25500000920E-02 0.  1.
       -2   -1    0    0    0  501  0.00000000000E+00  0.00000000000E+00 -0.89492707369E+03  0.89492707370E+03  0.25500000920E-02 0. -1.
    10030    2    1    2    0    0  0.00000000000E+00  0.00000000000E+00  0.57874913070E+03  0.23686032781E+04  0.22968088586E+04 0.  0.
        2    1    3    3  502    0 -0.11045111826E+03  0.13816315681E+02  0.14680998612E+04  0.14723136698E+04  0.25500000920E-02 0.  1.
       -2    1    3    3    0  502  0.11045111826E+03 -0.13816315681E+02 -0.88935073045E+03  0.89628960825E+03  0.25500000920E-02 0. -1.
</event>
<event>
 5   0  0.1635955E-05  0.2301140E+04  0.7818609E-02  0.8477472E-01
       -2   -1    0    0    0  501  0.00000000000E+00  0.00000000000E+00  0.74718014098E+03  0.74718014098E+03  0.25500000920E-02 0.  1.
        2   -1    0    0  501    0  0.00000000000E+00  0.00000000000E+00 -0.17717424499E+04  0.17717424499E+04  0.25500000920E-02 0. -1.
    10030    2    1    2    0    0  0.00000000000E+00  0.00000000000E+00 -0.10245623089E+04  0.25189225908E+04  0.23011395207E+04 0.  0.
        2    1    3    3  502    0 -0.10256779982E+04  0.50288872755E+03 -0.66276287837E+03  0.13206691718E+04  0.25500000920E-02 0. -1.
       -2    1    3    3    0  502  0.10256779982E+04 -0.50288872755E+03 -0.36179943051E+03  0.11982534191E+04  0.25500000920E-02 0.  1.
</event>
<event>
 5   0  0.7391007E-06  0.2304150E+04  0.7818609E-02  0.8476287E-01
        1   -1    0    0  501    0  0.00000000000E+00  0.00000000000E+00  0.18062801804E+04  0.18062801804E+04  0.50400001928E-02 0.  1.
       -1   -1    0    0    0  501  0.00000000000E+00  0.00000000000E+00 -0.73481245194E+03  0.73481245196E+03  0.50400001928E-02 0. -1.
    10030    2    1    2    0    0  0.00000000000E+00  0.00000000000E+00  0.10714677285E+04  0.25410926324E+04  0.23041503148E+04 0.  0.
        1    1    3    3  502    0 -0.88210313055E+02  0.13292744054E+03 -0.72257201978E+03  0.73997370735E+03  0.50400001928E-02 0. -1.
       -1    1    3    3    0  502  0.88210313055E+02 -0.13292744054E+03  0.17940397482E+04  0.18011189250E+04  0.50400001928E-02 0.  1.
</event>
<event>
 5   0  0.1697855E-05  0.2297202E+04  0.7818609E-02  0.8479025E-01
        2   -1    0    0  501    0  0.00000000000E+00  0.00000000000E+00  0.15293814582E+04  0.15293814582E+04  0.25500000920E-02 0. -1.
       -2   -1    0    0    0  501  0.00000000000E+00  0.00000000000E+00 -0.86262573569E+03  0.86262573569E+03  0.25500000920E-02 0.  1.
    10030    2    1    2    0    0  0.00000000000E+00  0.00000000000E+00  0.66675572248E+03  0.23920071939E+04  0.22972016067E+04 0.  0.
        5    1    3    3  502    0 -0.44430491785E+03  0.35643202223E+03 -0.70518711938E+03  0.90651067828E+03  0.46999998093E+01 0.  1.
       -5    1    3    3    0  502  0.44430491785E+03 -0.35643202223E+03  0.13719428419E+04  0.14854965156E+04  0.46999998093E+01 0. -1.
</event>
<event>
 5   0  0.7183014E-06  0.2299184E+04  0.7818609E-02  0.8478243E-01
       -1   -1    0    0    0  501  0.00000000000E+00  0.00000000000E+00  0.89734005923E+03  0.89734005924E+03  0.50400001928E-02 0.  1.
        1   -1    0    0  501    0  0.00000000000E+00  0.00000000000E+00 -0.14727542868E+04  0.14727542868E+04  0.50400001928E-02 0. -1.
    10030    2    1    2    0    0  0.00000000000E+00  0.00000000000E+00 -0.57541422756E+03  0.23700943460E+04  0.22991836977E+04 0.  0.
        3    1    3    3  502    0  0.44839840427E+03  0.12162332628E+03 -0.13716644719E+04  0.14482115854E+04  0.10100000352E+00 0. -1.
       -3    1    3    3    0  502 -0.44839840427E+03 -0.12162332628E+03  0.79625024436E+03  0.92188276060E+03  0.10100000352E+00 0.  1.
</event>
<event>
 5   0  0.1626636E-05  0.2299346E+04  0.7818609E-02  0.8478179E-01
       -2   -1    0    0    0  501  0.00000000000E+00  0.00000000000E+00  0.77206999366E+03  0.77206999367E+03  0.25500000920E-02 0. -1.
        2   -1    0    0  501    0  0.00000000000E+00  0.00000000000E+00 -0.17119535546E+04  0.17119535546E+04  0.25500000920E-02 0.  1.
    10030    2    1    2    0    0  0.00000000000E+00  0.00000000000E+00 -0.93988356091E+03  0.24840235482E+04  0.22993459679E+04 0.  0.
        4    1    3    3  502    0 -0.10369499584E+04  0.39029658176E+03 -0.13845905474E+03  0.11165881787E+04  0.12699999809E+01 0. -1.
       -4    1    3    3    0  502  0.10369499584E+04 -0.39029658176E+03 -0.80142450617E+03  0.13674353696E+04  0.12699999809E+01 0.  1.
</event>
<event>
 5   0  0.5704875E-06  0.2297919E+04  0.7818609E-02  0.8478742E-01
       -4   -1    0    0    0  501  0.00000000000E+00  0.00000000000E+00  0.92222689120E+03  0.92222776566E+03  0.12699999809E+01 0. -1.
        4   -1    0    0  501    0  0.00000000000E+00  0.00000000000E+00 -0.14314331551E+04  0.14314337185E+04  0.12699999809E+01 0.  1.
    10030    2    1    2    0    0  0.00000000000E+00  0.00000000000E+00 -0.50920626392E+03  0.23536614842E+04  0.22979189200E+04 0.  0.
        2    1    3    3  502    0 -0.11056254628E+04  0.23013943338E+03 -0.47124278979E+03  0.12236999591E+04  0.25500000920E-02 0. -1.
       -2    1    3    3    0  502  0.11056254628E+04 -0.23013943338E+03 -0.37963474131E+02  0.11299615251E+04  0.25500000920E-02 0.  1.
</event>
<event>
 5   0  0.7391007E-06  0.2305420E+04  0.7818609E-02  0.8475787E-01
        1   -1    0    0  501    0  0.00000000000E+00  0.00000000000E+00  0.14270356114E+04  0.14270356115E+04  0.50400001928E-02 0.  1.
       -1   -1    0    0    0  501  0.00000000000E+00  0.00000000000E+00 -0.93111908219E+03  0.93111908220E+03  0.50400001928E-02 0. -1.
    10030    2    1    2    0    0  0.00000000000E+00  0.00000000000E+00  0.49591652926E+03  0.23581546937E+04  0.23054197785E+04 0.  0.
        1    1    3    3  502    0  0.31974852399E+03 -0.10992530179E+04  0.11017829755E+03  0.11501024186E+04  0.50400001928E-02 0.  1.
       -1    1    3    3    0  502 -0.31974852399E+03  0.10992530179E+04  0.38573823171E+03  0.12080522751E+04  0.50400001928E-02 0. -1.
</event>
<event>
 5   0  0.7391007E-06  0.2299835E+04  0.7818609E-02  0.8477986E-01
        1   -1    0    0  501    0  0.00000000000E+00  0.00000000000E+00  0.28762071512E+04  0.28762071513E+04  0.50400001928E-02 0.  1.
       -1   -1    0    0    0  501  0.00000000000E+00  0.00000000000E+00 -0.45974101916E+03  0.45974101919E+03  0.50400001928E-02 0. -1.
    10030    2    1    2    0    0  0.00000000000E+00  0.00000000000E+00  0.24164661321E+04  0.33359481704E+04  0.22998351307E+04 0.  0.
        1    1    3    3  502    0 -0.86324393514E+03 -0.18483672991E+03  0.13941253218E+03  0.89375083912E+03  0.50400001928E-02 0. -1.
       -1    1    3    3    0  502  0.86324393514E+03  0.18483672991E+03  0.22770535999E+04  0.24421973313E+04  0.50400001928E-02 0.  1.
</event>
<event>
 5   0  0.7183014E-06  0.2295428E+04  0.7818609E-02  0.8479726E-01
        1   -1    0    0  501    0  0.00000000000E+00  0.00000000000E+00  0.17778274373E+04  0.17778274373E+04  0.50400001928E-02 0. -1.
       -1   -1    0    0    0  501  0.00000000000E+00  0.00000000000E+00 -0.74093087364E+03  0.74093087366E+03  0.50400001928E-02 0.  1.
    10030    2    1    2    0    0  0.00000000000E+00  0.00000000000E+00  0.10368965637E+04  0.25187583110E+04  0.22954278349E+04 0.  0.
        3    1    3    3  502    0 -0.95386622824E+03  0.40329128398E+03 -0.24398945833E+02  0.10359053817E+04  0.10100000352E+00 0. -1.
       -3    1    3    3    0  502  0.95386622824E+03 -0.40329128398E+03  0.10612955095E+04  0.14828529292E+04  0.10100000352E+00 0.  1.
</event>
<event>
 5   0  0.1626636E-05  0.2303317E+04  0.7818609E-02  0.8476614E-01
       -2   -1    0    0    0  501  0.00000000000E+00  0.00000000000E+00  0.92446974619E+03  0.92446974619E+03  0.25500000920E-02 0. -1.
        2   -1    0    0  501    0  0.00000000000E+00  0.00000000000E+00 -0.14346792089E+04  0.14346792089E+04  0.25500000920E-02 0.  1.
    10030    2    1    2    0    0  0.00000000000E+00  0.00000000000E+00 -0.51020946275E+03  0.23591489551E+04  0.23033171941E+04 0.  0.
        4    1    3    3  502    0  0.52214239343E+03 -0.59058202627E+03  0.60482738258E+03  0.99359830132E+03  0.12699999809E+01 0. -1.
       -4    1    3    3    0  502 -0.52214239343E+03  0.59058202627E+03 -0.11150368453E+04  0.13655506538E+04  0.12699999809E+01 0.  1.
</event>
<event>
 5   0  0.1588969E-05  0.2315295E+04  0.7818609E-02  0.8471915E-01
        2   -1    0    0  501    0  0.00000000000E+00  0.00000000000E+00  0.13984476451E+04  0.13984476451E+04  0.25500000920E-02 0.  1.
       -2   -1    0    0    0  501  0.00000000000E+00  0.00000000000E+00 -0.95831112533E+03  0.95831112534E+03  0.25500000920E-02 0. -1.
    10030    2    1    2    0    0  0.00000000000E+00  0.00000000000E+00  0.44013651974E+03  0.23567587704E+04  0.23152951747E+04 0.  0.
        1    1    3    3  502    0 -0.59543423165E+02  0.95770464822E+03  0.87928043085E+03  0.13014905641E+04  0.50400001928E-02 0.  1.
       -1    1    3    3    0  502  0.59543423165E+02 -0.95770464822E+03 -0.43914391111E+03  0.10552682063E+04  0.50400001928E-02 0. -1.
</event>
<event>
 5   0  0.5704875E-06  0.2298696E+04  0.7818609E-02  0.8478435E-01
        4   -1    0    0  501    0  0.00000000000E+00  0.00000000000E+00  0.16232921723E+04  0.16232926691E+04  0.12699999809E+01 0. -1.
       -4   -1    0    0    0  501  0.00000000000E+00  0.00000000000E+00 -0.81377765723E+03  0.81377864823E+03  0.12699999809E+01 0.  1.
    10030    2    1    2    0    0  0.00000000000E+00  0.00000000000E+00  0.80951451505E+03  0.24370713173E+04  0.22986959032E+04 0.  0.
        4    1    3    3  502    0  0.43319829306E+03  0.43760253880E+03 -0.62414904071E+03  0.87676700497E+03  0.12699999809E+01 0.  1.
       -4    1    3    3    0  502 -0.43319829306E+03 -0.43760253880E+03  0.14336635558E+04  0.15603043123E+04  0.12699999809E+01 0. -1.
</event>
<event>
 5   0  0.7202572E-06  0.2273694E+04  0.7818609E-02  0.8488366E-01
       -1   -1    0    0    0  501  0.00000000000E+00  0.00000000000E+00  0.17843703915E+04  0.17843703915E+04  0.50400001928E-02 0.  1.
        1   -1    0    0  501    0  0.00000000000E+00  0.00000000000E+00 -0.72430065817E+03  0.72430065818E+03  0.50400001928E-02 0. -1.
    10030    2    1    2    0    0  0.00000000000E+00  0.00000000000E+00  0.10600697334E+04  0.25086710497E+04  0.22736936021E+04 0.  0.
        2    1    3    3  502    0 -0.80666532845E+03  0.84268120058E+02 -0.34891768792E+03  0.88292333819E+03  0.25500000920E-02 0. -1.
       -2    1    3    3    0  502  0.80666532845E+03 -0.84268120058E+02  0.14089874213E+04  0.16257477115E+04  0.25500000920E-02 0.  1.
</event>
<event>
 5   0  0.5704875E-06  0.2303413E+04  0.7818609E-02  0.8476577E-01
       -3   -1    0    0    0  501  0.00000000000E+00  0.00000000000E+00  0.11483899392E+04  0.11483899436E+04  0.10100000352E+00 0. -1.
        3   -1    0    0  501    0  0.00000000000E+00  0.00000000000E+00 -0.11550324314E+04  0.11550324358E+04  0.10100000352E+00 0.  1.
    10030    2    1    2    0    0  0.00000000000E+00  0.00000000000E+00 -0.66424921923E+01  0.23034223794E+04  0.23034128018E+04 0.  0.
        2    1    3    3  502    0  0.65616840568E+03 -0.94295716622E+03  0.78547524675E+02  0.11514751007E+04  0.25500000920E-02 0.  1.
       -2    1    3    3    0  502 -0.65616840568E+03  0.94295716622E+03 -0.85190016867E+02  0.11519472787E+04  0.25500000920E-02 0. -1.
</event>
<event>
 5   0  0.1626636E-05  0.2163804E+04  0.7818609E-02  0.8533647E-01
       -2   -1    0    0    0  501  0.00000000000E+00  0.00000000000E+00  0.10756879071E+04  0.10756879071E+04  0.25500000920E-02 0.  1.
        2   -1    0    0  501    0  0.00000000000E+00  0.00000000000E+00 -0.10881515285E+04  0.10881515285E+04  0.25500000920E-02 0. -1.
    10030    2    1    2    0    0  0.00000000000E+00  0.00000000000E+00 -0.12463621409E+02  0.21638394357E+04  0.21638035404E+04 0.  0.
        4    1    3    3  502    0  0.10020352348E+04  0.39832354070E+03 -0.94401139315E+02  0.10824275693E+04  0.12699999809E+01 0. -1.
       -4    1    3    3    0  502 -0.10020352348E+04 -0.39832354070E+03  0.81937517906E+02  0.10814118663E+04  0.12699999809E+01 0.  1.
</event>
<event>
 5   0  0.7183014E-06  0.2295233E+04  0.7818609E-02  0.8479803E-01
       -1   -1    0    0    0  501  0.00000000000E+00  0.00000000000E+00  0.21116840267E+04  0.21116840267E+04  0.50400001928E-02 0. -1.
        1   -1    0    0  501    0  0.00000000000E+00  0.00000000000E+00 -0.62368395118E+03  0.62368395120E+03  0.50400001928E-02 0.  1.
    10030    2    1    2    0    0  0.00000000000E+00  0.00000000000E+00  0.14880000755E+04  0.27353679779E+04  0.22952328313E+04 0.  0.
        3    1    3    3  502    0 -0.53699414527E+03  0.19663833993E+03  0.19297832826E+04  0.20127326889E+04  0.10100000352E+00 0. -1.
       -3    1    3    3    0  502  0.53699414527E+03 -0.19663833993E+03 -0.44178320706E+03  0.72263528908E+03  0.10100000352E+00 0.  1.
</event>
<event>
 5   0  0.1626636E-05  0.2296638E+04  0.7818609E-02  0.8479248E-01
        2   -1    0    0  501    0  0.00000000000E+00  0.00000000000E+00  0.89038837794E+03  0.89038837795E+03  0.25500000920E-02 0.  1.
       -2   -1    0    0    0  501  0.00000000000E+00  0.00000000000E+00 -0.14809678314E+04  0.14809678314E+04  0.25500000920E-02 0. -1.
    10030    2    1    2    0    0  0.00000000000E+00  0.00000000000E+00 -0.59057945349E+03  0.23713562094E+04  0.22966380169E+04 0.  0.
        4    1    3    3  502    0 -0.22138856816E+03 -0.84092029622E+03 -0.10696728740E+04  0.13785360035E+04  0.12699999809E+01 0. -1.
       -4    1    3    3    0  502  0.22138856816E+03  0.84092029622E+03  0.47909342051E+03  0.99282020587E+03  0.12699999809E+01 0.  1.
</event>
<event>
 5   0  0.7183014E-06  0.2279721E+04  0.7818609E-02  0.8485960E-01
       -1   -1    0    0    0  501  0.00000000000E+00  0.00000000000E+00  0.12978221968E+04  0.12978221969E+04  0.50400001928E-02 0. -1.
        1   -1    0    0  501    0  0.00000000000E+00  0.00000000000E+00 -0.10011244031E+04  0.10011244031E+04  0.50400001928E-02 0.  1.
    10030    2    1    2    0    0  0.00000000000E+00  0.00000000000E+00  0.29669779378E+03  0.22989465999E+04  0.22797205725E+04 0.  0.
        3    1    3    3  502    0 -0.23918473021E+03  0.10937281117E+04 -0.67538191239E+02  0.11216113119E+04  0.10100000352E+00 0.  1.
       -3    1    3    3    0  502  0.23918473021E+03 -0.10937281117E+04  0.36423598502E+03  0.11773352880E+04  0.10100000352E+00 0. -1.
</event>
<event>
 5   0  0.7183014E-06  0.2304240E+04  0.7818609E-02  0.8476251E-01
       -1   -1    0    0    0  501  0.00000000000E+00  0.00000000000E+00  0.77015918064E+03  0.77015918066E+03  0.50400001928E-02 0.  1.
        1   -1    0    0  501    0  0.00000000000E+00  0.00000000000E+00 -0.17235139909E+04  0.17235139909E+04  0.50400001928E-02 0. -1.
    10030    2    1    2    0    0  0.00000000000E+00  0.00000000000E+00 -0.95335481023E+03  0.24936731715E+04  0.23042396777E+04 0.  0.
        3    1    3    3  502    0  0.10682905362E+04  0.24989106155E+03 -0.96068450152E+02  0.11013261868E+04  0.10100000352E+00 0.  1.
       -3    1    3    3    0  502 -0.10682905362E+04 -0.24989106155E+03 -0.85728636008E+03  0.13923469847E+04  0.10100000352E+00 0. -1.
</event>
<event>
 5   0  0.1626636E-05  0.2301662E+04  0.7818609E-02  0.8477266E-01
       -2   -1    0    0    0  501  0.00000000000E+00  0.00000000000E+00  0.83354512855E+03  0.83354512855E+03  0.25500000920E-02 0.  1.
        2   -1    0    0  501    0  0.00000000000E+00  0.00000000000E+00 -0.15888911121E+04  0.15888911121E+04  0.25500000920E-02 0. -1.
    10030    2    1    2    0    0  0.00000000000E+00  0.00000000000E+00 -0.75534598355E+03  0.24224362407E+04  0.23016623960E+04 0.  0.
        4    1    3    3  502    0  0.10642583646E+04  0.63732792992E+01  0.83166158982E+02  0.10675226968E+04  0.12699999809E+01 0.  1.
       -4    1    3    3    0  502 -0.10642583646E+04 -0.63732792992E+01 -0.83851214253E+03  0.13549135439E+04  0.12699999809E+01 0. -1.
</event>
<event>
 5   0  0.1588969E-05  0.2299946E+04  0.7818609E-02  0.8477942E-01
        2   -1    0    0  501    0  0.00000000000E+00  0.00000000000E+00  0.10570794113E+04  0.10570794113E+04  0.25500000920E-02 0.  1.
       -2   -1    0    0    0  501  0.00000000000E+00  0.00000000000E+00 -0.12510297990E+04  0.12510297990E+04  0.25500000920E-02 0. -1.
    10030    2    1    2    0    0  0.00000000000E+00  0.00000000000E+00 -0.19395038764E+03  0.23081092103E+04  0.22999459502E+04 0.  0.
        1    1    3    3  502    0 -0.46181099051E+02  0.11108607159E+04  0.19782520475E+03  0.11292825314E+04  0.50400001928E-02 0.  1.
       -1    1    3    3    0  502  0.46181099051E+02 -0.11108607159E+04 -0.39177559239E+03  0.11788266789E+04  0.50400001928E-02 0. -1.
</event>
<event>
 5   0  0.1635955E-05  0.2305457E+04  0.7818609E-02  0.8475773E-01
       -2   -1    0    0    0  501  0.00000000000E+00  0.00000000000E+00  0.11708480765E+04  0.11708480766E+04  0.25500000920E-02 0.  1.
        2   -1    0    0  501    0  0.00000000000E+00  0.00000000000E+00 -0.11348889184E+04  0.11348889184E+04  0.25500000920E-02 0. -1.
    10030    2    1    2    0    0  0.00000000000E+00  0.00000000000E+00  0.35959158109E+02  0.23057369950E+04  0.23054565771E+04 0.  0.
        2    1    3    3  502    0 -0.27772175930E+03 -0.48309463354E+03  0.10271973114E+04  0.11686077688E+04  0.25500000920E-02 0.  1.
       -2    1    3    3    0  502  0.27772175930E+03  0.48309463354E+03 -0.99123815333E+03  0.11371292262E+04  0.25500000920E-02 0. -1.
</event>
<event>
 5   0  0.1626636E-05  0.2306027E+04  0.7818609E-02  0.8475548E-01
       -2   -1    0    0    0  501  0.00000000000E+00  0.00000000000E+00  0.10042301403E+04  0.10042301403E+04  0.25500000920E-02 0.  1.
        2   -1    0    0  501    0  0.00000000000E+00  0.00000000000E+00 -0.13238404699E+04  0.13238404699E+04  0.25500000920E-02 0. -1.
    10030    2    1    2    0    0  0.00000000000E+00  0.00000000000E+00 -0.31961032970E+03  0.23280706102E+04  0.23060273206E+04 0.  0.
        4    1    3    3  502    0  0.29999736449E+03  0.10692222200E+04  0.15332793152E+03  0.11210466725E+04  0.12699999809E+01 0.  1.
       -4    1    3    3    0  502 -0.29999736449E+03 -0.10692222200E+04 -0.47293826122E+03  0.12070239377E+04  0.12699999809E+01 0. -1.
</event>
<event>
 5   0  0.7391007E-06  0.2322528E+04  0.7818609E-02  0.8469091E-01
       -1   -1    0    0    0  501  0.00000000000E+00  0.00000000000E+00  0.10142258950E+04  0.10142258950E+04  0.50400001928E-02 0. -1.
        1   -1    0    0  501    0  0.00000000000E+00  0.00000000000E+00 -0.13296191382E+04  0.13296191383E+04  0.50400001928E-02 0.  1.
    10030    2    1    2    0    0  0.00000000000E+00  0.00000000000E+00 -0.31539324322E+03  0.23438450333E+04  0.23225280714E+04 0.  0.
        1    1    3    3  502    0 -0.94128757175E+03  0.45398005310E+03 -0.66871765006E+03  0.12406866957E+04  0.50400001928E-02 0.  1.
       -1    1    3    3    0  502  0.94128757175E+03 -0.45398005310E+03  0.35332440684E+03  0.11031583376E+04  0.50400001928E-02 0. -1.
</event>
<event>
 5   0  0.7183014E-06  0.2303124E+04  0.7818609E-02  0.8476690E-01
       -1   -1    0    0    0  501  0.00000000000E+00  0.00000000000E+00  0.15107747041E+04  0.15107747041E+04  0.50400001928E-02 0. -1.
        1   -1    0    0  501    0  0.00000000000E+00  0.00000000000E+00 -0.87775860082E+03  0.87775860083E+03  0.50400001928E-02 0.  1.
    10030    2    1    2    0    0  0.00000000000E+00  0.00000000000E+00  0.63301610326E+03  0.23885333049E+04  0.23031243913E+04 0.  0.
        3    1    3    3  502    0  0.65259520076E+03 -0.87627359003E+03  0.69381221380E+03  0.12942609083E+04  0.10100000352E+00 0. -1.
       -3    1    3    3    0  502 -0.65259520076E+03  0.87627359003E+03 -0.60796110546E+02  0.10942723966E+04  0.10100000352E+00 0.  1.
</event>
<event>
 5   0  0.1635955E-05  0.2313917E+04  0.7818609E-02  0.8472454E-01
        2   -1    0    0  501    0  0.00000000000E+00  0.00000000000E+00  0.25724203252E+04  0.25724203252E+04  0.25500000920E-02 0.  1.
       -2   -1    0    0    0  501  0.00000000000E+00  0.00000000000E+00 -0.52034786443E+03  0.52034786444E+03  0.25500000920E-02 0. -1.
    10030    2    1    2    0    0  0.00000000000E+00  0.00000000000E+00  0.20520724608E+04  0.30927681897E+04  0.23139173906E+04 0.  0.
        2    1    3    3  502    0 -0.80731257680E+03  0.82517675746E+03  0.92351724620E+03  0.14783620604E+04  0.25500000920E-02 0.  1.
       -2    1    3    3    0  502  0.80731257680E+03 -0.82517675746E+03  0.11285552146E+04  0.16144061292E+04  0.25500000920E-02 0. -1.
</event>
<event>
 5   0  0.7202572E-06  0.2299764E+04  0.7818609E-02  0.8478014E-01
        1   -1    0    0  501    0  0.00000000000E+00  0.00000000000E+00  0.81496692328E+03  0.81496692330E+03  0.50400001928E-02 0.  1.
       -1   -1    0    0    0  501  0.00000000000E+00  0.00000000000E+00 -0.16224322050E+04  0.16224322050E+04  0.50400001928E-02 0. -1.
    10030    2    1    2    0    0  0.00000000000E+00  0.00000000000E+00 -0.80746528175E+03  0.24373991283E+04  0.22997639726E+04 0.  0.
        2    1    3    3  502    0  0.35142352401E+03  0.37359417385E+03 -0.14944787052E+04  0.15800435755E+04  0.25500000920E-02 0. -1.
       -2    1    3    3    0  502 -0.35142352401E+03 -0.37359417385E+03  0.68701342349E+03  0.85735555286E+03  0.25500000920E-02 0.  1.
</event>
<event>
 5   0  0.7416556E-06  0.2256491E+04  0.7818609E-02  0.8495276E-01
       -1   -1    0    0    0  501  0.00000000000E+00  0.00000000000E+00  0.71573532466E+03  0.71573532468E+03  0.50400001928E-02 0.  1.
        1   -1    0    0  501    0  0.00000000000E+00  0.00000000000E+00 -0.17785042898E+04  0.17785042898E+04  0.50400001928E-02 0. -1.
    10030    2    1    2    0    0  0.00000000000E+00  0.00000000000E+00 -0.10627689651E+04  0.24942396145E+04  0.22564913874E+04 0.  0.
        4    1    3    3  502    0  0.50764998390E+03 -0.10017104125E+04 -0.65148028949E+03  0.12982913530E+04  0.12699999809E+01 0. -1.
       -4    1    3    3    0  502 -0.50764998390E+03  0.10017104125E+04 -0.41128867566E+03  0.11959482615E+04  0.12699999809E+01 0.  1.
</event>
<event>
 5   0  0.7416556E-06  0.2307588E+04  0.7818609E-02  0.8474935E-01
       -1   -1    0    0    0  501  0.00000000000E+00  0.00000000000E+00  0.65828304909E+03  0.65828304911E+03  0.50400001928E-02 0.  1.
        1   -1    0    0  501    0  0.00000000000E+00  0.00000000000E+00 -0.20222924740E+04  0.20222924740E+04  0.50400001928E-02 0. -1.
    10030    2    1    2    0    0  0.00000000000E+00  0.00000000000E+00 -0.13640094249E+04  0.26805755232E+04  0.23075882267E+04 0.  0.
        4    1    3    3  502    0 -0.74141948664E+03  0.52784536224E+03 -0.15057962253E+04  0.17594736334E+04  0.12699999809E+01 0. -1.
       -4    1    3    3    0  502  0.74141948664E+03 -0.52784536224E+03  0.14178680037E+03  0.92110188973E+03  0.12699999809E+01 0.  1.
</event>
<event>
 5   0  0.1635955E-05  0.2310471E+04  0.7818609E-02  0.8473804E-01
       -2   -1    0    0    0  501  0.00000000000E+00  0.00000000000E+00  0.15676719470E+04  0.15676719470E+04  0.25500000920E-02 0. -1.
        2   -1    0    0  501    0  0.00000000000E+00  0.00000000000E+00 -0.85130662750E+03  0.85130662751E+03  0.25500000920E-02 0.  1.
    10030    2    1    2    0    0  0.00000000000E+00  0.00000000000E+00  0.71636531951E+03  0.24189785745E+04  0.23104713963E+04 0.  0.
        2    1    3    3  502    0 -0.11311204407E+04  0.23480849567E+03  0.35711633454E+03  0.12091735017E+04  0.25500000920E-02 0. -1.
       -2    1    3    3    0  502  0.11311204407E+04 -0.23480849567E+03  0.35924898497E+03  0.12098050728E+04  0.25500000920E-02 0.  1.
</event>
<event>
 5   0  0.7391007E-06  0.2284841E+04  0.7818609E-02  0.8483922E-01
       -1   -1    0    0    0  501  0.00000000000E+00  0.00000000000E+00  0.10558516420E+04  0.10558516420E+04  0.50400001928E-02 0. -1.
        1   -1    0    0  501    0  0.00000000000E+00  0.00000000000E+00 -0.12360868284E+04  0.12360868284E+04  0.50400001928E-02 0.  1.
    10030    2    1    2    0    0  0.00000000000E+00  0.00000000000E+00 -0.18023518639E+03  0.22919384704E+04  0.22848407450E+04 0.  0.
        1    1    3    3  502    0  0.39366244587E+03 -0.65255316383E+03 -0.94383634883E+03  0.12131046147E+04  0.50400001928E-02 0.  1.
       -1    1    3    3    0  502 -0.39366244587E+03  0.65255316383E+03  0.76360116243E+03  0.10788338557E+04  0.50400001928E-02 0. -1.
</event>
<event>
 5   0  0.1635955E-05  0.2293508E+04  0.7818609E-02  0.8480485E-01
       -2   -1    0    0    0  501  0.00000000000E+00  0.00000000000E+00  0.81719484390E+03  0.81719484390E+03  0.25500000920E-02 0.  1.
        2   -1    0    0  501    0  0.00000000000E+00  0.00000000000E+00 -0.16092177959E+04  0.16092177959E+04  0.25500000920E-02 0. -1.
    10030    2    1    2    0    0  0.00000000000E+00  0.00000000000E+00 -0.79202295203E+03  0.24264126398E+04  0.22935077812E+04 0.  0.
        2    1    3    3  502    0 -0.24686568362E+03 -0.11190938228E+04 -0.44002562910E+03  0.12275732989E+04  0.25500000920E-02 0. -1.
       -2    1    3    3    0  502  0.24686568362E+03  0.11190938228E+04 -0.35199732293E+03  0.11988393409E+04  0.25500000920E-02 0.  1.
</event>
<event>
 5   0  0.1635955E-05  0.2300788E+04  0.7818609E-02  0.8477610E-01
        2   -1    0    0  501    0  0.00000000000E+00  0.00000000000E+00  0.15695388012E+04  0.15695388012E+04  0.25500000920E-02 0. -1.
       -2   -1    0    0    0  501  0.00000000000E+00  0.00000000000E+00 -0.84318190293E+03  0.84318190293E+03  0.25500000920E-02 0.  1.
    10030    2    1    2    0    0  0.00000000000E+00  0.00000000000E+00  0.72635689822E+03  0.24127207041E+04  0.23007883111E+04 0.  0.
        2    1    3    3  502    0 -0.82276972759E+03  0.16112131176E+03  0.11892165808E+04  0.14550416412E+04  0.25500000920E-02 0. -1.
       -2    1    3    3    0  502  0.82276972759E+03 -0.16112131176E+03 -0.46285968253E+03  0.95767906287E+03  0.25500000920E-02 0.  1.
</event>
<event>
 5   0  0.1635955E-05  0.2225479E+04  0.7818609E-02  0.8507898E-01
       -2   -1    0    0    0  501  0.00000000000E+00  0.00000000000E+00  0.96598949974E+03  0.96598949974E+03  0.25500000920E-02 0.  1.
        2   -1    0    0  501    0  0.00000000000E+00  0.00000000000E+00 -0.12817831065E+04  0.12817831065E+04  0.25500000920E-02 0. -1.
    10030    2    1    2    0    0  0.00000000000E+00  0.00000000000E+00 -0.31579360677E+03  0.22477726062E+04  0.22254788445E+04 0.  0.
        2    1    3    3  502    0  0.45868313440E+03  0.24316357296E+03  0.83617302333E+03  0.98422764945E+03  0.25500000920E-02 0.  1.
       -2    1    3    3    0  502 -0.45868313440E+03 -0.24316357296E+03 -0.11519666301E+04  0.12635449568E+04  0.25500000920E-02 0. -1.
</event>
<event>
 5   0  0.1588969E-05  0.2225972E+04  0.7818609E-02  0.8507695E-01
       -2   -1    0    0    0  501  0.00000000000E+00  0.00000000000E+00  0.69125527081E+03  0.69125527081E+03  0.25500000920E-02 0.  1.
        2   -1    0    0  501    0  0.00000000000E+00  0.00000000000E+00 -0.17920122378E+04  0.17920122378E+04  0.25500000920E-02 0. -1.
    10030    2    1    2    0    0  0.00000000000E+00  0.00000000000E+00 -0.11007569669E+04  0.24832675086E+04  0.22259720616E+04 0.  0.
        1    1    3    3  502    0 -0.93919689951E+03  0.58587480741E+03 -0.42125045487E+03  0.11843952262E+04  0.50400001928E-02 0.  1.
       -1    1    3    3    0  502  0.93919689951E+03 -0.58587480741E+03 -0.67950651207E+03  0.12988722824E+04  0.50400001928E-02 0. -1.
</event>
<event>
 5   0  0.7202572E-06  0.2307663E+04  0.7818609E-02  0.8474906E-01
       -1   -1    0    0    0  501  0.00000000000E+00  0.00000000000E+00  0.10945551606E+04  0.10945551606E+04  0.50400001928E-02 0. -1.
        1   -1    0    0  501    0  0.00000000000E+00  0.00000000000E+00 -0.12163183981E+04  0.12163183981E+04  0.50400001928E-02 0.  1.
    10030    2    1    2    0    0  0.00000000000E+00  0.00000000000E+00 -0.12176323746E+03  0.23108735587E+04  0.23076633893E+04 0.  0.
        2    1    3    3  502    0  0.18287187108E+03  0.10340114055E+04 -0.53977891002E+03  0.11806705635E+04  0.25500000920E-02 0.  1.
       -2    1    3    3    0  502 -0.18287187108E+03 -0.10340114055E+04  0.41801567256E+03  0.11302029952E+04  0.25500000920E-02 0. -1.
</event>
<event>
 5   0  0.1626636E-05  0.2287814E+04  0.7818609E-02  0.8482741E-01
       -2   -1    0    0    0  501  0.00000000000E+00  0.00000000000E+00  0.10695140560E+04  0.10695140560E+04  0.25500000920E-02 0. -1.
        2   -1    0    0  501    0  0.00000000000E+00  0.00000000000E+00 -0.12234746948E+04  0.12234746948E+04  0.25500000920E-02 0.  1.
    10030    2    1    2    0    0  0.00000000000E+00  0.00000000000E+00 -0.15396063882E+03  0.22929887508E+04  0.22878141386E+04 0.  0.
        4    1    3    3  502    0  0.22837309987E+03  0.75312964475E+03  0.75505590625E+03  0.10906280617E+04  0.12699999809E+01 0. -1.
       -4    1    3    3    0  502 -0.22837309987E+03 -0.75312964475E+03 -0.90901654506E+03  0.12023606891E+04  0.12699999809E+01 0.  1.
</event>
<event>
 5   0  0.1697855E-05  0.2289345E+04  0.7818609E-02  0.8482134E-01
        2   -1    0    0  501    0  0.00000000000E+00  0.00000000000E+00  0.13306908244E+04  0.13306908244E+04  0.25500000920E-02 0.  1.
       -2   -1    0    0    0  501  0.00000000000E+00  0.00000000000E+00 -0.98465817723E+03  0.98465817723E+03  0.25500000920E-02 0. -1.
    10030    2    1    2    0    0  0.00000000000E+00  0.00000000000E+00  0.34603264717E+03  0.23153490016E+04  0.22893454100E+04 0.  0.
        5    1    3    3  502    0 -0.10871695141E+04  0.15943684932E+03 -0.15140102500E+03  0.11091898042E+04  0.46999998093E+01 0. -1.
       -5    1    3    3    0  502  0.10871695141E+04 -0.15943684932E+03  0.49743367217E+03  0.12061591974E+04  0.46999998093E+01 0.  1.
</event>
<event>
 5   0  0.7183014E-06  0.2291827E+04  0.7818609E-02  0.8481150E-01
        1   -1    0    0  501    0  0.00000000000E+00  0.00000000000E+00  0.11526967981E+04  0.11526967981E+04  0.50400001928E-02 0. -1.
       -1   -1    0    0    0  501  0.00000000000E+00  0.00000000000E+00 -0.11391705737E+04  0.11391705737E+04  0.50400001928E-02 0.  1.
    10030    2    1    2    0    0  0.00000000000E+00  0.00000000000E+00  0.13526224440E+02  0.22918673718E+04  0.22918274567E+04 0.  0.
        3    1    3    3  502    0 -0.32185067014E+03  0.77378039485E+03 -0.77478380578E+03  0.11413211245E+04  0.10100000352E+00 0.  1.
       -3    1    3    3    0  502  0.32185067014E+03 -0.77378039485E+03  0.78831003022E+03  0.11505462473E+04  0.10100000352E+00 0. -1.
</event>
<event>
 5   0  0.1697855E-05  0.2302444E+04  0.7818609E-02  0.8476958E-01
        2   -1    0    0  501    0  0.00000000000E+00  0.00000000000E+00  0.22457880132E+04  0.22457880132E+04  0.25500000920E-02 0.  1.
       -2   -1    0    0    0  501  0.00000000000E+00  0.00000000000E+00 -0.59013207606E+03  0.59013207606E+03  0.25500000920E-02 0. -1.
    10030    2    1    2    0    0  0.00000000000E+00  0.00000000000E+00  0.16556559371E+04  0.28359200893E+04  0.23024435217E+04 0.  0.
        5    1    3    3  502    0 -0.45437462487E+03  0.30399995508E+02  0.21301195353E+04  0.21782588882E+04  0.46999998093E+01 0.  1.
       -5    1    3    3    0  502  0.45437462487E+03 -0.30399995508E+02 -0.47446359813E+03  0.65766120107E+03  0.46999998093E+01 0. -1.
</event>
<event>
 5   0  0.7278815E-06  0.2302037E+04  0.7818609E-02  0.8477118E-01
        1   -1    0    0  501    0  0.00000000000E+00  0.00000000000E+00  0.95945188888E+03  0.95945188890E+03  0.50400001928E-02 0. -1.
       -1   -1    0    0    0  501  0.00000000000E+00  0.00000000000E+00 -0.13808338814E+04  0.13808338814E+04  0.50400001928E-02 0.  1.
    10030    2    1    2    0    0  0.00000000000E+00  0.00000000000E+00 -0.42138199253E+03  0.23402857703E+04  0.23020370768E+04 0.  0.
        5    1    3    3  502    0 -0.75177382689E+03  0.61044590940E+03  0.42174944046E+03  0.10562683256E+04  0.46999998093E+01 0. -1.
       -5    1    3    3    0  502  0.75177382689E+03 -0.61044590940E+03 -0.84313143300E+03  0.12840174447E+04  0.46999998093E+01 0.  1.
</event>
<event>
 5   0  0.1697855E-05  0.2304391E+04  0.7818609E-02  0.8476192E-01
        2   -1    0    0  501    0  0.00000000000E+00  0.00000000000E+00  0.21695634814E+04  0.21695634814E+04  0.25500000920E-02 0. -1.
       -2   -1    0    0    0  501  0.00000000000E+00  0.00000000000E+00 -0.61189955045E+03  0.61189955046E+03  0.25500000920E-02 0.  1.
    10030    2    1    2    0    0  0.00000000000E+00  0.00000000000E+00  0.15576639309E+04  0.27814630318E+04  0.23043913894E+04 0.  0.
        5    1    3    3  502    0 -0.22952610568E+03  0.11068552008E+03 -0.57744948620E+03  0.63119213925E+03  0.46999998093E+01 0.  1.
       -5    1    3    3    0  502  0.22952610568E+03 -0.11068552008E+03  0.21351134171E+04  0.21502708926E+04  0.46999998093E+01 0. -1.
</event>
<event>
 5   0  0.1635955E-05  0.2309897E+04  0.7818609E-02  0.8474029E-01
        2   -1    0    0  501    0  0.00000000000E+00  0.00000000000E+00  0.13604480937E+04  0.13604480937E+04  0.25500000920E-02 0. -1.
       -2   -1    0    0    0  501  0.00000000000E+00  0.00000000000E+00 -0.98048982009E+03  0.98048982010E+03  0.25500000920E-02 0.  1.
    10030    2    1    2    0    0  0.00000000000E+00  0.00000000000E+00  0.37995827356E+03  0.23409379138E+04  0.23098965402E+04 0.  0.
        2    1    3    3  502    0 -0.40157935417E+03  0.23552892365E+03 -0.88118532362E+03  0.99660796010E+03  0.25500000920E-02 0.  1.
       -2    1    3    3    0  502  0.40157935417E+03 -0.23552892365E+03  0.12611435972E+04  0.13443299536E+04  0.25500000920E-02 0. -1.
</event>
<event>
 5   0  0.7391007E-06  0.2294390E+04  0.7818609E-02  0.8480136E-01
       -1   -1    0    0    0  501  0.00000000000E+00  0.00000000000E+00  0.74800277684E+03  0.74800277686E+03  0.50400001928E-02 0. -1.
        1   -1    0    0  501    0  0.00000000000E+00  0.00000000000E+00 -0.17594278746E+04  0.17594278746E+04  0.50400001928E-02 0.  1.
    10030    2    1    2    0    0  0.00000000000E+00  0.00000000000E+00 -0.10114250977E+04  0.25074306514E+04  0.22943904950E+04 0.  0.
        1    1    3    3  502    0  0.70249500482E+03  0.72611363345E+03 -0.10996019786E+04  0.14932731672E+04  0.50400001928E-02 0.  1.
       -1    1    3    3    0  502 -0.70249500482E+03 -0.72611363345E+03  0.88176880892E+02  0.10141574842E+04  0.50400001928E-02 0. -1.
</event>
<event>
 5   0  0.7183014E-06  0.2329067E+04  0.7818609E-02  0.8466548E-01
        1   -1    0    0  501    0  0.00000000000E+00  0.00000000000E+00  0.18531986723E+04  0.18531986723E+04  0.50400001928E-02 0. -1.
       -1   -1    0    0    0  501  0.00000000000E+00  0.00000000000E+00 -0.73178262849E+03  0.73178262851E+03  0.50400001928E-02 0.  1.
    10030    2    1    2    0    0  0.00000000000E+00  0.00000000000E+00  0.11214160438E+04  0.25849813008E+04  0.23290672773E+04 0.  0.
        3    1    3    3  502    0 -0.35610127950E+03  0.10474685721E+04  0.15725533415E+03  0.11174648903E+04  0.10100000352E+00 0.  1.
       -3    1    3    3    0  502  0.35610127950E+03 -0.10474685721E+04  0.96416070964E+03  0.14675164105E+04  0.10100000352E+00 0. -1.
</event>
<event>
 5   0  0.1626636E-05  0.2299804E+04  0.7818609E-02  0.8477998E-01
       -2   -1    0    0    0  501  0.00000000000E+00  0.00000000000E+00  0.91186042188E+03  0.91186042188E+03  0.25500000920E-02 0. -1.
        2   -1    0    0  501    0  0.00000000000E+00  0.00000000000E+00 -0.14500847745E+04  0.14500847745E+04  0.25500000920E-02 0.  1.
    10030    2    1    2    0    0  0.00000000000E+00  0.00000000000E+00 -0.53822435261E+03  0.23619451964E+04  0.22998042649E+04 0.  0.
        4    1    3    3  502    0 -0.25205242243E+03 -0.32488779092E+03 -0.13719953889E+04  0.14322902850E+04  0.12699999809E+01 0.  1.
       -4    1    3    3    0  502  0.25205242243E+03  0.32488779092E+03  0.83377103632E+03  0.92965491138E+03  0.12699999809E+01 0. -1.
</event>
<event>
 5   0  0.1626636E-05  0.2315556E+04  0.7818609E-02  0.8471813E-01
        2   -1    0    0  501    0  0.00000000000E+00  0.00000000000E+00  0.18521052909E+04  0.18521052909E+04  0.25500000920E-02 0.  1.
       -2   -1    0    0    0  501  0.00000000000E+00  0.00000000000E+00 -0.72374419168E+03  0.72374419169E+03  0.25500000920E-02 0. -1.
    10030    2    1    2    0    0  0.00000000000E+00  0.00000000000E+00  0.11283610992E+04  0.25758494826E+04  0.23155564745E+04 0.  0.
        4    1    3    3  502    0  0.68347919285E+03  0.93410876917E+03  0.59456044074E+03  0.13012327733E+04  0.12699999809E+01 0. -1.
       -4    1    3    3    0  502 -0.68347919285E+03 -0.93410876917E+03  0.53380065846E+03  0.12746167093E+04  0.12699999809E+01 0.  1.
</event>
<event>
 5   0  0.1588969E-05  0.2304806E+04  0.7818609E-02  0.8476029E-01
       -2   -1    0    0    0  501  0.00000000000E+00  0.00000000000E+00  0.77158307253E+03  0.77158307254E+03  0.25500000920E-02 0.  1.
        2   -1    0    0  501    0  0.00000000000E+00  0.00000000000E+00 -0.17211790083E+04  0.17211790083E+04  0.25500000920E-02 0. -1.
    10030    2    1    2    0    0  0.00000000000E+00  0.00000000000E+00 -0.94959593576E+03  0.24927620808E+04  0.23048059247E+04 0.  0.
        1    1    3    3  502    0  0.47303730267E+03 -0.17869248659E+03 -0.15947828822E+04  0.16730295084E+04  0.50400001928E-02 0. -1.
       -1    1    3    3    0  502 -0.47303730267E+03  0.17869248659E+03  0.64518694644E+03  0.81973257247E+03  0.50400001928E-02 0.  1.
</event>
<event>
 5   0  0.1697855E-05  0.2292965E+04  0.7818609E-02  0.8480700E-01
        2   -1    0    0  501    0  0.00000000000E+00  0.00000000000E+00  0.20132593759E+04  0.20132593759E+04  0.25500000920E-02 0. -1.
       -2   -1    0    0    0  501  0.00000000000E+00  0.00000000000E+00 -0.65288252655E+03  0.65288252655E+03  0.25500000920E-02 0.  1.
    10030    2    1    2    0    0  0.00000000000E+00  0.00000000000E+00  0.13603768493E+04  0.26661419024E+04  0.22929647777E+04 0.  0.
        5    1    3    3  502    0 -0.98619003889E+03 -0.45979129145E+03  0.11001016589E+04  0.15473282051E+04  0.46999998093E+01 0. -1.
       -5    1    3    3    0  502  0.98619003889E+03  0.45979129145E+03  0.26027519043E+03  0.11188136973E+04  0.46999998093E+01 0.  1.
</event>
<event>
 5   0  0.7183014E-06  0.2296646E+04  0.7818609E-02  0.8479245E-01
        1   -1    0    0  501    0  0.00000000000E+00  0.00000000000E+00  0.19388073343E+04  0.19388073344E+04  0.50400001928E-02 0.  1.
       -1   -1    0    0    0  501  0.00000000000E+00  0.00000000000E+00 -0.68013230424E+03  0.68013230426E+03  0.50400001928E-02 0. -1.
    10030    2    1    2    0    0  0.00000000000E+00  0.00000000000E+00  0.12586750301E+04  0.26189396386E+04  0.22966458149E+04 0.  0.
        3    1    3    3  502    0 -0.76200752897E+03 -0.85300511288E+03  0.74547404591E+03  0.13652855965E+04  0.10100000352E+00 0.  1.
       -3    1    3    3    0  502  0.76200752897E+03  0.85300511288E+03  0.51320098420E+03  0.12536540421E+04  0.10100000352E+00 0. -1.
</event>
<event>
 5   0  0.7391007E-06  0.2308545E+04  0.7818609E-02  0.8474560E-01
        1   -1    0    0  501    0  0.00000000000E+00  0.00000000000E+00  0.61283930320E+03  0.61283930322E+03  0.50400001928E-02 0. -1.
       -1   -1    0    0    0  501  0.00000000000E+00  0.00000000000E+00 -0.21740523065E+04  0.21740523065E+04  0.50400001928E-02 0.  1.
    10030    2    1    2    0    0  0.00000000000E+00  0.00000000000E+00 -0.15612130033E+04  0.27868916098E+04  0.23085447370E+04 0.  0.
        1    1    3    3  502    0  0.62408207671E+03  0.94006539028E+03 -0.10741920328E+04  0.15579120321E+04  0.50400001928E-02 0. -1.
       -1    1    3    3    0  502 -0.62408207671E+03 -0.94006539028E+03 -0.48702097053E+03  0.12289795776E+04  0.50400001928E-02 0.  1.
</event>
<event>
 5   0  0.1635955E-05  0.2257709E+04  0.7818609E-02  0.8494785E-01
       -2   -1    0    0    0  501  0.00000000000E+00  0.00000000000E+00  0.58386693864E+03  0.58386693865E+03  0.25500000920E-02 0. -1.
        2   -1    0    0  501    0  0.00000000000E+00  0.00000000000E+00 -0.21825385651E+04  0.21825385651E+04  0.25500000920E-02 0.  1.
    10030    2    1    2    0    0  0.00000000000E+00  0.00000000000E+00 -0.15986716265E+04  0.27664055037E+04  0.22577086707E+04 0.  0.
        2    1    3    3  502    0  0.55516864814E+03  0.42971268579E+03  0.28383680460E+03  0.75725065326E+03  0.25500000920E-02 0. -1.
       -2    1    3    3    0  502 -0.55516864814E+03 -0.42971268579E+03 -0.18825084311E+04  0.20091548505E+04  0.25500000920E-02 0.  1.
</event>
<event>
 5   0  0.7278815E-06  0.2301790E+04  0.7818609E-02  0.8477216E-01
        1   -1    0    0  501    0  0.00000000000E+00  0.00000000000E+00  0.19468050933E+04  0.19468050933E+04  0.50400001928E-02 0.  1.
       -1   -1    0    0    0  501  0.00000000000E+00  0.00000000000E+00 -0.68037566514E+03  0.68037566516E+03  0.50400001928E-02 0. -1.
    10030    2    1    2    0    0  0.00000000000E+00  0.00000000000E+00  0.12664294282E+04  0.26271807585E+04  0.23017895736E+04 0.  0.
        5    1    3    3  502    0 -0.73205530300E+02 -0.10820766811E+04  0.19369643641E+03  0.11017211048E+04  0.46999998093E+01 0. -1.
       -5    1    3    3    0  502  0.73205530300E+02  0.10820766811E+04  0.10727329918E+04  0.15254596537E+04  0.46999998093E+01 0.  1.
</event>
<event>
 5   0  0.7183014E-06  0.2298503E+04  0.7818609E-02  0.8478511E-01
        1   -1    0    0  501    0  0.00000000000E+00  0.00000000000E+00  0.14405092709E+04  0.14405092709E+04  0.50400001928E-02 0. -1.
       -1   -1    0    0    0  501  0.00000000000E+00  0.00000000000E+00 -0.91688371216E+03  0.91688371218E+03  0.50400001928E-02 0.  1.
    10030    2    1    2    0    0  0.00000000000E+00  0.00000000000E+00  0.52362555874E+03  0.23573929831E+04  0.22985034155E+04 0.  0.
        3    1    3    3  502    0  0.96851283535E+03 -0.59868162964E+03  0.10179399992E+03  0.11431530232E+04  0.10100000352E+00 0.  1.
       -3    1    3    3    0  502 -0.96851283535E+03  0.59868162964E+03  0.42183155883E+03  0.12142399599E+04  0.10100000352E+00 0. -1.
</event>
<event>
 5   0  0.7202572E-06  0.2436700E+04  0.7818609E-02  0.8425890E-01
        1   -1    0    0  501    0  0.00000000000E+00  0.00000000000E+00  0.10059934077E+04  0.10059934077E+04  0.50400001928E-02 0. -1.
       -1   -1    0    0    0  501  0.00000000000E+00  0.00000000000E+00 -0.14755330760E+04  0.14755330760E+04  0.50400001928E-02 0.  1.
    10030    2    1    2    0    0  0.00000000000E+00  0.00000000000E+00 -0.46953966825E+03  0.24815264837E+04  0.24366998562E+04 0.  0.
        2    1    3    3  502    0 -0.68059063822E+02  0.10923581376E+04  0.31033223869E+03  0.11376222727E+04  0.25500000920E-02 0. -1.
       -2    1    3    3    0  502  0.68059063822E+02 -0.10923581376E+04 -0.77987190694E+03  0.13439042110E+04  0.25500000920E-02 0.  1.
</event>
<event>
 5   0  0.1635955E-05  0.2298998E+04  0.7818609E-02  0.8478316E-01
        2   -1    0    0  501    0  0.00000000000E+00  0.00000000000E+00  0.20851763979E+04  0.20851763979E+04  0.25500000920E-02 0. -1.
       -2   -1    0    0    0  501  0.00000000000E+00  0.00000000000E+00 -0.63368624156E+03  0.63368624157E+03  0.25500000920E-02 0.  1.
    10030    2    1    2    0    0  0.00000000000E+00  0.00000000000E+00  0.14514901563E+04  0.27188626394E+04  0.22989976899E+04 0.  0.
        2    1    3    3  502    0 -0.10727210083E+04 -0.37163318973E+03  0.93896635127E+03  0.14732614833E+04  0.25500000920E-02 0. -1.
       -2    1    3    3    0  502  0.10727210083E+04  0.37163318973E+03  0.51252380504E+03  0.12456011561E+04  0.25500000920E-02 0.  1.
</event>
<event>
 5   0  0.1602809E-05  0.2304720E+04  0.7818609E-02  0.8476063E-01
       -2   -1    0    0    0  501  0.00000000000E+00  0.00000000000E+00  0.13045865185E+04  0.13045865185E+04  0.25500000920E-02 0. -1.
        2   -1    0    0  501    0  0.00000000000E+00  0.00000000000E+00 -0.10178958871E+04  0.10178958871E+04  0.25500000920E-02 0.  1.
    10030    2    1    2    0    0  0.00000000000E+00  0.00000000000E+00  0.28669063133E+03  0.23224824056E+04  0.23047197240E+04 0.  0.
        3    1    3    3  502    0 -0.37438230790E+03 -0.52843015864E+03  0.11038612960E+04  0.12798087029E+04  0.10100000352E+00 0. -1.
       -3    1    3    3    0  502  0.37438230790E+03  0.52843015864E+03 -0.81717066463E+03  0.10426737027E+04  0.10100000352E+00 0.  1.
</event>
<event>
 5   0  0.7278815E-06  0.2295110E+04  0.7818609E-02  0.8479852E-01
       -1   -1    0    0    0  501  0.00000000000E+00  0.00000000000E+00  0.99975877434E+03  0.99975877435E+03  0.50400001928E-02 0. -1.
        1   -1    0    0  501    0  0.00000000000E+00  0.00000000000E+00 -0.13172006125E+04  0.13172006125E+04  0.50400001928E-02 0.  1.
    10030    2    1    2    0    0  0.00000000000E+00  0.00000000000E+00 -0.31744183814E+03  0.23169593868E+04  0.22951103415E+04 0.  0.
        5    1    3    3  502    0  0.95396556989E+03 -0.54733697174E+03 -0.48930237935E+03  0.12037719791E+04  0.46999998093E+01 0.  1.
       -5    1    3    3    0  502 -0.95396556989E+03  0.54733697174E+03  0.17186054122E+03  0.11131874078E+04  0.46999998093E+01 0. -1.
</event>
<event>
 5   0  0.7391007E-06  0.2287462E+04  0.7818609E-02  0.8482881E-01
        1   -1    0    0  501    0  0.00000000000E+00  0.00000000000E+00  0.10209716192E+04  0.10209716192E+04  0.50400001928E-02 0. -1.
       -1   -1    0    0    0  501  0.00000000000E+00  0.00000000000E+00 -0.12812510934E+04  0.12812510934E+04  0.50400001928E-02 0.  1.
    10030    2    1    2    0    0  0.00000000000E+00  0.00000000000E+00 -0.26027947423E+03  0.23022227126E+04  0.22874623524E+04 0.  0.
        1    1    3    3  502    0 -0.66229196807E+03  0.74372216004E+03  0.43595543149E+03  0.10871110526E+04  0.50400001928E-02 0. -1.
       -1    1    3    3    0  502  0.66229196807E+03 -0.74372216004E+03 -0.69623490573E+03  0.12151116600E+04  0.50400001928E-02 0.  1.
</event>
<event>
 5   0  0.7183014E-06  0.2287871E+04  0.7818609E-02  0.8482719E-01
        1   -1    0    0  501    0  0.00000000000E+00  0.00000000000E+00  0.12354317640E+04  0.12354317640E+04  0.50400001928E-02 0. -1.
       -1   -1    0    0    0  501  0.00000000000E+00  0.00000000000E+00 -0.10592150045E+04  0.10592150045E+04  0.50400001928E-02 0.  1.
    10030    2    1    2    0    0  0.00000000000E+00  0.00000000000E+00  0.17621675948E+03  0.22946467685E+04  0.22878705046E+04 0.  0.
        3    1    3    3  502    0 -0.43564485115E+03  0.69381127155E+03 -0.71264677512E+03  0.10858296152E+04  0.10100000352E+00 0.  1.
       -3    1    3    3    0  502  0.43564485115E+03 -0.69381127155E+03  0.88886353460E+03  0.12088171533E+04  0.10100000352E+00 0. -1.
</event>
<event>
 5   0  0.1697855E-05  0.2297112E+04  0.7818609E-02  0.8479061E-01
       -2   -1    0    0    0  501  0.00000000000E+00  0.00000000000E+00  0.16548336422E+04  0.16548336422E+04  0.25500000920E-02 0. -1.
        2   -1    0    0  501    0  0.00000000000E+00  0.00000000000E+00 -0.79716843824E+03  0.79716843825E+03  0.25500000920E-02 0.  1.
    10030    2    1    2    0    0  0.00000000000E+00  0.00000000000E+00  0.85766520399E+03  0.24520020805E+04  0.22971122307E+04 0.  0.
        5    1    3    3  502    0  0.21712950191E+03 -0.85465751449E+03 -0.35670625552E+03  0.95123400402E+03  0.46999998093E+01 0.  1.
       -5    1    3    3    0  502 -0.21712950191E+03  0.85465751449E+03  0.12143714595E+04  0.15007680765E+04  0.46999998093E+01 0. -1.
</event>
<event>
 5   0  0.5704875E-06  0.2308790E+04  0.7818609E-02  0.8474464E-01
        3   -1    0    0  501    0  0.00000000000E+00  0.00000000000E+00  0.20203456097E+04  0.20203456122E+04  0.10100000352E+00 0. -1.
       -3   -1    0    0    0  501  0.00000000000E+00  0.00000000000E+00 -0.65960372252E+03  0.65960373025E+03  0.10100000352E+00 0.  1.
    10030    2    1    2    0    0  0.00000000000E+00  0.00000000000E+00  0.13607418872E+04  0.26799493425E+04  0.23087897251E+04 0.  0.
        3    1    3    3  502    0  0.93977631907E+02  0.97498123210E+03  0.13894869087E+04  0.17000276697E+04  0.10100000352E+00 0. -1.
       -3    1    3    3    0  502 -0.93977631907E+02 -0.97498123210E+03 -0.28745021508E+02  0.97992167274E+03  0.10100000352E+00 0.  1.
</event>
<event>
 5   0  0.1635955E-05  0.2283868E+04  0.7818609E-02  0.8484309E-01
        2   -1    0    0  501    0  0.00000000000E+00  0.00000000000E+00  0.15975979873E+04  0.15975979873E+04  0.25500000920E-02 0.  1.
       -2   -1    0    0    0  501  0.00000000000E+00  0.00000000000E+00 -0.81623335360E+03  0.81623335361E+03  0.25500000920E-02 0. -1.
    10030    2    1    2    0    0  0.00000000000E+00  0.00000000000E+00  0.78136463367E+03  0.24138313409E+04  0.22838675643E+04 0.  0.
        2    1    3    3  502    0 -0.11126695062E+02 -0.55067186581E+03  0.14479305959E+04  0.15491501921E+04  0.25500000920E-02 0.  1.
       -2    1    3    3    0  502  0.11126695062E+02  0.55067186581E+03 -0.66656596220E+03  0.86468114881E+03  0.25500000920E-02 0. -1.
</event>
<event>
 5   0  0.1635955E-05  0.2244036E+04  0.7818609E-02  0.8500320E-01
       -2   -1    0    0    0  501  0.00000000000E+00  0.00000000000E+00  0.70981318139E+03  0.70981318139E+03  0.25500000920E-02 0.  1.
        2   -1    0    0  501    0  0.00000000000E+00  0.00000000000E+00 -0.17736001570E+04  0.17736001570E+04  0.25500000920E-02 0. -1.
    10030    2    1    2    0    0  0.00000000000E+00  0.00000000000E+00 -0.10637869756E+04  0.24834133384E+04  0.22440363366E+04 0.  0.
        2    1    3    3  502    0 -0.26441374587E+03  0.30647386233E+03  0.62619787853E+03  0.74563036445E+03  0.25500000920E-02 0.  1.
       -2    1    3    3    0  502  0.26441374587E+03 -0.30647386233E+03 -0.16899848542E+04  0.17377829740E+04  0.25500000920E-02 0. -1.
</event>
<event>
 5   0  0.1697855E-05  0.2300221E+04  0.7818609E-02  0.8477834E-01
       -2   -1    0    0    0  501  0.00000000000E+00  0.00000000000E+00  0.74203451087E+03  0.74203451088E+03  0.25500000920E-02 0.  1.
        2   -1    0    0  501    0  0.00000000000E+00  0.00000000000E+00 -0.17826052823E+04  0.17826052823E+04  0.25500000920E-02 0. -1.
    10030    2    1    2    0    0  0.00000000000E+00  0.00000000000E+00 -0.10405707714E+04  0.25246397932E+04  0.23002214143E+04 0.  0.
        5    1    3    3  502    0  0.91579241621E+03  0.57657398516E+03 -0.92912527892E+02  0.10861713206E+04  0.46999998093E+01 0.  1.
       -5    1    3    3    0  502 -0.91579241621E+03 -0.57657398516E+03 -0.94765824356E+03  0.14384684726E+04  0.46999998093E+01 0. -1.
</event>
<event>
 5   0  0.1588969E-05  0.2308812E+04  0.7818609E-02  0.8474455E-01
       -2   -1    0    0    0  501  0.00000000000E+00  0.00000000000E+00  0.84249822222E+03  0.84249822222E+03  0.25500000920E-02 0.  1.
        2   -1    0    0  501    0  0.00000000000E+00  0.00000000000E+00 -0.15817876001E+04  0.15817876001E+04  0.25500000920E-02 0. -1.
    10030    2    1    2    0    0  0.00000000000E+00  0.00000000000E+00 -0.73928937792E+03  0.24242858224E+04  0.23088120244E+04 0.  0.
        1    1    3    3  502    0  0.29631892994E+03  0.88837186056E+03  0.33912961542E+03  0.99600118823E+03  0.50400001928E-02 0.  1.
       -1    1    3    3    0  502 -0.29631892994E+03 -0.88837186056E+03 -0.10784189933E+04  0.14282846341E+04  0.50400001928E-02 0. -1.
</event>
<event>
 5   0  0.1635955E-05  0.2307843E+04  0.7818609E-02  0.8474835E-01
       -2   -1    0    0    0  501  0.00000000000E+00  0.00000000000E+00  0.74620685060E+03  0.74620685061E+03  0.25500000920E-02 0. -1.
        2   -1    0    0  501    0  0.00000000000E+00  0.00000000000E+00 -0.17844038328E+04  0.17844038328E+04  0.25500000920E-02 0.  1.
    10030    2    1    2    0    0  0.00000000000E+00  0.00000000000E+00 -0.10381969822E+04  0.25306106834E+04  0.23078425980E+04 0.  0.
        2    1    3    3  502    0 -0.23157700311E+03  0.21481408302E+03  0.69787870666E+03  0.76603373806E+03  0.25500000920E-02 0. -1.
       -2    1    3    3    0  502  0.23157700311E+03 -0.21481408302E+03 -0.17360756889E+04  0.17645769454E+04  0.25500000920E-02 0.  1.
</event>
<event>
 5   0  0.1588969E-05  0.2300494E+04  0.7818609E-02  0.8477726E-01
       -2   -1    0    0    0  501  0.00000000000E+00  0.00000000000E+00  0.85340670092E+03  0.85340670092E+03  0.25500000920E-02 0. -1.
        2   -1    0    0  501    0  0.00000000000E+00  0.00000000000E+00 -0.15503371331E+04  0.15503371331E+04  0.25500000920E-02 0.  1.
    10030    2    1    2    0    0  0.00000000000E+00  0.00000000000E+00 -0.69693043223E+03  0.24037438341E+04  0.23004939453E+04 0.  0.
        1    1    3    3  502    0 -0.28480311525E+03  0.11027112921E+04 -0.18003791617E+03  0.11530388803E+04  0.50400001928E-02 0. -1.
       -1    1    3    3    0  502  0.28480311525E+03 -0.11027112921E+04 -0.51689251606E+03  0.12507049538E+04  0.50400001928E-02 0.  1.
</event>
<event>
 5   0  0.7416556E-06  0.2293524E+04  0.7818609E-02  0.8480479E-01
       -1   -1    0    0    0  501  0.00000000000E+00  0.00000000000E+00  0.92288442717E+03  0.92288442719E+03  0.50400001928E-02 0. -1.
        1   -1    0    0  501    0  0.00000000000E+00  0.00000000000E+00 -0.14249484321E+04  0.14249484322E+04  0.50400001928E-02 0.  1.
    10030    2    1    2    0    0  0.00000000000E+00  0.00000000000E+00 -0.50206400497E+03  0.23478328593E+04  0.22935236799E+04 0.  0.
        4    1    3    3  502    0 -0.86244535618E+02 -0.80499548990E+03  0.58036029879E+03  0.99613028666E+03  0.12699999809E+01 0. -1.
       -4    1    3    3    0  502  0.86244535618E+02  0.80499548990E+03 -0.10824243038E+04  0.13517025727E+04  0.12699999809E+01 0.  1.
</event>
<event>
 5   0  0.7416556E-06  0.2299308E+04  0.7818609E-02  0.8478194E-01
       -1   -1    0    0    0  501  0.00000000000E+00  0.00000000000E+00  0.60416961289E+03  0.60416961291E+03  0.50400001928E-02 0. -1.
        1   -1    0    0  501    0  0.00000000000E+00  0.00000000000E+00 -0.21876377499E+04  0.21876377499E+04  0.50400001928E-02 0.  1.
    10030    2    1    2    0    0  0.00000000000E+00  0.00000000000E+00 -0.15834681370E+04  0.27918073628E+04  0.22993079415E+04 0.  0.
        4    1    3    3  502    0 -0.93480286040E+03 -0.54034127777E+03 -0.31235385777E+03  0.11240069527E+04  0.12699999809E+01 0. -1.
       -4    1    3    3    0  502  0.93480286040E+03  0.54034127777E+03 -0.12711142792E+04  0.16678004101E+04  0.12699999809E+01 0.  1.
</event>
<event>
 5   0  0.7416556E-06  0.2304051E+04  0.7818609E-02  0.8476326E-01
        1   -1    0    0  501    0  0.00000000000E+00  0.00000000000E+00  0.13299765382E+04  0.13299765382E+04  0.50400001928E-02 0.  1.
       -1   -1    0    0    0  501  0.00000000000E+00  0.00000000000E+00 -0.99788391572E+03  0.99788391573E+03  0.50400001928E-02 0. -1.
    10030    2    1    2    0    0  0.00000000000E+00  0.00000000000E+00  0.33209262247E+03  0.23278604539E+04  0.23040505166E+04 0.  0.
        4    1    3    3  502    0 -0.30369159313E+03 -0.19327021714E+03  0.12716945111E+04  0.13216620230E+04  0.12699999809E+01 0.  1.
       -4    1    3    3    0  502  0.30369159313E+03  0.19327021714E+03 -0.93960188859E+03  0.10061984310E+04  0.12699999809E+01 0. -1.
</event>
<event>
 5   0  0.1626636E-05  0.2329319E+04  0.7818609E-02  0.8466450E-01
        2   -1    0    0  501    0  0.00000000000E+00  0.00000000000E+00  0.13015665980E+04  0.13015665980E+04  0.25500000920E-02 0.  1.
       -2   -1    0    0    0  501  0.00000000000E+00  0.00000000000E+00 -0.10421531936E+04  0.10421531936E+04  0.25500000920E-02 0. -1.
    10030    2    1    2    0    0  0.00000000000E+00  0.00000000000E+00  0.25941340439E+03  0.23437197917E+04  0.23293190309E+04 0.  0.
        4    1    3    3  502    0  0.47573003024E+03  0.34141824930E+03 -0.88326698453E+03  0.10597394309E+04  0.12699999809E+01 0. -1.
       -4    1    3    3    0  502 -0.47573003024E+03 -0.34141824930E+03  0.11426803889E+04  0.12839803607E+04  0.12699999809E+01 0.  1.
</event>
<event>
 5   0  0.7278815E-06  0.2303109E+04  0.7818609E-02  0.8476696E-01
       -1   -1    0    0    0  501  0.00000000000E+00  0.00000000000E+00  0.11985842541E+04  0.11985842541E+04  0.50400001928E-02 0. -1.
        1   -1    0    0  501    0  0.00000000000E+00  0.00000000000E+00 -0.11063704704E+04  0.11063704704E+04  0.50400001928E-02 0.  1.
    10030    2    1    2    0    0  0.00000000000E+00  0.00000000000E+00  0.92213783775E+02  0.23049547245E+04  0.23031093982E+04 0.  0.
        5    1    3    3  502    0  0.93634526413E+03 -0.59903969812E+03 -0.25490830166E+03  0.11404347179E+04  0.46999998093E+01 0.  1.
       -5    1    3    3    0  502 -0.93634526413E+03  0.59903969812E+03  0.34712208544E+03  0.11645200066E+04  0.46999998093E+01 0. -1.
</event>
<event>
 5   0  0.7202572E-06  0.2299135E+04  0.7818609E-02  0.8478262E-01
        1   -1    0    0  501    0  0.00000000000E+00  0.00000000000E+00  0.12178182973E+04  0.12178182973E+04  0.50400001928E-02 0. -1.
       -1   -1    0    0    0  501  0.00000000000E+00  0.00000000000E+00 -0.10851421677E+04  0.10851421677E+04  0.50400001928E-02 0.  1.
    10030    2    1    2    0    0  0.00000000000E+00  0.00000000000E+00  0.13267612955E+03  0.23029604650E+04  0.22991354784E+04 0.  0.
        2    1    3    3  502    0 -0.69746171303E+03  0.88452396400E+03  0.29622042758E+03  0.11647240127E+04  0.25500000920E-02 0. -1.
       -2    1    3    3    0  502  0.69746171303E+03 -0.88452396400E+03 -0.16354429803E+03  0.11382364523E+04  0.25500000920E-02 0.  1.
</event>
<event>
 5   0  0.7416556E-06  0.2273989E+04  0.7818609E-02  0.8488248E-01
        1   -1    0    0  501    0  0.00000000000E+00  0.00000000000E+00  0.11357282630E+04  0.11357282630E+04  0.50400001928E-02 0. -1.
       -1   -1    0    0    0  501  0.00000000000E+00  0.00000000000E+00 -0.11382622033E+04  0.11382622033E+04  0.50400001928E-02 0.  1.
    10030    2    1    2    0    0  0.00000000000E+00  0.00000000000E+00 -0.25339403115E+01  0.22739904663E+04  0.22739890545E+04 0.  0.
        4    1    3    3  502    0  0.32543866216E+03 -0.35575050928E+03  0.10284356621E+04  0.11358478207E+04  0.12699999809E+01 0. -1.
       -4    1    3    3    0  502 -0.32543866216E+03  0.35575050928E+03 -0.10309696025E+04  0.11381426456E+04  0.12699999809E+01 0.  1.
</event>
<event>
 5   0  0.7416556E-06  0.2296820E+04  0.7818609E-02  0.8479176E-01
       -1   -1    0    0    0  501  0.00000000000E+00  0.00000000000E+00  0.93510753644E+03  0.93510753645E+03  0.50400001928E-02 0. -1.
        1   -1    0    0  501    0  0.00000000000E+00  0.00000000000E+00 -0.14103673146E+04  0.14103673146E+04  0.50400001928E-02 0.  1.
    10030    2    1    2    0    0  0.00000000000E+00  0.00000000000E+00 -0.47525977813E+03  0.23454748510E+04  0.22968196316E+04 0.  0.
        4    1    3    3  502    0 -0.43021254235E+03  0.89884047707E+03  0.34529203659E+03  0.10546208979E+04  0.12699999809E+01 0. -1.
       -4    1    3    3    0  502  0.43021254235E+03 -0.89884047707E+03 -0.82055181471E+03  0.12908539531E+04  0.12699999809E+01 0.  1.
</event>
<event>
 5   0  0.1602809E-05  0.2299103E+04  0.7818609E-02  0.8478275E-01
       -2   -1    0    0    0  501  0.00000000000E+00  0.00000000000E+00  0.10111434449E+04  0.10111434449E+04  0.25500000920E-02 0. -1.
        2   -1    0    0  501    0  0.00000000000E+00  0.00000000000E+00 -0.13069051958E+04  0.13069051958E+04  0.25500000920E-02 0.  1.
    10030    2    1    2    0    0  0.00000000000E+00  0.00000000000E+00 -0.29576175089E+03  0.23180486406E+04  0.22991029744E+04 0.  0.
        3    1    3    3  502    0  0.10412161543E+04  0.36019132330E+03  0.18284618946E+03  0.11168265795E+04  0.10100000352E+00 0. -1.
       -3    1    3    3    0  502 -0.10412161543E+04 -0.36019132330E+03 -0.47860794034E+03  0.12012220612E+04  0.10100000352E+00 0.  1.
</event>
<event>
 5   0  0.7202572E-06  0.2304095E+04  0.7818609E-02  0.8476308E-01
       -1   -1    0    0    0  501  0.00000000000E+00  0.00000000000E+00  0.11014413313E+04  0.11014413313E+04  0.50400001928E-02 0.  1.
        1   -1    0    0  501    0  0.00000000000E+00  0.00000000000E+00 -0.12049785191E+04  0.12049785191E+04  0.50400001928E-02 0. -1.
    10030    2    1    2    0    0  0.00000000000E+00  0.00000000000E+00 -0.10353718779E+03  0.23064198504E+04  0.23040947413E+04 0.  0.
        2    1    3    3  502    0 -0.94981022002E+03  0.11946284020E+03  0.58981681456E+03  0.11244085997E+04  0.25500000920E-02 0.  1.
       -2    1    3    3    0  502  0.94981022002E+03 -0.11946284020E+03 -0.69335400235E+03  0.11820112507E+04  0.25500000920E-02 0. -1.
</event>
<event>
 5   0  0.1602809E-05  0.2303503E+04  0.7818609E-02  0.8476541E-01
       -2   -1    0    0    0  501  0.00000000000E+00  0.00000000000E+00  0.25895589359E+04  0.25895589359E+04  0.25500000920E-02 0.  1.
        2   -1    0    0  501    0  0.00000000000E+00  0.00000000000E+00 -0.51226140196E+03  0.51226140196E+03  0.25500000920E-02 0. -1.
    10030    2    1    2    0    0  0.00000000000E+00  0.00000000000E+00  0.20772975340E+04  0.31018203379E+04  0.23035026295E+04 0.  0.
        3    1    3    3  502    0  0.96812751765E+03 -0.55490812442E+03  0.65461232339E+03  0.12937199160E+04  0.10100000352E+00 0. -1.
       -3    1    3    3    0  502 -0.96812751765E+03  0.55490812442E+03  0.14226852106E+04  0.18081004219E+04  0.10100000352E+00 0.  1.
</event>
<event>
 5   0  0.7278815E-06  0.2300302E+04  0.7818609E-02  0.8477802E-01
        1   -1    0    0  501    0  0.00000000000E+00  0.00000000000E+00  0.11011318826E+04  0.11011318826E+04  0.50400001928E-02 0. -1.
       -1   -1    0    0    0  501  0.00000000000E+00  0.00000000000E+00 -0.12013520708E+04  0.12013520708E+04  0.50400001928E-02 0.  1.
    10030    2    1    2    0    0  0.00000000000E+00  0.00000000000E+00 -0.10022018819E+03  0.23024839534E+04  0.23003017780E+04 0.  0.
        5    1    3    3  502    0  0.22892319078E+03 -0.79570008992E+03 -0.84916591171E+03  0.11860224686E+04  0.46999998093E+01 0.  1.
       -5    1    3    3    0  502 -0.22892319078E+03  0.79570008992E+03  0.74894572352E+03  0.11164614848E+04  0.46999998093E+01 0. -1.
</event>
<event>
 5   0  0.1602809E-05  0.2300248E+04  0.7818609E-02  0.8477823E-01
       -2   -1    0    0    0  501  0.00000000000E+00  0.00000000000E+00  0.13789730515E+04  0.13789730515E+04  0.25500000920E-02 0. -1.
        2   -1    0    0  501    0  0.00000000000E+00  0.00000000000E+00 -0.95925411447E+03  0.95925411447E+03  0.25500000920E-02 0.  1.
    10030    2    1    2    0    0  0.00000000000E+00  0.00000000000E+00  0.41971893701E+03  0.23382271659E+04  0.23002483113E+04 0.  0.
        3    1    3    3  502    0  0.19008999149E+03 -0.55481614241E+03  0.12155531169E+04  0.13496386728E+04  0.10100000352E+00 0. -1.
       -3    1    3    3    0  502 -0.19008999149E+03  0.55481614241E+03 -0.79583417991E+03  0.98858849319E+03  0.10100000352E+00 0.  1.
</event>
<event>
 5   0  0.7183014E-06  0.2298996E+04  0.7818609E-02  0.8478317E-01
       -1   -1    0    0    0  501  0.00000000000E+00  0.00000000000E+00  0.98485292944E+03  0.98485292946E+03  0.50400001928E-02 0. -1.
        1   -1    0    0  501    0  0.00000000000E+00  0.00000000000E+00 -0.13416675592E+04  0.13416675592E+04  0.50400001928E-02 0.  1.
    10030    2    1    2    0    0  0.00000000000E+00  0.00000000000E+00 -0.35681462978E+03  0.23265204887E+04  0.22989956295E+04 0.  0.
        3    1    3    3  502    0  0.33969583008E+03 -0.81196929675E+02  0.92985697117E+03  0.99328756934E+03  0.10100000352E+00 0. -1.
       -3    1    3    3    0  502 -0.33969583008E+03  0.81196929675E+02 -0.12866716010E+04  0.13332329194E+04  0.10100000352E+00 0.  1.
</event>
<event>
 5   0  0.7278815E-06  0.2299310E+04  0.7818609E-02  0.8478193E-01
        1   -1    0    0  501    0  0.00000000000E+00  0.00000000000E+00  0.98779398366E+03  0.98779398367E+03  0.50400001928E-02 0. -1.
       -1   -1    0    0    0  501  0.00000000000E+00  0.00000000000E+00 -0.13380381702E+04  0.13380381702E+04  0.50400001928E-02 0.  1.
    10030    2    1    2    0    0  0.00000000000E+00  0.00000000000E+00 -0.35024418651E+03  0.23258321538E+04  0.22993095089E+04 0.  0.
        5    1    3    3  502    0  0.10650748856E+04  0.43204046558E+03 -0.20072189745E+03  0.11667711198E+04  0.46999998093E+01 0.  1.
       -5    1    3    3    0  502 -0.10650748856E+04 -0.43204046558E+03 -0.14952228906E+03  0.11590610341E+04  0.46999998093E+01 0. -1.
</event>
<event>
 5   0  0.1602809E-05  0.2303272E+04  0.7818609E-02  0.8476632E-01
        2   -1    0    0  501    0  0.00000000000E+00  0.00000000000E+00  0.14280661467E+04  0.14280661467E+04  0.25500000920E-02 0.  1.
       -2   -1    0    0    0  501  0.00000000000E+00  0.00000000000E+00 -0.92871460334E+03  0.92871460334E+03  0.25500000920E-02 0. -1.
    10030    2    1    2    0    0  0.00000000000E+00  0.00000000000E+00  0.49935154338E+03  0.23567807501E+04  0.23032723547E+04 0.  0.
        3    1    3    3  502    0 -0.98391293318E+03 -0.54437459165E+03  0.50412428315E+03  0.12323025843E+04  0.10100000352E+00 0.  1.
       -3    1    3    3    0  502  0.98391293318E+03  0.54437459165E+03 -0.47727397764E+01  0.11244781658E+04  0.10100000352E+00 0. -1.
</event>
<event>
 5   0  0.7183014E-06  0.2299532E+04  0.7818609E-02  0.8478106E-01
        1   -1    0    0  501    0  0.00000000000E+00  0.00000000000E+00  0.19635126957E+04  0.19635126957E+04  0.50400001928E-02 0. -1.
       -1   -1    0    0    0  501  0.00000000000E+00  0.00000000000E+00 -0.67326347948E+03  0.67326347950E+03  0.50400001928E-02 0.  1.
    10030    2    1    2    0    0  0.00000000000E+00  0.00000000000E+00  0.12902492162E+04  0.26367761752E+04  0.22995315954E+04 0.  0.
        3    1    3    3  502    0  0.25888573574E+03  0.83277079007E+02 -0.63585423690E+03  0.69156888076E+03  0.10100000352E+00 0.  1.
       -3    1    3    3    0  502 -0.25888573574E+03 -0.83277079007E+02  0.19261034531E+04  0.19452072944E+04  0.10100000352E+00 0. -1.
</event>
<event>
 5   0  0.7202572E-06  0.2304728E+04  0.7818609E-02  0.8476059E-01
       -1   -1    0    0    0  501  0.00000000000E+00  0.00000000000E+00  0.10228650993E+04  0.10228650993E+04  0.50400001928E-02 0. -1.
        1   -1    0    0  501    0  0.00000000000E+00  0.00000000000E+00 -0.12982575208E+04  0.12982575208E+04  0.50400001928E-02 0.  1.
    10030    2    1    2    0    0  0.00000000000E+00  0.00000000000E+00 -0.27539242152E+03  0.23211226201E+04  0.23047275829E+04 0.  0.
        2    1    3    3  502    0  0.28971273540E+03 -0.87805467193E+03  0.55496726963E+03  0.10783794074E+04  0.25500000920E-02 0.  1.
       -2    1    3    3    0  502 -0.28971273540E+03  0.87805467193E+03 -0.83035969115E+03  0.12427432127E+04  0.25500000920E-02 0. -1.
</event>
<event>
 5   0  0.1635955E-05  0.2303409E+04  0.7818609E-02  0.8476578E-01
        2   -1    0    0  501    0  0.00000000000E+00  0.00000000000E+00  0.80712648942E+03  0.80712648943E+03  0.25500000920E-02 0. -1.
       -2   -1    0    0    0  501  0.00000000000E+00  0.00000000000E+00 -0.16433901258E+04  0.16433901258E+04  0.25500000920E-02 0.  1.
    10030    2    1    2    0    0  0.00000000000E+00  0.00000000000E+00 -0.83626363635E+03  0.24505166152E+04  0.23034093887E+04 0.  0.
        2    1    3    3  502    0 -0.13084649183E+03  0.11240360800E+04 -0.19034098326E+03  0.11475223760E+04  0.25500000920E-02 0. -1.
       -2    1    3    3    0  502  0.13084649183E+03 -0.11240360800E+04 -0.64592265309E+03  0.13029942392E+04  0.25500000920E-02 0.  1.
</event>
<event>
 5   0  0.1635955E-05  0.2299102E+04  0.7818609E-02  0.8478275E-01
       -2   -1    0    0    0  501  0.00000000000E+00  0.00000000000E+00  0.13504514020E+04  0.13504514020E+04  0.25500000920E-02 0. -1.
        2   -1    0    0  501    0  0.00000000000E+00  0.00000000000E+00 -0.97853770131E+03  0.97853770132E+03  0.25500000920E-02 0.  1.
    10030    2    1    2    0    0  0.00000000000E+00  0.00000000000E+00  0.37191370071E+03  0.23289891033E+04  0.22991020949E+04 0.  0.
        2    1    3    3  502    0  0.29158581207E+03  0.40386148345E+03 -0.86353266663E+03  0.99690272844E+03  0.25500000920E-02 0.  1.
       -2    1    3    3    0  502 -0.29158581207E+03 -0.40386148345E+03  0.12354463673E+04  0.13320863749E+04  0.25500000920E-02 0. -1.
</event>
<event>
 5   0  0.1626636E-05  0.2300421E+04  0.7818609E-02  0.8477755E-01
       -2   -1    0    0    0  501  0.00000000000E+00  0.00000000000E+00  0.85104732663E+03  0.85104732663E+03  0.25500000920E-02 0. -1.
        2   -1    0    0  501    0  0.00000000000E+00  0.00000000000E+00 -0.15545361142E+04  0.15545361142E+04  0.25500000920E-02 0.  1.
    10030    2    1    2    0    0  0.00000000000E+00  0.00000000000E+00 -0.70348878753E+03  0.24055834408E+04  0.23004206608E+04 0.  0.
        4    1    3    3  502    0 -0.49917920723E+03  0.66236200917E+03  0.48160476412E+03  0.95908710441E+03  0.12699999809E+01 0. -1.
       -4    1    3    3    0  502  0.49917920723E+03 -0.66236200917E+03 -0.11850935516E+04  0.14464963364E+04  0.12699999809E+01 0.  1.
</event>
<event>
 5   0  0.1588969E-05  0.2296941E+04  0.7818609E-02  0.8479128E-01
        2   -1    0    0  501    0  0.00000000000E+00  0.00000000000E+00  0.22291776388E+04  0.22291776388E+04  0.25500000920E-02 0.  1.
       -2   -1    0    0    0  501  0.00000000000E+00  0.00000000000E+00 -0.59169087018E+03  0.59169087019E+03  0.25500000920E-02 0. -1.
    10030    2    1    2    0    0  0.00000000000E+00  0.00000000000E+00  0.16374867686E+04  0.28208685090E+04  0.22969406235E+04 0.  0.
        1    1    3    3  502    0  0.68029459538E+03 -0.28366199352E+03 -0.26290309890E+03  0.78254897770E+03  0.50400001928E-02 0. -1.
       -1    1    3    3    0  502 -0.68029459538E+03  0.28366199352E+03  0.19003898675E+04  0.20383195313E+04  0.50400001928E-02 0.  1.
</event>
<event>
 5   0  0.5704875E-06  0.2285262E+04  0.7818609E-02  0.8483755E-01
       -4   -1    0    0    0  501  0.00000000000E+00  0.00000000000E+00  0.10715988624E+04  0.10715996149E+04  0.12699999809E+01 0. -1.
        4   -1    0    0  501    0  0.00000000000E+00  0.00000000000E+00 -0.12183700001E+04  0.12183706621E+04  0.12699999809E+01 0.  1.
    10030    2    1    2    0    0  0.00000000000E+00  0.00000000000E+00 -0.14677113779E+03  0.22899702770E+04  0.22852619330E+04 0.  0.
        4    1    3    3  502    0 -0.28347541547E+03 -0.10649871158E+04 -0.37574893527E+03  0.11643645233E+04  0.12699999809E+01 0.  1.
       -4    1    3    3    0  502  0.28347541547E+03  0.10649871158E+04  0.22897779748E+03  0.11256057536E+04  0.12699999809E+01 0. -1.
</event>
<event>
 5   0  0.1626636E-05  0.2296448E+04  0.7818609E-02  0.8479323E-01
        2   -1    0    0  501    0  0.00000000000E+00  0.00000000000E+00  0.18060503978E+04  0.18060503978E+04  0.25500000920E-02 0.  1.
       -2   -1    0    0    0  501  0.00000000000E+00  0.00000000000E+00 -0.73000059757E+03  0.73000059757E+03  0.25500000920E-02 0. -1.
    10030    2    1    2    0    0  0.00000000000E+00  0.00000000000E+00  0.10760498002E+04  0.25360509954E+04  0.22964475780E+04 0.  0.
        4    1    3    3  502    0 -0.57353360024E+03  0.53943846463E+03  0.14609765148E+04  0.16596350917E+04  0.12699999809E+01 0.  1.
       -4    1    3    3    0  502  0.57353360024E+03 -0.53943846463E+03 -0.38492671461E+03  0.87641590369E+03  0.12699999809E+01 0. -1.
</event>
<event>
 5   0  0.1588969E-05  0.2306332E+04  0.7818609E-02  0.8475429E-01
        2   -1    0    0  501    0  0.00000000000E+00  0.00000000000E+00  0.12631832223E+04  0.12631832223E+04  0.25500000920E-02 0. -1.
       -2   -1    0    0    0  501  0.00000000000E+00  0.00000000000E+00 -0.10527306991E+04  0.10527306992E+04  0.25500000920E-02 0.  1.
    10030    2    1    2    0    0  0.00000000000E+00  0.00000000000E+00  0.21045252317E+03  0.23159139215E+04  0.23063319421E+04 0.  0.
        1    1    3    3  502    0 -0.31615604672E+03  0.52887511630E+03 -0.87356866292E+03  0.10690115731E+04  0.50400001928E-02 0.  1.
       -1    1    3    3    0  502  0.31615604672E+03 -0.52887511630E+03  0.10840211861E+04  0.12469023484E+04  0.50400001928E-02 0. -1.
</event>
<event>
 5   0  0.5704875E-06  0.2319263E+04  0.7818609E-02  0.8470365E-01
        3   -1    0    0  501    0  0.00000000000E+00  0.00000000000E+00  0.77336641334E+03  0.77336641994E+03  0.10100000352E+00 0. -1.
       -3   -1    0    0    0  501  0.00000000000E+00  0.00000000000E+00 -0.17388195879E+04  0.17388195908E+04  0.10100000352E+00 0.  1.
    10030    2    1    2    0    0  0.00000000000E+00  0.00000000000E+00 -0.96545317455E+03  0.25121860108E+04  0.23192625381E+04 0.  0.
        5    1    3    3  502    0  0.17243528250E+03  0.31820016309E+03 -0.16760666821E+04  0.17147031473E+04  0.46999998093E+01 0.  1.
       -5    1    3    3    0  502 -0.17243528250E+03 -0.31820016309E+03  0.71061350755E+03  0.79748286348E+03  0.46999998093E+01 0. -1.
</event>
<event>
 5   0  0.5704875E-06  0.2297716E+04  0.7818609E-02  0.8478822E-01
       -3   -1    0    0    0  501  0.00000000000E+00  0.00000000000E+00  0.10995401650E+04  0.10995401696E+04  0.10100000352E+00 0. -1.
        3   -1    0    0  501    0  0.00000000000E+00  0.00000000000E+00 -0.12003875709E+04  0.12003875751E+04  0.10100000352E+00 0.  1.
    10030    2    1    2    0    0  0.00000000000E+00  0.00000000000E+00 -0.10084740591E+03  0.22999277447E+04  0.22977156986E+04 0.  0.
        5    1    3    3  502    0 -0.32405371165E+03  0.10196168141E+04  0.36857576539E+03  0.11315915520E+04  0.46999998093E+01 0. -1.
       -5    1    3    3    0  502  0.32405371165E+03 -0.10196168141E+04 -0.46942317129E+03  0.11683361928E+04  0.46999998093E+01 0.  1.
</event>
<event>
 5   0  0.7183014E-06  0.2248194E+04  0.7818609E-02  0.8498632E-01
        1   -1    0    0  501    0  0.00000000000E+00  0.00000000000E+00  0.14473493202E+04  0.14473493202E+04  0.50400001928E-02 0.  1.
       -1   -1    0    0    0  501  0.00000000000E+00  0.00000000000E+00 -0.87304046820E+03  0.87304046821E+03  0.50400001928E-02 0. -1.
    10030    2    1    2    0    0  0.00000000000E+00  0.00000000000E+00  0.57430885200E+03  0.23203897884E+04  0.22481944117E+04 0.  0.
        3    1    3    3  502    0  0.33260431752E+03  0.31429236712E+03  0.13468627889E+04  0.14224783676E+04  0.10100000352E+00 0.  1.
       -3    1    3    3    0  502 -0.33260431752E+03 -0.31429236712E+03 -0.77255393687E+03  0.89791142082E+03  0.10100000352E+00 0. -1.
</event>
<event>
 5   0  0.1697855E-05  0.2292497E+04  0.7818609E-02  0.8480885E-01
        2   -1    0    0  501    0  0.00000000000E+00  0.00000000000E+00  0.17427800354E+04  0.17427800354E+04  0.25500000920E-02 0.  1.
       -2   -1    0    0    0  501  0.00000000000E+00  0.00000000000E+00 -0.75390235366E+03  0.75390235366E+03  0.25500000920E-02 0. -1.
    10030    2    1    2    0    0  0.00000000000E+00  0.00000000000E+00  0.98887768175E+03  0.24966823891E+04  0.22924973026E+04 0.  0.
        5    1    3    3  502    0  0.61806753470E+03  0.37529198433E+03 -0.47416478628E+03  0.86469988175E+03  0.46999998093E+01 0. -1.
       -5    1    3    3    0  502 -0.61806753470E+03 -0.37529198433E+03  0.14630424680E+04  0.16319825073E+04  0.46999998093E+01 0.  1.
</event>
<event>
 5   0  0.7416556E-06  0.2289462E+04  0.7818609E-02  0.8482088E-01
        1   -1    0    0  501    0  0.00000000000E+00  0.00000000000E+00  0.87069224034E+03  0.87069224036E+03  0.50400001928E-02 0. -1.
       -1   -1    0    0    0  501  0.00000000000E+00  0.00000000000E+00 -0.15050204184E+04  0.15050204184E+04  0.50400001928E-02 0.  1.
    10030    2    1    2    0    0  0.00000000000E+00  0.00000000000E+00 -0.63432817802E+03  0.23757126587E+04  0.22894624695E+04 0.  0.
        4    1    3    3  502    0 -0.98695001233E+03  0.57237990564E+03 -0.41405684844E+03  0.12137272222E+04  0.12699999809E+01 0.  1.
       -4    1    3    3    0  502  0.98695001233E+03 -0.57237990564E+03 -0.22027132958E+03  0.11619854366E+04  0.12699999809E+01 0. -1.
</event>
<event>
 5   0  0.1588969E-05  0.2285012E+04  0.7818609E-02  0.8483854E-01
       -2   -1    0    0    0  501  0.00000000000E+00  0.00000000000E+00  0.15518625762E+04  0.15518625762E+04  0.25500000920E-02 0. -1.
        2   -1    0    0  501    0  0.00000000000E+00  0.00000000000E+00 -0.84113089226E+03  0.84113089227E+03  0.25500000920E-02 0.  1.
    10030    2    1    2    0    0  0.00000000000E+00  0.00000000000E+00  0.71073168390E+03  0.23929934684E+04  0.22850116441E+04 0.  0.
        1    1    3    3  502    0 -0.11010164009E+03 -0.11298508859E+04  0.22029752036E+03  0.11563807302E+04  0.50400001928E-02 0.  1.
       -1    1    3    3    0  502  0.11010164009E+03  0.11298508859E+04  0.49043416354E+03  0.12366127383E+04  0.50400001928E-02 0. -1.
</event>
<event>
 5   0  0.1635955E-05  0.2305339E+04  0.7818609E-02  0.8475819E-01
       -2   -1    0    0    0  501  0.00000000000E+00  0.00000000000E+00  0.97583292775E+03  0.97583292775E+03  0.25500000920E-02 0. -1.
        2   -1    0    0  501    0  0.00000000000E+00  0.00000000000E+00 -0.13615513035E+04  0.13615513035E+04  0.25500000920E-02 0.  1.
    10030    2    1    2    0    0  0.00000000000E+00  0.00000000000E+00 -0.38571837577E+03  0.23373842313E+04  0.23053386691E+04 0.  0.
        2    1    3    3  502    0 -0.14390167199E+03  0.79992490770E+03  0.63585123129E+03  0.10319371771E+04  0.25500000920E-02 0. -1.
       -2    1    3    3    0  502  0.14390167199E+03 -0.79992490770E+03 -0.10215696071E+04  0.13054470542E+04  0.25500000920E-02 0.  1.
</event>
<event>
 5   0  0.7278815E-06  0.2330450E+04  0.7818609E-02  0.8466011E-01
       -1   -1    0    0    0  501  0.00000000000E+00  0.00000000000E+00  0.89633523351E+03  0.89633523352E+03  0.50400001928E-02 0.  1.
        1   -1    0    0  501    0  0.00000000000E+00  0.00000000000E+00 -0.15147781780E+04  0.15147781780E+04  0.50400001928E-02 0. -1.
    10030    2    1    2    0    0  0.00000000000E+00  0.00000000000E+00 -0.61844294449E+03  0.24111134115E+04  0.23304497866E+04 0.  0.
        5    1    3    3  502    0  0.95467884994E+03  0.58488446304E+03 -0.64323550775E+03  0.12912302467E+04  0.46999998093E+01 0. -1.
       -5    1    3    3    0  502 -0.95467884994E+03 -0.58488446304E+03  0.24792563267E+02  0.11198831648E+04  0.46999998093E+01 0.  1.
</event>
<event>
 5   0  0.1626636E-05  0.2260675E+04  0.7818609E-02  0.8493590E-01
        2   -1    0    0  501    0  0.00000000000E+00  0.00000000000E+00  0.16520234551E+04  0.16520234551E+04  0.25500000920E-02 0. -1.
       -2   -1    0    0    0  501  0.00000000000E+00  0.00000000000E+00 -0.77339262968E+03  0.77339262969E+03  0.25500000920E-02 0.  1.
    10030    2    1    2    0    0  0.00000000000E+00  0.00000000000E+00  0.87863082537E+03  0.24254160848E+04  0.22606749118E+04 0.  0.
        4    1    3    3  502    0  0.10022763734E+04  0.29184639279E+03  0.90441390446E+03  0.13811945442E+04  0.12699999809E+01 0. -1.
       -4    1    3    3    0  502 -0.10022763734E+04 -0.29184639279E+03 -0.25783079085E+02  0.10442215405E+04  0.12699999809E+01 0.  1.
</event>
<event>
 5   0  0.1697855E-05  0.2302101E+04  0.7818609E-02  0.8477093E-01
       -2   -1    0    0    0  501  0.00000000000E+00  0.00000000000E+00  0.51750769679E+03  0.51750769680E+03  0.25500000920E-02 0. -1.
        2   -1    0    0  501    0  0.00000000000E+00  0.00000000000E+00 -0.25601890289E+04  0.25601890289E+04  0.25500000920E-02 0.  1.
    10030    2    1    2    0    0  0.00000000000E+00  0.00000000000E+00 -0.20426813321E+04  0.30776967257E+04  0.23021012382E+04 0.  0.
        5    1    3    3  502    0 -0.93075795547E+03  0.49376508112E+03 -0.40175773328E+03  0.11276283489E+04  0.46999998093E+01 0. -1.
       -5    1    3    3    0  502  0.93075795547E+03 -0.49376508112E+03 -0.16409235989E+04  0.19500683768E+04  0.46999998093E+01 0.  1.
</event>
<event>
 5   0  0.7416556E-06  0.2300228E+04  0.7818609E-02  0.8477831E-01
       -1   -1    0    0    0  501  0.00000000000E+00  0.00000000000E+00  0.95617085310E+03  0.95617085312E+03  0.50400001928E-02 0. -1.
        1   -1    0    0  501    0  0.00000000000E+00  0.00000000000E+00 -0.13833953220E+04  0.13833953220E+04  0.50400001928E-02 0.  1.
    10030    2    1    2    0    0  0.00000000000E+00  0.00000000000E+00 -0.42722446893E+03  0.23395661752E+04  0.23002280628E+04 0.  0.
        4    1    3    3  502    0 -0.24186835462E+03  0.80141546262E+03  0.58854111995E+03  0.10233031357E+04  0.12699999809E+01 0. -1.
       -4    1    3    3    0  502  0.24186835462E+03 -0.80141546262E+03 -0.10157655889E+04  0.13162630395E+04  0.12699999809E+01 0.  1.
</event>
<event>
 5   0  0.1588969E-05  0.2257613E+04  0.7818609E-02  0.8494824E-01
        2   -1    0    0  501    0  0.00000000000E+00  0.00000000000E+00  0.12999227078E+04  0.12999227078E+04  0.25500000920E-02 0.  1.
       -2   -1    0    0    0  501  0.00000000000E+00  0.00000000000E+00 -0.98021495236E+03  0.98021495236E+03  0.25500000920E-02 0. -1.
    10030    2    1    2    0    0  0.00000000000E+00  0.00000000000E+00  0.31970775546E+03  0.22801376602E+04  0.22576126108E+04 0.  0.
        1    1    3    3  502    0  0.26830624639E+03 -0.62099843153E+03 -0.75280829890E+03  0.10121006021E+04  0.50400001928E-02 0. -1.
       -1    1    3    3    0  502 -0.26830624639E+03  0.62099843153E+03  0.10725160544E+04  0.12680370581E+04  0.50400001928E-02 0.  1.
</event>
<event>
 5   0  0.7278815E-06  0.2299724E+04  0.7818609E-02  0.8478030E-01
       -1   -1    0    0    0  501  0.00000000000E+00  0.00000000000E+00  0.64155850689E+03  0.64155850691E+03  0.50400001928E-02 0. -1.
        1   -1    0    0  501    0  0.00000000000E+00  0.00000000000E+00 -0.20608918560E+04  0.20608918560E+04  0.50400001928E-02 0.  1.
    10030    2    1    2    0    0  0.00000000000E+00  0.00000000000E+00 -0.14193333491E+04  0.27024503629E+04  0.22997240722E+04 0.  0.
        5    1    3    3  502    0 -0.11272987985E+04  0.17625565832E+03 -0.87706231399E+03  0.14391417689E+04  0.46999998093E+01 0.  1.
       -5    1    3    3    0  502  0.11272987985E+04 -0.17625565832E+03 -0.54227103510E+03  0.12633085940E+04  0.46999998093E+01 0. -1.
</event>
<event>
 5   0  0.7183014E-06  0.2298358E+04  0.7818609E-02  0.8478569E-01
       -1   -1    0    0    0  501  0.00000000000E+00  0.00000000000E+00  0.13788196524E+04  0.13788196524E+04  0.50400001928E-02 0. -1.
        1   -1    0    0  501    0  0.00000000000E+00  0.00000000000E+00 -0.95778455361E+03  0.95778455362E+03  0.50400001928E-02 0.  1.
    10030    2    1    2    0    0  0.00000000000E+00  0.00000000000E+00  0.42103509880E+03  0.23366042060E+04  0.22983578184E+04 0.  0.
        3    1    3    3  502    0 -0.35957850508E+03 -0.15496274474E+03 -0.88787891613E+03  0.97038092185E+03  0.10100000352E+00 0.  1.
       -3    1    3    3    0  502  0.35957850508E+03  0.15496274474E+03  0.13089140149E+04  0.13662232842E+04  0.10100000352E+00 0. -1.
</event>
<event>
 5   0  0.7183014E-06  0.2262094E+04  0.7818609E-02  0.8493019E-01
       -1   -1    0    0    0  501  0.00000000000E+00  0.00000000000E+00  0.16015578617E+04  0.16015578617E+04  0.50400001928E-02 0.  1.
        1   -1    0    0  501    0  0.00000000000E+00  0.00000000000E+00 -0.79876441650E+03  0.79876441652E+03  0.50400001928E-02 0. -1.
    10030    2    1    2    0    0  0.00000000000E+00  0.00000000000E+00  0.80279344521E+03  0.24003222782E+04  0.22620941014E+04 0.  0.
        3    1    3    3  502    0  0.76008510449E+03  0.52289139574E+03  0.10956900439E+04  0.14323691774E+04  0.10100000352E+00 0.  1.
       -3    1    3    3    0  502 -0.76008510449E+03 -0.52289139574E+03 -0.29289659866E+03  0.96795310088E+03  0.10100000352E+00 0. -1.
</event>
<event>
 5   0  0.7391007E-06  0.2295001E+04  0.7818609E-02  0.8479895E-01
       -1   -1    0    0    0  501  0.00000000000E+00  0.00000000000E+00  0.19150268137E+04  0.19150268137E+04  0.50400001928E-02 0.  1.
        1   -1    0    0  501    0  0.00000000000E+00  0.00000000000E+00 -0.68759220928E+03  0.68759220930E+03  0.50400001928E-02 0. -1.
    10030    2    1    2    0    0  0.00000000000E+00  0.00000000000E+00  0.12274346044E+04  0.26026190230E+04  0.22950011047E+04 0.  0.
        1    1    3    3  502    0 -0.48764141889E+03  0.78882838963E+03 -0.15267203249E+03  0.93986867765E+03  0.50400001928E-02 0. -1.
       -1    1    3    3    0  502  0.48764141889E+03 -0.78882838963E+03  0.13801066369E+04  0.16627503453E+04  0.50400001928E-02 0.  1.
</event>
<event>
 5   0  0.1602809E-05  0.2300615E+04  0.7818609E-02  0.8477679E-01
       -2   -1    0    0    0  501  0.00000000000E+00  0.00000000000E+00  0.80756708681E+03  0.80756708681E+03  0.25500000920E-02 0.  1.
        2   -1    0    0  501    0  0.00000000000E+00  0.00000000000E+00 -0.16385104035E+04  0.16385104035E+04  0.25500000920E-02 0. -1.
    10030    2    1    2    0    0  0.00000000000E+00  0.00000000000E+00 -0.83094331674E+03  0.24460774904E+04  0.23006147642E+04 0.  0.
        3    1    3    3  502    0  0.13495949659E+03 -0.61264563525E+02 -0.16283156827E+04  0.16350472119E+04  0.10100000352E+00 0. -1.
       -3    1    3    3    0  502 -0.13495949659E+03  0.61264563525E+02  0.79737236593E+03  0.81103027848E+03  0.10100000352E+00 0.  1.
</event>
<event>
 5   0  0.5704875E-06  0.2255829E+04  0.7818609E-02  0.8495544E-01
       -3   -1    0    0    0  501  0.00000000000E+00  0.00000000000E+00  0.72458360758E+03  0.72458361462E+03  0.10100000352E+00 0. -1.
        3   -1    0    0  501    0  0.00000000000E+00  0.00000000000E+00 -0.17557546116E+04  0.17557546146E+04  0.10100000352E+00 0.  1.
    10030    2    1    2    0    0  0.00000000000E+00  0.00000000000E+00 -0.10311710041E+04  0.24803382292E+04  0.22558289145E+04 0.  0.
        1    1    3    3  502    0  0.77580452715E+03 -0.37633009890E+03 -0.13150642896E+04  0.15725428749E+04  0.50400001928E-02 0.  1.
       -1    1    3    3    0  502 -0.77580452715E+03  0.37633009890E+03  0.28389328548E+03  0.90779535428E+03  0.50400001928E-02 0. -1.
</event>
<event>
 5   0  0.1602809E-05  0.2305809E+04  0.7818609E-02  0.8475634E-01
        2   -1    0    0  501    0  0.00000000000E+00  0.00000000000E+00  0.15872984550E+04  0.15872984550E+04  0.25500000920E-02 0. -1.
       -2   -1    0    0    0  501  0.00000000000E+00  0.00000000000E+00 -0.83739085618E+03  0.83739085619E+03  0.25500000920E-02 0.  1.
    10030    2    1    2    0    0  0.00000000000E+00  0.00000000000E+00  0.74990759884E+03  0.24246893112E+04  0.23058093696E+04 0.  0.
        3    1    3    3  502    0 -0.51947146802E+03  0.29345118636E+03 -0.66242967642E+03  0.89150282740E+03  0.10100000352E+00 0.  1.
       -3    1    3    3    0  502  0.51947146802E+03 -0.29345118636E+03  0.14123372753E+04  0.15331864838E+04  0.10100000352E+00 0. -1.
</event>
<event>
 5   0  0.1697855E-05  0.2298780E+04  0.7818609E-02  0.8478402E-01
       -2   -1    0    0    0  501  0.00000000000E+00  0.00000000000E+00  0.11614496466E+04  0.11614496466E+04  0.25500000920E-02 0.  1.
        2   -1    0    0  501    0  0.00000000000E+00  0.00000000000E+00 -0.11374559703E+04  0.11374559703E+04  0.25500000920E-02 0. -1.
    10030    2    1    2    0    0  0.00000000000E+00  0.00000000000E+00  0.23993676293E+02  0.22989056169E+04  0.22987804025E+04 0.  0.
        5    1    3    3  502    0 -0.59500186987E+03  0.65235188916E+03  0.74789392554E+03  0.11571333658E+04  0.46999998093E+01 0.  1.
       -5    1    3    3    0  502  0.59500186987E+03 -0.65235188916E+03 -0.72390024925E+03  0.11417722511E+04  0.46999998093E+01 0. -1.
</event>
<event>
 5   0  0.7202572E-06  0.2302786E+04  0.7818609E-02  0.8476823E-01
        1   -1    0    0  501    0  0.00000000000E+00  0.00000000000E+00  0.19060053379E+04  0.19060053379E+04  0.50400001928E-02 0. -1.
       -1   -1    0    0    0  501  0.00000000000E+00  0.00000000000E+00 -0.69554168609E+03  0.69554168610E+03  0.50400001928E-02 0.  1.
    10030    2    1    2    0    0  0.00000000000E+00  0.00000000000E+00  0.12104636518E+04  0.26015470240E+04  0.23027862831E+04 0.  0.
        2    1    3    3  502    0 -0.71073953510E+03  0.51593106534E+03 -0.23592727413E+03  0.90939388035E+03  0.25500000920E-02 0.  1.
       -2    1    3    3    0  502  0.71073953510E+03 -0.51593106534E+03  0.14463909260E+04  0.16921531437E+04  0.25500000920E-02 0. -1.
</event>
<event>
 5   0  0.7416556E-06  0.2298603E+04  0.7818609E-02  0.8478472E-01
        1   -1    0    0  501    0  0.00000000000E+00  0.00000000000E+00  0.17058869670E+04  0.17058869670E+04  0.50400001928E-02 0.  1.
       -1   -1    0    0    0  501  0.00000000000E+00  0.00000000000E+00 -0.77431494444E+03  0.77431494446E+03  0.50400001928E-02 0. -1.
    10030    2    1    2    0    0  0.00000000000E+00  0.00000000000E+00  0.93157202257E+03  0.24802019115E+04  0.22986028557E+04 0.  0.
        4    1    3    3  502    0  0.78111375133E+03  0.11398955122E+03 -0.43552791945E+03  0.90156446903E+03  0.12699999809E+01 0. -1.
       -4    1    3    3    0  502 -0.78111375133E+03 -0.11398955122E+03  0.13670999420E+04  0.15786374424E+04  0.12699999809E+01 0.  1.
</event>
<event>
 5   0  0.1635955E-05  0.2303088E+04  0.7818609E-02  0.8476704E-01
        2   -1    0    0  501    0  0.00000000000E+00  0.00000000000E+00  0.10848343515E+04  0.10848343515E+04  0.25500000920E-02 0. -1.
       -2   -1    0    0    0  501  0.00000000000E+00  0.00000000000E+00 -0.12223559750E+04  0.12223559750E+04  0.25500000920E-02 0.  1.
    10030    2    1    2    0    0  0.00000000000E+00  0.00000000000E+00 -0.13752162342E+03  0.23071903265E+04  0.23030881455E+04 0.  0.
        2    1    3    3  502    0  0.84907205648E+03  0.46067879985E+03  0.55917735675E+03  0.11161664885E+04  0.25500000920E-02 0. -1.
       -2    1    3    3    0  502 -0.84907205648E+03 -0.46067879985E+03 -0.69669898017E+03  0.11910238380E+04  0.25500000920E-02 0.  1.
</event>
<event>
 5   0  0.1602809E-05  0.2293817E+04  0.7818609E-02  0.8480363E-01
       -2   -1    0    0    0  501  0.00000000000E+00  0.00000000000E+00  0.77565975828E+03  0.77565975829E+03  0.25500000920E-02 0.  1.
        2   -1    0    0  501    0  0.00000000000E+00  0.00000000000E+00 -0.16958461272E+04  0.16958461272E+04  0.25500000920E-02 0. -1.
    10030    2    1    2    0    0  0.00000000000E+00  0.00000000000E+00 -0.92018636894E+03  0.24715058855E+04  0.22938174270E+04 0.  0.
        3    1    3    3  502    0  0.36375215077E+03  0.88527336727E+03  0.22082236579E+03  0.98223576061E+03  0.10100000352E+00 0.  1.
       -3    1    3    3    0  502 -0.36375215077E+03 -0.88527336727E+03 -0.11410087347E+04  0.14892701249E+04  0.10100000352E+00 0. -1.
</event>
<event>
 5   0  0.7391007E-06  0.2287972E+04  0.7818609E-02  0.8482679E-01
        1   -1    0    0  501    0  0.00000000000E+00  0.00000000000E+00  0.24298270042E+04  0.24298270042E+04  0.50400001928E-02 0. -1.
       -1   -1    0    0    0  501  0.00000000000E+00  0.00000000000E+00 -0.53859983695E+03  0.53859983698E+03  0.50400001928E-02 0.  1.
    10030    2    1    2    0    0  0.00000000000E+00  0.00000000000E+00  0.18912271672E+04  0.29684268411E+04  0.22879724022E+04 0.  0.
        1    1    3    3  502    0  0.38383872600E+03  0.96687162731E+03  0.32810942753E+03  0.10907926970E+04  0.50400001928E-02 0.  1.
       -1    1    3    3    0  502 -0.38383872600E+03 -0.96687162731E+03  0.15631177397E+04  0.18776341442E+04  0.50400001928E-02 0. -1.
</event>
<event>
 5   0  0.1697855E-05  0.2355014E+04  0.7818609E-02  0.8456540E-01
        2   -1    0    0  501    0  0.00000000000E+00  0.00000000000E+00  0.92758477623E+03  0.92758477623E+03  0.25500000920E-02 0.  1.
       -2   -1    0    0    0  501  0.00000000000E+00  0.00000000000E+00 -0.14947669175E+04  0.14947669175E+04  0.25500000920E-02 0. -1.
    10030    2    1    2    0    0  0.00000000000E+00  0.00000000000E+00 -0.56718214129E+03  0.24223516937E+04  0.23550142562E+04 0.  0.
        5    1    3    3  502    0 -0.69503045289E+03  0.95040029298E+03 -0.29711616665E+03  0.12143426839E+04  0.46999998093E+01 0. -1.
       -5    1    3    3    0  502  0.69503045289E+03 -0.95040029298E+03 -0.27006597464E+03  0.12080090099E+04  0.46999998093E+01 0.  1.
</event>
<event>
 5   0  0.7416556E-06  0.2301284E+04  0.7818609E-02  0.8477415E-01
        1   -1    0    0  501    0  0.00000000000E+00  0.00000000000E+00  0.19961536246E+04  0.19961536246E+04  0.50400001928E-02 0. -1.
       -1   -1    0    0    0  501  0.00000000000E+00  0.00000000000E+00 -0.66326393655E+03  0.66326393657E+03  0.50400001928E-02 0.  1.
    10030    2    1    2    0    0  0.00000000000E+00  0.00000000000E+00  0.13328896881E+04  0.26594175612E+04  0.23012837383E+04 0.  0.
        4    1    3    3  502    0 -0.11476468039E+04 -0.46699793723E+02  0.58721051572E+03  0.12899968449E+04  0.12699999809E+01 0. -1.
       -4    1    3    3    0  502  0.11476468039E+04  0.46699793723E+02  0.74567917235E+03  0.13694207163E+04  0.12699999809E+01 0.  1.
</event>
<event>
 5   0  0.7278815E-06  0.2298295E+04  0.7818609E-02  0.8478594E-01
       -1   -1    0    0    0  501  0.00000000000E+00  0.00000000000E+00  0.14817291534E+04  0.14817291534E+04  0.50400001928E-02 0. -1.
        1   -1    0    0  501    0  0.00000000000E+00  0.00000000000E+00 -0.89121566123E+03  0.89121566124E+03  0.50400001928E-02 0.  1.
    10030    2    1    2    0    0  0.00000000000E+00  0.00000000000E+00  0.59051349216E+03  0.23729448146E+04  0.22982952180E+04 0.  0.
        5    1    3    3  502    0 -0.73748316265E+03  0.76406910426E+03  0.74864983705E+03  0.12993004579E+04  0.46999998093E+01 0. -1.
       -5    1    3    3    0  502  0.73748316265E+03 -0.76406910426E+03 -0.15813634489E+03  0.10736443568E+04  0.46999998093E+01 0.  1.
</event>
<event>
 5   0  0.1635955E-05  0.2306301E+04  0.7818609E-02  0.8475441E-01
       -2   -1    0    0    0  501  0.00000000000E+00  0.00000000000E+00  0.16209264161E+04  0.16209264161E+04  0.25500000920E-02 0. -1.
        2   -1    0    0  501    0  0.00000000000E+00  0.00000000000E+00 -0.82036780862E+03  0.82036780863E+03  0.25500000920E-02 0.  1.
    10030    2    1    2    0    0  0.00000000000E+00  0.00000000000E+00  0.80055860747E+03  0.24412942247E+04  0.23063008060E+04 0.  0.
        2    1    3    3  502    0  0.88577821349E+03  0.49315631306E+03  0.98194231181E+03  0.14113882869E+04  0.25500000920E-02 0. -1.
       -2    1    3    3    0  502 -0.88577821349E+03 -0.49315631306E+03 -0.18138370434E+03  0.10299059378E+04  0.25500000920E-02 0.  1.
</event>
<event>
 5   0  0.7391007E-06  0.2311299E+04  0.7818609E-02  0.8473479E-01
       -1   -1    0    0    0  501  0.00000000000E+00  0.00000000000E+00  0.11150097288E+04  0.11150097289E+04  0.50400001928E-02 0. -1.
        1   -1    0    0  501    0  0.00000000000E+00  0.00000000000E+00 -0.11977704493E+04  0.11977704493E+04  0.50400001928E-02 0.  1.
    10030    2    1    2    0    0  0.00000000000E+00  0.00000000000E+00 -0.82760720438E+02  0.23127801782E+04  0.23112989455E+04 0.  0.
        1    1    3    3  502    0 -0.86656887193E+03 -0.75382769727E+02 -0.80272375604E+03  0.11836340652E+04  0.50400001928E-02 0.  1.
       -1    1    3    3    0  502  0.86656887193E+03  0.75382769727E+02  0.71996303560E+03  0.11291461130E+04  0.50400001928E-02 0. -1.
</event>
<event>
 5   0  0.7202572E-06  0.2293864E+04  0.7818609E-02  0.8480344E-01
       -1   -1    0    0    0  501  0.00000000000E+00  0.00000000000E+00  0.74632831113E+03  0.74632831115E+03  0.50400001928E-02 0.  1.
        1   -1    0    0  501    0  0.00000000000E+00  0.00000000000E+00 -0.17625668784E+04  0.17625668784E+04  0.50400001928E-02 0. -1.
    10030    2    1    2    0    0  0.00000000000E+00  0.00000000000E+00 -0.10162385673E+04  0.25088951896E+04  0.22938644787E+04 0.  0.
        2    1    3    3  502    0 -0.58968777832E+03  0.56360744124E+03 -0.13899685061E+04  0.16116443379E+04  0.25500000920E-02 0. -1.
       -2    1    3    3    0  502  0.58968777832E+03 -0.56360744124E+03  0.37372993883E+03  0.89725085172E+03  0.25500000920E-02 0.  1.
</event>
<event>
 5   0  0.1697855E-05  0.2327159E+04  0.7818609E-02  0.8467289E-01
        2   -1    0    0  501    0  0.00000000000E+00  0.00000000000E+00  0.20938751759E+04  0.20938751759E+04  0.25500000920E-02 0.  1.
       -2   -1    0    0    0  501  0.00000000000E+00  0.00000000000E+00 -0.64660818061E+03  0.64660818061E+03  0.25500000920E-02 0. -1.
    10030    2    1    2    0    0  0.00000000000E+00  0.00000000000E+00  0.14472669953E+04  0.27404833565E+04  0.23271586262E+04 0.  0.
        5    1    3    3  502    0  0.40791920781E+03 -0.59544440243E+03  0.17983866356E+04  0.19378257656E+04  0.46999998093E+01 0.  1.
       -5    1    3    3    0  502 -0.40791920781E+03  0.59544440243E+03 -0.35111964033E+03  0.80265759095E+03  0.46999998093E+01 0. -1.
</event>
<event>
 5   0  0.1626636E-05  0.2305435E+04  0.7818609E-02  0.8475781E-01
       -2   -1    0    0    0  501  0.00000000000E+00  0.00000000000E+00  0.10294760641E+04  0.10294760641E+04  0.25500000920E-02 0. -1.
        2   -1    0    0  501    0  0.00000000000E+00  0.00000000000E+00 -0.12907127995E+04  0.12907127995E+04  0.25500000920E-02 0.  1.
    10030    2    1    2    0    0  0.00000000000E+00  0.00000000000E+00 -0.26123673544E+03  0.23201888636E+04  0.23054352585E+04 0.  0.
        4    1    3    3  502    0  0.60223337302E+03 -0.66050206998E+03  0.60191900398E+03  0.10776159428E+04  0.12699999809E+01 0. -1.
       -4    1    3    3    0  502 -0.60223337302E+03  0.66050206998E+03 -0.86315573942E+03  0.12425729208E+04  0.12699999809E+01 0.  1.
</event>
<event>
 5   0  0.7202572E-06  0.2260484E+04  0.7818609E-02  0.8493667E-01
       -1   -1    0    0    0  501  0.00000000000E+00  0.00000000000E+00  0.21283350745E+04  0.21283350745E+04  0.50400001928E-02 0. -1.
        1   -1    0    0  501    0  0.00000000000E+00  0.00000000000E+00 -0.60020934280E+03  0.60020934282E+03  0.50400001928E-02 0.  1.
    10030    2    1    2    0    0  0.00000000000E+00  0.00000000000E+00  0.15281257317E+04  0.27285444174E+04  0.22604836619E+04 0.  0.
        2    1    3    3  502    0  0.95554909198E+03  0.28239761617E+03  0.14080326684E+04  0.17249285423E+04  0.25500000920E-02 0. -1.
       -2    1    3    3    0  502 -0.95554909198E+03 -0.28239761617E+03  0.12009306335E+03  0.10036158751E+04  0.25500000920E-02 0.  1.
</event>
<event>
 5   0  0.7183014E-06  0.2300165E+04  0.7818609E-02  0.8477856E-01
        1   -1    0    0  501    0  0.00000000000E+00  0.00000000000E+00  0.99469772936E+03  0.99469772937E+03  0.50400001928E-02 0. -1.
       -1   -1    0    0    0  501  0.00000000000E+00  0.00000000000E+00 -0.13297406160E+04  0.13297406160E+04  0.50400001928E-02 0.  1.
    10030    2    1    2    0    0  0.00000000000E+00  0.00000000000E+00 -0.33504288664E+03  0.23244383454E+04  0.23001651866E+04 0.  0.
        3    1    3    3  502    0 -0.74232144224E+03 -0.56453229603E+03  0.51259794505E+03  0.10641872487E+04  0.10100000352E+00 0. -1.
       -3    1    3    3    0  502  0.74232144224E+03  0.56453229603E+03 -0.84764083169E+03  0.12602510967E+04  0.10100000352E+00 0.  1.
</event>
<event>
 5   0  0.7202572E-06  0.2291176E+04  0.7818609E-02  0.8481409E-01
       -1   -1    0    0    0  501  0.00000000000E+00  0.00000000000E+00  0.12709719745E+04  0.12709719745E+04  0.50400001928E-02 0.  1.
        1   -1    0    0  501    0  0.00000000000E+00  0.00000000000E+00 -0.10325730590E+04  0.10325730590E+04  0.50400001928E-02 0. -1.
    10030    2    1    2    0    0  0.00000000000E+00  0.00000000000E+00  0.23839891548E+03  0.23035450335E+04  0.22911756105E+04 0.  0.
        2    1    3    3  502    0 -0.10219501498E+04  0.38073461157E+03 -0.23345117276E+03  0.11152759314E+04  0.25500000920E-02 0. -1.
       -2    1    3    3    0  502  0.10219501498E+04 -0.38073461157E+03  0.47185008824E+03  0.11882691021E+04  0.25500000920E-02 0.  1.
</event>
<event>
 5   0  0.1602809E-05  0.2298234E+04  0.7818609E-02  0.8478618E-01
       -2   -1    0    0    0  501  0.00000000000E+00  0.00000000000E+00  0.67769433235E+03  0.67769433235E+03  0.25500000920E-02 0. -1.
        2   -1    0    0  501    0  0.00000000000E+00  0.00000000000E+00 -0.19484747632E+04  0.19484747632E+04  0.25500000920E-02 0.  1.
    10030    2    1    2    0    0  0.00000000000E+00  0.00000000000E+00 -0.12707804309E+04  0.26261690956E+04  0.22982343690E+04 0.  0.
        3    1    3    3  502    0 -0.67900815031E+02  0.10934203703E+04 -0.10317103551E+04  0.15048604234E+04  0.10100000352E+00 0.  1.
       -3    1    3    3    0  502  0.67900815031E+02 -0.10934203703E+04 -0.23907007578E+03  0.11213086722E+04  0.10100000352E+00 0. -1.
</event>
<event>
 5   0  0.5704875E-06  0.2315647E+04  0.7818609E-02  0.8471777E-01
       -3   -1    0    0    0  501  0.00000000000E+00  0.00000000000E+00  0.90991775578E+03  0.90991776139E+03  0.10100000352E+00 0. -1.
        3   -1    0    0  501    0  0.00000000000E+00  0.00000000000E+00 -0.14732708452E+04  0.14732708487E+04  0.10100000352E+00 0.  1.
    10030    2    1    2    0    0  0.00000000000E+00  0.00000000000E+00 -0.56335308944E+03  0.23831886101E+04  0.23156470473E+04 0.  0.
        2    1    3    3  502    0  0.26386078866E+03 -0.10690903639E+04 -0.64985189658E+03  0.12786259067E+04  0.25500000920E-02 0.  1.
       -2    1    3    3    0  502 -0.26386078866E+03  0.10690903639E+04  0.86498807139E+02  0.11045627033E+04  0.25500000920E-02 0. -1.
</event>
<event>
 5   0  0.7416556E-06  0.2297056E+04  0.7818609E-02  0.8479083E-01
        1   -1    0    0  501    0  0.00000000000E+00  0.00000000000E+00  0.14016329351E+04  0.14016329351E+04  0.50400001928E-02 0.  1.
       -1   -1    0    0    0  501  0.00000000000E+00  0.00000000000E+00 -0.94112861141E+03  0.94112861142E+03  0.50400001928E-02 0. -1.
    10030    2    1    2    0    0  0.00000000000E+00  0.00000000000E+00  0.46050432367E+03  0.23427615465E+04  0.22970562535E+04 0.  0.
        4    1    3    3  502    0 -0.65259821893E+03 -0.57197573218E+03  0.99760177640E+03  0.13222146538E+04  0.12699999809E+01 0.  1.
       -4    1    3    3    0  502  0.65259821893E+03  0.57197573218E+03 -0.53709745274E+03  0.10205468927E+04  0.12699999809E+01 0. -1.
</event>
<event>
 5   0  0.7183014E-06  0.2251702E+04  0.7818609E-02  0.8497211E-01
        1   -1    0    0  501    0  0.00000000000E+00  0.00000000000E+00  0.20366943547E+04  0.20366943547E+04  0.50400001928E-02 0.  1.
       -1   -1    0    0    0  501  0.00000000000E+00  0.00000000000E+00 -0.62235191928E+03  0.62235191930E+03  0.50400001928E-02 0. -1.
    10030    2    1    2    0    0  0.00000000000E+00  0.00000000000E+00  0.14143424354E+04  0.26590462740E+04  0.22517021478E+04 0.  0.
        3    1    3    3  502    0  0.64428293729E+03  0.89915091539E+03  0.45955327213E+03  0.11978155501E+04  0.10100000352E+00 0. -1.
       -3    1    3    3    0  502 -0.64428293729E+03 -0.89915091539E+03  0.95478916327E+03  0.14612307239E+04  0.10100000352E+00 0.  1.
</event>
<event>
 5   0  0.1588969E-05  0.2304518E+04  0.7818609E-02  0.8476142E-01
        2   -1    0    0  501    0  0.00000000000E+00  0.00000000000E+00  0.20851924067E+04  0.20851924067E+04  0.25500000920E-02 0. -1.
       -2   -1    0    0    0  501  0.00000000000E+00  0.00000000000E+00 -0.63672805581E+03  0.63672805582E+03  0.25500000920E-02 0.  1.
    10030    2    1    2    0    0  0.00000000000E+00  0.00000000000E+00  0.14484643509E+04  0.27219204625E+04  0.23045177431E+04 0.  0.
        1    1    3    3  502    0 -0.74207627040E+03  0.42911812154E+03  0.16336827962E+04  0.18449225002E+04  0.50400001928E-02 0. -1.
       -1    1    3    3    0  502  0.74207627040E+03 -0.42911812154E+03 -0.18521844530E+03  0.87699796227E+03  0.50400001928E-02 0.  1.
</event>
<event>
 5   0  0.7391007E-06  0.2316520E+04  0.7818609E-02  0.8471436E-01
        1   -1    0    0  501    0  0.00000000000E+00  0.00000000000E+00  0.12006999049E+04  0.12006999049E+04  0.50400001928E-02 0. -1.
       -1   -1    0    0    0  501  0.00000000000E+00  0.00000000000E+00 -0.11173200242E+04  0.11173200242E+04  0.50400001928E-02 0.  1.
    10030    2    1    2    0    0  0.00000000000E+00  0.00000000000E+00  0.83379880690E+02  0.23180199290E+04  0.23165198438E+04 0.  0.
        1    1    3    3  502    0 -0.24434516005E+03  0.75468056697E+03  0.88622624388E+03  0.11893881918E+04  0.50400001928E-02 0. -1.
       -1    1    3    3    0  502  0.24434516005E+03 -0.75468056697E+03 -0.80284636319E+03  0.11286317372E+04  0.50400001928E-02 0.  1.
</event>
<event>
 5   0  0.1602809E-05  0.2299837E+04  0.7818609E-02  0.8477985E-01
       -2   -1    0    0    0  501  0.00000000000E+00  0.00000000000E+00  0.63242009600E+03  0.63242009601E+03  0.25500000920E-02 0.  1.
        2   -1    0    0  501    0  0.00000000000E+00  0.00000000000E+00 -0.20908774385E+04  0.20908774385E+04  0.25500000920E-02 0. -1.
    10030    2    1    2    0    0  0.00000000000E+00  0.00000000000E+00 -0.14584573425E+04  0.27232975345E+04  0.22998373076E+04 0.  0.
        3    1    3    3  502    0 -0.43485705181E+03  0.40159155174E+03  0.43816387872E+03  0.73645368134E+03  0.10100000352E+00 0.  1.
       -3    1    3    3    0  502  0.43485705181E+03 -0.40159155174E+03 -0.18966212212E+04  0.19868438532E+04  0.10100000352E+00 0. -1.
</event>
<event>
 5   0  0.1602809E-05  0.2300435E+04  0.7818609E-02  0.8477749E-01
       -2   -1    0    0    0  501  0.00000000000E+00  0.00000000000E+00  0.10038841723E+04  0.10038841723E+04  0.25500000920E-02 0. -1.
        2   -1    0    0  501    0  0.00000000000E+00  0.00000000000E+00 -0.13178819321E+04  0.13178819321E+04  0.25500000920E-02 0.  1.
    10030    2    1    2    0    0  0.00000000000E+00  0.00000000000E+00 -0.31399775976E+03  0.23217661044E+04  0.23004354480E+04 0.  0.
        3    1    3    3  502    0  0.26461165676E+02  0.11279236143E+04 -0.38287966576E+03  0.11914313751E+04  0.10100000352E+00 0.  1.
       -3    1    3    3    0  502 -0.26461165676E+02 -0.11279236143E+04  0.68881905998E+02  0.11303347292E+04  0.10100000352E+00 0. -1.
</event>
<event>
 5   0  0.1626636E-05  0.2296259E+04  0.7818609E-02  0.8479398E-01
       -2   -1    0    0    0  501  0.00000000000E+00  0.00000000000E+00  0.67654791478E+03  0.67654791478E+03  0.25500000920E-02 0.  1.
        2   -1    0    0  501    0  0.00000000000E+00  0.00000000000E+00 -0.19484224698E+04  0.19484224698E+04  0.25500000920E-02 0. -1.
    10030    2    1    2    0    0  0.00000000000E+00  0.00000000000E+00 -0.12718745550E+04  0.26249703845E+04  0.22962588347E+04 0.  0.
        4    1    3    3  502    0  0.17626744933E+03 -0.74616576674E+03  0.34101609386E+03  0.83912284817E+03  0.12699999809E+01 0.  1.
       -4    1    3    3    0  502 -0.17626744933E+03  0.74616576674E+03 -0.16128906488E+04  0.17858475364E+04  0.12699999809E+01 0. -1.
</event>
<event>
 5   0  0.7183014E-06  0.2297255E+04  0.7818609E-02  0.8479004E-01
        1   -1    0    0  501    0  0.00000000000E+00  0.00000000000E+00  0.11382888686E+04  0.11382888686E+04  0.50400001928E-02 0. -1.
       -1   -1    0    0    0  501  0.00000000000E+00  0.00000000000E+00 -0.11590598696E+04  0.11590598696E+04  0.50400001928E-02 0.  1.
    10030    2    1    2    0    0  0.00000000000E+00  0.00000000000E+00 -0.20771001018E+02  0.22973487383E+04  0.22972548380E+04 0.  0.
        3    1    3    3  502    0 -0.82293923792E+03  0.60740396230E+03  0.51229863679E+03  0.11439486292E+04  0.10100000352E+00 0. -1.
       -3    1    3    3    0  502  0.82293923792E+03 -0.60740396230E+03 -0.53306963781E+03  0.11534001091E+04  0.10100000352E+00 0.  1.
</event>
<event>
 5   0  0.1626636E-05  0.2309439E+04  0.7818609E-02  0.8474209E-01
        2   -1    0    0  501    0  0.00000000000E+00  0.00000000000E+00  0.12149168869E+04  0.12149168869E+04  0.25500000920E-02 0. -1.
       -2   -1    0    0    0  501  0.00000000000E+00  0.00000000000E+00 -0.10975045485E+04  0.10975045485E+04  0.25500000920E-02 0.  1.
    10030    2    1    2    0    0  0.00000000000E+00  0.00000000000E+00  0.11741233835E+03  0.23124214354E+04  0.23094387279E+04 0.  0.
        4    1    3    3  502    0 -0.59231192842E+03  0.76926866836E+02  0.10482254157E+04  0.12064531894E+04  0.12699999809E+01 0. -1.
       -4    1    3    3    0  502  0.59231192842E+03 -0.76926866836E+02 -0.93081307731E+03  0.11059682460E+04  0.12699999809E+01 0.  1.
</event>
<event>
 5   0  0.7278815E-06  0.2305310E+04  0.7818609E-02  0.8475830E-01
       -1   -1    0    0    0  501  0.00000000000E+00  0.00000000000E+00  0.19908180454E+04  0.19908180454E+04  0.50400001928E-02 0. -1.
        1   -1    0    0  501    0  0.00000000000E+00  0.00000000000E+00 -0.66737087941E+03  0.66737087943E+03  0.50400001928E-02 0.  1.
    10030    2    1    2    0    0  0.00000000000E+00  0.00000000000E+00  0.13234471660E+04  0.26581889248E+04  0.23053103823E+04 0.  0.
        5    1    3    3  502    0 -0.11067555768E+03  0.87498177925E+02 -0.65736607036E+03  0.67235202883E+03  0.46999998093E+01 0.  1.
       -5    1    3    3    0  502  0.11067555768E+03 -0.87498177925E+02  0.19808132364E+04  0.19858368960E+04  0.46999998093E+01 0. -1.
</event>
<event>
 5   0  0.1588969E-05  0.2297650E+04  0.7818609E-02  0.8478848E-01
        2   -1    0    0  501    0  0.00000000000E+00  0.00000000000E+00  0.49512004425E+03  0.49512004426E+03  0.25500000920E-02 0. -1.
       -2   -1    0    0    0  501  0.00000000000E+00  0.00000000000E+00 -0.26656140091E+04  0.26656140091E+04  0.25500000920E-02 0.  1.
    10030    2    1    2    0    0  0.00000000000E+00  0.00000000000E+00 -0.21704939648E+04  0.31607340534E+04  0.22976500396E+04 0.  0.
        1    1    3    3  502    0 -0.26610194453E+03  0.13245691628E+02 -0.26225264283E+04  0.26360255235E+04  0.50400001928E-02 0.  1.
       -1    1    3    3    0  502  0.26610194453E+03 -0.13245691628E+02  0.45203246349E+03  0.52470852986E+03  0.50400001928E-02 0. -1.
</event>
<event>
 5   0  0.7202572E-06  0.2318529E+04  0.7818609E-02  0.8470651E-01
        1   -1    0    0  501    0  0.00000000000E+00  0.00000000000E+00  0.24569197693E+04  0.24569197693E+04  0.50400001928E-02 0. -1.
       -1   -1    0    0    0  501  0.00000000000E+00  0.00000000000E+00 -0.54698334327E+03  0.54698334329E+03  0.50400001928E-02 0.  1.
    10030    2    1    2    0    0  0.00000000000E+00  0.00000000000E+00  0.19099364261E+04  0.30039031126E+04  0.23185290075E+04 0.  0.
        2    1    3    3  502    0  0.87644822539E+03  0.65593409207E+03  0.14491420592E+04  0.18161563073E+04  0.25500000920E-02 0. -1.
       -2    1    3    3    0  502 -0.87644822539E+03 -0.65593409207E+03  0.46079436687E+03  0.11877468053E+04  0.25500000920E-02 0.  1.
</event>
<event>
 5   0  0.1697855E-05  0.2293362E+04  0.7818609E-02  0.8480543E-01
       -2   -1    0    0    0  501  0.00000000000E+00  0.00000000000E+00  0.75033647626E+03  0.75033647627E+03  0.25500000920E-02 0.  1.
        2   -1    0    0  501    0  0.00000000000E+00  0.00000000000E+00 -0.17523840464E+04  0.17523840464E+04  0.25500000920E-02 0. -1.
    10030    2    1    2    0    0  0.00000000000E+00  0.00000000000E+00 -0.10020475701E+04  0.25027205227E+04  0.22933623093E+04 0.  0.
        5    1    3    3  502    0 -0.73512690150E+03 -0.51407847246E+03 -0.12804876952E+04  0.15634446152E+04  0.46999998093E+01 0. -1.
       -5    1    3    3    0  502  0.73512690150E+03  0.51407847246E+03  0.27844012506E+03  0.93927590749E+03  0.46999998093E+01 0.  1.
</event>
<event>
 5   0  0.7183014E-06  0.2290850E+04  0.7818609E-02  0.8481538E-01
        1   -1    0    0  501    0  0.00000000000E+00  0.00000000000E+00  0.10591876932E+04  0.10591876932E+04  0.50400001928E-02 0.  1.
       -1   -1    0    0    0  501  0.00000000000E+00  0.00000000000E+00 -0.12386833243E+04  0.12386833243E+04  0.50400001928E-02 0. -1.
    10030    2    1    2    0    0  0.00000000000E+00  0.00000000000E+00 -0.17949563115E+03  0.22978710175E+04  0.22908497401E+04 0.  0.
        3    1    3    3  502    0 -0.53380896986E+02 -0.87046569500E+03  0.65511692828E+03  0.10907512302E+04  0.10100000352E+00 0.  1.
       -3    1    3    3    0  502  0.53380896986E+02  0.87046569500E+03 -0.83461255943E+03  0.12071197873E+04  0.10100000352E+00 0. -1.
</event>
<event>
 5   0  0.7183014E-06  0.2293532E+04  0.7818609E-02  0.8480476E-01
       -1   -1    0    0    0  501  0.00000000000E+00  0.00000000000E+00  0.49465911328E+03  0.49465911331E+03  0.50400001928E-02 0.  1.
        1   -1    0    0  501    0  0.00000000000E+00  0.00000000000E+00 -0.26585424448E+04  0.26585424448E+04  0.50400001928E-02 0. -1.
    10030    2    1    2    0    0  0.00000000000E+00  0.00000000000E+00 -0.21638833316E+04  0.31532015582E+04  0.22935319910E+04 0.  0.
        3    1    3    3  502    0  0.10751304517E+03 -0.45089771713E+03 -0.25240026448E+04  0.25662145599E+04  0.10100000352E+00 0. -1.
       -3    1    3    3    0  502 -0.10751304517E+03  0.45089771713E+03  0.36011931323E+03  0.58698699829E+03  0.10100000352E+00 0.  1.
</event>
<event>
 5   0  0.5704875E-06  0.2301130E+04  0.7818609E-02  0.8477476E-01
        3   -1    0    0  501    0  0.00000000000E+00  0.00000000000E+00  0.46998006316E+03  0.46998007401E+03  0.10100000352E+00 0.  1.
       -3   -1    0    0    0  501  0.00000000000E+00  0.00000000000E+00 -0.28167137091E+04  0.28167137109E+04  0.10100000352E+00 0. -1.
    10030    2    1    2    0    0  0.00000000000E+00  0.00000000000E+00 -0.23467336459E+04  0.32866937849E+04  0.23011295554E+04 0.  0.
        3    1    3    3  502    0 -0.34275909241E+03  0.22405632452E+03 -0.27091098536E+04  0.27398834356E+04  0.10100000352E+00 0. -1.
       -3    1    3    3    0  502  0.34275909241E+03 -0.22405632452E+03  0.36237620765E+03  0.54681034926E+03  0.10100000352E+00 0.  1.
</event>
<event>
 5   0  0.7183014E-06  0.2308977E+04  0.7818609E-02  0.8474390E-01
        1   -1    0    0  501    0  0.00000000000E+00  0.00000000000E+00  0.18496036196E+04  0.18496036196E+04  0.50400001928E-02 0. -1.
       -1   -1    0    0    0  501  0.00000000000E+00  0.00000000000E+00 -0.72061052514E+03  0.72061052516E+03  0.50400001928E-02 0.  1.
    10030    2    1    2    0    0  0.00000000000E+00  0.00000000000E+00  0.11289930945E+04  0.25702141448E+04  0.23089771204E+04 0.  0.
        3    1    3    3  502    0  0.35311454402E+03 -0.30535737844E+03  0.17398534008E+04  0.18013947031E+04  0.10100000352E+00 0. -1.
       -3    1    3    3    0  502 -0.35311454402E+03  0.30535737844E+03 -0.61086030638E+03  0.76881944166E+03  0.10100000352E+00 0.  1.
</event>
<event>
 5   0  0.7202572E-06  0.2305090E+04  0.7818609E-02  0.8475917E-01
        1   -1    0    0  501    0  0.00000000000E+00  0.00000000000E+00  0.14205526143E+04  0.14205526143E+04  0.50400001928E-02 0.  1.
       -1   -1    0    0    0  501  0.00000000000E+00  0.00000000000E+00 -0.93510050875E+03  0.93510050876E+03  0.50400001928E-02 0. -1.
    10030    2    1    2    0    0  0.00000000000E+00  0.00000000000E+00  0.48545210555E+03  0.23556531231E+04  0.23050895621E+04 0.  0.
        2    1    3    3  502    0 -0.84688550707E+02  0.95002904401E+03 -0.41848456358E+03  0.10415645275E+04  0.25500000920E-02 0. -1.
       -2    1    3    3    0  502  0.84688550707E+02 -0.95002904401E+03  0.90393666913E+03  0.13140885955E+04  0.25500000920E-02 0.  1.
</event>
<event>
 5   0  0.7278815E-06  0.2297932E+04  0.7818609E-02  0.8478737E-01
       -1   -1    0    0    0  501  0.00000000000E+00  0.00000000000E+00  0.44377076549E+03  0.44377076552E+03  0.50400001928E-02 0.  1.
        1   -1    0    0  501    0  0.00000000000E+00  0.00000000000E+00 -0.29747851293E+04  0.29747851293E+04  0.50400001928E-02 0. -1.
    10030    2    1    2    0    0  0.00000000000E+00  0.00000000000E+00 -0.25310143638E+04  0.34185558948E+04  0.22979318302E+04 0.  0.
        5    1    3    3  502    0 -0.25766125665E+03  0.60228746025E+03  0.13871202786E+03  0.66962872148E+03  0.46999998093E+01 0.  1.
       -5    1    3    3    0  502  0.25766125665E+03 -0.60228746025E+03 -0.26697263917E+04  0.27489271734E+04  0.46999998093E+01 0. -1.
</event>
<event>
 5   0  0.1697855E-05  0.2290905E+04  0.7818609E-02  0.8481516E-01
        2   -1    0    0  501    0  0.00000000000E+00  0.00000000000E+00  0.21384649284E+04  0.21384649284E+04  0.25500000920E-02 0. -1.
       -2   -1    0    0    0  501  0.00000000000E+00  0.00000000000E+00 -0.61355267876E+03  0.61355267877E+03  0.25500000920E-02 0.  1.
    10030    2    1    2    0    0  0.00000000000E+00  0.00000000000E+00  0.15249122497E+04  0.27520176072E+04  0.22909045247E+04 0.  0.
        5    1    3    3  502    0  0.66342564335E+03  0.59378664621E+03  0.16281470043E+04  0.18556941890E+04  0.46999998093E+01 0. -1.
       -5    1    3    3    0  502 -0.66342564335E+03 -0.59378664621E+03 -0.10323475462E+03  0.89632341821E+03  0.46999998093E+01 0.  1.
</event>
<event>
 5   0  0.5704875E-06  0.2307679E+04  0.7818609E-02  0.8474899E-01
        3   -1    0    0  501    0  0.00000000000E+00  0.00000000000E+00  0.12491622310E+04  0.12491622350E+04  0.10100000352E+00 0. -1.
       -3   -1    0    0    0  501  0.00000000000E+00  0.00000000000E+00 -0.10657908830E+04  0.10657908878E+04  0.10100000352E+00 0.  1.
    10030    2    1    2    0    0  0.00000000000E+00  0.00000000000E+00  0.18337134793E+03  0.23149531228E+04  0.23076791176E+04 0.  0.
        2    1    3    3  502    0 -0.43434205320E+02 -0.26092043359E+03  0.12183374455E+04  0.12467205517E+04  0.25500000920E-02 0. -1.
       -2    1    3    3    0  502  0.43434205320E+02  0.26092043359E+03 -0.10349660976E+04  0.10682325711E+04  0.25500000920E-02 0.  1.
</event>
<event>
 5   0  0.1588969E-05  0.2302421E+04  0.7818609E-02  0.8476967E-01
        2   -1    0    0  501    0  0.00000000000E+00  0.00000000000E+00  0.13405193957E+04  0.13405193957E+04  0.25500000920E-02 0.  1.
       -2   -1    0    0    0  501  0.00000000000E+00  0.00000000000E+00 -0.98863619225E+03  0.98863619225E+03  0.25500000920E-02 0. -1.
    10030    2    1    2    0    0  0.00000000000E+00  0.00000000000E+00  0.35188320349E+03  0.23291555880E+04  0.23024213264E+04 0.  0.
        1    1    3    3  502    0 -0.78814299252E+03  0.18943762726E+03  0.10028867161E+04  0.12895106656E+04  0.50400001928E-02 0.  1.
       -1    1    3    3    0  502  0.78814299252E+03 -0.18943762726E+03 -0.65100351260E+03  0.10396449224E+04  0.50400001928E-02 0. -1.
</event>
<event>
 5   0  0.7391007E-06  0.2293301E+04  0.7818609E-02  0.8480567E-01
        1   -1    0    0  501    0  0.00000000000E+00  0.00000000000E+00  0.13987312843E+04  0.13987312843E+04  0.50400001928E-02 0.  1.
       -1   -1    0    0    0  501  0.00000000000E+00  0.00000000000E+00 -0.93999958143E+03  0.93999958144E+03  0.50400001928E-02 0. -1.
    10030    2    1    2    0    0  0.00000000000E+00  0.00000000000E+00  0.45873170287E+03  0.23387308657E+04  0.22933005226E+04 0.  0.
        1    1    3    3  502    0  0.86762200312E+03  0.31781872207E+03  0.92180870462E+03  0.13051850322E+04  0.50400001928E-02 0.  1.
       -1    1    3    3    0  502 -0.86762200312E+03 -0.31781872207E+03 -0.46307700176E+03  0.10335458335E+04  0.50400001928E-02 0. -1.
</event>
<event>
 5   0  0.1626636E-05  0.2308548E+04  0.7818609E-02  0.8474558E-01
       -2   -1    0    0    0  501  0.00000000000E+00  0.00000000000E+00  0.20713718247E+04  0.20713718247E+04  0.25500000920E-02 0.  1.
        2   -1    0    0  501    0  0.00000000000E+00  0.00000000000E+00 -0.64322045923E+03  0.64322045924E+03  0.25500000920E-02 0. -1.
    10030    2    1    2    0    0  0.00000000000E+00  0.00000000000E+00  0.14281513654E+04  0.27145922839E+04  0.23085482332E+04 0.  0.
        4    1    3    3  502    0  0.30571630107E+03 -0.25246960380E+03  0.19887849933E+04  0.20279227599E+04  0.12699999809E+01 0.  1.
       -4    1    3    3    0  502 -0.30571630107E+03  0.25246960380E+03 -0.56063362788E+03  0.68666952400E+03  0.12699999809E+01 0. -1.
</event>
<event>
 5   0  0.1602809E-05  0.2296937E+04  0.7818609E-02  0.8479130E-01
       -2   -1    0    0    0  501  0.00000000000E+00  0.00000000000E+00  0.77498762835E+03  0.77498762836E+03  0.25500000920E-02 0. -1.
        2   -1    0    0  501    0  0.00000000000E+00  0.00000000000E+00 -0.17019365615E+04  0.17019365615E+04  0.25500000920E-02 0.  1.
    10030    2    1    2    0    0  0.00000000000E+00  0.00000000000E+00 -0.92694893319E+03  0.24769241899E+04  0.22969368990E+04 0.  0.
        3    1    3    3  502    0 -0.24674069799E+03 -0.10039156408E+04 -0.10029261935E+04  0.14403432041E+04  0.10100000352E+00 0.  1.
       -3    1    3    3    0  502  0.24674069799E+03  0.10039156408E+04  0.75977260343E+02  0.10365809858E+04  0.10100000352E+00 0. -1.
</event>
<event>
 5   0  0.7183014E-06  0.2296993E+04  0.7818609E-02  0.8479108E-01
        1   -1    0    0  501    0  0.00000000000E+00  0.00000000000E+00  0.15849569193E+04  0.15849569193E+04  0.50400001928E-02 0. -1.
       -1   -1    0    0    0  501  0.00000000000E+00  0.00000000000E+00 -0.83222704553E+03  0.83222704555E+03  0.50400001928E-02 0.  1.
    10030    2    1    2    0    0  0.00000000000E+00  0.00000000000E+00  0.75272987380E+03  0.24171839649E+04  0.22969928292E+04 0.  0.
        3    1    3    3  502    0  0.54126499059E+03 -0.97442122722E+03  0.85154933992E+02  0.11179069242E+04  0.10100000352E+00 0.  1.
       -3    1    3    3    0  502 -0.54126499059E+03  0.97442122722E+03  0.66757493980E+03  0.12992770407E+04  0.10100000352E+00 0. -1.
</event>
<event>
 5   0  0.7278815E-06  0.2294161E+04  0.7818609E-02  0.8480227E-01
       -1   -1    0    0    0  501  0.00000000000E+00  0.00000000000E+00  0.86076868771E+03  0.86076868773E+03  0.50400001928E-02 0.  1.
        1   -1    0    0  501    0  0.00000000000E+00  0.00000000000E+00 -0.15286265387E+04  0.15286265387E+04  0.50400001928E-02 0. -1.
    10030    2    1    2    0    0  0.00000000000E+00  0.00000000000E+00 -0.66785785097E+03  0.23893952264E+04  0.22941611624E+04 0.  0.
        5    1    3    3  502    0 -0.11112290085E+04 -0.13385508156E+03 -0.59539743089E+03  0.12677804553E+04  0.46999998093E+01 0. -1.
       -5    1    3    3    0  502  0.11112290085E+04  0.13385508156E+03 -0.72460420074E+02  0.11216147711E+04  0.46999998093E+01 0.  1.
</event>
<event>
 5   0  0.7416556E-06  0.2270519E+04  0.7818609E-02  0.8489636E-01
        1   -1    0    0  501    0  0.00000000000E+00  0.00000000000E+00  0.19460439680E+04  0.19460439680E+04  0.50400001928E-02 0. -1.
       -1   -1    0    0    0  501  0.00000000000E+00  0.00000000000E+00 -0.66227403439E+03  0.66227403441E+03  0.50400001928E-02 0.  1.
    10030    2    1    2    0    0  0.00000000000E+00  0.00000000000E+00  0.12837699336E+04  0.26083180024E+04  0.22705192268E+04 0.  0.
        4    1    3    3  502    0  0.64740853810E+03 -0.93214027467E+03  0.60960722247E+03  0.12882724422E+04  0.12699999809E+01 0. -1.
       -4    1    3    3    0  502 -0.64740853810E+03  0.93214027467E+03  0.67416271111E+03  0.13200455601E+04  0.12699999809E+01 0.  1.
</event>
<event>
 5   0  0.1602809E-05  0.2355965E+04  0.7818609E-02  0.8456176E-01
        2   -1    0    0  501    0  0.00000000000E+00  0.00000000000E+00  0.21116219791E+04  0.21116219791E+04  0.25500000920E-02 0. -1.
       -2   -1    0    0    0  501  0.00000000000E+00  0.00000000000E+00 -0.65714548801E+03  0.65714548802E+03  0.25500000920E-02 0.  1.
    10030    2    1    2    0    0  0.00000000000E+00  0.00000000000E+00  0.14544764911E+04  0.27687674671E+04  0.23559650727E+04 0.  0.
        3    1    3    3  502    0  0.51080669971E+03 -0.39311541462E+03 -0.43151481616E+03  0.77567277923E+03  0.10100000352E+00 0.  1.
       -3    1    3    3    0  502 -0.51080669971E+03  0.39311541462E+03  0.18859913073E+04  0.19930946879E+04  0.10100000352E+00 0. -1.
</event>
<event>
 5   0  0.1635955E-05  0.2310069E+04  0.7818609E-02  0.8473962E-01
       -2   -1    0    0    0  501  0.00000000000E+00  0.00000000000E+00  0.65790024007E+03  0.65790024008E+03  0.25500000920E-02 0. -1.
        2   -1    0    0  501    0  0.00000000000E+00  0.00000000000E+00 -0.20278222523E+04  0.20278222523E+04  0.25500000920E-02 0.  1.
    10030    2    1    2    0    0  0.00000000000E+00  0.00000000000E+00 -0.13699220122E+04  0.26857224923E+04  0.23100690436E+04 0.  0.
        2    1    3    3  502    0  0.11167067374E+03  0.22847690853E+03 -0.19948696810E+04  0.20110139435E+04  0.25500000920E-02 0.  1.
       -2    1    3    3    0  502 -0.11167067374E+03 -0.22847690853E+03  0.62494766877E+03  0.67470854879E+03  0.25500000920E-02 0. -1.
</event>
<event>
 5   0  0.1602809E-05  0.2316959E+04  0.7818609E-02  0.8471264E-01
       -2   -1    0    0    0  501  0.00000000000E+00  0.00000000000E+00  0.10281346338E+04  0.10281346338E+04  0.25500000920E-02 0.  1.
        2   -1    0    0  501    0  0.00000000000E+00  0.00000000000E+00 -0.13053487434E+04  0.13053487434E+04  0.25500000920E-02 0. -1.
    10030    2    1    2    0    0  0.00000000000E+00  0.00000000000E+00 -0.27721410960E+03  0.23334833771E+04  0.23169585686E+04 0.  0.
        3    1    3    3  502    0  0.48367998005E+02 -0.10440577763E+04 -0.64184884953E+03  0.12265260125E+04  0.10100000352E+00 0. -1.
       -3    1    3    3    0  502 -0.48367998005E+02  0.10440577763E+04  0.36463473994E+03  0.11069573647E+04  0.10100000352E+00 0.  1.
</event>
<event>
 5   0  0.1635955E-05  0.2291966E+04  0.7818609E-02  0.8481095E-01
       -2   -1    0    0    0  501  0.00000000000E+00  0.00000000000E+00  0.86772418545E+03  0.86772418545E+03  0.25500000920E-02 0. -1.
        2   -1    0    0  501    0  0.00000000000E+00  0.00000000000E+00 -0.15134733767E+04  0.15134733767E+04  0.25500000920E-02 0.  1.
    10030    2    1    2    0    0  0.00000000000E+00  0.00000000000E+00 -0.64574919125E+03  0.23811975621E+04  0.22919663636E+04 0.  0.
        2    1    3    3  502    0  0.26317589048E+03  0.68602200281E+03 -0.12365383273E+04  0.14383722650E+04  0.25500000920E-02 0.  1.
       -2    1    3    3    0  502 -0.26317589048E+03 -0.68602200281E+03  0.59078913608E+03  0.94282529718E+03  0.25500000920E-02 0. -1.
</event>
<event>
 5   0  0.1602809E-05  0.2299881E+04  0.7818609E-02  0.8477968E-01
       -2   -1    0    0    0  501  0.00000000000E+00  0.00000000000E+00  0.93900106087E+03  0.93900106087E+03  0.25500000920E-02 0.  1.
        2   -1    0    0  501    0  0.00000000000E+00  0.00000000000E+00 -0.14082663902E+04  0.14082663902E+04  0.25500000920E-02 0. -1.
    10030    2    1    2    0    0  0.00000000000E+00  0.00000000000E+00 -0.46926532935E+03  0.23472674511E+04  0.22998814182E+04 0.  0.
        3    1    3    3  502    0  0.38576836626E+03 -0.10171605348E+04 -0.61504663719E+03  0.12496860254E+04  0.10100000352E+00 0. -1.
       -3    1    3    3    0  502 -0.38576836626E+03  0.10171605348E+04  0.14578130784E+03  0.10975814257E+04  0.10100000352E+00 0.  1.
</event>
<event>
 5   0  0.1697855E-05  0.2281156E+04  0.7818609E-02  0.8485388E-01
        2   -1    0    0  501    0  0.00000000000E+00  0.00000000000E+00  0.86366324252E+03  0.86366324252E+03  0.25500000920E-02 0.  1.
       -2   -1    0    0    0  501  0.00000000000E+00  0.00000000000E+00 -0.15062795412E+04  0.15062795412E+04  0.25500000920E-02 0. -1.
    10030    2    1    2    0    0  0.00000000000E+00  0.00000000000E+00 -0.64261629870E+03  0.23699427838E+04  0.22811560865E+04 0.  0.
        5    1    3    3  502    0  0.64627658115E+03 -0.15217171666E+03 -0.12848018570E+04  0.14462252772E+04  0.46999998093E+01 0. -1.
       -5    1    3    3    0  502 -0.64627658115E+03  0.15217171666E+03  0.64218555827E+03  0.92371750657E+03  0.46999998093E+01 0.  1.
</event>
<event>
 5   0  0.1626636E-05  0.2286745E+04  0.7818609E-02  0.8483166E-01
       -2   -1    0    0    0  501  0.00000000000E+00  0.00000000000E+00  0.98689307425E+03  0.98689307425E+03  0.25500000920E-02 0. -1.
        2   -1    0    0  501    0  0.00000000000E+00  0.00000000000E+00 -0.13246629641E+04  0.13246629641E+04  0.25500000920E-02 0.  1.
    10030    2    1    2    0    0  0.00000000000E+00  0.00000000000E+00 -0.33776988988E+03  0.23115560384E+04  0.22867450273E+04 0.  0.
        4    1    3    3  502    0  0.11080920812E+04 -0.12890845771E+03  0.84460831089E+02  0.11187585512E+04  0.12699999809E+01 0. -1.
       -4    1    3    3    0  502 -0.11080920812E+04  0.12890845771E+03 -0.42223072097E+03  0.11927974872E+04  0.12699999809E+01 0.  1.
</event>
<event>
 5   0  0.1626636E-05  0.2302838E+04  0.7818609E-02  0.8476803E-01
        2   -1    0    0  501    0  0.00000000000E+00  0.00000000000E+00  0.14515115017E+04  0.14515115017E+04  0.25500000920E-02 0. -1.
       -2   -1    0    0    0  501  0.00000000000E+00  0.00000000000E+00 -0.91336938500E+03  0.91336938501E+03  0.25500000920E-02 0.  1.
    10030    2    1    2    0    0  0.00000000000E+00  0.00000000000E+00  0.53814211673E+03  0.23648808867E+04  0.23028383944E+04 0.  0.
        4    1    3    3  502    0  0.10726357886E+04 -0.33243380070E+03  0.53029562561E+03  0.12418835816E+04  0.12699999809E+01 0.  1.
       -4    1    3    3    0  502 -0.10726357886E+04  0.33243380070E+03  0.78464911216E+01  0.11229973051E+04  0.12699999809E+01 0. -1.
</event>
<event>
 5   0  0.7391007E-06  0.2287318E+04  0.7818609E-02  0.8482938E-01
        1   -1    0    0  501    0  0.00000000000E+00  0.00000000000E+00  0.63177438552E+03  0.63177438554E+03  0.50400001928E-02 0.  1.
       -1   -1    0    0    0  501  0.00000000000E+00  0.00000000000E+00 -0.20702903026E+04  0.20702903026E+04  0.50400001928E-02 0. -1.
    10030    2    1    2    0    0  0.00000000000E+00  0.00000000000E+00 -0.14385159171E+04  0.27020646882E+04  0.22873184158E+04 0.  0.
        1    1    3    3  502    0  0.48833141661E+03  0.18118248958E+03 -0.19220419679E+04  0.19913663634E+04  0.50400001928E-02 0. -1.
       -1    1    3    3    0  502 -0.48833141661E+03 -0.18118248958E+03  0.48352605080E+03  0.71069832475E+03  0.50400001928E-02 0.  1.
</event>
<event>
 5   0  0.1635955E-05  0.2293916E+04  0.7818609E-02  0.8480324E-01
        2   -1    0    0  501    0  0.00000000000E+00  0.00000000000E+00  0.12320252235E+04  0.12320252235E+04  0.25500000920E-02 0. -1.
       -2   -1    0    0    0  501  0.00000000000E+00  0.00000000000E+00 -0.10677646578E+04  0.10677646578E+04  0.25500000920E-02 0.  1.
    10030    2    1    2    0    0  0.00000000000E+00  0.00000000000E+00  0.16426056567E+03  0.22997898813E+04  0.22939162942E+04 0.  0.
        2    1    3    3  502    0 -0.22909551750E+03 -0.10269895874E+04 -0.37545992754E+03  0.11172119432E+04  0.25500000920E-02 0.  1.
       -2    1    3    3    0  502  0.22909551750E+03  0.10269895874E+04  0.53972049321E+03  0.11825779381E+04  0.25500000920E-02 0. -1.
</event>
<event>
 5   0  0.7278815E-06  0.2301890E+04  0.7818609E-02  0.8477176E-01
       -1   -1    0    0    0  501  0.00000000000E+00  0.00000000000E+00  0.95800696801E+03  0.95800696803E+03  0.50400001928E-02 0. -1.
        1   -1    0    0  501    0  0.00000000000E+00  0.00000000000E+00 -0.13827394038E+04  0.13827394038E+04  0.50400001928E-02 0.  1.
    10030    2    1    2    0    0  0.00000000000E+00  0.00000000000E+00 -0.42473243577E+03  0.23407463718E+04  0.23018896444E+04 0.  0.
        5    1    3    3  502    0  0.73948165437E+03  0.38836737766E+03 -0.10175592598E+04  0.13164768416E+04  0.46999998093E+01 0.  1.
       -5    1    3    3    0  502 -0.73948165437E+03 -0.38836737766E+03  0.59282682408E+03  0.10242695302E+04  0.46999998093E+01 0. -1.
</event>
<event>
 5   0  0.7416556E-06  0.2303908E+04  0.7818609E-02  0.8476382E-01
        1   -1    0    0  501    0  0.00000000000E+00  0.00000000000E+00  0.23671241098E+04  0.23671241098E+04  0.50400001928E-02 0. -1.
       -1   -1    0    0    0  501  0.00000000000E+00  0.00000000000E+00 -0.56059498157E+03  0.56059498159E+03  0.50400001928E-02 0.  1.
    10030    2    1    2    0    0  0.00000000000E+00  0.00000000000E+00  0.18065291282E+04  0.29277190914E+04  0.23039078946E+04 0.  0.
        4    1    3    3  502    0 -0.10260570970E+04 -0.15775716985E+03  0.26875351866E+03  0.10723388260E+04  0.12699999809E+01 0.  1.
       -4    1    3    3    0  502  0.10260570970E+04  0.15775716985E+03  0.15377756095E+04  0.18553802654E+04  0.12699999809E+01 0. -1.
</event>
<event>
 5   0  0.7278815E-06  0.2370763E+04  0.7818609E-02  0.8450531E-01
       -1   -1    0    0    0  501  0.00000000000E+00  0.00000000000E+00  0.13429579060E+04  0.13429579060E+04  0.50400001928E-02 0.  1.
        1   -1    0    0  501    0  0.00000000000E+00  0.00000000000E+00 -0.10462941671E+04  0.10462941671E+04  0.50400001928E-02 0. -1.
    10030    2    1    2    0    0  0.00000000000E+00  0.00000000000E+00  0.29666373882E+03  0.23892520731E+04  0.23707627665E+04 0.  0.
        5    1    3    3  502    0  0.15770571100E+03  0.38999401581E+02 -0.10350123850E+04  0.10476949803E+04  0.46999998093E+01 0. -1.
       -5    1    3    3    0  502 -0.15770571100E+03 -0.38999401581E+02  0.13316761238E+04  0.13415570928E+04  0.46999998093E+01 0.  1.
</event>
<event>
 5   0  0.1588969E-05  0.2294095E+04  0.7818609E-02  0.8480253E-01
        2   -1    0    0  501    0  0.00000000000E+00  0.00000000000E+00  0.95858310549E+03  0.95858310549E+03  0.25500000920E-02 0. -1.
       -2   -1    0    0    0  501  0.00000000000E+00  0.00000000000E+00 -0.13725648251E+04  0.13725648251E+04  0.25500000920E-02 0.  1.
    10030    2    1    2    0    0  0.00000000000E+00  0.00000000000E+00 -0.41398171965E+03  0.23311479306E+04  0.22940945513E+04 0.  0.
        1    1    3    3  502    0  0.53825536499E+03  0.45477720864E+03  0.71271131067E+03  0.10022467560E+04  0.50400001928E-02 0. -1.
       -1    1    3    3    0  502 -0.53825536499E+03 -0.45477720864E+03 -0.11266930303E+04  0.13289011747E+04  0.50400001928E-02 0.  1.
</event>
<event>
 5   0  0.1602809E-05  0.2290406E+04  0.7818609E-02  0.8481714E-01
       -2   -1    0    0    0  501  0.00000000000E+00  0.00000000000E+00  0.62007076573E+03  0.62007076573E+03  0.25500000920E-02 0.  1.
        2   -1    0    0  501    0  0.00000000000E+00  0.00000000000E+00 -0.21150640099E+04  0.21150640099E+04  0.25500000920E-02 0. -1.
    10030    2    1    2    0    0  0.00000000000E+00  0.00000000000E+00 -0.14949932442E+04  0.27351347756E+04  0.22904055188E+04 0.  0.
        3    1    3    3  502    0  0.80048791855E+03 -0.75426421280E+03 -0.36649457328E+03  0.11593160453E+04  0.10100000352E+00 0.  1.
       -3    1    3    3    0  502 -0.80048791855E+03  0.75426421280E+03 -0.11284986709E+04  0.15758187303E+04  0.10100000352E+00 0. -1.
</event>
<event>
 5   0  0.1697855E-05  0.2287919E+04  0.7818609E-02  0.8482700E-01
        2   -1    0    0  501    0  0.00000000000E+00  0.00000000000E+00  0.16616061018E+04  0.16616061018E+04  0.25500000920E-02 0. -1.
       -2   -1    0    0    0  501  0.00000000000E+00  0.00000000000E+00 -0.78757744397E+03  0.78757744397E+03  0.25500000920E-02 0.  1.
    10030    2    1    2    0    0  0.00000000000E+00  0.00000000000E+00  0.87402865785E+03  0.24491835458E+04  0.22879191302E+04 0.  0.
        5    1    3    3  502    0  0.36518572245E+03  0.87531234098E+03  0.11216974353E+04  0.14689314254E+04  0.46999998093E+01 0. -1.
       -5    1    3    3    0  502 -0.36518572245E+03 -0.87531234098E+03 -0.24766877749E+03  0.98025212037E+03  0.46999998093E+01 0.  1.
</event>
<event>
 5   0  0.7278815E-06  0.2324053E+04  0.7818609E-02  0.8468497E-01
        1   -1    0    0  501    0  0.00000000000E+00  0.00000000000E+00  0.16604684481E+04  0.16604684481E+04  0.50400001928E-02 0. -1.
       -1   -1    0    0    0  501  0.00000000000E+00  0.00000000000E+00 -0.81320778765E+03  0.81320778766E+03  0.50400001928E-02 0.  1.
    10030    2    1    2    0    0  0.00000000000E+00  0.00000000000E+00  0.84726066042E+03  0.24736762357E+04  0.23240532465E+04 0.  0.
        5    1    3    3  502    0 -0.35376717581E+03 -0.17017977069E+02  0.16016078092E+04  0.16403080475E+04  0.46999998093E+01 0. -1.
       -5    1    3    3    0  502  0.35376717581E+03  0.17017977069E+02 -0.75434714880E+03  0.83336818821E+03  0.46999998093E+01 0.  1.
</event>
<event>
 5   0  0.1602809E-05  0.2350854E+04  0.7818609E-02  0.8458136E-01
        2   -1    0    0  501    0  0.00000000000E+00  0.00000000000E+00  0.17662866993E+04  0.17662866993E+04  0.25500000920E-02 0.  1.
       -2   -1    0    0    0  501  0.00000000000E+00  0.00000000000E+00 -0.78222234399E+03  0.78222234400E+03  0.25500000920E-02 0. -1.
    10030    2    1    2    0    0  0.00000000000E+00  0.00000000000E+00  0.98406435534E+03  0.25485090433E+04  0.23508542465E+04 0.  0.
        3    1    3    3  502    0 -0.10279306227E+04  0.45401492408E+03  0.86577656236E+03  0.14185696960E+04  0.10100000352E+00 0.  1.
       -3    1    3    3    0  502  0.10279306227E+04 -0.45401492408E+03  0.11828779298E+03  0.11299393473E+04  0.10100000352E+00 0. -1.
</event>
<event>
 5   0  0.1626636E-05  0.2297315E+04  0.7818609E-02  0.8478980E-01
        2   -1    0    0  501    0  0.00000000000E+00  0.00000000000E+00  0.18975883014E+04  0.18975883014E+04  0.25500000920E-02 0. -1.
       -2   -1    0    0    0  501  0.00000000000E+00  0.00000000000E+00 -0.69531112939E+03  0.69531112939E+03  0.25500000920E-02 0.  1.
    10030    2    1    2    0    0  0.00000000000E+00  0.00000000000E+00  0.12022771720E+04  0.25928994307E+04  0.22973151851E+04 0.  0.
        4    1    3    3  502    0 -0.89498086679E+03 -0.37416634114E+03 -0.93170680353E+02  0.97451197599E+03  0.12699999809E+01 0.  1.
       -4    1    3    3    0  502  0.89498086679E+03  0.37416634114E+03  0.12954478523E+04  0.16183874548E+04  0.12699999809E+01 0. -1.
</event>
<event>
 5   0  0.1697855E-05  0.2302156E+04  0.7818609E-02  0.8477072E-01
       -2   -1    0    0    0  501  0.00000000000E+00  0.00000000000E+00  0.10850888889E+04  0.10850888889E+04  0.25500000920E-02 0. -1.
        2   -1    0    0  501    0  0.00000000000E+00  0.00000000000E+00 -0.12210799778E+04  0.12210799778E+04  0.25500000920E-02 0.  1.
    10030    2    1    2    0    0  0.00000000000E+00  0.00000000000E+00 -0.13599108887E+03  0.23061688667E+04  0.23021557865E+04 0.  0.
        5    1    3    3  502    0 -0.32539524530E+03 -0.36680559445E+03 -0.11112185222E+04  0.12146016235E+04  0.46999998093E+01 0.  1.
       -5    1    3    3    0  502  0.32539524530E+03  0.36680559445E+03  0.97522743329E+03  0.10915672432E+04  0.46999998093E+01 0. -1.
</event>
<event>
 5   0  0.7278815E-06  0.2256909E+04  0.7818609E-02  0.8495108E-01
        1   -1    0    0  501    0  0.00000000000E+00  0.00000000000E+00  0.50162048821E+03  0.50162048824E+03  0.50400001928E-02 0.  1.
       -1   -1    0    0    0  501  0.00000000000E+00  0.00000000000E+00 -0.25385914287E+04  0.25385914287E+04  0.50400001928E-02 0. -1.
    10030    2    1    2    0    0  0.00000000000E+00  0.00000000000E+00 -0.20369709405E+04  0.30402119170E+04  0.22569089232E+04 0.  0.
        5    1    3    3  502    0  0.32032544611E+03  0.11064526509E+03  0.43143675006E+03  0.54864426126E+03  0.46999998093E+01 0.  1.
       -5    1    3    3    0  502 -0.32032544611E+03 -0.11064526509E+03 -0.24684076906E+04  0.24915676557E+04  0.46999998093E+01 0. -1.
</event>
<event>
 5   0  0.1602809E-05  0.2148994E+04  0.7818609E-02  0.8539963E-01
        2   -1    0    0  501    0  0.00000000000E+00  0.00000000000E+00  0.16216268270E+04  0.16216268270E+04  0.25500000920E-02 0.  1.
       -2   -1    0    0    0  501  0.00000000000E+00  0.00000000000E+00 -0.71196655996E+03  0.71196655996E+03  0.25500000920E-02 0. -1.
    10030    2    1    2    0    0  0.00000000000E+00  0.00000000000E+00  0.90966026705E+03  0.23335933870E+04  0.21489942518E+04 0.  0.
        3    1    3    3  502    0 -0.83793758142E+02  0.10702432510E+04  0.50461665315E+03  0.11862040243E+04  0.10100000352E+00 0.  1.
       -3    1    3    3    0  502  0.83793758142E+02 -0.10702432510E+04  0.40504361390E+03  0.11473893627E+04  0.10100000352E+00 0. -1.
</event>
<event>
 5   0  0.1588969E-05  0.2312667E+04  0.7818609E-02  0.8472943E-01
       -2   -1    0    0    0  501  0.00000000000E+00  0.00000000000E+00  0.11948803232E+04  0.11948803232E+04  0.25500000920E-02 0. -1.
        2   -1    0    0  501    0  0.00000000000E+00  0.00000000000E+00 -0.11190305809E+04  0.11190305809E+04  0.25500000920E-02 0.  1.
    10030    2    1    2    0    0  0.00000000000E+00  0.00000000000E+00  0.75849742234E+02  0.23139109041E+04  0.23126673969E+04 0.  0.
        1    1    3    3  502    0  0.85062803455E+02  0.11159396654E+04 -0.25300734447E+03  0.11474187264E+04  0.50400001928E-02 0.  1.
       -1    1    3    3    0  502 -0.85062803455E+02 -0.11159396654E+04  0.32885708671E+03  0.11664921777E+04  0.50400001928E-02 0. -1.
</event>
<event>
 5   0  0.1626636E-05  0.2257157E+04  0.7818609E-02  0.8495007E-01
        2   -1    0    0  501    0  0.00000000000E+00  0.00000000000E+00  0.18852442112E+04  0.18852442112E+04  0.25500000920E-02 0.  1.
       -2   -1    0    0    0  501  0.00000000000E+00  0.00000000000E+00 -0.67561002430E+03  0.67561002430E+03  0.25500000920E-02 0. -1.
    10030    2    1    2    0    0  0.00000000000E+00  0.00000000000E+00  0.12096341869E+04  0.25608542355E+04  0.22571574046E+04 0.  0.
        4    1    3    3  502    0  0.70570728118E+03  0.42119700325E+03  0.14823582326E+04  0.16949387083E+04  0.12699999809E+01 0. -1.
       -4    1    3    3    0  502 -0.70570728118E+03 -0.42119700325E+03 -0.27272404569E+03  0.86591552721E+03  0.12699999809E+01 0.  1.
</event>
<event>
 5   0  0.1588969E-05  0.2303556E+04  0.7818609E-02  0.8476520E-01
       -2   -1    0    0    0  501  0.00000000000E+00  0.00000000000E+00  0.76257720160E+03  0.76257720160E+03  0.25500000920E-02 0. -1.
        2   -1    0    0  501    0  0.00000000000E+00  0.00000000000E+00 -0.17396171373E+04  0.17396171373E+04  0.25500000920E-02 0.  1.
    10030    2    1    2    0    0  0.00000000000E+00  0.00000000000E+00 -0.97703993567E+03  0.25021943389E+04  0.23035558325E+04 0.  0.
        1    1    3    3  502    0  0.42340382927E+03  0.66758812780E+03  0.42135524505E+03  0.89581524522E+03  0.50400001928E-02 0. -1.
       -1    1    3    3    0  502 -0.42340382927E+03 -0.66758812780E+03 -0.13983951807E+04  0.16063790936E+04  0.50400001928E-02 0.  1.
</event>
<event>
 5   0  0.1602809E-05  0.2309014E+04  0.7818609E-02  0.8474376E-01
        2   -1    0    0  501    0  0.00000000000E+00  0.00000000000E+00  0.23259929823E+04  0.23259929823E+04  0.25500000920E-02 0.  1.
       -2   -1    0    0    0  501  0.00000000000E+00  0.00000000000E+00 -0.57303966096E+03  0.57303966097E+03  0.25500000920E-02 0. -1.
    10030    2    1    2    0    0  0.00000000000E+00  0.00000000000E+00  0.17529533213E+04  0.28990326432E+04  0.23090138414E+04 0.  0.
        3    1    3    3  502    0  0.15252383653E+03  0.36817605344E+03 -0.48394455771E+03  0.62691265116E+03  0.10100000352E+00 0. -1.
       -3    1    3    3    0  502 -0.15252383653E+03 -0.36817605344E+03  0.22368978790E+04  0.22721199921E+04  0.10100000352E+00 0.  1.
</event>
<event>
 5   0  0.1635955E-05  0.2289134E+04  0.7818609E-02  0.8482218E-01
        2   -1    0    0  501    0  0.00000000000E+00  0.00000000000E+00  0.81824495164E+03  0.81824495165E+03  0.25500000920E-02 0. -1.
       -2   -1    0    0    0  501  0.00000000000E+00  0.00000000000E+00 -0.16010291807E+04  0.16010291807E+04  0.25500000920E-02 0.  1.
    10030    2    1    2    0    0  0.00000000000E+00  0.00000000000E+00 -0.78278422909E+03  0.24192741324E+04  0.22891343731E+04 0.  0.
        2    1    3    3  502    0  0.33149463178E+03 -0.10766545737E+04 -0.60528447183E+03  0.12788444213E+04  0.25500000920E-02 0.  1.
       -2    1    3    3    0  502 -0.33149463178E+03  0.10766545737E+04 -0.17749975726E+03  0.11404297111E+04  0.25500000920E-02 0. -1.
</event>
<event>
 5   0  0.1588969E-05  0.2292326E+04  0.7818609E-02  0.8480953E-01
        2   -1    0    0  501    0  0.00000000000E+00  0.00000000000E+00  0.11537146665E+04  0.11537146665E+04  0.25500000920E-02 0. -1.
       -2   -1    0    0    0  501  0.00000000000E+00  0.00000000000E+00 -0.11386606176E+04  0.11386606176E+04  0.25500000920E-02 0.  1.
    10030    2    1    2    0    0  0.00000000000E+00  0.00000000000E+00  0.15054048893E+02  0.22923752840E+04  0.22923258535E+04 0.  0.
        1    1    3    3  502    0 -0.64720678811E+03  0.92036696472E+03 -0.21096676736E+03  0.11447527913E+04  0.50400001928E-02 0.  1.
       -1    1    3    3    0  502  0.64720678811E+03 -0.92036696472E+03  0.22602081625E+03  0.11476224927E+04  0.50400001928E-02 0. -1.
</event>
<event>
 5   0  0.1635955E-05  0.2303247E+04  0.7818609E-02  0.8476642E-01
        2   -1    0    0  501    0  0.00000000000E+00  0.00000000000E+00  0.20458220641E+04  0.20458220641E+04  0.25500000920E-02 0.  1.
       -2   -1    0    0    0  501  0.00000000000E+00  0.00000000000E+00 -0.64826593894E+03  0.64826593895E+03  0.25500000920E-02 0. -1.
    10030    2    1    2    0    0  0.00000000000E+00  0.00000000000E+00  0.13975561252E+04  0.26940880031E+04  0.23032470656E+04 0.  0.
        2    1    3    3  502    0  0.10848559805E+04 -0.16247244092E+03  0.11088828487E+04  0.15597855509E+04  0.25500000920E-02 0.  1.
       -2    1    3    3    0  502 -0.10848559805E+04  0.16247244092E+03  0.28867327644E+03  0.11343024522E+04  0.25500000920E-02 0. -1.
</event>
<event>
 5   0  0.7391007E-06  0.2296743E+04  0.7818609E-02  0.8479206E-01
       -1   -1    0    0    0  501  0.00000000000E+00  0.00000000000E+00  0.97982117907E+03  0.97982117909E+03  0.50400001928E-02 0.  1.
        1   -1    0    0  501    0  0.00000000000E+00  0.00000000000E+00 -0.13459164707E+04  0.13459164707E+04  0.50400001928E-02 0. -1.
    10030    2    1    2    0    0  0.00000000000E+00  0.00000000000E+00 -0.36609529164E+03  0.23257376498E+04  0.22967433146E+04 0.  0.
        1    1    3    3  502    0 -0.52045349090E+03  0.39993524688E+03 -0.11372477139E+04  0.13130698384E+04  0.50400001928E-02 0. -1.
       -1    1    3    3    0  502  0.52045349090E+03 -0.39993524688E+03  0.77115242222E+03  0.10126678114E+04  0.50400001928E-02 0.  1.
</event>
<event>
 5   0  0.7202572E-06  0.2302419E+04  0.7818609E-02  0.8476968E-01
        1   -1    0    0  501    0  0.00000000000E+00  0.00000000000E+00  0.15198901292E+04  0.15198901292E+04  0.50400001928E-02 0.  1.
       -1   -1    0    0    0  501  0.00000000000E+00  0.00000000000E+00 -0.87195979030E+03  0.87195979031E+03  0.50400001928E-02 0. -1.
    10030    2    1    2    0    0  0.00000000000E+00  0.00000000000E+00  0.64793033894E+03  0.23918499196E+04  0.23024187963E+04 0.  0.
        2    1    3    3  502    0 -0.70727149140E+03 -0.78836079304E+03  0.79264006265E+03  0.13228847159E+04  0.25500000920E-02 0.  1.
       -2    1    3    3    0  502  0.70727149140E+03  0.78836079304E+03 -0.14470972372E+03  0.10689652037E+04  0.25500000920E-02 0. -1.
</event>
<event>
 5   0  0.7416556E-06  0.2295942E+04  0.7818609E-02  0.8479523E-01
        1   -1    0    0  501    0  0.00000000000E+00  0.00000000000E+00  0.13676728989E+04  0.13676728989E+04  0.50400001928E-02 0. -1.
       -1   -1    0    0    0  501  0.00000000000E+00  0.00000000000E+00 -0.96356217127E+03  0.96356217129E+03  0.50400001928E-02 0.  1.
    10030    2    1    2    0    0  0.00000000000E+00  0.00000000000E+00  0.40411072760E+03  0.23312350702E+04  0.22959423931E+04 0.  0.
        4    1    3    3  502    0 -0.40178490537E+03  0.20131418723E+03  0.12746444865E+04  0.13515467776E+04  0.12699999809E+01 0. -1.
       -4    1    3    3    0  502  0.40178490537E+03 -0.20131418723E+03 -0.87053375894E+03  0.97968829253E+03  0.12699999809E+01 0.  1.
</event>
<event>
 5   0  0.7278815E-06  0.2297579E+04  0.7818609E-02  0.8478876E-01
       -1   -1    0    0    0  501  0.00000000000E+00  0.00000000000E+00  0.13583657391E+04  0.13583657391E+04  0.50400001928E-02 0. -1.
        1   -1    0    0  501    0  0.00000000000E+00  0.00000000000E+00 -0.97154790093E+03  0.97154790094E+03  0.50400001928E-02 0.  1.
    10030    2    1    2    0    0  0.00000000000E+00  0.00000000000E+00  0.38681783819E+03  0.23299136401E+04  0.22975790585E+04 0.  0.
        5    1    3    3  502    0  0.76978397666E+03  0.58078833198E+03 -0.43972769182E+03  0.10598419647E+04  0.46999998093E+01 0.  1.
       -5    1    3    3    0  502 -0.76978397666E+03 -0.58078833198E+03  0.82654553001E+03  0.12700716753E+04  0.46999998093E+01 0. -1.
</event>
<event>
 5   0  0.1602809E-05  0.2298568E+04  0.7818609E-02  0.8478486E-01
       -2   -1    0    0    0  501  0.00000000000E+00  0.00000000000E+00  0.87417450330E+03  0.87417450330E+03  0.25500000920E-02 0.  1.
        2   -1    0    0  501    0  0.00000000000E+00  0.00000000000E+00 -0.15109730097E+04  0.15109730097E+04  0.25500000920E-02 0. -1.
    10030    2    1    2    0    0  0.00000000000E+00  0.00000000000E+00 -0.63679850639E+03  0.23851475130E+04  0.22985683198E+04 0.  0.
        3    1    3    3  502    0  0.11104507890E+04 -0.17340420224E+03 -0.69177538680E+02  0.11260353077E+04  0.10100000352E+00 0.  1.
       -3    1    3    3    0  502 -0.11104507890E+04  0.17340420224E+03 -0.56762096771E+03  0.12591122052E+04  0.10100000352E+00 0. -1.
</event>
<event>
 5   0  0.1602809E-05  0.2301724E+04  0.7818609E-02  0.8477242E-01
       -2   -1    0    0    0  501  0.00000000000E+00  0.00000000000E+00  0.10917434848E+04  0.10917434848E+04  0.25500000920E-02 0.  1.
        2   -1    0    0  501    0  0.00000000000E+00  0.00000000000E+00 -0.12131813314E+04  0.12131813314E+04  0.25500000920E-02 0. -1.
    10030    2    1    2    0    0  0.00000000000E+00  0.00000000000E+00 -0.12143784666E+03  0.23049248162E+04  0.23017235407E+04 0.  0.
        3    1    3    3  502    0 -0.71738468266E+03 -0.40982498522E+03  0.74157294041E+03  0.11101926579E+04  0.10100000352E+00 0.  1.
       -3    1    3    3    0  502  0.71738468266E+03  0.40982498522E+03 -0.86301078707E+03  0.11947321584E+04  0.10100000352E+00 0. -1.
</event>
<event>
 5   0  0.7183014E-06  0.2234692E+04  0.7818609E-02  0.8504126E-01
       -1   -1    0    0    0  501  0.00000000000E+00  0.00000000000E+00  0.67755803030E+03  0.67755803032E+03  0.50400001928E-02 0. -1.
        1   -1    0    0  501    0  0.00000000000E+00  0.00000000000E+00 -0.18425907487E+04  0.18425907487E+04  0.50400001928E-02 0.  1.
    10030    2    1    2    0    0  0.00000000000E+00  0.00000000000E+00 -0.11650327184E+04  0.25201487790E+04  0.22346920668E+04 0.  0.
        3    1    3    3  502    0  0.54224455489E+03  0.92108240369E+03 -0.94975109645E+03  0.14298423365E+04  0.10100000352E+00 0.  1.
       -3    1    3    3    0  502 -0.54224455489E+03 -0.92108240369E+03 -0.21528162190E+03  0.10903064425E+04  0.10100000352E+00 0. -1.
</event>
<event>
 5   0  0.7416556E-06  0.2318038E+04  0.7818609E-02  0.8470843E-01
        1   -1    0    0  501    0  0.00000000000E+00  0.00000000000E+00  0.15658855942E+04  0.15658855942E+04  0.50400001928E-02 0.  1.
       -1   -1    0    0    0  501  0.00000000000E+00  0.00000000000E+00 -0.85786895241E+03  0.85786895243E+03  0.50400001928E-02 0. -1.
    10030    2    1    2    0    0  0.00000000000E+00  0.00000000000E+00  0.70801664178E+03  0.24237545466E+04  0.23180376479E+04 0.  0.
        4    1    3    3  502    0 -0.42299070998E+03 -0.24122964041E+02 -0.77399675211E+03  0.88236933498E+03  0.12699999809E+01 0. -1.
       -4    1    3    3    0  502  0.42299070998E+03  0.24122964041E+02  0.14820133939E+04  0.15413852117E+04  0.12699999809E+01 0.  1.
</event>
<event>
 5   0  0.7278815E-06  0.2410826E+04  0.7818609E-02  0.8435462E-01
        1   -1    0    0  501    0  0.00000000000E+00  0.00000000000E+00  0.19117250552E+04  0.19117250552E+04  0.50400001928E-02 0.  1.
       -1   -1    0    0    0  501  0.00000000000E+00  0.00000000000E+00 -0.76005726688E+03  0.76005726689E+03  0.50400001928E-02 0. -1.
    10030    2    1    2    0    0  0.00000000000E+00  0.00000000000E+00  0.11516677884E+04  0.26717823221E+04  0.24108260166E+04 0.  0.
        5    1    3    3  502    0  0.24897587681E+03  0.10702983486E+03 -0.72584710056E+03  0.77480350810E+03  0.46999998093E+01 0. -1.
       -5    1    3    3    0  502 -0.24897587681E+03 -0.10702983486E+03  0.18775148889E+04  0.18969788140E+04  0.46999998093E+01 0.  1.
</event>
<event>
 5   0  0.1626636E-05  0.2305312E+04  0.7818609E-02  0.8475829E-01
        2   -1    0    0  501    0  0.00000000000E+00  0.00000000000E+00  0.12528278215E+04  0.12528278215E+04  0.25500000920E-02 0.  1.
       -2   -1    0    0    0  501  0.00000000000E+00  0.00000000000E+00 -0.10604938939E+04  0.10604938939E+04  0.25500000920E-02 0. -1.
    10030    2    1    2    0    0  0.00000000000E+00  0.00000000000E+00  0.19233392759E+03  0.23133217155E+04  0.23053123475E+04 0.  0.
        4    1    3    3  502    0 -0.27242405594E+03 -0.59702513739E+03 -0.85473323439E+03  0.10776012230E+04  0.12699999809E+01 0. -1.
       -4    1    3    3    0  502  0.27242405594E+03  0.59702513739E+03  0.10470671620E+04  0.12357204925E+04  0.12699999809E+01 0.  1.
</event>
<event>
 5   0  0.1626636E-05  0.2295694E+04  0.7818609E-02  0.8479621E-01
       -2   -1    0    0    0  501  0.00000000000E+00  0.00000000000E+00  0.65293916180E+03  0.65293916180E+03  0.25500000920E-02 0.  1.
        2   -1    0    0  501    0  0.00000000000E+00  0.00000000000E+00 -0.20178791838E+04  0.20178791838E+04  0.25500000920E-02 0. -1.
    10030    2    1    2    0    0  0.00000000000E+00  0.00000000000E+00 -0.13649400220E+04  0.26708183456E+04  0.22956936580E+04 0.  0.
        4    1    3    3  502    0 -0.49116406315E+03  0.23533203393E+03 -0.18579841355E+04  0.19361637234E+04  0.12699999809E+01 0. -1.
       -4    1    3    3    0  502  0.49116406315E+03 -0.23533203393E+03  0.49304411352E+03  0.73465462219E+03  0.12699999809E+01 0.  1.
</event>
<event>
 5   0  0.1602809E-05  0.2304057E+04  0.7818609E-02  0.8476323E-01
       -2   -1    0    0    0  501  0.00000000000E+00  0.00000000000E+00  0.12230041897E+04  0.12230041897E+04  0.25500000920E-02 0. -1.
        2   -1    0    0  501    0  0.00000000000E+00  0.00000000000E+00 -0.10851718096E+04  0.10851718096E+04  0.25500000920E-02 0.  1.
    10030    2    1    2    0    0  0.00000000000E+00  0.00000000000E+00  0.13783238015E+03  0.23081759993E+04  0.23040570042E+04 0.  0.
        3    1    3    3  502    0 -0.44638912326E+03 -0.54484703538E+03 -0.84433192894E+03  0.10995535266E+04  0.10100000352E+00 0.  1.
       -3    1    3    3    0  502  0.44638912326E+03  0.54484703538E+03  0.98216430909E+03  0.12086224727E+04  0.10100000352E+00 0. -1.
</event>
<event>
 5   0  0.7391007E-06  0.2301956E+04  0.7818609E-02  0.8477150E-01
        1   -1    0    0  501    0  0.00000000000E+00  0.00000000000E+00  0.98992556880E+03  0.98992556882E+03  0.50400001928E-02 0.  1.
       -1   -1    0    0    0  501  0.00000000000E+00  0.00000000000E+00 -0.13382318381E+04  0.13382318381E+04  0.50400001928E-02 0. -1.
    10030    2    1    2    0    0  0.00000000000E+00  0.00000000000E+00 -0.34830626931E+03  0.23281574069E+04  0.23019556152E+04 0.  0.
        1    1    3    3  502    0  0.77231145283E+03  0.83951058808E+03 -0.32921790065E+03  0.11872773197E+04  0.50400001928E-02 0. -1.
       -1    1    3    3    0  502 -0.77231145283E+03 -0.83951058808E+03 -0.19088368658E+02  0.11408800873E+04  0.50400001928E-02 0.  1.
</event>
<event>
 5   0  0.1626636E-05  0.2326854E+04  0.7818609E-02  0.8467408E-01
       -2   -1    0    0    0  501  0.00000000000E+00  0.00000000000E+00  0.65447803607E+03  0.65447803608E+03  0.25500000920E-02 0. -1.
        2   -1    0    0  501    0  0.00000000000E+00  0.00000000000E+00 -0.20681553318E+04  0.20681553318E+04  0.25500000920E-02 0.  1.
    10030    2    1    2    0    0  0.00000000000E+00  0.00000000000E+00 -0.14136772957E+04  0.27226333678E+04  0.23268538758E+04 0.  0.
        4    1    3    3  502    0  0.86830508801E+02 -0.89483344431E+03  0.15720461804E+03  0.91267811146E+03  0.12699999809E+01 0.  1.
       -4    1    3    3    0  502 -0.86830508801E+02  0.89483344431E+03 -0.15708819137E+04  0.18099552564E+04  0.12699999809E+01 0. -1.
</event>
<event>
 5   0  0.7416556E-06  0.2305767E+04  0.7818609E-02  0.8475651E-01
        1   -1    0    0  501    0  0.00000000000E+00  0.00000000000E+00  0.15502514579E+04  0.15502514579E+04  0.50400001928E-02 0.  1.
       -1   -1    0    0    0  501  0.00000000000E+00  0.00000000000E+00 -0.85737047476E+03  0.85737047478E+03  0.50400001928E-02 0. -1.
    10030    2    1    2    0    0  0.00000000000E+00  0.00000000000E+00  0.69288098313E+03  0.24076219327E+04  0.23057665350E+04 0.  0.
        4    1    3    3  502    0 -0.41037152852E+03  0.63706382174E+03 -0.56077992198E+03  0.94272521881E+03  0.12699999809E+01 0. -1.
       -4    1    3    3    0  502  0.41037152852E+03 -0.63706382174E+03  0.12536609051E+04  0.14648967139E+04  0.12699999809E+01 0.  1.
</event>
<event>
 5   0  0.1588969E-05  0.2298625E+04  0.7818609E-02  0.8478463E-01
       -2   -1    0    0    0  501  0.00000000000E+00  0.00000000000E+00  0.11180803312E+04  0.11180803312E+04  0.25500000920E-02 0.  1.
        2   -1    0    0  501    0  0.00000000000E+00  0.00000000000E+00 -0.11814171715E+04  0.11814171716E+04  0.25500000920E-02 0. -1.
    10030    2    1    2    0    0  0.00000000000E+00  0.00000000000E+00 -0.63336840345E+02  0.22994975028E+04  0.22986250694E+04 0.  0.
        1    1    3    3  502    0 -0.15235618972E+03 -0.70770556852E+03 -0.92467722549E+03  0.11743455844E+04  0.50400001928E-02 0. -1.
       -1    1    3    3    0  502  0.15235618972E+03  0.70770556852E+03  0.86134038514E+03  0.11251519183E+04  0.50400001928E-02 0.  1.
</event>
<event>
 5   0  0.1697855E-05  0.2301554E+04  0.7818609E-02  0.8477308E-01
       -2   -1    0    0    0  501  0.00000000000E+00  0.00000000000E+00  0.15378850248E+04  0.15378850248E+04  0.25500000920E-02 0. -1.
        2   -1    0    0  501    0  0.00000000000E+00  0.00000000000E+00 -0.86111002885E+03  0.86111002886E+03  0.25500000920E-02 0.  1.
    10030    2    1    2    0    0  0.00000000000E+00  0.00000000000E+00  0.67677499594E+03  0.23989950537E+04  0.23015544470E+04 0.  0.
        5    1    3    3  502    0  0.46400377575E+03  0.71499444387E+03  0.11442625944E+04  0.14268411032E+04  0.46999998093E+01 0. -1.
       -5    1    3    3    0  502 -0.46400377575E+03 -0.71499444387E+03 -0.46748759850E+03  0.97215395048E+03  0.46999998093E+01 0.  1.
</event>
<event>
 5   0  0.7391007E-06  0.2308839E+04  0.7818609E-02  0.8474444E-01
       -1   -1    0    0    0  501  0.00000000000E+00  0.00000000000E+00  0.11081788327E+04  0.11081788328E+04  0.50400001928E-02 0.  1.
        1   -1    0    0  501    0  0.00000000000E+00  0.00000000000E+00 -0.12025896303E+04  0.12025896303E+04  0.50400001928E-02 0. -1.
    10030    2    1    2    0    0  0.00000000000E+00  0.00000000000E+00 -0.94410797576E+02  0.23107684631E+04  0.23088389921E+04 0.  0.
        1    1    3    3  502    0  0.40592632824E+03  0.14226458405E+03  0.10249830020E+04  0.11115779551E+04  0.50400001928E-02 0.  1.
       -1    1    3    3    0  502 -0.40592632824E+03 -0.14226458405E+03 -0.11193937996E+04  0.11991905080E+04  0.50400001928E-02 0. -1.
</event>
<event>
 5   0  0.7391007E-06  0.2298720E+04  0.7818609E-02  0.8478426E-01
       -1   -1    0    0    0  501  0.00000000000E+00  0.00000000000E+00  0.10160258615E+04  0.10160258615E+04  0.50400001928E-02 0.  1.
        1   -1    0    0  501    0  0.00000000000E+00  0.00000000000E+00 -0.13001918162E+04  0.13001918162E+04  0.50400001928E-02 0. -1.
    10030    2    1    2    0    0  0.00000000000E+00  0.00000000000E+00 -0.28416595470E+03  0.23162176777E+04  0.22987200875E+04 0.  0.
        1    1    3    3  502    0 -0.64400427392E+03 -0.19030365327E+03  0.79779345291E+03  0.10427997789E+04  0.50400001928E-02 0.  1.
       -1    1    3    3    0  502  0.64400427392E+03  0.19030365327E+03 -0.10819594076E+04  0.12734178988E+04  0.50400001928E-02 0. -1.
</event>
<event>
 5   0  0.7416556E-06  0.2302926E+04  0.7818609E-02  0.8476768E-01
       -1   -1    0    0    0  501  0.00000000000E+00  0.00000000000E+00  0.20671972248E+04  0.20671972248E+04  0.50400001928E-02 0.  1.
        1   -1    0    0  501    0  0.00000000000E+00  0.00000000000E+00 -0.64138379760E+03  0.64138379762E+03  0.50400001928E-02 0. -1.
    10030    2    1    2    0    0  0.00000000000E+00  0.00000000000E+00  0.14258134272E+04  0.27085810224E+04  0.23029257968E+04 0.  0.
        4    1    3    3  502    0  0.79300314634E+03  0.67030411284E+03  0.12753996953E+03  0.10461499178E+04  0.12699999809E+01 0. -1.
       -4    1    3    3    0  502 -0.79300314634E+03 -0.67030411284E+03  0.12982734576E+04  0.16624311046E+04  0.12699999809E+01 0.  1.
</event>
<event>
 5   0  0.1626636E-05  0.2297264E+04  0.7818609E-02  0.8479001E-01
        2   -1    0    0  501    0  0.00000000000E+00  0.00000000000E+00  0.14233214190E+04  0.14233214190E+04  0.25500000920E-02 0. -1.
       -2   -1    0    0    0  501  0.00000000000E+00  0.00000000000E+00 -0.92695510626E+03  0.92695510626E+03  0.25500000920E-02 0.  1.
    10030    2    1    2    0    0  0.00000000000E+00  0.00000000000E+00  0.49636631279E+03  0.23502765253E+04  0.22972636394E+04 0.  0.
        4    1    3    3  502    0 -0.80669278485E+03 -0.62170768856E+03 -0.29518486495E+03  0.10603817315E+04  0.12699999809E+01 0.  1.
       -4    1    3    3    0  502  0.80669278485E+03  0.62170768856E+03  0.79155117774E+03  0.12898947938E+04  0.12699999809E+01 0. -1.
</event>
<event>
 5   0  0.7391007E-06  0.2250737E+04  0.7818609E-02  0.8497602E-01
       -1   -1    0    0    0  501  0.00000000000E+00  0.00000000000E+00  0.11264741862E+04  0.11264741862E+04  0.50400001928E-02 0.  1.
        1   -1    0    0  501    0  0.00000000000E+00  0.00000000000E+00 -0.11242637791E+04  0.11242637791E+04  0.50400001928E-02 0. -1.
    10030    2    1    2    0    0  0.00000000000E+00  0.00000000000E+00  0.22104071513E+01  0.22507379653E+04  0.22507368799E+04 0.  0.
        1    1    3    3  502    0  0.77513270398E+02  0.38072002221E+02  0.11231558065E+04  0.11264709273E+04  0.50400001928E-02 0.  1.
       -1    1    3    3    0  502 -0.77513270398E+02 -0.38072002221E+02 -0.11209453993E+04  0.11242670380E+04  0.50400001928E-02 0. -1.
</event>
<event>
 5   0  0.1588969E-05  0.2298577E+04  0.7818609E-02  0.8478482E-01
        2   -1    0    0  501    0  0.00000000000E+00  0.00000000000E+00  0.14721756592E+04  0.14721756592E+04  0.25500000920E-02 0.  1.
       -2   -1    0    0    0  501  0.00000000000E+00  0.00000000000E+00 -0.89721885629E+03  0.89721885629E+03  0.25500000920E-02 0. -1.
    10030    2    1    2    0    0  0.00000000000E+00  0.00000000000E+00  0.57495680292E+03  0.23693945155E+04  0.22985767433E+04 0.  0.
        1    1    3    3  502    0  0.27357165589E+03  0.42158021464E+03 -0.77794798083E+03  0.92616110326E+03  0.50400001928E-02 0. -1.
       -1    1    3    3    0  502 -0.27357165589E+03 -0.42158021464E+03  0.13529047837E+04  0.14432334122E+04  0.50400001928E-02 0.  1.
</event>
<event>
 5   0  0.5704875E-06  0.2292013E+04  0.7818609E-02  0.8481077E-01
       -3   -1    0    0    0  501  0.00000000000E+00  0.00000000000E+00  0.19425872399E+04  0.19425872425E+04  0.10100000352E+00 0. -1.
        3   -1    0    0  501    0  0.00000000000E+00  0.00000000000E+00 -0.67607286138E+03  0.67607286892E+03  0.10100000352E+00 0.  1.
    10030    2    1    2    0    0  0.00000000000E+00  0.00000000000E+00  0.12665143785E+04  0.26186601115E+04  0.22920126763E+04 0.  0.
        5    1    3    3  502    0  0.27062627402E+02  0.54775755305E+03 -0.51639831230E+03  0.75329942895E+03  0.46999998093E+01 0.  1.
       -5    1    3    3    0  502 -0.27062627402E+02 -0.54775755305E+03  0.17829126908E+04  0.18653606825E+04  0.46999998093E+01 0. -1.
</event>
<event>
 5   0  0.7278815E-06  0.2303820E+04  0.7818609E-02  0.8476417E-01
       -1   -1    0    0    0  501  0.00000000000E+00  0.00000000000E+00  0.80775510730E+03  0.80775510731E+03  0.50400001928E-02 0. -1.
        1   -1    0    0  501    0  0.00000000000E+00  0.00000000000E+00 -0.16426963222E+04  0.16426963222E+04  0.50400001928E-02 0.  1.
    10030    2    1    2    0    0  0.00000000000E+00  0.00000000000E+00 -0.83494121490E+03  0.24504514295E+04  0.23038197360E+04 0.  0.
        5    1    3    3  502    0 -0.16593551829E+03  0.97460905930E+03 -0.10462623126E+04  0.14394736300E+04  0.46999998093E+01 0.  1.
       -5    1    3    3    0  502  0.16593551829E+03 -0.97460905930E+03  0.21132109775E+03  0.10109777995E+04  0.46999998093E+01 0. -1.
</event>
<event>
 5   0  0.1602809E-05  0.2303718E+04  0.7818609E-02  0.8476456E-01
       -2   -1    0    0    0  501  0.00000000000E+00  0.00000000000E+00  0.61400650300E+03  0.61400650300E+03  0.25500000920E-02 0. -1.
        2   -1    0    0  501    0  0.00000000000E+00  0.00000000000E+00 -0.21608558174E+04  0.21608558174E+04  0.25500000920E-02 0.  1.
    10030    2    1    2    0    0  0.00000000000E+00  0.00000000000E+00 -0.15468493144E+04  0.27748623204E+04  0.23037183195E+04 0.  0.
        3    1    3    3  502    0  0.64301117651E+03  0.91777421063E+03 -0.45245680080E+03  0.12085073610E+04  0.10100000352E+00 0. -1.
       -3    1    3    3    0  502 -0.64301117651E+03 -0.91777421063E+03 -0.10943925136E+04  0.15663549594E+04  0.10100000352E+00 0.  1.
</event>
<event>
 5   0  0.7391007E-06  0.2333527E+04  0.7818609E-02  0.8464818E-01
       -1   -1    0    0    0  501  0.00000000000E+00  0.00000000000E+00  0.73603599438E+03  0.73603599440E+03  0.50400001928E-02 0. -1.
        1   -1    0    0  501    0  0.00000000000E+00  0.00000000000E+00 -0.18495525207E+04  0.18495525207E+04  0.50400001928E-02 0.  1.
    10030    2    1    2    0    0  0.00000000000E+00  0.00000000000E+00 -0.11135165263E+04  0.25855885151E+04  0.23335271404E+04 0.  0.
        1    1    3    3  502    0 -0.26296462028E+03 -0.10641504607E+04 -0.11386912107E+03  0.11020584246E+04  0.50400001928E-02 0. -1.
       -1    1    3    3    0  502  0.26296462028E+03  0.10641504607E+04 -0.99964740525E+03  0.14835300905E+04  0.50400001928E-02 0.  1.
</event>
<event>
 5   0  0.7278815E-06  0.2304045E+04  0.7818609E-02  0.8476328E-01
        1   -1    0    0  501    0  0.00000000000E+00  0.00000000000E+00  0.20557463999E+04  0.20557463999E+04  0.50400001928E-02 0.  1.
       -1   -1    0    0    0  501  0.00000000000E+00  0.00000000000E+00 -0.64558356321E+03  0.64558356323E+03  0.50400001928E-02 0. -1.
    10030    2    1    2    0    0  0.00000000000E+00  0.00000000000E+00  0.14101628367E+04  0.27013299632E+04  0.23040452131E+04 0.  0.
        5    1    3    3  502    0  0.33970334145E+03  0.10807153214E+04  0.95042475039E+03  0.14787404310E+04  0.46999998093E+01 0. -1.
       -5    1    3    3    0  502 -0.33970334145E+03 -0.10807153214E+04  0.45973808633E+03  0.12225895322E+04  0.46999998093E+01 0.  1.
</event>
<event>
 5   0  0.1697855E-05  0.2298388E+04  0.7818609E-02  0.8478557E-01
        2   -1    0    0  501    0  0.00000000000E+00  0.00000000000E+00  0.13282623280E+04  0.13282623280E+04  0.25500000920E-02 0.  1.
       -2   -1    0    0    0  501  0.00000000000E+00  0.00000000000E+00 -0.99426692063E+03  0.99426692064E+03  0.25500000920E-02 0. -1.
    10030    2    1    2    0    0  0.00000000000E+00  0.00000000000E+00  0.33399540736E+03  0.23225292486E+04  0.22983883872E+04 0.  0.
        5    1    3    3  502    0  0.47519730837E+03  0.10459834426E+04  0.13966997359E+03  0.11573347120E+04  0.46999998093E+01 0. -1.
       -5    1    3    3    0  502 -0.47519730837E+03 -0.10459834426E+04  0.19432543377E+03  0.11651945367E+04  0.46999998093E+01 0.  1.
</event>
<event>
 5   0  0.7391007E-06  0.2303025E+04  0.7818609E-02  0.8476729E-01
        1   -1    0    0  501    0  0.00000000000E+00  0.00000000000E+00  0.17063672006E+04  0.17063672007E+04  0.50400001928E-02 0.  1.
       -1   -1    0    0    0  501  0.00000000000E+00  0.00000000000E+00 -0.77707839342E+03  0.77707839343E+03  0.50400001928E-02 0. -1.
    10030    2    1    2    0    0  0.00000000000E+00  0.00000000000E+00  0.92928880723E+03  0.24834455941E+04  0.23030250393E+04 0.  0.
        1    1    3    3  502    0 -0.72241915648E+03  0.87732526724E+03  0.26466519888E+03  0.11668919100E+04  0.50400001928E-02 0. -1.
       -1    1    3    3    0  502  0.72241915648E+03 -0.87732526724E+03  0.66462360835E+03  0.13165536841E+04  0.50400001928E-02 0.  1.
</event>
<event>
 5   0  0.7278815E-06  0.2294712E+04  0.7818609E-02  0.8480009E-01
       -1   -1    0    0    0  501  0.00000000000E+00  0.00000000000E+00  0.68347659701E+03  0.68347659703E+03  0.50400001928E-02 0. -1.
        1   -1    0    0  501    0  0.00000000000E+00  0.00000000000E+00 -0.19260721388E+04  0.19260721388E+04  0.50400001928E-02 0.  1.
    10030    2    1    2    0    0  0.00000000000E+00  0.00000000000E+00 -0.12425955418E+04  0.26095487358E+04  0.22947115122E+04 0.  0.
        5    1    3    3  502    0 -0.24123941993E+03  0.68235448414E+03  0.39113009255E+03  0.82268398492E+03  0.46999998093E+01 0. -1.
       -5    1    3    3    0  502  0.24123941993E+03 -0.68235448414E+03 -0.16337256343E+04  0.17868647509E+04  0.46999998093E+01 0.  1.
</event>
<event>
 5   0  0.7183014E-06  0.2285929E+04  0.7818609E-02  0.8483490E-01
        1   -1    0    0  501    0  0.00000000000E+00  0.00000000000E+00  0.11663272491E+04  0.11663272491E+04  0.50400001928E-02 0. -1.
       -1   -1    0    0    0  501  0.00000000000E+00  0.00000000000E+00 -0.11200695871E+04  0.11200695872E+04  0.50400001928E-02 0.  1.
    10030    2    1    2    0    0  0.00000000000E+00  0.00000000000E+00  0.46257661965E+02  0.22863968363E+04  0.22859288531E+04 0.  0.
        3    1    3    3  502    0 -0.93411203836E+02  0.65884454352E+03  0.95260153373E+03  0.11620032176E+04  0.10100000352E+00 0. -1.
       -3    1    3    3    0  502  0.93411203836E+02 -0.65884454352E+03 -0.90634387177E+03  0.11243936186E+04  0.10100000352E+00 0.  1.
</event>
<event>
 5   0  0.1626636E-05  0.2300509E+04  0.7818609E-02  0.8477720E-01
        2   -1    0    0  501    0  0.00000000000E+00  0.00000000000E+00  0.14770557468E+04  0.14770557468E+04  0.25500000920E-02 0. -1.
       -2   -1    0    0    0  501  0.00000000000E+00  0.00000000000E+00 -0.89575868248E+03  0.89575868249E+03  0.25500000920E-02 0.  1.
    10030    2    1    2    0    0  0.00000000000E+00  0.00000000000E+00  0.58129706433E+03  0.23728144293E+04  0.23005090826E+04 0.  0.
        4    1    3    3  502    0 -0.23007210461E+03  0.63490674669E+03 -0.66976977041E+03  0.95112192098E+03  0.12699999809E+01 0.  1.
       -4    1    3    3    0  502  0.23007210461E+03 -0.63490674669E+03  0.12510668347E+04  0.14216925083E+04  0.12699999809E+01 0. -1.
</event>
<event>
 5   0  0.7202572E-06  0.2295848E+04  0.7818609E-02  0.8479560E-01
       -1   -1    0    0    0  501  0.00000000000E+00  0.00000000000E+00  0.11471666154E+04  0.11471666154E+04  0.50400001928E-02 0.  1.
        1   -1    0    0  501    0  0.00000000000E+00  0.00000000000E+00 -0.11486820158E+04  0.11486820158E+04  0.50400001928E-02 0. -1.
    10030    2    1    2    0    0  0.00000000000E+00  0.00000000000E+00 -0.15154004369E+01  0.22958486312E+04  0.22958481311E+04 0.  0.
        2    1    3    3  502    0  0.73121643505E+03  0.71815373833E+02 -0.88274130346E+03  0.11485064787E+04  0.25500000920E-02 0. -1.
       -2    1    3    3    0  502 -0.73121643505E+03 -0.71815373833E+02  0.88122590302E+03  0.11473421525E+04  0.25500000920E-02 0.  1.
</event>
<event>
 5   0  0.5704875E-06  0.2304158E+04  0.7818609E-02  0.8476283E-01
        3   -1    0    0  501    0  0.00000000000E+00  0.00000000000E+00  0.19065733965E+04  0.19065733992E+04  0.10100000352E+00 0. -1.
       -3   -1    0    0    0  501  0.00000000000E+00  0.00000000000E+00 -0.69616338163E+03  0.69616338896E+03  0.10100000352E+00 0.  1.
    10030    2    1    2    0    0  0.00000000000E+00  0.00000000000E+00  0.12104100149E+04  0.26027367882E+04  0.23041584981E+04 0.  0.
        3    1    3    3  502    0 -0.68750482359E+03 -0.69986412261E+03  0.12874708001E+04  0.16186580071E+04  0.10100000352E+00 0. -1.
       -3    1    3    3    0  502  0.68750482359E+03  0.69986412261E+03 -0.77060785200E+02  0.98407878109E+03  0.10100000352E+00 0.  1.
</event>
<event>
 5   0  0.1588969E-05  0.2289019E+04  0.7818609E-02  0.8482263E-01
       -2   -1    0    0    0  501  0.00000000000E+00  0.00000000000E+00  0.72826524200E+03  0.72826524201E+03  0.25500000920E-02 0. -1.
        2   -1    0    0  501    0  0.00000000000E+00  0.00000000000E+00 -0.17986604265E+04  0.17986604265E+04  0.25500000920E-02 0.  1.
    10030    2    1    2    0    0  0.00000000000E+00  0.00000000000E+00 -0.10703951845E+04  0.25269256685E+04  0.22890188909E+04 0.  0.
        1    1    3    3  502    0  0.11031751373E+04 -0.28719055632E+03 -0.42246614285E+03  0.12157102620E+04  0.50400001928E-02 0.  1.
       -1    1    3    3    0  502 -0.11031751373E+04  0.28719055632E+03 -0.64792904162E+03  0.13112154065E+04  0.50400001928E-02 0. -1.
</event>
<event>
 5   0  0.1626636E-05  0.2297620E+04  0.7818609E-02  0.8478860E-01
        2   -1    0    0  501    0  0.00000000000E+00  0.00000000000E+00  0.80339691167E+03  0.80339691168E+03  0.25500000920E-02 0. -1.
       -2   -1    0    0    0  501  0.00000000000E+00  0.00000000000E+00 -0.16427302927E+04  0.16427302927E+04  0.25500000920E-02 0.  1.
    10030    2    1    2    0    0  0.00000000000E+00  0.00000000000E+00 -0.83933338106E+03  0.24461272044E+04  0.22976200242E+04 0.  0.
        4    1    3    3  502    0  0.72924740358E+03  0.87731099594E+03 -0.27569875062E+03  0.11736642506E+04  0.12699999809E+01 0. -1.
       -4    1    3    3    0  502 -0.72924740358E+03 -0.87731099594E+03 -0.56363463044E+03  0.12724629538E+04  0.12699999809E+01 0.  1.
</event>
<event>
 5   0  0.1626636E-05  0.2305985E+04  0.7818609E-02  0.8475565E-01
        2   -1    0    0  501    0  0.00000000000E+00  0.00000000000E+00  0.13252666596E+04  0.13252666596E+04  0.25500000920E-02 0.  1.
       -2   -1    0    0    0  501  0.00000000000E+00  0.00000000000E+00 -0.10031124161E+04  0.10031124161E+04  0.25500000920E-02 0. -1.
    10030    2    1    2    0    0  0.00000000000E+00  0.00000000000E+00  0.32215424347E+03  0.23283790757E+04  0.23059847708E+04 0.  0.
        4    1    3    3  502    0  0.53031910765E+03 -0.93738987067E+03 -0.25456563929E+03  0.11066812564E+04  0.12699999809E+01 0. -1.
       -4    1    3    3    0  502 -0.53031910765E+03  0.93738987067E+03  0.57671988277E+03  0.12216978193E+04  0.12699999809E+01 0.  1.
</event>
<event>
 5   0  0.1635955E-05  0.2297030E+04  0.7818609E-02  0.8479093E-01
        2   -1    0    0  501    0  0.00000000000E+00  0.00000000000E+00  0.12638635367E+04  0.12638635367E+04  0.25500000920E-02 0.  1.
       -2   -1    0    0    0  501  0.00000000000E+00  0.00000000000E+00 -0.10436939407E+04  0.10436939407E+04  0.25500000920E-02 0. -1.
    10030    2    1    2    0    0  0.00000000000E+00  0.00000000000E+00  0.22016959600E+03  0.23075574774E+04  0.22970300086E+04 0.  0.
        2    1    3    3  502    0  0.14523974672E+03  0.13633956055E+02 -0.10343492988E+04  0.10445855354E+04  0.25500000920E-02 0. -1.
       -2    1    3    3    0  502 -0.14523974672E+03 -0.13633956055E+02  0.12545188948E+04  0.12629719420E+04  0.25500000920E-02 0.  1.
</event>
<event>
 5   0  0.1602809E-05  0.2287824E+04  0.7818609E-02  0.8482737E-01
        2   -1    0    0  501    0  0.00000000000E+00  0.00000000000E+00  0.10353503889E+04  0.10353503889E+04  0.25500000920E-02 0. -1.
       -2   -1    0    0    0  501  0.00000000000E+00  0.00000000000E+00 -0.12638568471E+04  0.12638568471E+04  0.25500000920E-02 0.  1.
    10030    2    1    2    0    0  0.00000000000E+00  0.00000000000E+00 -0.22850645825E+03  0.22992072360E+04  0.22878240126E+04 0.  0.
        3    1    3    3  502    0  0.29663050541E+03  0.92041159446E+03  0.49984153669E+03  0.10885718773E+04  0.10100000352E+00 0. -1.
       -3    1    3    3    0  502 -0.29663050541E+03 -0.92041159446E+03 -0.72834799494E+03  0.12106353588E+04  0.10100000352E+00 0.  1.
</event>
<event>
 5   0  0.7183014E-06  0.2304654E+04  0.7818609E-02  0.8476089E-01
       -1   -1    0    0    0  501  0.00000000000E+00  0.00000000000E+00  0.15626637157E+04  0.15626637157E+04  0.50400001928E-02 0.  1.
        1   -1    0    0  501    0  0.00000000000E+00  0.00000000000E+00 -0.84973946768E+03  0.84973946769E+03  0.50400001928E-02 0. -1.
    10030    2    1    2    0    0  0.00000000000E+00  0.00000000000E+00  0.71292424801E+03  0.24124031834E+04  0.23046535826E+04 0.  0.
        3    1    3    3  502    0 -0.76406996755E+03 -0.86175063735E+03  0.31674136287E+03  0.11944631336E+04  0.10100000352E+00 0. -1.
       -3    1    3    3    0  502  0.76406996755E+03  0.86175063735E+03  0.39618288513E+03  0.12179400498E+04  0.10100000352E+00 0.  1.
</event>
<event>
 5   0  0.7416556E-06  0.2296142E+04  0.7818609E-02  0.8479444E-01
        1   -1    0    0  501    0  0.00000000000E+00  0.00000000000E+00  0.91379228644E+03  0.91379228645E+03  0.50400001928E-02 0.  1.
       -1   -1    0    0    0  501  0.00000000000E+00  0.00000000000E+00 -0.14424146132E+04  0.14424146132E+04  0.50400001928E-02 0. -1.
    10030    2    1    2    0    0  0.00000000000E+00  0.00000000000E+00 -0.52862232673E+03  0.23562068996E+04  0.22961422843E+04 0.  0.
        4    1    3    3  502    0  0.28041381719E+03  0.48940503809E+03 -0.12904272636E+04  0.14083157799E+04  0.12699999809E+01 0. -1.
       -4    1    3    3    0  502 -0.28041381719E+03 -0.48940503809E+03  0.76180493689E+03  0.94789111978E+03  0.12699999809E+01 0.  1.
</event>
<event>
 5   0  0.1602809E-05  0.2301861E+04  0.7818609E-02  0.8477188E-01
       -2   -1    0    0    0  501  0.00000000000E+00  0.00000000000E+00  0.71859737935E+03  0.71859737935E+03  0.25500000920E-02 0.  1.
        2   -1    0    0  501    0  0.00000000000E+00  0.00000000000E+00 -0.18433702612E+04  0.18433702612E+04  0.25500000920E-02 0. -1.
    10030    2    1    2    0    0  0.00000000000E+00  0.00000000000E+00 -0.11247728819E+04  0.25619676406E+04  0.23018610200E+04 0.  0.
        3    1    3    3  502    0  0.11141240939E+04  0.24674293583E+03 -0.39548693749E+03  0.12077104376E+04  0.10100000352E+00 0.  1.
       -3    1    3    3    0  502 -0.11141240939E+04 -0.24674293583E+03 -0.72928594438E+03  0.13542572030E+04  0.10100000352E+00 0. -1.
</event>
<event>
 5   0  0.1635955E-05  0.2292952E+04  0.7818609E-02  0.8480705E-01
       -2   -1    0    0    0  501  0.00000000000E+00  0.00000000000E+00  0.11125996106E+04  0.11125996106E+04  0.25500000920E-02 0. -1.
        2   -1    0    0  501    0  0.00000000000E+00  0.00000000000E+00 -0.11813836982E+04  0.11813836983E+04  0.25500000920E-02 0.  1.
    10030    2    1    2    0    0  0.00000000000E+00  0.00000000000E+00 -0.68784087646E+02  0.22939833089E+04  0.22929518465E+04 0.  0.
        2    1    3    3  502    0  0.72972681008E+03 -0.58774129873E+03  0.62656087388E+03  0.11271732699E+04  0.25500000920E-02 0. -1.
       -2    1    3    3    0  502 -0.72972681008E+03  0.58774129873E+03 -0.69534496152E+03  0.11668100390E+04  0.25500000920E-02 0.  1.
</event>
<event>
 5   0  0.7391007E-06  0.2302720E+04  0.7818609E-02  0.8476849E-01
       -1   -1    0    0    0  501  0.00000000000E+00  0.00000000000E+00  0.12847775902E+04  0.12847775902E+04  0.50400001928E-02 0. -1.
        1   -1    0    0  501    0  0.00000000000E+00  0.00000000000E+00 -0.10317973168E+04  0.10317973168E+04  0.50400001928E-02 0.  1.
    10030    2    1    2    0    0  0.00000000000E+00  0.00000000000E+00  0.25298027333E+03  0.23165749070E+04  0.23027201917E+04 0.  0.
        1    1    3    3  502    0 -0.10069595068E+04 -0.27724272172E+03 -0.36098603099E+03  0.11050528899E+04  0.50400001928E-02 0.  1.
       -1    1    3    3    0  502  0.10069595068E+04  0.27724272172E+03  0.61396630432E+03  0.12115220171E+04  0.50400001928E-02 0. -1.
</event>
<event>
 5   0  0.1588969E-05  0.2292983E+04  0.7818609E-02  0.8480693E-01
       -2   -1    0    0    0  501  0.00000000000E+00  0.00000000000E+00  0.47484869564E+03  0.47484869565E+03  0.25500000920E-02 0.  1.
        2   -1    0    0  501    0  0.00000000000E+00  0.00000000000E+00 -0.27681301745E+04  0.27681301745E+04  0.25500000920E-02 0. -1.
    10030    2    1    2    0    0  0.00000000000E+00  0.00000000000E+00 -0.22932814788E+04  0.32429788701E+04  0.22929832121E+04 0.  0.
        1    1    3    3  502    0 -0.11395727063E+04  0.61423678627E+02 -0.13018550965E+04  0.17312496970E+04  0.50400001928E-02 0. -1.
       -1    1    3    3    0  502  0.11395727063E+04 -0.61423678627E+02 -0.99142638234E+03  0.15117291731E+04  0.50400001928E-02 0.  1.
</event>
<event>
 5   0  0.7202572E-06  0.2370666E+04  0.7818609E-02  0.8450568E-01
       -1   -1    0    0    0  501  0.00000000000E+00  0.00000000000E+00  0.51938782900E+03  0.51938782902E+03  0.50400001928E-02 0. -1.
        1   -1    0    0  501    0  0.00000000000E+00  0.00000000000E+00 -0.27051346181E+04  0.27051346181E+04  0.50400001928E-02 0.  1.
    10030    2    1    2    0    0  0.00000000000E+00  0.00000000000E+00 -0.21857467891E+04  0.32245224471E+04  0.23706657263E+04 0.  0.
        2    1    3    3  502    0  0.77357191979E+02  0.11744630836E+04 -0.12836199516E+04  0.17415590286E+04  0.25500000920E-02 0. -1.
       -2    1    3    3    0  502 -0.77357191979E+02 -0.11744630836E+04 -0.90212683744E+03  0.14829634185E+04  0.25500000920E-02 0.  1.
</event>
<event>
 5   0  0.1697855E-05  0.2308565E+04  0.7818609E-02  0.8474552E-01
        2   -1    0    0  501    0  0.00000000000E+00  0.00000000000E+00  0.19444666701E+04  0.19444666701E+04  0.25500000920E-02 0. -1.
       -2   -1    0    0    0  501  0.00000000000E+00  0.00000000000E+00 -0.68521030467E+03  0.68521030467E+03  0.25500000920E-02 0.  1.
    10030    2    1    2    0    0  0.00000000000E+00  0.00000000000E+00  0.12592563655E+04  0.26296769748E+04  0.23085654415E+04 0.  0.
        5    1    3    3  502    0 -0.11379096073E+04 -0.98800502363E+02  0.81937122075E+03  0.14056995060E+04  0.46999998093E+01 0.  1.
       -5    1    3    3    0  502  0.11379096073E+04  0.98800502363E+02  0.43988514471E+03  0.12239774688E+04  0.46999998093E+01 0. -1.
</event>
<event>
 5   0  0.7202572E-06  0.2287671E+04  0.7818609E-02  0.8482798E-01
       -1   -1    0    0    0  501  0.00000000000E+00  0.00000000000E+00  0.46458251311E+03  0.46458251313E+03  0.50400001928E-02 0. -1.
        1   -1    0    0  501    0  0.00000000000E+00  0.00000000000E+00 -0.28162056709E+04  0.28162056709E+04  0.50400001928E-02 0.  1.
    10030    2    1    2    0    0  0.00000000000E+00  0.00000000000E+00 -0.23516231578E+04  0.32807881841E+04  0.22876712247E+04 0.  0.
        2    1    3    3  502    0 -0.10850594698E+03 -0.44925943516E+03 -0.26763341110E+04  0.27159476900E+04  0.25500000920E-02 0.  1.
       -2    1    3    3    0  502  0.10850594698E+03  0.44925943516E+03  0.32471095324E+03  0.56484049410E+03  0.25500000920E-02 0. -1.
</event>
<event>
 5   0  0.7183014E-06  0.2306302E+04  0.7818609E-02  0.8475440E-01
        1   -1    0    0  501    0  0.00000000000E+00  0.00000000000E+00  0.15539350286E+04  0.15539350286E+04  0.50400001928E-02 0.  1.
       -1   -1    0    0    0  501  0.00000000000E+00  0.00000000000E+00 -0.85573565821E+03  0.85573565822E+03  0.50400001928E-02 0. -1.
    10030    2    1    2    0    0  0.00000000000E+00  0.00000000000E+00  0.69819937035E+03  0.24096706868E+04  0.23063023345E+04 0.  0.
        3    1    3    3  502    0 -0.10757487642E+04 -0.33968670848E+03  0.59884255999E+03  0.12771980604E+04  0.10100000352E+00 0. -1.
       -3    1    3    3    0  502  0.10757487642E+04  0.33968670848E+03  0.99356810364E+02  0.11324726264E+04  0.10100000352E+00 0.  1.
</event>
<event>
 5   0  0.7278815E-06  0.2296741E+04  0.7818609E-02  0.8479207E-01
        1   -1    0    0  501    0  0.00000000000E+00  0.00000000000E+00  0.13231599698E+04  0.13231599698E+04  0.50400001928E-02 0.  1.
       -1   -1    0    0    0  501  0.00000000000E+00  0.00000000000E+00 -0.99667039660E+03  0.99667039661E+03  0.50400001928E-02 0. -1.
    10030    2    1    2    0    0  0.00000000000E+00  0.00000000000E+00  0.32648957318E+03  0.23198303664E+04  0.22967406226E+04 0.  0.
        5    1    3    3  502    0 -0.10716682925E+04 -0.37595218713E+03 -0.85216112414E+01  0.11357410286E+04  0.46999998093E+01 0. -1.
       -5    1    3    3    0  502  0.10716682925E+04  0.37595218713E+03  0.33501118442E+03  0.11840893378E+04  0.46999998093E+01 0.  1.
</event>
<event>
 5   0  0.1588969E-05  0.2293221E+04  0.7818609E-02  0.8480599E-01
       -2   -1    0    0    0  501  0.00000000000E+00  0.00000000000E+00  0.12079365850E+04  0.12079365850E+04  0.25500000920E-02 0. -1.
        2   -1    0    0  501    0  0.00000000000E+00  0.00000000000E+00 -0.10883978447E+04  0.10883978447E+04  0.25500000920E-02 0.  1.
    10030    2    1    2    0    0  0.00000000000E+00  0.00000000000E+00  0.11953874037E+03  0.22963344297E+04  0.22932209450E+04 0.  0.
        1    1    3    3  502    0 -0.39162370322E+03  0.15542382153E+03  0.11276082564E+04  0.12037549872E+04  0.50400001928E-02 0. -1.
       -1    1    3    3    0  502  0.39162370322E+03 -0.15542382153E+03 -0.10080695160E+04  0.10925794426E+04  0.50400001928E-02 0.  1.
</event>
<event>
 5   0  0.7183014E-06  0.2311337E+04  0.7818609E-02  0.8473465E-01
       -1   -1    0    0    0  501  0.00000000000E+00  0.00000000000E+00  0.15765517952E+04  0.15765517952E+04  0.50400001928E-02 0.  1.
        1   -1    0    0  501    0  0.00000000000E+00  0.00000000000E+00 -0.84714602008E+03  0.84714602009E+03  0.50400001928E-02 0. -1.
    10030    2    1    2    0    0  0.00000000000E+00  0.00000000000E+00  0.72940577515E+03  0.24236978153E+04  0.23113369108E+04 0.  0.
        3    1    3    3  502    0  0.50326746817E+03  0.66937947886E+03  0.11997982117E+04  0.14631687498E+04  0.10100000352E+00 0.  1.
       -3    1    3    3    0  502 -0.50326746817E+03 -0.66937947886E+03 -0.47039243656E+03  0.96052906557E+03  0.10100000352E+00 0. -1.
</event>
<event>
 5   0  0.1635955E-05  0.2218497E+04  0.7818609E-02  0.8510769E-01
        2   -1    0    0  501    0  0.00000000000E+00  0.00000000000E+00  0.13861401528E+04  0.13861401528E+04  0.25500000920E-02 0.  1.
       -2   -1    0    0    0  501  0.00000000000E+00  0.00000000000E+00 -0.88766788718E+03  0.88766788718E+03  0.25500000920E-02 0. -1.
    10030    2    1    2    0    0  0.00000000000E+00  0.00000000000E+00  0.49847226559E+03  0.22738080399E+04  0.22184968792E+04 0.  0.
        2    1    3    3  502    0 -0.64025390599E+03  0.14247647183E+03 -0.66760962976E+03  0.93590983910E+03  0.25500000920E-02 0. -1.
       -2    1    3    3    0  502  0.64025390599E+03 -0.14247647183E+03  0.11660818954E+04  0.13378982009E+04  0.25500000920E-02 0.  1.
</event>
<event>
 5   0  0.7416556E-06  0.2274188E+04  0.7818609E-02  0.8488169E-01
        1   -1    0    0  501    0  0.00000000000E+00  0.00000000000E+00  0.16986911404E+04  0.16986911404E+04  0.50400001928E-02 0. -1.
       -1   -1    0    0    0  501  0.00000000000E+00  0.00000000000E+00 -0.76116388134E+03  0.76116388136E+03  0.50400001928E-02 0.  1.
    10030    2    1    2    0    0  0.00000000000E+00  0.00000000000E+00  0.93752725902E+03  0.24598550217E+04  0.22741876278E+04 0.  0.
        4    1    3    3  502    0 -0.77043290694E+03 -0.82621914792E+03  0.32866798456E+03  0.11765327031E+04  0.12699999809E+01 0.  1.
       -4    1    3    3    0  502  0.77043290694E+03  0.82621914792E+03  0.60885927446E+03  0.12833223186E+04  0.12699999809E+01 0. -1.
</event>
<event>
 5   0  0.7278815E-06  0.2279421E+04  0.7818609E-02  0.8486080E-01
       -1   -1    0    0    0  501  0.00000000000E+00  0.00000000000E+00  0.16606262379E+04  0.16606262380E+04  0.50400001928E-02 0. -1.
        1   -1    0    0  501    0  0.00000000000E+00  0.00000000000E+00 -0.78219880429E+03  0.78219880431E+03  0.50400001928E-02 0.  1.
    10030    2    1    2    0    0  0.00000000000E+00  0.00000000000E+00  0.87842743366E+03  0.24428250423E+04  0.22794208543E+04 0.  0.
        5    1    3    3  502    0 -0.21797107260E+03  0.11170466000E+04  0.50363334594E+03  0.12445774914E+04  0.46999998093E+01 0. -1.
       -5    1    3    3    0  502  0.21797107260E+03 -0.11170466000E+04  0.37479408772E+03  0.11982475509E+04  0.46999998093E+01 0.  1.
</event>
<event>
 5   0  0.1697855E-05  0.2270995E+04  0.7818609E-02  0.8489446E-01
        2   -1    0    0  501    0  0.00000000000E+00  0.00000000000E+00  0.20770048922E+04  0.20770048922E+04  0.25500000920E-02 0. -1.
       -2   -1    0    0    0  501  0.00000000000E+00  0.00000000000E+00 -0.62077606679E+03  0.62077606680E+03  0.25500000920E-02 0.  1.
    10030    2    1    2    0    0  0.00000000000E+00  0.00000000000E+00  0.14562288254E+04  0.26977809590E+04  0.22709953128E+04 0.  0.
        5    1    3    3  502    0  0.69854314278E+02  0.71215889080E+03  0.17754358942E+04  0.19142216736E+04  0.46999998093E+01 0. -1.
       -5    1    3    3    0  502 -0.69854314278E+02 -0.71215889080E+03 -0.31920706885E+03  0.78355928542E+03  0.46999998093E+01 0.  1.
</event>
<event>
 5   0  0.7278815E-06  0.2303043E+04  0.7818609E-02  0.8476722E-01
        1   -1    0    0  501    0  0.00000000000E+00  0.00000000000E+00  0.11661372542E+04  0.11661372542E+04  0.50400001928E-02 0. -1.
       -1   -1    0    0    0  501  0.00000000000E+00  0.00000000000E+00 -0.11370893775E+04  0.11370893775E+04  0.50400001928E-02 0.  1.
    10030    2    1    2    0    0  0.00000000000E+00  0.00000000000E+00  0.29047876677E+02  0.23032266318E+04  0.23030434512E+04 0.  0.
        5    1    3    3  502    0 -0.40542544357E+03  0.52449071378E+03 -0.92710280612E+03  0.11397376901E+04  0.46999998093E+01 0.  1.
       -5    1    3    3    0  502  0.40542544357E+03 -0.52449071378E+03  0.95615068280E+03  0.11634889417E+04  0.46999998093E+01 0. -1.
</event>
<event>
 5   0  0.7202572E-06  0.2261995E+04  0.7818609E-02  0.8493059E-01
        1   -1    0    0  501    0  0.00000000000E+00  0.00000000000E+00  0.11385777280E+04  0.11385777280E+04  0.50400001928E-02 0. -1.
       -1   -1    0    0    0  501  0.00000000000E+00  0.00000000000E+00 -0.11234673580E+04  0.11234673580E+04  0.50400001928E-02 0.  1.
    10030    2    1    2    0    0  0.00000000000E+00  0.00000000000E+00  0.15110369943E+02  0.22620450860E+04  0.22619946171E+04 0.  0.
        2    1    3    3  502    0 -0.10034535410E+04  0.25369317149E+03 -0.44838884013E+03  0.11279768553E+04  0.25500000920E-02 0.  1.
       -2    1    3    3    0  502  0.10034535410E+04 -0.25369317149E+03  0.46349921008E+03  0.11340682307E+04  0.25500000920E-02 0. -1.
</event>
<event>
 5   0  0.1588969E-05  0.2299524E+04  0.7818609E-02  0.8478109E-01
       -2   -1    0    0    0  501  0.00000000000E+00  0.00000000000E+00  0.78681170736E+03  0.78681170736E+03  0.25500000920E-02 0. -1.
        2   -1    0    0  501    0  0.00000000000E+00  0.00000000000E+00 -0.16801391818E+04  0.16801391818E+04  0.25500000920E-02 0.  1.
    10030    2    1    2    0    0  0.00000000000E+00  0.00000000000E+00 -0.89332747441E+03  0.24669508891E+04  0.22995244536E+04 0.  0.
        1    1    3    3  502    0 -0.30169320056E+03 -0.42927962022E+03 -0.15442127300E+04  0.16309177585E+04  0.50400001928E-02 0.  1.
       -1    1    3    3    0  502  0.30169320056E+03  0.42927962022E+03  0.65088525554E+03  0.83603313063E+03  0.50400001928E-02 0. -1.
</event>
<event>
 5   0  0.7416556E-06  0.2298465E+04  0.7818609E-02  0.8478527E-01
        1   -1    0    0  501    0  0.00000000000E+00  0.00000000000E+00  0.14179284531E+04  0.14179284531E+04  0.50400001928E-02 0.  1.
       -1   -1    0    0    0  501  0.00000000000E+00  0.00000000000E+00 -0.93145380012E+03  0.93145380013E+03  0.50400001928E-02 0. -1.
    10030    2    1    2    0    0  0.00000000000E+00  0.00000000000E+00  0.48647465295E+03  0.23493822532E+04  0.22984645709E+04 0.  0.
        4    1    3    3  502    0  0.10032351081E+04 -0.31877663210E+03 -0.22810043458E+03  0.10770936099E+04  0.12699999809E+01 0. -1.
       -4    1    3    3    0  502 -0.10032351081E+04  0.31877663210E+03  0.71457508753E+03  0.12722886433E+04  0.12699999809E+01 0.  1.
</event>
<event>
 5   0  0.1588969E-05  0.2321484E+04  0.7818609E-02  0.8469498E-01
        2   -1    0    0  501    0  0.00000000000E+00  0.00000000000E+00  0.19696687045E+04  0.19696687045E+04  0.25500000920E-02 0. -1.
       -2   -1    0    0    0  501  0.00000000000E+00  0.00000000000E+00 -0.68403475312E+03  0.68403475312E+03  0.25500000920E-02 0.  1.
    10030    2    1    2    0    0  0.00000000000E+00  0.00000000000E+00  0.12856339514E+04  0.26537034576E+04  0.23214838755E+04 0.  0.
        1    1    3    3  502    0  0.60128698612E+03 -0.61280620275E+03 -0.25015659941E+03  0.89423476004E+03  0.50400001928E-02 0.  1.
       -1    1    3    3    0  502 -0.60128698612E+03  0.61280620275E+03  0.15357905508E+04  0.17594686976E+04  0.50400001928E-02 0. -1.
</event>
<event>
 5   0  0.1588969E-05  0.2297718E+04  0.7818609E-02  0.8478821E-01
        2   -1    0    0  501    0  0.00000000000E+00  0.00000000000E+00  0.14268553043E+04  0.14268553043E+04  0.25500000920E-02 0. -1.
       -2   -1    0    0    0  501  0.00000000000E+00  0.00000000000E+00 -0.92502511329E+03  0.92502511330E+03  0.25500000920E-02 0.  1.
    10030    2    1    2    0    0  0.00000000000E+00  0.00000000000E+00  0.50183019100E+03  0.23518804176E+04  0.22977179892E+04 0.  0.
        1    1    3    3  502    0  0.98718144842E+03 -0.58671059120E+03  0.21665278838E+03  0.11686295224E+04  0.50400001928E-02 0.  1.
       -1    1    3    3    0  502 -0.98718144842E+03  0.58671059120E+03  0.28517740262E+03  0.11832508952E+04  0.50400001928E-02 0. -1.
</event>
<event>
 5   0  0.7416556E-06  0.2296548E+04  0.7818609E-02  0.8479283E-01
       -1   -1    0    0    0  501  0.00000000000E+00  0.00000000000E+00  0.13668314336E+04  0.13668314336E+04  0.50400001928E-02 0.  1.
        1   -1    0    0  501    0  0.00000000000E+00  0.00000000000E+00 -0.96466439167E+03  0.96466439168E+03  0.50400001928E-02 0. -1.
    10030    2    1    2    0    0  0.00000000000E+00  0.00000000000E+00  0.40216704189E+03  0.23314958252E+04  0.22965483782E+04 0.  0.
        4    1    3    3  502    0 -0.62168223853E+03 -0.82022876481E+03  0.71801559031E+03  0.12549151498E+04  0.12699999809E+01 0.  1.
       -4    1    3    3    0  502  0.62168223853E+03  0.82022876481E+03 -0.31584854843E+03  0.10765806755E+04  0.12699999809E+01 0. -1.
</event>
<event>
 5   0  0.7183014E-06  0.2298757E+04  0.7818609E-02  0.8478411E-01
        1   -1    0    0  501    0  0.00000000000E+00  0.00000000000E+00  0.10812685713E+04  0.10812685713E+04  0.50400001928E-02 0.  1.
       -1   -1    0    0    0  501  0.00000000000E+00  0.00000000000E+00 -0.12217791368E+04  0.12217791369E+04  0.50400001928E-02 0. -1.
    10030    2    1    2    0    0  0.00000000000E+00  0.00000000000E+00 -0.14051056554E+03  0.23030477082E+04  0.22987573876E+04 0.  0.
        3    1    3    3  502    0  0.66669497077E+03 -0.32566060102E+03 -0.94969444574E+03  0.12051790579E+04  0.10100000352E+00 0. -1.
       -3    1    3    3    0  502 -0.66669497077E+03  0.32566060102E+03  0.80918388019E+03  0.10978686503E+04  0.10100000352E+00 0.  1.
</event>
<event>
 5   0  0.1626636E-05  0.2288040E+04  0.7818609E-02  0.8482652E-01
        2   -1    0    0  501    0  0.00000000000E+00  0.00000000000E+00  0.79153933819E+03  0.79153933819E+03  0.25500000920E-02 0. -1.
       -2   -1    0    0    0  501  0.00000000000E+00  0.00000000000E+00 -0.16534641778E+04  0.16534641778E+04  0.25500000920E-02 0.  1.
    10030    2    1    2    0    0  0.00000000000E+00  0.00000000000E+00 -0.86192483962E+03  0.24450035160E+04  0.22880401579E+04 0.  0.
        4    1    3    3  502    0 -0.34951662764E+03  0.64221865316E+03 -0.13711944459E+04  0.15539570434E+04  0.12699999809E+01 0.  1.
       -4    1    3    3    0  502  0.34951662764E+03 -0.64221865316E+03  0.50926960630E+03  0.89104647256E+03  0.12699999809E+01 0. -1.
</event>
<event>
 5   0  0.7416556E-06  0.2309701E+04  0.7818609E-02  0.8474106E-01
        1   -1    0    0  501    0  0.00000000000E+00  0.00000000000E+00  0.19182621894E+04  0.19182621894E+04  0.50400001928E-02 0. -1.
       -1   -1    0    0    0  501  0.00000000000E+00  0.00000000000E+00 -0.69525434294E+03  0.69525434296E+03  0.50400001928E-02 0.  1.
    10030    2    1    2    0    0  0.00000000000E+00  0.00000000000E+00  0.12230078465E+04  0.26135165324E+04  0.23097013817E+04 0.  0.
        4    1    3    3  502    0  0.71462119308E+02 -0.98301129525E+03  0.12925553187E+04  0.16254595984E+04  0.12699999809E+01 0.  1.
       -4    1    3    3    0  502 -0.71462119308E+02  0.98301129525E+03 -0.69547472226E+02  0.98805693403E+03  0.12699999809E+01 0. -1.
</event>
<event>
 5   0  0.7391007E-06  0.2282500E+04  0.7818609E-02  0.8484853E-01
        1   -1    0    0  501    0  0.00000000000E+00  0.00000000000E+00  0.93550549428E+03  0.93550549430E+03  0.50400001928E-02 0.  1.
       -1   -1    0    0    0  501  0.00000000000E+00  0.00000000000E+00 -0.13922441155E+04  0.13922441155E+04  0.50400001928E-02 0. -1.
    10030    2    1    2    0    0  0.00000000000E+00  0.00000000000E+00 -0.45673862121E+03  0.23277496098E+04  0.22825004004E+04 0.  0.
        1    1    3    3  502    0 -0.43444660338E+03  0.70750884533E+03  0.57018602008E+03  0.10071865343E+04  0.50400001928E-02 0.  1.
       -1    1    3    3    0  502  0.43444660338E+03 -0.70750884533E+03 -0.10269246413E+04  0.13205630755E+04  0.50400001928E-02 0. -1.
</event>
<event>
 5   0  0.7278815E-06  0.2300227E+04  0.7818609E-02  0.8477831E-01
       -1   -1    0    0    0  501  0.00000000000E+00  0.00000000000E+00  0.14314668067E+04  0.14314668067E+04  0.50400001928E-02 0. -1.
        1   -1    0    0  501    0  0.00000000000E+00  0.00000000000E+00 -0.92406025012E+03  0.92406025013E+03  0.50400001928E-02 0.  1.
    10030    2    1    2    0    0  0.00000000000E+00  0.00000000000E+00  0.50740655658E+03  0.23555270568E+04  0.23002274457E+04 0.  0.
        5    1    3    3  502    0 -0.51513280184E+03  0.49925765021E+03 -0.66686308934E+03  0.97946336059E+03  0.46999998093E+01 0.  1.
       -5    1    3    3    0  502  0.51513280184E+03 -0.49925765021E+03  0.11742696459E+04  0.13760636963E+04  0.46999998093E+01 0. -1.
</event>
<event>
 5   0  0.1626636E-05  0.2300146E+04  0.7818609E-02  0.8477863E-01
       -2   -1    0    0    0  501  0.00000000000E+00  0.00000000000E+00  0.13349433536E+04  0.13349433536E+04  0.25500000920E-02 0. -1.
        2   -1    0    0  501    0  0.00000000000E+00  0.00000000000E+00 -0.99080471388E+03  0.99080471388E+03  0.25500000920E-02 0.  1.
    10030    2    1    2    0    0  0.00000000000E+00  0.00000000000E+00  0.34413863969E+03  0.23257480674E+04  0.23001462279E+04 0.  0.
        4    1    3    3  502    0 -0.10458159494E+04 -0.44713520543E+03  0.34427545427E+03  0.11883552050E+04  0.12699999809E+01 0. -1.
       -4    1    3    3    0  502  0.10458159494E+04  0.44713520543E+03 -0.13681458008E+00  0.11373928624E+04  0.12699999809E+01 0.  1.
</event>
<event>
 5   0  0.1635955E-05  0.2296899E+04  0.7818609E-02  0.8479145E-01
        2   -1    0    0  501    0  0.00000000000E+00  0.00000000000E+00  0.18750055597E+04  0.18750055597E+04  0.25500000920E-02 0.  1.
       -2   -1    0    0    0  501  0.00000000000E+00  0.00000000000E+00 -0.70343088838E+03  0.70343088838E+03  0.25500000920E-02 0. -1.
    10030    2    1    2    0    0  0.00000000000E+00  0.00000000000E+00  0.11715746713E+04  0.25784364481E+04  0.22968994985E+04 0.  0.
        2    1    3    3  502    0  0.14436296566E+03  0.90867505802E+03 -0.18577682979E+03  0.93863947148E+03  0.25500000920E-02 0. -1.
       -2    1    3    3    0  502 -0.14436296566E+03 -0.90867505802E+03  0.13573515011E+04  0.16397969766E+04  0.25500000920E-02 0.  1.
</event>
<event>
 5   0  0.7278815E-06  0.2301402E+04  0.7818609E-02  0.8477368E-01
       -1   -1    0    0    0  501  0.00000000000E+00  0.00000000000E+00  0.13768777487E+04  0.13768777487E+04  0.50400001928E-02 0.  1.
        1   -1    0    0  501    0  0.00000000000E+00  0.00000000000E+00 -0.96167795642E+03  0.96167795643E+03  0.50400001928E-02 0. -1.
    10030    2    1    2    0    0  0.00000000000E+00  0.00000000000E+00  0.41519979228E+03  0.23385557051E+04  0.23014021636E+04 0.  0.
        5    1    3    3  502    0  0.54282366745E+03  0.58161959872E+03  0.10523767115E+04  0.13192640845E+04  0.46999998093E+01 0.  1.
       -5    1    3    3    0  502 -0.54282366745E+03 -0.58161959872E+03 -0.63717691926E+03  0.10192916207E+04  0.46999998093E+01 0. -1.
</event>
<event>
 5   0  0.7391007E-06  0.2300986E+04  0.7818609E-02  0.8477532E-01
       -1   -1    0    0    0  501  0.00000000000E+00  0.00000000000E+00  0.12435777859E+04  0.12435777860E+04  0.50400001928E-02 0. -1.
        1   -1    0    0  501    0  0.00000000000E+00  0.00000000000E+00 -0.10643760791E+04  0.10643760791E+04  0.50400001928E-02 0.  1.
    10030    2    1    2    0    0  0.00000000000E+00  0.00000000000E+00  0.17920170687E+03  0.23079538650E+04  0.23009862649E+04 0.  0.
        1    1    3    3  502    0  0.87956579289E+03 -0.37689254074E+03 -0.55104322953E+03  0.11042339481E+04  0.50400001928E-02 0. -1.
       -1    1    3    3    0  502 -0.87956579289E+03  0.37689254074E+03  0.73024493640E+03  0.12037199169E+04  0.50400001928E-02 0.  1.
</event>
<event>
 5   0  0.1602809E-05  0.2292394E+04  0.7818609E-02  0.8480926E-01
        2   -1    0    0  501    0  0.00000000000E+00  0.00000000000E+00  0.97546607765E+03  0.97546607766E+03  0.25500000920E-02 0.  1.
       -2   -1    0    0    0  501  0.00000000000E+00  0.00000000000E+00 -0.13468105485E+04  0.13468105485E+04  0.25500000920E-02 0. -1.
    10030    2    1    2    0    0  0.00000000000E+00  0.00000000000E+00 -0.37134447081E+03  0.23222766261E+04  0.22923943841E+04 0.  0.
        3    1    3    3  502    0 -0.45673176554E+03  0.95580832915E+03  0.25774866813E+03  0.10902329356E+04  0.10100000352E+00 0.  1.
       -3    1    3    3    0  502  0.45673176554E+03 -0.95580832915E+03 -0.62909313894E+03  0.12320436905E+04  0.10100000352E+00 0. -1.
</event>
<event>
 5   0  0.1626636E-05  0.2297030E+04  0.7818609E-02  0.8479093E-01
        2   -1    0    0  501    0  0.00000000000E+00  0.00000000000E+00  0.80032052423E+03  0.80032052424E+03  0.25500000920E-02 0.  1.
       -2   -1    0    0    0  501  0.00000000000E+00  0.00000000000E+00 -0.16481980798E+04  0.16481980798E+04  0.25500000920E-02 0. -1.
    10030    2    1    2    0    0  0.00000000000E+00  0.00000000000E+00 -0.84787755555E+03  0.24485186040E+04  0.22970300401E+04 0.  0.
        4    1    3    3  502    0  0.52294525314E+03 -0.57226628731E+03  0.47937090325E+03  0.91145955322E+03  0.12699999809E+01 0.  1.
       -4    1    3    3    0  502 -0.52294525314E+03  0.57226628731E+03 -0.13272484588E+04  0.15370590508E+04  0.12699999809E+01 0. -1.
</event>
<event>
 5   0  0.1626636E-05  0.2303911E+04  0.7818609E-02  0.8476381E-01
        2   -1    0    0  501    0  0.00000000000E+00  0.00000000000E+00  0.21962299289E+04  0.21962299289E+04  0.25500000920E-02 0. -1.
       -2   -1    0    0    0  501  0.00000000000E+00  0.00000000000E+00 -0.60421776434E+03  0.60421776435E+03  0.25500000920E-02 0.  1.
    10030    2    1    2    0    0  0.00000000000E+00  0.00000000000E+00  0.15920121646E+04  0.28004476933E+04  0.23039107080E+04 0.  0.
        4    1    3    3  502    0  0.62336883690E+02 -0.65962192834E+03 -0.34943135573E+03  0.74905998470E+03  0.12699999809E+01 0.  1.
       -4    1    3    3    0  502 -0.62336883690E+02  0.65962192834E+03  0.19414435203E+04  0.20513877086E+04  0.12699999809E+01 0. -1.
</event>
<event>
 5   0  0.7183014E-06  0.2316854E+04  0.7818609E-02  0.8471305E-01
       -1   -1    0    0    0  501  0.00000000000E+00  0.00000000000E+00  0.10650050087E+04  0.10650050087E+04  0.50400001928E-02 0.  1.
        1   -1    0    0  501    0  0.00000000000E+00  0.00000000000E+00 -0.12600444175E+04  0.12600444175E+04  0.50400001928E-02 0. -1.
    10030    2    1    2    0    0  0.00000000000E+00  0.00000000000E+00 -0.19503940882E+03  0.23250494262E+04  0.23168544329E+04 0.  0.
        3    1    3    3  502    0 -0.13732078345E+03  0.11412057550E+04 -0.24206400459E+03  0.11746499757E+04  0.10100000352E+00 0.  1.
       -3    1    3    3    0  502  0.13732078345E+03 -0.11412057550E+04  0.47024595774E+02  0.11503994505E+04  0.10100000352E+00 0. -1.
</event>
<event>
 5   0  0.7183014E-06  0.2303464E+04  0.7818609E-02  0.8476557E-01
       -1   -1    0    0    0  501  0.00000000000E+00  0.00000000000E+00  0.10258617240E+04  0.10258617241E+04  0.50400001928E-02 0.  1.
        1   -1    0    0  501    0  0.00000000000E+00  0.00000000000E+00 -0.12930459770E+04  0.12930459770E+04  0.50400001928E-02 0. -1.
    10030    2    1    2    0    0  0.00000000000E+00  0.00000000000E+00 -0.26718425292E+03  0.23189077010E+04  0.23034638050E+04 0.  0.
        3    1    3    3  502    0 -0.48225974589E+03  0.10192686707E+04  0.10250807770E+03  0.11322504148E+04  0.10100000352E+00 0.  1.
       -3    1    3    3    0  502  0.48225974589E+03 -0.10192686707E+04 -0.36969233062E+03  0.11866572863E+04  0.10100000352E+00 0. -1.
</event>
<event>
 5   0  0.7391007E-06  0.2303912E+04  0.7818609E-02  0.8476380E-01
        1   -1    0    0  501    0  0.00000000000E+00  0.00000000000E+00  0.15251956480E+04  0.15251956480E+04  0.50400001928E-02 0. -1.
       -1   -1    0    0    0  501  0.00000000000E+00  0.00000000000E+00 -0.87005394721E+03  0.87005394722E+03  0.50400001928E-02 0.  1.
    10030    2    1    2    0    0  0.00000000000E+00  0.00000000000E+00  0.65514170081E+03  0.23952495952E+04  0.23039118853E+04 0.  0.
        1    1    3    3  502    0  0.63876335584E+02 -0.11259755270E+04  0.57161382322E+03  0.12643747216E+04  0.50400001928E-02 0. -1.
       -1    1    3    3    0  502 -0.63876335584E+02  0.11259755270E+04  0.83527877592E+02  0.11308748737E+04  0.50400001928E-02 0.  1.
</event>
<event>
 5   0  0.7202572E-06  0.2297580E+04  0.7818609E-02  0.8478876E-01
       -1   -1    0    0    0  501  0.00000000000E+00  0.00000000000E+00  0.12760467544E+04  0.12760467544E+04  0.50400001928E-02 0. -1.
        1   -1    0    0  501    0  0.00000000000E+00  0.00000000000E+00 -0.10342241893E+04  0.10342241894E+04  0.50400001928E-02 0.  1.
    10030    2    1    2    0    0  0.00000000000E+00  0.00000000000E+00  0.24182256508E+03  0.23102709438E+04  0.22975799618E+04 0.  0.
        2    1    3    3  502    0  0.16135026334E+03  0.11361185450E+04  0.17523901156E+03  0.11608221083E+04  0.25500000920E-02 0.  1.
       -2    1    3    3    0  502 -0.16135026334E+03 -0.11361185450E+04  0.66583553515E+02  0.11494488355E+04  0.25500000920E-02 0. -1.
</event>
<event>
 5   0  0.1602809E-05  0.2305866E+04  0.7818609E-02  0.8475612E-01
       -2   -1    0    0    0  501  0.00000000000E+00  0.00000000000E+00  0.57976912931E+03  0.57976912931E+03  0.25500000920E-02 0. -1.
        2   -1    0    0  501    0  0.00000000000E+00  0.00000000000E+00 -0.22927300683E+04  0.22927300683E+04  0.25500000920E-02 0.  1.
    10030    2    1    2    0    0  0.00000000000E+00  0.00000000000E+00 -0.17129609389E+04  0.28724991976E+04  0.23058656643E+04 0.  0.
        3    1    3    3  502    0  0.48192097517E+03  0.84071297210E+03 -0.16346495765E+04  0.19002961285E+04  0.10100000352E+00 0.  1.
       -3    1    3    3    0  502 -0.48192097517E+03 -0.84071297210E+03 -0.78311362400E+02  0.97220306904E+03  0.10100000352E+00 0. -1.
</event>
<event>
 5   0  0.1602809E-05  0.2296500E+04  0.7818609E-02  0.8479302E-01
        2   -1    0    0  501    0  0.00000000000E+00  0.00000000000E+00  0.11775055915E+04  0.11775055915E+04  0.25500000920E-02 0. -1.
       -2   -1    0    0    0  501  0.00000000000E+00  0.00000000000E+00 -0.11197210813E+04  0.11197210813E+04  0.25500000920E-02 0.  1.
    10030    2    1    2    0    0  0.00000000000E+00  0.00000000000E+00  0.57784510190E+02  0.22972266727E+04  0.22964998011E+04 0.  0.
        3    1    3    3  502    0 -0.26915752205E+02 -0.11047229776E+04  0.34098541043E+03  0.11564637372E+04  0.10100000352E+00 0. -1.
       -3    1    3    3    0  502  0.26915752205E+02  0.11047229776E+04 -0.28320090024E+03  0.11407629356E+04  0.10100000352E+00 0.  1.
</event>
<event>
 5   0  0.7183014E-06  0.2298793E+04  0.7818609E-02  0.8478397E-01
       -1   -1    0    0    0  501  0.00000000000E+00  0.00000000000E+00  0.11956542433E+04  0.11956542433E+04  0.50400001928E-02 0.  1.
        1   -1    0    0  501    0  0.00000000000E+00  0.00000000000E+00 -0.11049288515E+04  0.11049288515E+04  0.50400001928E-02 0. -1.
    10030    2    1    2    0    0  0.00000000000E+00  0.00000000000E+00  0.90725391849E+02  0.23005830948E+04  0.22987934834E+04 0.  0.
        3    1    3    3  502    0  0.29708660161E+03 -0.92427458614E+03 -0.57039582948E+03  0.11260086021E+04  0.10100000352E+00 0. -1.
       -3    1    3    3    0  502 -0.29708660161E+03  0.92427458614E+03  0.66112122133E+03  0.11745744927E+04  0.10100000352E+00 0.  1.
</event>
<event>
 5   0  0.1635955E-05  0.2308974E+04  0.7818609E-02  0.8474391E-01
        2   -1    0    0  501    0  0.00000000000E+00  0.00000000000E+00  0.17695785836E+04  0.17695785836E+04  0.25500000920E-02 0. -1.
       -2   -1    0    0    0  501  0.00000000000E+00  0.00000000000E+00 -0.75319662566E+03  0.75319662566E+03  0.25500000920E-02 0.  1.
    10030    2    1    2    0    0  0.00000000000E+00  0.00000000000E+00  0.10163819579E+04  0.25227752093E+04  0.23089743333E+04 0.  0.
        2    1    3    3  502    0  0.92247475803E+03 -0.29122106550E+03  0.11966746744E+04  0.15387656301E+04  0.25500000920E-02 0. -1.
       -2    1    3    3    0  502 -0.92247475803E+03  0.29122106550E+03 -0.18029271644E+03  0.98400957912E+03  0.25500000920E-02 0.  1.
</event>
<event>
 5   0  0.1588969E-05  0.2302166E+04  0.7818609E-02  0.8477068E-01
        2   -1    0    0  501    0  0.00000000000E+00  0.00000000000E+00  0.23103528389E+04  0.23103528389E+04  0.25500000920E-02 0. -1.
       -2   -1    0    0    0  501  0.00000000000E+00  0.00000000000E+00 -0.57350213667E+03  0.57350213667E+03  0.25500000920E-02 0.  1.
    10030    2    1    2    0    0  0.00000000000E+00  0.00000000000E+00  0.17368507022E+04  0.28838549755E+04  0.23021661882E+04 0.  0.
        1    1    3    3  502    0 -0.95055692935E+03 -0.51264670018E+02  0.16790934102E+04  0.19301661127E+04  0.50400001928E-02 0. -1.
       -1    1    3    3    0  502  0.95055692935E+03  0.51264670018E+02  0.57757292000E+02  0.95368886286E+03  0.50400001928E-02 0.  1.
</event>
<event>
 5   0  0.1626636E-05  0.2298184E+04  0.7818609E-02  0.8478638E-01
        2   -1    0    0  501    0  0.00000000000E+00  0.00000000000E+00  0.15305554280E+04  0.15305554280E+04  0.25500000920E-02 0.  1.
       -2   -1    0    0    0  501  0.00000000000E+00  0.00000000000E+00 -0.86270114277E+03  0.86270114277E+03  0.25500000920E-02 0. -1.
    10030    2    1    2    0    0  0.00000000000E+00  0.00000000000E+00  0.66785428526E+03  0.23932565708E+04  0.22981835582E+04 0.  0.
        4    1    3    3  502    0 -0.99304074103E+03 -0.18035894194E+03  0.90597048618E+03  0.13562608142E+04  0.12699999809E+01 0.  1.
       -4    1    3    3    0  502  0.99304074103E+03  0.18035894194E+03 -0.23811620092E+03  0.10369957567E+04  0.12699999809E+01 0. -1.
</event>
<event>
 5   0  0.7278815E-06  0.2313132E+04  0.7818609E-02  0.8472761E-01
        1   -1    0    0  501    0  0.00000000000E+00  0.00000000000E+00  0.10461869776E+04  0.10461869777E+04  0.50400001928E-02 0.  1.
       -1   -1    0    0    0  501  0.00000000000E+00  0.00000000000E+00 -0.12785910457E+04  0.12785910457E+04  0.50400001928E-02 0. -1.
    10030    2    1    2    0    0  0.00000000000E+00  0.00000000000E+00 -0.23240406804E+03  0.23247780234E+04  0.23131323367E+04 0.  0.
        5    1    3    3  502    0 -0.70635525527E+03  0.56858407195E+03  0.60532434776E+03  0.10902592579E+04  0.46999998093E+01 0.  1.
       -5    1    3    3    0  502  0.70635525527E+03 -0.56858407195E+03 -0.83772841580E+03  0.12345187654E+04  0.46999998093E+01 0. -1.
</event>
<event>
 5   0  0.1588969E-05  0.2270990E+04  0.7818609E-02  0.8489448E-01
       -2   -1    0    0    0  501  0.00000000000E+00  0.00000000000E+00  0.78653369709E+03  0.78653369709E+03  0.25500000920E-02 0.  1.
        2   -1    0    0  501    0  0.00000000000E+00  0.00000000000E+00 -0.16392803720E+04  0.16392803720E+04  0.25500000920E-02 0. -1.
    10030    2    1    2    0    0  0.00000000000E+00  0.00000000000E+00 -0.85274667494E+03  0.24258140691E+04  0.22709903140E+04 0.  0.
        1    1    3    3  502    0 -0.50871650314E+03  0.70386336270E+02 -0.15081354616E+04  0.15931789879E+04  0.50400001928E-02 0. -1.
       -1    1    3    3    0  502  0.50871650314E+03 -0.70386336270E+02  0.65538878662E+03  0.83263508126E+03  0.50400001928E-02 0.  1.
</event>
<event>
 5   0  0.1602809E-05  0.2270239E+04  0.7818609E-02  0.8489749E-01
       -2   -1    0    0    0  501  0.00000000000E+00  0.00000000000E+00  0.57268298241E+03  0.57268298242E+03  0.25500000920E-02 0.  1.
        2   -1    0    0  501    0  0.00000000000E+00  0.00000000000E+00 -0.22499291934E+04  0.22499291934E+04  0.25500000920E-02 0. -1.
    10030    2    1    2    0    0  0.00000000000E+00  0.00000000000E+00 -0.16772462110E+04  0.28226121758E+04  0.22702388955E+04 0.  0.
        3    1    3    3  502    0  0.60387034969E+03  0.48397171439E+03  0.19385496763E+03  0.79778930693E+03  0.10100000352E+00 0.  1.
       -3    1    3    3    0  502 -0.60387034969E+03 -0.48397171439E+03 -0.18711011786E+04  0.20248228689E+04  0.10100000352E+00 0. -1.
</event>
<event>
 5   0  0.7416556E-06  0.2292771E+04  0.7818609E-02  0.8480777E-01
        1   -1    0    0  501    0  0.00000000000E+00  0.00000000000E+00  0.17013911249E+04  0.17013911249E+04  0.50400001928E-02 0.  1.
       -1   -1    0    0    0  501  0.00000000000E+00  0.00000000000E+00 -0.77242689959E+03  0.77242689960E+03  0.50400001928E-02 0. -1.
    10030    2    1    2    0    0  0.00000000000E+00  0.00000000000E+00  0.92896422532E+03  0.24738180245E+04  0.22927714859E+04 0.  0.
        4    1    3    3  502    0 -0.27403664342E+03  0.25336801283E+03 -0.70504088195E+03  0.79773159019E+03  0.12699999809E+01 0. -1.
       -4    1    3    3    0  502  0.27403664342E+03 -0.25336801283E+03  0.16340051073E+04  0.16760864343E+04  0.12699999809E+01 0.  1.
</event>
<event>
 5   0  0.1697855E-05  0.2295363E+04  0.7818609E-02  0.8479752E-01
        2   -1    0    0  501    0  0.00000000000E+00  0.00000000000E+00  0.74243069995E+03  0.74243069995E+03  0.25500000920E-02 0.  1.
       -2   -1    0    0    0  501  0.00000000000E+00  0.00000000000E+00 -0.17741362283E+04  0.17741362283E+04  0.25500000920E-02 0. -1.
    10030    2    1    2    0    0  0.00000000000E+00  0.00000000000E+00 -0.10317055283E+04  0.25165669282E+04  0.22953633279E+04 0.  0.
        5    1    3    3  502    0  0.55918440229E+03  0.10020504823E+04 -0.49508684809E+03  0.12497701557E+04  0.46999998093E+01 0. -1.
       -5    1    3    3    0  502 -0.55918440229E+03 -0.10020504823E+04 -0.53661868022E+03  0.12667967725E+04  0.46999998093E+01 0.  1.
</event>
<event>
 5   0  0.1635955E-05  0.2307443E+04  0.7818609E-02  0.8474992E-01
       -2   -1    0    0    0  501  0.00000000000E+00  0.00000000000E+00  0.67486737231E+03  0.67486737232E+03  0.25500000920E-02 0.  1.
        2   -1    0    0  501    0  0.00000000000E+00  0.00000000000E+00 -0.19723484706E+04  0.19723484706E+04  0.25500000920E-02 0. -1.
    10030    2    1    2    0    0  0.00000000000E+00  0.00000000000E+00 -0.12974810983E+04  0.26472158429E+04  0.23074432861E+04 0.  0.
        2    1    3    3  502    0  0.35156928435E+03  0.33266900834E+03 -0.18502379356E+04  0.19124983788E+04  0.25500000920E-02 0. -1.
       -2    1    3    3    0  502 -0.35156928435E+03 -0.33266900834E+03  0.55275683731E+03  0.73471746406E+03  0.25500000920E-02 0.  1.
</event>
<event>
 5   0  0.1635955E-05  0.2301143E+04  0.7818609E-02  0.8477471E-01
        2   -1    0    0  501    0  0.00000000000E+00  0.00000000000E+00  0.19479179447E+04  0.19479179447E+04  0.25500000920E-02 0.  1.
       -2   -1    0    0    0  501  0.00000000000E+00  0.00000000000E+00 -0.67960473220E+03  0.67960473220E+03  0.25500000920E-02 0. -1.
    10030    2    1    2    0    0  0.00000000000E+00  0.00000000000E+00  0.12683132125E+04  0.26275226769E+04  0.23011425451E+04 0.  0.
        2    1    3    3  502    0  0.76335785894E+03  0.60993997447E+03  0.13278357753E+04  0.16486023897E+04  0.25500000920E-02 0.  1.
       -2    1    3    3    0  502 -0.76335785894E+03 -0.60993997447E+03 -0.59522562733E+02  0.97892028723E+03  0.25500000920E-02 0. -1.
</event>
<event>
 5   0  0.7183014E-06  0.2341689E+04  0.7818609E-02  0.8461663E-01
        1   -1    0    0  501    0  0.00000000000E+00  0.00000000000E+00  0.14699485883E+04  0.14699485883E+04  0.50400001928E-02 0. -1.
       -1   -1    0    0    0  501  0.00000000000E+00  0.00000000000E+00 -0.93260214326E+03  0.93260214327E+03  0.50400001928E-02 0.  1.
    10030    2    1    2    0    0  0.00000000000E+00  0.00000000000E+00  0.53734644503E+03  0.24025507316E+04  0.23416893081E+04 0.  0.
        3    1    3    3  502    0  0.61207450506E+02  0.87282264470E+03 -0.52956541721E+03  0.10227439867E+04  0.10100000352E+00 0.  1.
       -3    1    3    3    0  502 -0.61207450506E+02 -0.87282264470E+03  0.10669118622E+04  0.13798067448E+04  0.10100000352E+00 0. -1.
</event>
<event>
 5   0  0.7202572E-06  0.2309414E+04  0.7818609E-02  0.8474218E-01
        1   -1    0    0  501    0  0.00000000000E+00  0.00000000000E+00  0.13364652381E+04  0.13364652381E+04  0.50400001928E-02 0. -1.
       -1   -1    0    0    0  501  0.00000000000E+00  0.00000000000E+00 -0.99766793101E+03  0.99766793102E+03  0.50400001928E-02 0.  1.
    10030    2    1    2    0    0  0.00000000000E+00  0.00000000000E+00  0.33879730706E+03  0.23341331691E+04  0.23094142192E+04 0.  0.
        2    1    3    3  502    0 -0.80741825000E+03 -0.19060457401E+03  0.98117306010E+03  0.12848949015E+04  0.25500000920E-02 0. -1.
       -2    1    3    3    0  502  0.80741825000E+03  0.19060457401E+03 -0.64237575304E+03  0.10492382676E+04  0.25500000920E-02 0.  1.
</event>
<event>
 5   0  0.1588969E-05  0.2300741E+04  0.7818609E-02  0.8477629E-01
       -2   -1    0    0    0  501  0.00000000000E+00  0.00000000000E+00  0.72381049718E+03  0.72381049718E+03  0.25500000920E-02 0.  1.
        2   -1    0    0  501    0  0.00000000000E+00  0.00000000000E+00 -0.18283136534E+04  0.18283136534E+04  0.25500000920E-02 0. -1.
    10030    2    1    2    0    0  0.00000000000E+00  0.00000000000E+00 -0.11045031562E+04  0.25521241506E+04  0.23007412844E+04 0.  0.
        1    1    3    3  502    0  0.53818113157E+02 -0.11462148066E+04 -0.46180870128E+03  0.12369203890E+04  0.50400001928E-02 0. -1.
       -1    1    3    3    0  502 -0.53818113157E+02  0.11462148066E+04 -0.64269445497E+03  0.13152037616E+04  0.50400001928E-02 0.  1.
</event>
<event>
 5   0  0.7202572E-06  0.2302619E+04  0.7818609E-02  0.8476889E-01
        1   -1    0    0  501    0  0.00000000000E+00  0.00000000000E+00  0.15247368189E+04  0.15247368189E+04  0.50400001928E-02 0. -1.
       -1   -1    0    0    0  501  0.00000000000E+00  0.00000000000E+00 -0.86933925711E+03  0.86933925712E+03  0.50400001928E-02 0.  1.
    10030    2    1    2    0    0  0.00000000000E+00  0.00000000000E+00  0.65539756178E+03  0.23940760760E+04  0.23026190075E+04 0.  0.
        2    1    3    3  502    0 -0.18769694136E+02 -0.10659633262E+04  0.77956806943E+03  0.13207408864E+04  0.25500000920E-02 0. -1.
       -2    1    3    3    0  502  0.18769694136E+02  0.10659633262E+04 -0.12417050765E+03  0.10733351896E+04  0.25500000920E-02 0.  1.
</event>
<event>
 5   0  0.7278815E-06  0.2299942E+04  0.7818609E-02  0.8477944E-01
        1   -1    0    0  501    0  0.00000000000E+00  0.00000000000E+00  0.24299871457E+04  0.24299871457E+04  0.50400001928E-02 0.  1.
       -1   -1    0    0    0  501  0.00000000000E+00  0.00000000000E+00 -0.54421394817E+03  0.54421394819E+03  0.50400001928E-02 0. -1.
    10030    2    1    2    0    0  0.00000000000E+00  0.00000000000E+00  0.18857731975E+04  0.29742010939E+04  0.22999416502E+04 0.  0.
        5    1    3    3  502    0 -0.22392335107E+02 -0.10226132816E+03  0.24238001696E+04  0.24260643331E+04  0.46999998093E+01 0.  1.
       -5    1    3    3    0  502  0.22392335107E+02  0.10226132816E+03 -0.53802697208E+03  0.54813676084E+03  0.46999998093E+01 0. -1.
</event>
<event>
 5   0  0.1697855E-05  0.2313814E+04  0.7818609E-02  0.8472494E-01
        2   -1    0    0  501    0  0.00000000000E+00  0.00000000000E+00  0.14564490829E+04  0.14564490829E+04  0.25500000920E-02 0.  1.
       -2   -1    0    0    0  501  0.00000000000E+00  0.00000000000E+00 -0.91897033152E+03  0.91897033152E+03  0.25500000920E-02 0. -1.
    10030    2    1    2    0    0  0.00000000000E+00  0.00000000000E+00  0.53747875135E+03  0.23754194144E+04  0.23138137319E+04 0.  0.
        5    1    3    3  502    0 -0.21767222869E+02 -0.45991746207E+03 -0.82084492045E+03  0.94117286262E+03  0.46999998093E+01 0. -1.
       -5    1    3    3    0  502  0.21767222869E+02  0.45991746207E+03  0.13583236718E+04  0.14342465518E+04  0.46999998093E+01 0.  1.
</event>
<event>
 5   0  0.7202572E-06  0.2291917E+04  0.7818609E-02  0.8481115E-01
       -1   -1    0    0    0  501  0.00000000000E+00  0.00000000000E+00  0.14504615559E+04  0.14504615559E+04  0.50400001928E-02 0.  1.
        1   -1    0    0  501    0  0.00000000000E+00  0.00000000000E+00 -0.90538164151E+03  0.90538164153E+03  0.50400001928E-02 0. -1.
    10030    2    1    2    0    0  0.00000000000E+00  0.00000000000E+00  0.54507991434E+03  0.23558431974E+04  0.22919173322E+04 0.  0.
        2    1    3    3  502    0 -0.42814588403E+03  0.92198942638E+03  0.81630142621E+03  0.13037336456E+04  0.25500000920E-02 0.  1.
       -2    1    3    3    0  502  0.42814588403E+03 -0.92198942638E+03 -0.27122151186E+03  0.10521095517E+04  0.25500000920E-02 0. -1.
</event>
<event>
 5   0  0.7183014E-06  0.2298208E+04  0.7818609E-02  0.8478628E-01
        1   -1    0    0  501    0  0.00000000000E+00  0.00000000000E+00  0.19571581197E+04  0.19571581197E+04  0.50400001928E-02 0.  1.
       -1   -1    0    0    0  501  0.00000000000E+00  0.00000000000E+00 -0.67467191506E+03  0.67467191508E+03  0.50400001928E-02 0. -1.
    10030    2    1    2    0    0  0.00000000000E+00  0.00000000000E+00  0.12824862047E+04  0.26318300348E+04  0.22982076640E+04 0.  0.
        3    1    3    3  502    0  0.94573660587E+03 -0.64836720518E+03  0.55522711316E+03  0.12739995753E+04  0.10100000352E+00 0. -1.
       -3    1    3    3    0  502 -0.94573660587E+03  0.64836720518E+03  0.72725909149E+03  0.13578304595E+04  0.10100000352E+00 0.  1.
</event>
<event>
 5   0  0.7278815E-06  0.2315431E+04  0.7818609E-02  0.8471861E-01
        1   -1    0    0  501    0  0.00000000000E+00  0.00000000000E+00  0.17815101747E+04  0.17815101747E+04  0.50400001928E-02 0.  1.
       -1   -1    0    0    0  501  0.00000000000E+00  0.00000000000E+00 -0.75234244312E+03  0.75234244314E+03  0.50400001928E-02 0. -1.
    10030    2    1    2    0    0  0.00000000000E+00  0.00000000000E+00  0.10291677315E+04  0.25338526178E+04  0.23154314650E+04 0.  0.
        5    1    3    3  502    0 -0.27015309697E+03 -0.10238031101E+04  0.10268533422E+04  0.14749933493E+04  0.46999998093E+01 0.  1.
       -5    1    3    3    0  502  0.27015309697E+03  0.10238031101E+04  0.23143893650E+01  0.10588592685E+04  0.46999998093E+01 0. -1.
</event>
<event>
 5   0  0.1635955E-05  0.2316615E+04  0.7818609E-02  0.8471399E-01
       -2   -1    0    0    0  501  0.00000000000E+00  0.00000000000E+00  0.59482578769E+03  0.59482578769E+03  0.25500000920E-02 0.  1.
        2   -1    0    0  501    0  0.00000000000E+00  0.00000000000E+00 -0.22555794072E+04  0.22555794072E+04  0.25500000920E-02 0. -1.
    10030    2    1    2    0    0  0.00000000000E+00  0.00000000000E+00 -0.16607536195E+04  0.28504051949E+04  0.23166154602E+04 0.  0.
        2    1    3    3  502    0 -0.11839581572E+03  0.92435254211E+03  0.16050216517E+02  0.93204227411E+03  0.25500000920E-02 0. -1.
       -2    1    3    3    0  502  0.11839581572E+03 -0.92435254211E+03 -0.16768038360E+04  0.19183629208E+04  0.25500000920E-02 0.  1.
</event>
<event>
 5   0  0.1588969E-05  0.2298208E+04  0.7818609E-02  0.8478628E-01
       -2   -1    0    0    0  501  0.00000000000E+00  0.00000000000E+00  0.12942253125E+04  0.12942253125E+04  0.25500000920E-02 0. -1.
        2   -1    0    0  501    0  0.00000000000E+00  0.00000000000E+00 -0.10202548517E+04  0.10202548517E+04  0.25500000920E-02 0.  1.
    10030    2    1    2    0    0  0.00000000000E+00  0.00000000000E+00  0.27397046073E+03  0.23144801642E+04  0.22982076967E+04 0.  0.
        1    1    3    3  502    0 -0.95845869760E+03 -0.30895109954E+03  0.69438932121E+03  0.12232213154E+04  0.50400001928E-02 0. -1.
       -1    1    3    3    0  502  0.95845869760E+03  0.30895109954E+03 -0.42041886048E+03  0.10912588488E+04  0.50400001928E-02 0.  1.
</event>
<event>
 5   0  0.7183014E-06  0.2299023E+04  0.7818609E-02  0.8478307E-01
        1   -1    0    0  501    0  0.00000000000E+00  0.00000000000E+00  0.16395661033E+04  0.16395661033E+04  0.50400001928E-02 0. -1.
       -1   -1    0    0    0  501  0.00000000000E+00  0.00000000000E+00 -0.80593047715E+03  0.80593047717E+03  0.50400001928E-02 0.  1.
    10030    2    1    2    0    0  0.00000000000E+00  0.00000000000E+00  0.83363562613E+03  0.24454965805E+04  0.22990226549E+04 0.  0.
        3    1    3    3  502    0 -0.56744603767E+03  0.47866866369E+02 -0.64534476865E+03  0.86067190217E+03  0.10100000352E+00 0.  1.
       -3    1    3    3    0  502  0.56744603767E+03 -0.47866866369E+02  0.14789803948E+04  0.15848246783E+04  0.10100000352E+00 0. -1.
</event>
<event>
 5   0  0.1588969E-05  0.2348466E+04  0.7818609E-02  0.8459053E-01
       -2   -1    0    0    0  501  0.00000000000E+00  0.00000000000E+00  0.13312073621E+04  0.13312073621E+04  0.25500000920E-02 0.  1.
        2   -1    0    0  501    0  0.00000000000E+00  0.00000000000E+00 -0.10357689785E+04  0.10357689785E+04  0.25500000920E-02 0. -1.
    10030    2    1    2    0    0  0.00000000000E+00  0.00000000000E+00  0.29543838357E+03  0.23669763406E+04  0.23484661288E+04 0.  0.
        1    1    3    3  502    0 -0.20032216352E+03  0.51968311071E+03  0.11896095862E+04  0.13135335825E+04  0.50400001928E-02 0.  1.
       -1    1    3    3    0  502  0.20032216352E+03 -0.51968311071E+03 -0.89417120267E+03  0.10534427580E+04  0.50400001928E-02 0. -1.
</event>
<event>
 5   0  0.1588969E-05  0.2299756E+04  0.7818609E-02  0.8478017E-01
       -2   -1    0    0    0  501  0.00000000000E+00  0.00000000000E+00  0.83561603878E+03  0.83561603879E+03  0.25500000920E-02 0. -1.
        2   -1    0    0  501    0  0.00000000000E+00  0.00000000000E+00 -0.15823295671E+04  0.15823295671E+04  0.25500000920E-02 0.  1.
    10030    2    1    2    0    0  0.00000000000E+00  0.00000000000E+00 -0.74671352833E+03  0.24179456059E+04  0.22997564784E+04 0.  0.
        1    1    3    3  502    0 -0.51764052600E+03  0.60486466324E+03  0.49898629818E+03  0.93957453179E+03  0.50400001928E-02 0. -1.
       -1    1    3    3    0  502  0.51764052600E+03 -0.60486466324E+03 -0.12456998265E+04  0.14783710741E+04  0.50400001928E-02 0.  1.
</event>
<event>
 5   0  0.1697855E-05  0.2305083E+04  0.7818609E-02  0.8475920E-01
        2   -1    0    0  501    0  0.00000000000E+00  0.00000000000E+00  0.21247234235E+04  0.21247234235E+04  0.25500000920E-02 0.  1.
       -2   -1    0    0    0  501  0.00000000000E+00  0.00000000000E+00 -0.62518825189E+03  0.62518825190E+03  0.25500000920E-02 0. -1.
    10030    2    1    2    0    0  0.00000000000E+00  0.00000000000E+00  0.14995351716E+04  0.27499116754E+04  0.23050831854E+04 0.  0.
        5    1    3    3  502    0  0.69374535371E+03  0.65057984511E+03  0.15263886689E+04  0.17984496683E+04  0.46999998093E+01 0.  1.
       -5    1    3    3    0  502 -0.69374535371E+03 -0.65057984511E+03 -0.26853497352E+02  0.95146200711E+03  0.46999998093E+01 0. -1.
</event>
<event>
 5   0  0.1588969E-05  0.2304956E+04  0.7818609E-02  0.8475969E-01
        2   -1    0    0  501    0  0.00000000000E+00  0.00000000000E+00  0.77858814352E+03  0.77858814353E+03  0.25500000920E-02 0. -1.
       -2   -1    0    0    0  501  0.00000000000E+00  0.00000000000E+00 -0.17059161180E+04  0.17059161180E+04  0.25500000920E-02 0.  1.
    10030    2    1    2    0    0  0.00000000000E+00  0.00000000000E+00 -0.92732797451E+03  0.24845042616E+04  0.23049564537E+04 0.  0.
        1    1    3    3  502    0  0.61051171727E+02 -0.60043012846E+03 -0.15219598198E+04  0.16372554101E+04  0.50400001928E-02 0.  1.
       -1    1    3    3    0  502 -0.61051171727E+02  0.60043012846E+03  0.59463184534E+03  0.84724885143E+03  0.50400001928E-02 0. -1.
</event>
<event>
 5   0  0.7391007E-06  0.2300349E+04  0.7818609E-02  0.8477784E-01
       -1   -1    0    0    0  501  0.00000000000E+00  0.00000000000E+00  0.11233012322E+04  0.11233012322E+04  0.50400001928E-02 0.  1.
        1   -1    0    0  501    0  0.00000000000E+00  0.00000000000E+00 -0.11776902551E+04  0.11776902551E+04  0.50400001928E-02 0. -1.
    10030    2    1    2    0    0  0.00000000000E+00  0.00000000000E+00 -0.54389022904E+02  0.23009914873E+04  0.23003485950E+04 0.  0.
        1    1    3    3  502    0  0.10990841644E+02  0.11379931392E+04 -0.19382957784E+03  0.11544345320E+04  0.50400001928E-02 0. -1.
       -1    1    3    3    0  502 -0.10990841644E+02 -0.11379931392E+04  0.13944055493E+03  0.11465569553E+04  0.50400001928E-02 0.  1.
</event>
<event>
 5   0  0.7391007E-06  0.2300573E+04  0.7818609E-02  0.8477695E-01
        1   -1    0    0  501    0  0.00000000000E+00  0.00000000000E+00  0.13057222172E+04  0.13057222172E+04  0.50400001928E-02 0. -1.
       -1   -1    0    0    0  501  0.00000000000E+00  0.00000000000E+00 -0.10133545917E+04  0.10133545917E+04  0.50400001928E-02 0.  1.
    10030    2    1    2    0    0  0.00000000000E+00  0.00000000000E+00  0.29236762549E+03  0.23190768090E+04  0.23005734975E+04 0.  0.
        1    1    3    3  502    0  0.41089286627E+03 -0.10716471285E+04  0.22360707912E+03  0.11692992095E+04  0.50400001928E-02 0. -1.
       -1    1    3    3    0  502 -0.41089286627E+03  0.10716471285E+04  0.68760546372E+02  0.11497775995E+04  0.50400001928E-02 0.  1.
</event>
<event>
 5   0  0.7391007E-06  0.2303001E+04  0.7818609E-02  0.8476739E-01
        1   -1    0    0  501    0  0.00000000000E+00  0.00000000000E+00  0.86815498079E+03  0.86815498080E+03  0.50400001928E-02 0.  1.
       -1   -1    0    0    0  501  0.00000000000E+00  0.00000000000E+00 -0.15273235996E+04  0.15273235996E+04  0.50400001928E-02 0. -1.
    10030    2    1    2    0    0  0.00000000000E+00  0.00000000000E+00 -0.65916861884E+03  0.23954785804E+04  0.23030011640E+04 0.  0.
        1    1    3    3  502    0  0.68475338573E+03 -0.91102020601E+03 -0.50084255120E+03  0.12448647622E+04  0.50400001928E-02 0.  1.
       -1    1    3    3    0  502 -0.68475338573E+03  0.91102020601E+03 -0.15832606764E+03  0.11506138182E+04  0.50400001928E-02 0. -1.
</event>
<event>
 5   0  0.1697855E-05  0.2298960E+04  0.7818609E-02  0.8478331E-01
       -2   -1    0    0    0  501  0.00000000000E+00  0.00000000000E+00  0.11132730715E+04  0.11132730715E+04  0.25500000920E-02 0. -1.
        2   -1    0    0  501    0  0.00000000000E+00  0.00000000000E+00 -0.11868644671E+04  0.11868644671E+04  0.25500000920E-02 0.  1.
    10030    2    1    2    0    0  0.00000000000E+00  0.00000000000E+00 -0.73591395692E+02  0.23001375386E+04  0.22989599829E+04 0.  0.
        5    1    3    3  502    0 -0.37451882818E+03 -0.10284294441E+04 -0.38818875774E+03  0.11613113604E+04  0.46999998093E+01 0.  1.
       -5    1    3    3    0  502  0.37451882818E+03  0.10284294441E+04  0.31459736205E+03  0.11388261783E+04  0.46999998093E+01 0. -1.
</event>
<event>
 5   0  0.1588969E-05  0.2284238E+04  0.7818609E-02  0.8484162E-01
       -2   -1    0    0    0  501  0.00000000000E+00  0.00000000000E+00  0.10065263709E+04  0.10065263709E+04  0.25500000920E-02 0.  1.
        2   -1    0    0  501    0  0.00000000000E+00  0.00000000000E+00 -0.12959775046E+04  0.12959775046E+04  0.25500000920E-02 0. -1.
    10030    2    1    2    0    0  0.00000000000E+00  0.00000000000E+00 -0.28945113373E+03  0.23025038755E+04  0.22842377586E+04 0.  0.
        1    1    3    3  502    0  0.92130665821E+03  0.51277218265E+03  0.29775424206E+03  0.10956271530E+04  0.50400001928E-02 0.  1.
       -1    1    3    3    0  502 -0.92130665821E+03 -0.51277218265E+03 -0.58720537579E+03  0.12068767224E+04  0.50400001928E-02 0. -1.
</event>
<event>
 5   0  0.7278815E-06  0.2314563E+04  0.7818609E-02  0.8472201E-01
       -1   -1    0    0    0  501  0.00000000000E+00  0.00000000000E+00  0.89486769506E+03  0.89486769508E+03  0.50400001928E-02 0.  1.
        1   -1    0    0  501    0  0.00000000000E+00  0.00000000000E+00 -0.14966465826E+04  0.14966465826E+04  0.50400001928E-02 0. -1.
    10030    2    1    2    0    0  0.00000000000E+00  0.00000000000E+00 -0.60177888749E+03  0.23915142776E+04  0.23145631792E+04 0.  0.
        5    1    3    3  502    0  0.52717094080E+03  0.10253439800E+04 -0.19736294269E+03  0.11697066723E+04  0.46999998093E+01 0.  1.
       -5    1    3    3    0  502 -0.52717094080E+03 -0.10253439800E+04 -0.40441594479E+03  0.12218076053E+04  0.46999998093E+01 0. -1.
</event>
<event>
 5   0  0.7278815E-06  0.2298309E+04  0.7818609E-02  0.8478588E-01
        1   -1    0    0  501    0  0.00000000000E+00  0.00000000000E+00  0.16161015835E+04  0.16161015835E+04  0.50400001928E-02 0. -1.
       -1   -1    0    0    0  501  0.00000000000E+00  0.00000000000E+00 -0.81712418793E+03  0.81712418795E+03  0.50400001928E-02 0.  1.
    10030    2    1    2    0    0  0.00000000000E+00  0.00000000000E+00  0.79897739559E+03  0.24332257715E+04  0.22983086773E+04 0.  0.
        5    1    3    3  502    0  0.83897126835E+03 -0.18388365884E+03  0.12077495840E+04  0.14820145535E+04  0.46999998093E+01 0. -1.
       -5    1    3    3    0  502 -0.83897126835E+03  0.18388365884E+03 -0.40877218846E+03  0.95121121795E+03  0.46999998093E+01 0.  1.
</event>
<event>
 5   0  0.1588969E-05  0.2299526E+04  0.7818609E-02  0.8478108E-01
       -2   -1    0    0    0  501  0.00000000000E+00  0.00000000000E+00  0.44828065213E+03  0.44828065214E+03  0.25500000920E-02 0.  1.
        2   -1    0    0  501    0  0.00000000000E+00  0.00000000000E+00 -0.29489436888E+04  0.29489436888E+04  0.25500000920E-02 0. -1.
    10030    2    1    2    0    0  0.00000000000E+00  0.00000000000E+00 -0.25006630366E+04  0.33972243409E+04  0.22995255162E+04 0.  0.
        1    1    3    3  502    0 -0.32867129463E+03  0.44317214098E+03  0.23991867101E+03  0.60165383335E+03  0.50400001928E-02 0.  1.
       -1    1    3    3    0  502  0.32867129463E+03 -0.44317214098E+03 -0.27405817077E+04  0.27955705076E+04  0.50400001928E-02 0. -1.
</event>
<event>
 5   0  0.7183014E-06  0.2260983E+04  0.7818609E-02  0.8493466E-01
       -1   -1    0    0    0  501  0.00000000000E+00  0.00000000000E+00  0.12322132788E+04  0.12322132788E+04  0.50400001928E-02 0. -1.
        1   -1    0    0  501    0  0.00000000000E+00  0.00000000000E+00 -0.10371667748E+04  0.10371667748E+04  0.50400001928E-02 0.  1.
    10030    2    1    2    0    0  0.00000000000E+00  0.00000000000E+00  0.19504650404E+03  0.22693800536E+04  0.22609826821E+04 0.  0.
        3    1    3    3  502    0 -0.56869640553E+03  0.94015916677E+03  0.36439758614E+03  0.11576270866E+04  0.10100000352E+00 0. -1.
       -3    1    3    3    0  502  0.56869640553E+03 -0.94015916677E+03 -0.16935108210E+03  0.11117529670E+04  0.10100000352E+00 0.  1.
</event>
<event>
 5   0  0.7202572E-06  0.2295776E+04  0.7818609E-02  0.8479588E-01
        1   -1    0    0  501    0  0.00000000000E+00  0.00000000000E+00  0.20526554791E+04  0.20526554791E+04  0.50400001928E-02 0.  1.
       -1   -1    0    0    0  501  0.00000000000E+00  0.00000000000E+00 -0.64192316708E+03  0.64192316710E+03  0.50400001928E-02 0. -1.
    10030    2    1    2    0    0  0.00000000000E+00  0.00000000000E+00  0.14107323120E+04  0.26945786462E+04  0.22957762139E+04 0.  0.
        2    1    3    3  502    0 -0.98124383416E+03  0.91411113107E+02  0.14517955990E+02  0.98559942407E+03  0.25500000920E-02 0. -1.
       -2    1    3    3    0  502  0.98124383416E+03 -0.91411113107E+02  0.13962143561E+04  0.17089792221E+04  0.25500000920E-02 0.  1.
</event>
<event>
 5   0  0.7416556E-06  0.2303363E+04  0.7818609E-02  0.8476596E-01
        1   -1    0    0  501    0  0.00000000000E+00  0.00000000000E+00  0.15888642386E+04  0.15888642386E+04  0.50400001928E-02 0.  1.
       -1   -1    0    0    0  501  0.00000000000E+00  0.00000000000E+00 -0.83479176318E+03  0.83479176320E+03  0.50400001928E-02 0. -1.
    10030    2    1    2    0    0  0.00000000000E+00  0.00000000000E+00  0.75407247541E+03  0.24236560018E+04  0.23033634357E+04 0.  0.
        4    1    3    3  502    0  0.45827210379E+03 -0.90223431434E+03 -0.20152385880E+03  0.10318205065E+04  0.12699999809E+01 0. -1.
       -4    1    3    3    0  502 -0.45827210379E+03  0.90223431434E+03  0.95559633421E+03  0.13918354953E+04  0.12699999809E+01 0.  1.
</event>
<event>
 5   0  0.7416556E-06  0.2273957E+04  0.7818609E-02  0.8488261E-01
        1   -1    0    0  501    0  0.00000000000E+00  0.00000000000E+00  0.13551553956E+04  0.13551553957E+04  0.50400001928E-02 0. -1.
       -1   -1    0    0    0  501  0.00000000000E+00  0.00000000000E+00 -0.95392726670E+03  0.95392726672E+03  0.50400001928E-02 0.  1.
    10030    2    1    2    0    0  0.00000000000E+00  0.00000000000E+00  0.40122812894E+03  0.23090826624E+04  0.22739566245E+04 0.  0.
        4    1    3    3  502    0 -0.78420860968E+03 -0.38038711428E+03  0.94198820952E+03  0.12833631209E+04  0.12699999809E+01 0. -1.
       -4    1    3    3    0  502  0.78420860968E+03  0.38038711428E+03 -0.54076008058E+03  0.10257195415E+04  0.12699999809E+01 0.  1.
</event>
<event>
 5   0  0.7391007E-06  0.2301352E+04  0.7818609E-02  0.8477388E-01
       -1   -1    0    0    0  501  0.00000000000E+00  0.00000000000E+00  0.77550328317E+03  0.77550328318E+03  0.50400001928E-02 0. -1.
        1   -1    0    0  501    0  0.00000000000E+00  0.00000000000E+00 -0.17073502890E+04  0.17073502890E+04  0.50400001928E-02 0.  1.
    10030    2    1    2    0    0  0.00000000000E+00  0.00000000000E+00 -0.93184700581E+03  0.24828535722E+04  0.23013524325E+04 0.  0.
        1    1    3    3  502    0  0.19455623210E+03 -0.25067001353E+03 -0.16592150490E+04  0.16892845119E+04  0.50400001928E-02 0.  1.
       -1    1    3    3    0  502 -0.19455623210E+03  0.25067001353E+03  0.72736804322E+03  0.79356906029E+03  0.50400001928E-02 0. -1.
</event>
<event>
 5   0  0.7183014E-06  0.2297657E+04  0.7818609E-02  0.8478845E-01
       -1   -1    0    0    0  501  0.00000000000E+00  0.00000000000E+00  0.78933013256E+03  0.78933013257E+03  0.50400001928E-02 0. -1.
        1   -1    0    0  501    0  0.00000000000E+00  0.00000000000E+00 -0.16720594424E+04  0.16720594424E+04  0.50400001928E-02 0.  1.
    10030    2    1    2    0    0  0.00000000000E+00  0.00000000000E+00 -0.88272930980E+03  0.24613895749E+04  0.22976569816E+04 0.  0.
        3    1    3    3  502    0 -0.48960898492E+03  0.42380188811E+03 -0.14579238096E+04  0.15952638789E+04  0.10100000352E+00 0.  1.
       -3    1    3    3    0  502  0.48960898492E+03 -0.42380188811E+03  0.57519449983E+03  0.86612569603E+03  0.10100000352E+00 0. -1.
</event>
<event>
 5   0  0.7416556E-06  0.2306478E+04  0.7818609E-02  0.8475371E-01
        1   -1    0    0  501    0  0.00000000000E+00  0.00000000000E+00  0.16539129373E+04  0.16539129373E+04  0.50400001928E-02 0.  1.
       -1   -1    0    0    0  501  0.00000000000E+00  0.00000000000E+00 -0.80412976512E+03  0.80412976514E+03  0.50400001928E-02 0. -1.
    10030    2    1    2    0    0  0.00000000000E+00  0.00000000000E+00  0.84978317220E+03  0.24580427025E+04  0.23064783735E+04 0.  0.
        4    1    3    3  502    0 -0.53823235213E+03 -0.43814512291E+03 -0.55666011897E+03  0.88968382842E+03  0.12699999809E+01 0. -1.
       -4    1    3    3    0  502  0.53823235213E+03  0.43814512291E+03  0.14064432912E+04  0.15683588740E+04  0.12699999809E+01 0.  1.
</event>
<event>
 5   0  0.1602809E-05  0.2283281E+04  0.7818609E-02  0.8484543E-01
       -2   -1    0    0    0  501  0.00000000000E+00  0.00000000000E+00  0.83462113759E+03  0.83462113759E+03  0.25500000920E-02 0. -1.
        2   -1    0    0  501    0  0.00000000000E+00  0.00000000000E+00 -0.15615978126E+04  0.15615978126E+04  0.25500000920E-02 0.  1.
    10030    2    1    2    0    0  0.00000000000E+00  0.00000000000E+00 -0.72697667503E+03  0.23962189502E+04  0.22832805722E+04 0.  0.
        3    1    3    3  502    0  0.41775605213E+03  0.43600879746E+03  0.65331031375E+03  0.88962810590E+03  0.10100000352E+00 0. -1.
       -3    1    3    3    0  502 -0.41775605213E+03 -0.43600879746E+03 -0.13802869888E+04  0.15065908443E+04  0.10100000352E+00 0.  1.
</event>
<event>
 5   0  0.7202572E-06  0.2285860E+04  0.7818609E-02  0.8483517E-01
       -1   -1    0    0    0  501  0.00000000000E+00  0.00000000000E+00  0.16222979443E+04  0.16222979443E+04  0.50400001928E-02 0.  1.
        1   -1    0    0  501    0  0.00000000000E+00  0.00000000000E+00 -0.80520912350E+03  0.80520912351E+03  0.50400001928E-02 0. -1.
    10030    2    1    2    0    0  0.00000000000E+00  0.00000000000E+00  0.81708882083E+03  0.24275070679E+04  0.22858601058E+04 0.  0.
        2    1    3    3  502    0 -0.18989987605E+03 -0.82856784796E+03 -0.40280255903E+03  0.94065750577E+03  0.25500000920E-02 0. -1.
       -2    1    3    3    0  502  0.18989987605E+03  0.82856784796E+03  0.12198913799E+04  0.14868495621E+04  0.25500000920E-02 0.  1.
</event>
<event>
 5   0  0.7183014E-06  0.2284822E+04  0.7818609E-02  0.8483930E-01
        1   -1    0    0  501    0  0.00000000000E+00  0.00000000000E+00  0.13955784068E+04  0.13955784068E+04  0.50400001928E-02 0. -1.
       -1   -1    0    0    0  501  0.00000000000E+00  0.00000000000E+00 -0.93516983304E+03  0.93516983306E+03  0.50400001928E-02 0.  1.
    10030    2    1    2    0    0  0.00000000000E+00  0.00000000000E+00  0.46040857371E+03  0.23307482398E+04  0.22848219411E+04 0.  0.
        3    1    3    3  502    0 -0.71224196482E+03  0.52090782760E+02  0.11398118980E+04  0.13450551064E+04  0.10100000352E+00 0. -1.
       -3    1    3    3    0  502  0.71224196482E+03 -0.52090782760E+02 -0.67940332430E+03  0.98569313347E+03  0.10100000352E+00 0.  1.
</event>
<event>
 5   0  0.7202572E-06  0.2288539E+04  0.7818609E-02  0.8482454E-01
        1   -1    0    0  501    0  0.00000000000E+00  0.00000000000E+00  0.10977941721E+04  0.10977941721E+04  0.50400001928E-02 0. -1.
       -1   -1    0    0    0  501  0.00000000000E+00  0.00000000000E+00 -0.11927121113E+04  0.11927121113E+04  0.50400001928E-02 0.  1.
    10030    2    1    2    0    0  0.00000000000E+00  0.00000000000E+00 -0.94917939188E+02  0.22905062834E+04  0.22885387519E+04 0.  0.
        2    1    3    3  502    0  0.10611506339E+04  0.42204344425E+03 -0.11956997958E+03  0.11482414018E+04  0.25500000920E-02 0. -1.
       -2    1    3    3    0  502 -0.10611506339E+04 -0.42204344425E+03  0.24652040390E+02  0.11422648816E+04  0.25500000920E-02 0.  1.
</event>
<event>
 5   0  0.1588969E-05  0.2296352E+04  0.7818609E-02  0.8479361E-01
        2   -1    0    0  501    0  0.00000000000E+00  0.00000000000E+00  0.10308923556E+04  0.10308923556E+04  0.25500000920E-02 0.  1.
       -2   -1    0    0    0  501  0.00000000000E+00  0.00000000000E+00 -0.12788032332E+04  0.12788032332E+04  0.25500000920E-02 0. -1.
    10030    2    1    2    0    0  0.00000000000E+00  0.00000000000E+00 -0.24791087764E+03  0.23096955888E+04  0.22963523053E+04 0.  0.
        1    1    3    3  502    0  0.21098745420E+03 -0.10332848134E+04 -0.58059265762E+03  0.12038608913E+04  0.50400001928E-02 0. -1.
       -1    1    3    3    0  502 -0.21098745420E+03  0.10332848134E+04  0.33268177998E+03  0.11058346975E+04  0.50400001928E-02 0.  1.
</event>
<event>
 5   0  0.7391007E-06  0.2302284E+04  0.7818609E-02  0.8477021E-01
        1   -1    0    0  501    0  0.00000000000E+00  0.00000000000E+00  0.16287061394E+04  0.16287061394E+04  0.50400001928E-02 0.  1.
       -1   -1    0    0    0  501  0.00000000000E+00  0.00000000000E+00 -0.81360787694E+03  0.81360787696E+03  0.50400001928E-02 0. -1.
    10030    2    1    2    0    0  0.00000000000E+00  0.00000000000E+00  0.81509826242E+03  0.24423140163E+04  0.23022842086E+04 0.  0.
        1    1    3    3  502    0 -0.40663557985E+03  0.89335254478E+03 -0.23044245097E+03  0.10082335976E+04  0.50400001928E-02 0. -1.
       -1    1    3    3    0  502  0.40663557985E+03 -0.89335254478E+03  0.10455407134E+04  0.14340804188E+04  0.50400001928E-02 0.  1.
</event>
<event>
 5   0  0.1635955E-05  0.2428330E+04  0.7818609E-02  0.8428973E-01
       -2   -1    0    0    0  501  0.00000000000E+00  0.00000000000E+00  0.93668270907E+03  0.93668270907E+03  0.25500000920E-02 0. -1.
        2   -1    0    0  501    0  0.00000000000E+00  0.00000000000E+00 -0.15738481297E+04  0.15738481297E+04  0.25500000920E-02 0.  1.
    10030    2    1    2    0    0  0.00000000000E+00  0.00000000000E+00 -0.63716542066E+03  0.25105308388E+04  0.24283297386E+04 0.  0.
        2    1    3    3  502    0 -0.69992962886E+03 -0.94319033521E+03 -0.45411754256E+00  0.11745253084E+04  0.25500000920E-02 0.  1.
       -2    1    3    3    0  502  0.69992962886E+03  0.94319033521E+03 -0.63671130311E+03  0.13360055304E+04  0.25500000920E-02 0. -1.
</event>
<event>
 5   0  0.5704875E-06  0.2298957E+04  0.7818609E-02  0.8478333E-01
       -3   -1    0    0    0  501  0.00000000000E+00  0.00000000000E+00  0.10831569316E+04  0.10831569363E+04  0.10100000352E+00 0.  1.
        3   -1    0    0  501    0  0.00000000000E+00  0.00000000000E+00 -0.12198608048E+04  0.12198608090E+04  0.10100000352E+00 0. -1.
    10030    2    1    2    0    0  0.00000000000E+00  0.00000000000E+00 -0.13670387317E+03  0.23030177453E+04  0.22989568909E+04 0.  0.
        2    1    3    3  502    0 -0.10266185987E+04  0.46604566399E+03 -0.29270375027E+03  0.11648260787E+04  0.25500000920E-02 0. -1.
       -2    1    3    3    0  502  0.10266185987E+04 -0.46604566399E+03  0.15599987710E+03  0.11381916666E+04  0.25500000920E-02 0.  1.
</event>
<event>
 5   0  0.7391007E-06  0.2296863E+04  0.7818609E-02  0.8479159E-01
       -1   -1    0    0    0  501  0.00000000000E+00  0.00000000000E+00  0.10267315693E+04  0.10267315693E+04  0.50400001928E-02 0.  1.
        1   -1    0    0  501    0  0.00000000000E+00  0.00000000000E+00 -0.12845561774E+04  0.12845561774E+04  0.50400001928E-02 0. -1.
    10030    2    1    2    0    0  0.00000000000E+00  0.00000000000E+00 -0.25782460809E+03  0.23112877468E+04  0.22968625383E+04 0.  0.
        1    1    3    3  502    0  0.35971691839E+03  0.10786670189E+04  0.33269320817E+02  0.11375524809E+04  0.50400001928E-02 0.  1.
       -1    1    3    3    0  502 -0.35971691839E+03 -0.10786670189E+04 -0.29109392891E+03  0.11737352659E+04  0.50400001928E-02 0. -1.
</event>
<event>
 5   0  0.7183014E-06  0.2296268E+04  0.7818609E-02  0.8479394E-01
        1   -1    0    0  501    0  0.00000000000E+00  0.00000000000E+00  0.10565347210E+04  0.10565347210E+04  0.50400001928E-02 0. -1.
       -1   -1    0    0    0  501  0.00000000000E+00  0.00000000000E+00 -0.12476742450E+04  0.12476742450E+04  0.50400001928E-02 0.  1.
    10030    2    1    2    0    0  0.00000000000E+00  0.00000000000E+00 -0.19113952402E+03  0.23042089660E+04  0.22962675457E+04 0.  0.
        3    1    3    3  502    0 -0.65141905408E+03  0.83844476316E+03 -0.53397285518E+03  0.11884710451E+04  0.10100000352E+00 0.  1.
       -3    1    3    3    0  502  0.65141905408E+03 -0.83844476316E+03  0.34283333115E+03  0.11157379209E+04  0.10100000352E+00 0. -1.
</event>
<event>
 5   0  0.1602809E-05  0.2304869E+04  0.7818609E-02  0.8476004E-01
       -2   -1    0    0    0  501  0.00000000000E+00  0.00000000000E+00  0.95026491782E+03  0.95026491782E+03  0.25500000920E-02 0. -1.
        2   -1    0    0  501    0  0.00000000000E+00  0.00000000000E+00 -0.13976157380E+04  0.13976157380E+04  0.25500000920E-02 0.  1.
    10030    2    1    2    0    0  0.00000000000E+00  0.00000000000E+00 -0.44735082014E+03  0.23478806558E+04  0.23048689372E+04 0.  0.
        3    1    3    3  502    0 -0.13564579738E+03  0.61601040571E+03  0.75881086512E+03  0.98674340206E+03  0.10100000352E+00 0. -1.
       -3    1    3    3    0  502  0.13564579738E+03 -0.61601040571E+03 -0.12061616853E+04  0.13611372537E+04  0.10100000352E+00 0.  1.
</event>
<event>
 5   0  0.1626636E-05  0.2297036E+04  0.7818609E-02  0.8479091E-01
        2   -1    0    0  501    0  0.00000000000E+00  0.00000000000E+00  0.10090137349E+04  0.10090137349E+04  0.25500000920E-02 0.  1.
       -2   -1    0    0    0  501  0.00000000000E+00  0.00000000000E+00 -0.13073097588E+04  0.13073097588E+04  0.25500000920E-02 0. -1.
    10030    2    1    2    0    0  0.00000000000E+00  0.00000000000E+00 -0.29829602390E+03  0.23163234938E+04  0.22970359183E+04 0.  0.
        4    1    3    3  502    0  0.65293142497E+03 -0.93547441026E+03 -0.15140959023E+02  0.11409043253E+04  0.12699999809E+01 0.  1.
       -4    1    3    3    0  502 -0.65293142497E+03  0.93547441026E+03 -0.28315506488E+03  0.11754191685E+04  0.12699999809E+01 0. -1.
</event>
<event>
 5   0  0.7391007E-06  0.2300064E+04  0.7818609E-02  0.8477896E-01
        1   -1    0    0  501    0  0.00000000000E+00  0.00000000000E+00  0.14347830290E+04  0.14347830290E+04  0.50400001928E-02 0. -1.
       -1   -1    0    0    0  501  0.00000000000E+00  0.00000000000E+00 -0.92179334827E+03  0.92179334829E+03  0.50400001928E-02 0.  1.
    10030    2    1    2    0    0  0.00000000000E+00  0.00000000000E+00  0.51298968074E+03  0.23565763773E+04  0.23000638708E+04 0.  0.
        1    1    3    3  502    0  0.34169591347E+03  0.83546539522E+01 -0.86854996490E+03  0.93338359696E+03  0.50400001928E-02 0.  1.
       -1    1    3    3    0  502 -0.34169591347E+03 -0.83546539522E+01  0.13815396456E+04  0.14231927803E+04  0.50400001928E-02 0. -1.
</event>
<event>
 5   0  0.7278815E-06  0.2308939E+04  0.7818609E-02  0.8474405E-01
        1   -1    0    0  501    0  0.00000000000E+00  0.00000000000E+00  0.76841462053E+03  0.76841462054E+03  0.50400001928E-02 0. -1.
       -1   -1    0    0    0  501  0.00000000000E+00  0.00000000000E+00 -0.17344805630E+04  0.17344805630E+04  0.50400001928E-02 0.  1.
    10030    2    1    2    0    0  0.00000000000E+00  0.00000000000E+00 -0.96606594242E+03  0.25028951835E+04  0.23089393440E+04 0.  0.
        5    1    3    3  502    0 -0.93446425663E+03  0.62403576213E+03 -0.19595847522E+03  0.11406427545E+04  0.46999998093E+01 0. -1.
       -5    1    3    3    0  502  0.93446425663E+03 -0.62403576213E+03 -0.77010746720E+03  0.13622524290E+04  0.46999998093E+01 0.  1.
</event>
<event>
 5   0  0.1602809E-05  0.2303138E+04  0.7818609E-02  0.8476685E-01
        2   -1    0    0  501    0  0.00000000000E+00  0.00000000000E+00  0.14661589849E+04  0.14661589849E+04  0.25500000920E-02 0. -1.
       -2   -1    0    0    0  501  0.00000000000E+00  0.00000000000E+00 -0.90447959335E+03  0.90447959336E+03  0.25500000920E-02 0.  1.
    10030    2    1    2    0    0  0.00000000000E+00  0.00000000000E+00  0.56167939154E+03  0.23706385783E+04  0.23031377575E+04 0.  0.
        3    1    3    3  502    0  0.55550676532E+02  0.52199836346E+03 -0.77415988649E+03  0.93535646102E+03  0.10100000352E+00 0.  1.
       -3    1    3    3    0  502 -0.55550676532E+02 -0.52199836346E+03  0.13358392780E+04  0.14352821172E+04  0.10100000352E+00 0. -1.
</event>
<event>
 5   0  0.7416556E-06  0.2297168E+04  0.7818609E-02  0.8479039E-01
        1   -1    0    0  501    0  0.00000000000E+00  0.00000000000E+00  0.14113888051E+04  0.14113888051E+04  0.50400001928E-02 0.  1.
       -1   -1    0    0    0  501  0.00000000000E+00  0.00000000000E+00 -0.93471397642E+03  0.93471397643E+03  0.50400001928E-02 0. -1.
    10030    2    1    2    0    0  0.00000000000E+00  0.00000000000E+00  0.47667482866E+03  0.23461027815E+04  0.22971676842E+04 0.  0.
        4    1    3    3  502    0 -0.36213887245E+03 -0.29160038913E+03  0.13109810381E+04  0.13909882261E+04  0.12699999809E+01 0.  1.
       -4    1    3    3    0  502  0.36213887245E+03  0.29160038913E+03 -0.83430620948E+03  0.95511455541E+03  0.12699999809E+01 0. -1.
</event>
<event>
 5   0  0.1602809E-05  0.2298793E+04  0.7818609E-02  0.8478397E-01
       -2   -1    0    0    0  501  0.00000000000E+00  0.00000000000E+00  0.52018478219E+03  0.52018478220E+03  0.25500000920E-02 0. -1.
        2   -1    0    0  501    0  0.00000000000E+00  0.00000000000E+00 -0.25396989673E+04  0.25396989673E+04  0.25500000920E-02 0.  1.
    10030    2    1    2    0    0  0.00000000000E+00  0.00000000000E+00 -0.20195141851E+04  0.30598837495E+04  0.22987933827E+04 0.  0.
        3    1    3    3  502    0 -0.91176959629E+03  0.36809519834E+03 -0.21746116762E+03  0.10070289179E+04  0.10100000352E+00 0. -1.
       -3    1    3    3    0  502  0.91176959629E+03 -0.36809519834E+03 -0.18020530175E+04  0.20528548316E+04  0.10100000352E+00 0.  1.
</event>
<event>
 5   0  0.7278815E-06  0.2299040E+04  0.7818609E-02  0.8478300E-01
       -1   -1    0    0    0  501  0.00000000000E+00  0.00000000000E+00  0.96336077835E+03  0.96336077836E+03  0.50400001928E-02 0.  1.
        1   -1    0    0  501    0  0.00000000000E+00  0.00000000000E+00 -0.13716527807E+04  0.13716527807E+04  0.50400001928E-02 0. -1.
    10030    2    1    2    0    0  0.00000000000E+00  0.00000000000E+00 -0.40829200235E+03  0.23350135591E+04  0.22990402262E+04 0.  0.
        5    1    3    3  502    0 -0.86882514710E+03  0.44726391015E+03  0.41069580430E+03  0.10599977713E+04  0.46999998093E+01 0. -1.
       -5    1    3    3    0  502  0.86882514710E+03 -0.44726391015E+03 -0.81898780665E+03  0.12750157877E+04  0.46999998093E+01 0.  1.
</event>
<event>
 5   0  0.7202572E-06  0.2302881E+04  0.7818609E-02  0.8476786E-01
       -1   -1    0    0    0  501  0.00000000000E+00  0.00000000000E+00  0.13857140386E+04  0.13857140386E+04  0.50400001928E-02 0.  1.
        1   -1    0    0  501    0  0.00000000000E+00  0.00000000000E+00 -0.95677392675E+03  0.95677392676E+03  0.50400001928E-02 0. -1.
    10030    2    1    2    0    0  0.00000000000E+00  0.00000000000E+00  0.42894011184E+03  0.23424879654E+04  0.23028808585E+04 0.  0.
        2    1    3    3  502    0  0.42872793321E+03 -0.95382575371E+03 -0.27571414741E+03  0.10814848590E+04  0.25500000920E-02 0. -1.
       -2    1    3    3    0  502 -0.42872793321E+03  0.95382575371E+03  0.70465425925E+03  0.12610031064E+04  0.25500000920E-02 0.  1.
</event>
<event>
 5   0  0.1697855E-05  0.2302092E+04  0.7818609E-02  0.8477097E-01
       -2   -1    0    0    0  501  0.00000000000E+00  0.00000000000E+00  0.24822480556E+04  0.24822480556E+04  0.25500000920E-02 0. -1.
        2   -1    0    0  501    0  0.00000000000E+00  0.00000000000E+00 -0.53375279663E+03  0.53375279664E+03  0.25500000920E-02 0.  1.
    10030    2    1    2    0    0  0.00000000000E+00  0.00000000000E+00  0.19484952590E+04  0.30160008523E+04  0.23020919544E+04 0.  0.
        5    1    3    3  502    0  0.43590324287E+03  0.10408344401E+04  0.12716657637E+04  0.17001481916E+04  0.46999998093E+01 0. -1.
       -5    1    3    3    0  502 -0.43590324287E+03 -0.10408344401E+04  0.67682949531E+03  0.13158526607E+04  0.46999998093E+01 0.  1.
</event>
<event>
 5   0  0.7391007E-06  0.2301177E+04  0.7818609E-02  0.8477457E-01
       -1   -1    0    0    0  501  0.00000000000E+00  0.00000000000E+00  0.13357719616E+04  0.13357719616E+04  0.50400001928E-02 0. -1.
        1   -1    0    0  501    0  0.00000000000E+00  0.00000000000E+00 -0.99107764354E+03  0.99107764356E+03  0.50400001928E-02 0.  1.
    10030    2    1    2    0    0  0.00000000000E+00  0.00000000000E+00  0.34469431809E+03  0.23268496052E+04  0.23011768538E+04 0.  0.
        1    1    3    3  502    0 -0.43949148699E+03  0.34379139025E+03 -0.84511354003E+03  0.10127004408E+04  0.50400001928E-02 0.  1.
       -1    1    3    3    0  502  0.43949148699E+03 -0.34379139025E+03  0.11898078581E+04  0.13141491644E+04  0.50400001928E-02 0. -1.
</event>
<event>
 5   0  0.7391007E-06  0.2305963E+04  0.7818609E-02  0.8475574E-01
       -1   -1    0    0    0  501  0.00000000000E+00  0.00000000000E+00  0.10267168784E+04  0.10267168784E+04  0.50400001928E-02 0.  1.
        1   -1    0    0  501    0  0.00000000000E+00  0.00000000000E+00 -0.12947745044E+04  0.12947745044E+04  0.50400001928E-02 0. -1.
    10030    2    1    2    0    0  0.00000000000E+00  0.00000000000E+00 -0.26805762601E+03  0.23214913828E+04  0.23059634320E+04 0.  0.
        1    1    3    3  502    0  0.10030906093E+04  0.29867055716E+03  0.35293486765E+03  0.11045170406E+04  0.50400001928E-02 0.  1.
       -1    1    3    3    0  502 -0.10030906093E+04 -0.29867055716E+03 -0.62099249366E+03  0.12169743422E+04  0.50400001928E-02 0. -1.
</event>
<event>
 5   0  0.1602809E-05  0.2462205E+04  0.7818609E-02  0.8416575E-01
        2   -1    0    0  501    0  0.00000000000E+00  0.00000000000E+00  0.13970748235E+04  0.13970748235E+04  0.25500000920E-02 0. -1.
       -2   -1    0    0    0  501  0.00000000000E+00  0.00000000000E+00 -0.10848480455E+04  0.10848480455E+04  0.25500000920E-02 0.  1.
    10030    2    1    2    0    0  0.00000000000E+00  0.00000000000E+00  0.31222677798E+03  0.24819228690E+04  0.24622054274E+04 0.  0.
        3    1    3    3  502    0  0.31176612103E+03 -0.48112128958E+03 -0.94207798135E+03  0.11028085703E+04  0.10100000352E+00 0.  1.
       -3    1    3    3    0  502 -0.31176612103E+03  0.48112128958E+03  0.12543047593E+04  0.13791142987E+04  0.10100000352E+00 0. -1.
</event>
<event>
 5   0  0.7416556E-06  0.2300482E+04  0.7818609E-02  0.8477731E-01
        1   -1    0    0  501    0  0.00000000000E+00  0.00000000000E+00  0.14727192131E+04  0.14727192131E+04  0.50400001928E-02 0.  1.
       -1   -1    0    0    0  501  0.00000000000E+00  0.00000000000E+00 -0.89837485552E+03  0.89837485554E+03  0.50400001928E-02 0. -1.
    10030    2    1    2    0    0  0.00000000000E+00  0.00000000000E+00  0.57434435760E+03  0.23710940687E+04  0.23004816107E+04 0.  0.
        4    1    3    3  502    0  0.32163907726E+02  0.10358837289E+04 -0.22710487114E+03  0.10609749535E+04  0.12699999809E+01 0. -1.
       -4    1    3    3    0  502 -0.32163907726E+02 -0.10358837289E+04  0.80144922874E+03  0.13101191151E+04  0.12699999809E+01 0.  1.
</event>
<event>
 5   0  0.7391007E-06  0.2295603E+04  0.7818609E-02  0.8479657E-01
       -1   -1    0    0    0  501  0.00000000000E+00  0.00000000000E+00  0.28793613683E+04  0.28793613683E+04  0.50400001928E-02 0.  1.
        1   -1    0    0  501    0  0.00000000000E+00  0.00000000000E+00 -0.45754889006E+03  0.45754889009E+03  0.50400001928E-02 0. -1.
    10030    2    1    2    0    0  0.00000000000E+00  0.00000000000E+00  0.24218124782E+04  0.33369102584E+04  0.22956032743E+04 0.  0.
        1    1    3    3  502    0  0.21080635790E+03 -0.66339178230E+02 -0.42633049943E+03  0.48020610353E+03  0.50400001928E-02 0. -1.
       -1    1    3    3    0  502 -0.21080635790E+03  0.66339178230E+02  0.28481429777E+04  0.28567041549E+04  0.50400001928E-02 0.  1.
</event>
<event>
 5   0  0.1697855E-05  0.2307911E+04  0.7818609E-02  0.8474808E-01
        2   -1    0    0  501    0  0.00000000000E+00  0.00000000000E+00  0.82813170883E+03  0.82813170884E+03  0.25500000920E-02 0.  1.
       -2   -1    0    0    0  501  0.00000000000E+00  0.00000000000E+00 -0.16079727965E+04  0.16079727965E+04  0.25500000920E-02 0. -1.
    10030    2    1    2    0    0  0.00000000000E+00  0.00000000000E+00 -0.77984108766E+03  0.24361045053E+04  0.23079109686E+04 0.  0.
        5    1    3    3  502    0 -0.51567196563E+03  0.74665209329E+03 -0.11423875504E+04  0.14589305432E+04  0.46999998093E+01 0. -1.
       -5    1    3    3    0  502  0.51567196563E+03 -0.74665209329E+03  0.36254646278E+03  0.97717396211E+03  0.46999998093E+01 0.  1.
</event>
<event>
 5   0  0.7278815E-06  0.2300984E+04  0.7818609E-02  0.8477533E-01
        1   -1    0    0  501    0  0.00000000000E+00  0.00000000000E+00  0.18095142746E+04  0.18095142746E+04  0.50400001928E-02 0. -1.
       -1   -1    0    0    0  501  0.00000000000E+00  0.00000000000E+00 -0.73148437086E+03  0.73148437088E+03  0.50400001928E-02 0.  1.
    10030    2    1    2    0    0  0.00000000000E+00  0.00000000000E+00  0.10780299037E+04  0.25409986455E+04  0.23009836251E+04 0.  0.
        5    1    3    3  502    0  0.48960896831E+03  0.10178463052E+04  0.78065770306E+03  0.13730173277E+04  0.46999998093E+01 0. -1.
       -5    1    3    3    0  502 -0.48960896831E+03 -0.10178463052E+04  0.29737220065E+03  0.11679813177E+04  0.46999998093E+01 0.  1.
</event>
<event>
 5   0  0.1602809E-05  0.2314515E+04  0.7818609E-02  0.8472220E-01
       -2   -1    0    0    0  501  0.00000000000E+00  0.00000000000E+00  0.11937566605E+04  0.11937566605E+04  0.25500000920E-02 0.  1.
        2   -1    0    0  501    0  0.00000000000E+00  0.00000000000E+00 -0.11218740726E+04  0.11218740726E+04  0.25500000920E-02 0. -1.
    10030    2    1    2    0    0  0.00000000000E+00  0.00000000000E+00  0.71882587840E+02  0.23156307331E+04  0.23145147625E+04 0.  0.
        3    1    3    3  502    0  0.14068277709E+03  0.44282954763E+02  0.11843152780E+04  0.11934635779E+04  0.10100000352E+00 0.  1.
       -3    1    3    3    0  502 -0.14068277709E+03 -0.44282954763E+02 -0.11124326902E+04  0.11221671552E+04  0.10100000352E+00 0. -1.
</event>
<event>
 5   0  0.7202572E-06  0.2258186E+04  0.7818609E-02  0.8494593E-01
       -1   -1    0    0    0  501  0.00000000000E+00  0.00000000000E+00  0.85615315322E+03  0.85615315324E+03  0.50400001928E-02 0.  1.
        1   -1    0    0  501    0  0.00000000000E+00  0.00000000000E+00 -0.14890450505E+04  0.14890450505E+04  0.50400001928E-02 0. -1.
    10030    2    1    2    0    0  0.00000000000E+00  0.00000000000E+00 -0.63289189724E+03  0.23451982037E+04  0.22581856569E+04 0.  0.
        2    1    3    3  502    0 -0.41658598857E+03  0.97950335434E+03  0.74737397889E+02  0.10670315767E+04  0.25500000920E-02 0.  1.
       -2    1    3    3    0  502  0.41658598857E+03 -0.97950335434E+03 -0.70762929513E+03  0.12781666270E+04  0.25500000920E-02 0. -1.
</event>
<event>
 5   0  0.7416556E-06  0.2303467E+04  0.7818609E-02  0.8476555E-01
       -1   -1    0    0    0  501  0.00000000000E+00  0.00000000000E+00  0.80891972685E+03  0.80891972687E+03  0.50400001928E-02 0.  1.
        1   -1    0    0  501    0  0.00000000000E+00  0.00000000000E+00 -0.16398289863E+04  0.16398289864E+04  0.50400001928E-02 0. -1.
    10030    2    1    2    0    0  0.00000000000E+00  0.00000000000E+00 -0.83090925949E+03  0.24487487132E+04  0.23034669659E+04 0.  0.
        4    1    3    3  502    0 -0.70534023506E+03  0.66715308909E+03 -0.10741214824E+04  0.14478731517E+04  0.12699999809E+01 0. -1.
       -4    1    3    3    0  502  0.70534023506E+03 -0.66715308909E+03  0.24321222288E+03  0.10008755616E+04  0.12699999809E+01 0.  1.
</event>
<event>
 5   0  0.7391007E-06  0.2302328E+04  0.7818609E-02  0.8477004E-01
       -1   -1    0    0    0  501  0.00000000000E+00  0.00000000000E+00  0.13900258989E+04  0.13900258989E+04  0.50400001928E-02 0. -1.
        1   -1    0    0  501    0  0.00000000000E+00  0.00000000000E+00 -0.95334803273E+03  0.95334803275E+03  0.50400001928E-02 0.  1.
    10030    2    1    2    0    0  0.00000000000E+00  0.00000000000E+00  0.43667786617E+03  0.23433739317E+04  0.23023279143E+04 0.  0.
        1    1    3    3  502    0  0.51296062397E+03  0.68181245609E+03 -0.56821342053E+03  0.10251162462E+04  0.50400001928E-02 0.  1.
       -1    1    3    3    0  502 -0.51296062397E+03 -0.68181245609E+03  0.10048912867E+04  0.13182576854E+04  0.50400001928E-02 0. -1.
</event>
<event>
 5   0  0.7416556E-06  0.2320318E+04  0.7818609E-02  0.8469953E-01
       -1   -1    0    0    0  501  0.00000000000E+00  0.00000000000E+00  0.97842506713E+03  0.97842506714E+03  0.50400001928E-02 0. -1.
        1   -1    0    0  501    0  0.00000000000E+00  0.00000000000E+00 -0.13756487529E+04  0.13756487529E+04  0.50400001928E-02 0.  1.
    10030    2    1    2    0    0  0.00000000000E+00  0.00000000000E+00 -0.39722368573E+03  0.23540738200E+04  0.23203182742E+04 0.  0.
        4    1    3    3  502    0 -0.99004165233E+02 -0.69485567599E+03  0.73859169379E+03  0.10188942724E+04  0.12699999809E+01 0. -1.
       -4    1    3    3    0  502  0.99004165233E+02  0.69485567599E+03 -0.11358153795E+04  0.13351795476E+04  0.12699999809E+01 0.  1.
</event>
<event>
 5   0  0.1635955E-05  0.2291533E+04  0.7818609E-02  0.8481267E-01
       -2   -1    0    0    0  501  0.00000000000E+00  0.00000000000E+00  0.69895113872E+03  0.69895113873E+03  0.25500000920E-02 0. -1.
        2   -1    0    0  501    0  0.00000000000E+00  0.00000000000E+00 -0.18782148498E+04  0.18782148498E+04  0.25500000920E-02 0.  1.
    10030    2    1    2    0    0  0.00000000000E+00  0.00000000000E+00 -0.11792637111E+04  0.25771659885E+04  0.22915325946E+04 0.  0.
        2    1    3    3  502    0  0.30505693574E+03 -0.10543706990E+03 -0.18260299061E+04  0.18543359803E+04  0.25500000920E-02 0.  1.
       -2    1    3    3    0  502 -0.30505693574E+03  0.10543706990E+03  0.64676619505E+03  0.72283000824E+03  0.25500000920E-02 0. -1.
</event>
<event>
 5   0  0.1588969E-05  0.2301816E+04  0.7818609E-02  0.8477205E-01
       -2   -1    0    0    0  501  0.00000000000E+00  0.00000000000E+00  0.80025789795E+03  0.80025789795E+03  0.25500000920E-02 0. -1.
        2   -1    0    0  501    0  0.00000000000E+00  0.00000000000E+00 -0.16552035225E+04  0.16552035225E+04  0.25500000920E-02 0.  1.
    10030    2    1    2    0    0  0.00000000000E+00  0.00000000000E+00 -0.85494562456E+03  0.24554614205E+04  0.23018164059E+04 0.  0.
        1    1    3    3  502    0  0.62029267242E+03  0.96515911879E+03 -0.52462650400E+03  0.12615578040E+04  0.50400001928E-02 0. -1.
       -1    1    3    3    0  502 -0.62029267242E+03 -0.96515911879E+03 -0.33031912057E+03  0.11939036165E+04  0.50400001928E-02 0.  1.
</event>
<event>
 5   0  0.1602809E-05  0.2299069E+04  0.7818609E-02  0.8478288E-01
       -2   -1    0    0    0  501  0.00000000000E+00  0.00000000000E+00  0.53825645498E+03  0.53825645498E+03  0.25500000920E-02 0. -1.
        2   -1    0    0  501    0  0.00000000000E+00  0.00000000000E+00 -0.24550178111E+04  0.24550178111E+04  0.25500000920E-02 0.  1.
    10030    2    1    2    0    0  0.00000000000E+00  0.00000000000E+00 -0.19167613561E+04  0.29932742661E+04  0.22990686670E+04 0.  0.
        3    1    3    3  502    0 -0.65537643084E+03  0.59594833057E+03 -0.19122375731E+04  0.21074451891E+04  0.10100000352E+00 0.  1.
       -3    1    3    3    0  502  0.65537643084E+03 -0.59594833057E+03 -0.45237830054E+01  0.88582907698E+03  0.10100000352E+00 0. -1.
</event>
<event>
 5   0  0.1588969E-05  0.2320845E+04  0.7818609E-02  0.8469747E-01
        2   -1    0    0  501    0  0.00000000000E+00  0.00000000000E+00  0.15733742643E+04  0.15733742643E+04  0.25500000920E-02 0. -1.
       -2   -1    0    0    0  501  0.00000000000E+00  0.00000000000E+00 -0.85585501968E+03  0.85585501969E+03  0.25500000920E-02 0.  1.
    10030    2    1    2    0    0  0.00000000000E+00  0.00000000000E+00  0.71751924461E+03  0.24292292840E+04  0.23208448995E+04 0.  0.
        1    1    3    3  502    0  0.71193837246E+03  0.12268859327E+03 -0.59176394559E+03  0.93385936009E+03  0.50400001928E-02 0.  1.
       -1    1    3    3    0  502 -0.71193837246E+03 -0.12268859327E+03  0.13092831902E+04  0.14953699239E+04  0.50400001928E-02 0. -1.
</event>
<event>
 5   0  0.1626636E-05  0.2310920E+04  0.7818609E-02  0.8473628E-01
       -2   -1    0    0    0  501  0.00000000000E+00  0.00000000000E+00  0.10687367584E+04  0.10687367584E+04  0.25500000920E-02 0. -1.
        2   -1    0    0  501    0  0.00000000000E+00  0.00000000000E+00 -0.12492206803E+04  0.12492206803E+04  0.25500000920E-02 0.  1.
    10030    2    1    2    0    0  0.00000000000E+00  0.00000000000E+00 -0.18048392187E+03  0.23179574387E+04  0.23109202154E+04 0.  0.
        4    1    3    3  502    0 -0.23534124617E+03 -0.10858982296E+04 -0.40826579159E+03  0.11837411189E+04  0.12699999809E+01 0.  1.
       -4    1    3    3    0  502  0.23534124617E+03  0.10858982296E+04  0.22778186972E+03  0.11342163198E+04  0.12699999809E+01 0. -1.
</event>
<event>
 5   0  0.7183014E-06  0.2319711E+04  0.7818609E-02  0.8470190E-01
       -1   -1    0    0    0  501  0.00000000000E+00  0.00000000000E+00  0.14402396418E+04  0.14402396418E+04  0.50400001928E-02 0.  1.
        1   -1    0    0  501    0  0.00000000000E+00  0.00000000000E+00 -0.93405593399E+03  0.93405593401E+03  0.50400001928E-02 0. -1.
    10030    2    1    2    0    0  0.00000000000E+00  0.00000000000E+00  0.50618370784E+03  0.23742955758E+04  0.23197106577E+04 0.  0.
        3    1    3    3  502    0  0.43733837936E+03  0.49146252543E+01 -0.84641827291E+03  0.95273968875E+03  0.10100000352E+00 0. -1.
       -3    1    3    3    0  502 -0.43733837936E+03 -0.49146252543E+01  0.13526019808E+04  0.14215558871E+04  0.10100000352E+00 0.  1.
</event>
<event>
 5   0  0.7391007E-06  0.2297115E+04  0.7818609E-02  0.8479059E-01
       -1   -1    0    0    0  501  0.00000000000E+00  0.00000000000E+00  0.63735576235E+03  0.63735576237E+03  0.50400001928E-02 0. -1.
        1   -1    0    0  501    0  0.00000000000E+00  0.00000000000E+00 -0.20697771799E+04  0.20697771799E+04  0.50400001928E-02 0.  1.
    10030    2    1    2    0    0  0.00000000000E+00  0.00000000000E+00 -0.14324214175E+04  0.27071329423E+04  0.22971150711E+04 0.  0.
        1    1    3    3  502    0 -0.57252633629E+03 -0.42023279772E+03 -0.17799935550E+04  0.19164443811E+04  0.50400001928E-02 0.  1.
       -1    1    3    3    0  502  0.57252633629E+03  0.42023279772E+03  0.34757213744E+03  0.79068856118E+03  0.50400001928E-02 0. -1.
</event>
<event>
 5   0  0.5704875E-06  0.2295493E+04  0.7818609E-02  0.8479700E-01
        3   -1    0    0  501    0  0.00000000000E+00  0.00000000000E+00  0.11765156334E+04  0.11765156377E+04  0.10100000352E+00 0.  1.
       -3   -1    0    0    0  501  0.00000000000E+00  0.00000000000E+00 -0.11196809178E+04  0.11196809223E+04  0.10100000352E+00 0. -1.
    10030    2    1    2    0    0  0.00000000000E+00  0.00000000000E+00  0.56834715598E+02  0.22961965600E+04  0.22954930750E+04 0.  0.
        4    1    3    3  502    0 -0.53669810528E+03 -0.16148436037E+03  0.10303222577E+04  0.11728971065E+04  0.12699999809E+01 0.  1.
       -4    1    3    3    0  502  0.53669810528E+03  0.16148436037E+03 -0.97348754208E+03  0.11232994535E+04  0.12699999809E+01 0. -1.
</event>
<event>
 5   0  0.7391007E-06  0.2293308E+04  0.7818609E-02  0.8480564E-01
        1   -1    0    0  501    0  0.00000000000E+00  0.00000000000E+00  0.78575007320E+03  0.78575007321E+03  0.50400001928E-02 0.  1.
       -1   -1    0    0    0  501  0.00000000000E+00  0.00000000000E+00 -0.16733254385E+04  0.16733254385E+04  0.50400001928E-02 0. -1.
    10030    2    1    2    0    0  0.00000000000E+00  0.00000000000E+00 -0.88757536528E+03  0.24590755117E+04  0.22933081658E+04 0.  0.
        1    1    3    3  502    0 -0.10108270306E+04 -0.12518273696E+03  0.12094379454E+03  0.10257043458E+04  0.50400001928E-02 0.  1.
       -1    1    3    3    0  502  0.10108270306E+04  0.12518273696E+03 -0.10085191598E+04  0.14333711659E+04  0.50400001928E-02 0. -1.
</event>
<event>
 5   0  0.7416556E-06  0.2353974E+04  0.7818609E-02  0.8456939E-01
        1   -1    0    0  501    0  0.00000000000E+00  0.00000000000E+00  0.99296865731E+03  0.99296865732E+03  0.50400001928E-02 0. -1.
       -1   -1    0    0    0  501  0.00000000000E+00  0.00000000000E+00 -0.13951081448E+04  0.13951081448E+04  0.50400001928E-02 0.  1.
    10030    2    1    2    0    0  0.00000000000E+00  0.00000000000E+00 -0.40213948751E+03  0.23880768021E+04  0.23539742236E+04 0.  0.
        4    1    3    3  502    0 -0.84485325027E+03 -0.31838806979E+03  0.56495147097E+03  0.10650444850E+04  0.12699999809E+01 0. -1.
       -4    1    3    3    0  502  0.84485325027E+03  0.31838806979E+03 -0.96709095847E+03  0.13230323172E+04  0.12699999809E+01 0.  1.
</event>
<event>
 5   0  0.7183014E-06  0.2303965E+04  0.7818609E-02  0.8476359E-01
        1   -1    0    0  501    0  0.00000000000E+00  0.00000000000E+00  0.25525452560E+04  0.25525452560E+04  0.50400001928E-02 0. -1.
       -1   -1    0    0    0  501  0.00000000000E+00  0.00000000000E+00 -0.51989842081E+03  0.51989842083E+03  0.50400001928E-02 0.  1.
    10030    2    1    2    0    0  0.00000000000E+00  0.00000000000E+00  0.20326468352E+04  0.30724436768E+04  0.23039654925E+04 0.  0.
        3    1    3    3  502    0 -0.55013427591E+03 -0.51968610722E+03 -0.14190003280E+03  0.76997207812E+03  0.10100000352E+00 0.  1.
       -3    1    3    3    0  502  0.55013427591E+03  0.51968610722E+03  0.21745468680E+04  0.23024715987E+04  0.10100000352E+00 0. -1.
</event>
<event>
 5   0  0.1626636E-05  0.2293980E+04  0.7818609E-02  0.8480299E-01
        2   -1    0    0  501    0  0.00000000000E+00  0.00000000000E+00  0.16157147229E+04  0.16157147229E+04  0.25500000920E-02 0.  1.
       -2   -1    0    0    0  501  0.00000000000E+00  0.00000000000E+00 -0.81424372792E+03  0.81424372793E+03  0.25500000920E-02 0. -1.
    10030    2    1    2    0    0  0.00000000000E+00  0.00000000000E+00  0.80147099495E+03  0.24299584508E+04  0.22939795807E+04 0.  0.
        4    1    3    3  502    0 -0.59242390475E+03 -0.83735235113E+03 -0.14297254413E+03  0.10356484945E+04  0.12699999809E+01 0. -1.
       -4    1    3    3    0  502  0.59242390475E+03  0.83735235113E+03  0.94444353908E+03  0.13943099563E+04  0.12699999809E+01 0.  1.
</event>
<event>
 5   0  0.7202572E-06  0.2276929E+04  0.7818609E-02  0.8487074E-01
       -1   -1    0    0    0  501  0.00000000000E+00  0.00000000000E+00  0.12406130572E+04  0.12406130572E+04  0.50400001928E-02 0.  1.
        1   -1    0    0  501    0  0.00000000000E+00  0.00000000000E+00 -0.10447265905E+04  0.10447265905E+04  0.50400001928E-02 0. -1.
    10030    2    1    2    0    0  0.00000000000E+00  0.00000000000E+00  0.19588646667E+03  0.22853396477E+04  0.22769290278E+04 0.  0.
        2    1    3    3  502    0 -0.89049057222E+03  0.56304886310E+03  0.53093444017E+03  0.11797833959E+04  0.25500000920E-02 0.  1.
       -2    1    3    3    0  502  0.89049057222E+03 -0.56304886310E+03 -0.33504797349E+03  0.11055562518E+04  0.25500000920E-02 0. -1.
</event>
<event>
 5   0  0.7183014E-06  0.2266284E+04  0.7818609E-02  0.8491335E-01
        1   -1    0    0  501    0  0.00000000000E+00  0.00000000000E+00  0.87454929084E+03  0.87454929086E+03  0.50400001928E-02 0.  1.
       -1   -1    0    0    0  501  0.00000000000E+00  0.00000000000E+00 -0.14681974062E+04  0.14681974062E+04  0.50400001928E-02 0. -1.
    10030    2    1    2    0    0  0.00000000000E+00  0.00000000000E+00 -0.59364811531E+03  0.23427466970E+04  0.22662841838E+04 0.  0.
        3    1    3    3  502    0  0.24505250071E+03 -0.80410189983E+03  0.48866833562E+03  0.97233088291E+03  0.10100000352E+00 0.  1.
       -3    1    3    3    0  502 -0.24505250071E+03  0.80410189983E+03 -0.10823164509E+04  0.13704158141E+04  0.10100000352E+00 0. -1.
</event>
<event>
 5   0  0.1697855E-05  0.2322599E+04  0.7818609E-02  0.8469063E-01
        2   -1    0    0  501    0  0.00000000000E+00  0.00000000000E+00  0.25381386567E+04  0.25381386567E+04  0.25500000920E-02 0.  1.
       -2   -1    0    0    0  501  0.00000000000E+00  0.00000000000E+00 -0.53134093259E+03  0.53134093260E+03  0.25500000920E-02 0. -1.
    10030    2    1    2    0    0  0.00000000000E+00  0.00000000000E+00  0.20067977241E+04  0.30694795893E+04  0.23225993722E+04 0.  0.
        5    1    3    3  502    0  0.15465462298E+03 -0.10059100498E+04  0.17425596915E+04  0.20179963947E+04  0.46999998093E+01 0.  1.
       -5    1    3    3    0  502 -0.15465462298E+03  0.10059100498E+04  0.26423803262E+03  0.10514831946E+04  0.46999998093E+01 0. -1.
</event>
<event>
 5   0  0.7202572E-06  0.2285713E+04  0.7818609E-02  0.8483576E-01
        1   -1    0    0  501    0  0.00000000000E+00  0.00000000000E+00  0.19715953981E+04  0.19715953981E+04  0.50400001928E-02 0.  1.
       -1   -1    0    0    0  501  0.00000000000E+00  0.00000000000E+00 -0.66246919436E+03  0.66246919438E+03  0.50400001928E-02 0. -1.
    10030    2    1    2    0    0  0.00000000000E+00  0.00000000000E+00  0.13091262037E+04  0.26340645924E+04  0.22857132060E+04 0.  0.
        2    1    3    3  502    0 -0.73019555936E+03  0.70440429429E+03  0.48317369842E+02  0.10157290647E+04  0.25500000920E-02 0. -1.
       -2    1    3    3    0  502  0.73019555936E+03 -0.70440429429E+03  0.12608088339E+04  0.16183355277E+04  0.25500000920E-02 0.  1.
</event>
<event>
 5   0  0.7278815E-06  0.2320110E+04  0.7818609E-02  0.8470034E-01
        1   -1    0    0  501    0  0.00000000000E+00  0.00000000000E+00  0.12084699164E+04  0.12084699164E+04  0.50400001928E-02 0.  1.
       -1   -1    0    0    0  501  0.00000000000E+00  0.00000000000E+00 -0.11135801597E+04  0.11135801597E+04  0.50400001928E-02 0. -1.
    10030    2    1    2    0    0  0.00000000000E+00  0.00000000000E+00  0.94889756705E+02  0.23220500761E+04  0.23201104478E+04 0.  0.
        5    1    3    3  502    0  0.73847128378E+03  0.10969932331E+03  0.93606791841E+03  0.11973383049E+04  0.46999998093E+01 0.  1.
       -5    1    3    3    0  502 -0.73847128378E+03 -0.10969932331E+03 -0.84117816170E+03  0.11247117712E+04  0.46999998093E+01 0. -1.
</event>
<event>
 5   0  0.7278815E-06  0.2299495E+04  0.7818609E-02  0.8478120E-01
        1   -1    0    0  501    0  0.00000000000E+00  0.00000000000E+00  0.16989225181E+04  0.16989225181E+04  0.50400001928E-02 0.  1.
       -1   -1    0    0    0  501  0.00000000000E+00  0.00000000000E+00 -0.77809268537E+03  0.77809268539E+03  0.50400001928E-02 0. -1.
    10030    2    1    2    0    0  0.00000000000E+00  0.00000000000E+00  0.92082983273E+03  0.24770152035E+04  0.22994948875E+04 0.  0.
        5    1    3    3  502    0  0.38207326617E+03  0.24161183541E+03  0.15991636957E+04  0.16618371988E+04  0.46999998093E+01 0.  1.
       -5    1    3    3    0  502 -0.38207326617E+03 -0.24161183541E+03 -0.67833386295E+03  0.81517800470E+03  0.46999998093E+01 0. -1.
</event>
<event>
 5   0  0.1635955E-05  0.2289948E+04  0.7818609E-02  0.8481895E-01
       -2   -1    0    0    0  501  0.00000000000E+00  0.00000000000E+00  0.48984586415E+03  0.48984586416E+03  0.25500000920E-02 0.  1.
        2   -1    0    0  501    0  0.00000000000E+00  0.00000000000E+00 -0.26762817446E+04  0.26762817446E+04  0.25500000920E-02 0. -1.
    10030    2    1    2    0    0  0.00000000000E+00  0.00000000000E+00 -0.21864358805E+04  0.31661276088E+04  0.22899480727E+04 0.  0.
        2    1    3    3  502    0 -0.35147701758E+03  0.14360749525E+03 -0.25867074283E+04  0.26144243203E+04  0.25500000920E-02 0. -1.
       -2    1    3    3    0  502  0.35147701758E+03 -0.14360749525E+03  0.40027154783E+03  0.55170328854E+03  0.25500000920E-02 0.  1.
</event>
<event>
 5   0  0.1635955E-05  0.2296879E+04  0.7818609E-02  0.8479153E-01
        2   -1    0    0  501    0  0.00000000000E+00  0.00000000000E+00  0.11145151105E+04  0.11145151105E+04  0.25500000920E-02 0. -1.
       -2   -1    0    0    0  501  0.00000000000E+00  0.00000000000E+00 -0.11833967341E+04  0.11833967341E+04  0.25500000920E-02 0.  1.
    10030    2    1    2    0    0  0.00000000000E+00  0.00000000000E+00 -0.68881623581E+02  0.22979118446E+04  0.22968792236E+04 0.  0.
        2    1    3    3  502    0  0.39591522218E+03 -0.10503844565E+04  0.20827322926E+03  0.11416803877E+04  0.25500000920E-02 0. -1.
       -2    1    3    3    0  502 -0.39591522218E+03  0.10503844565E+04 -0.27715485284E+03  0.11562314569E+04  0.25500000920E-02 0.  1.
</event>
<event>
 5   0  0.1602809E-05  0.2301987E+04  0.7818609E-02  0.8477138E-01
        2   -1    0    0  501    0  0.00000000000E+00  0.00000000000E+00  0.87524590397E+03  0.87524590397E+03  0.25500000920E-02 0. -1.
       -2   -1    0    0    0  501  0.00000000000E+00  0.00000000000E+00 -0.15136159465E+04  0.15136159465E+04  0.25500000920E-02 0.  1.
    10030    2    1    2    0    0  0.00000000000E+00  0.00000000000E+00 -0.63837004251E+03  0.23888618505E+04  0.23019871045E+04 0.  0.
        3    1    3    3  502    0 -0.10608174423E+04  0.44201881985E+03 -0.25296569097E+03  0.11767352863E+04  0.10100000352E+00 0. -1.
       -3    1    3    3    0  502  0.10608174423E+04 -0.44201881985E+03 -0.38540435155E+03  0.12121265641E+04  0.10100000352E+00 0.  1.
</event>
<event>
 5   0  0.1626636E-05  0.2294264E+04  0.7818609E-02  0.8480186E-01
       -2   -1    0    0    0  501  0.00000000000E+00  0.00000000000E+00  0.84558715464E+03  0.84558715464E+03  0.25500000920E-02 0.  1.
        2   -1    0    0  501    0  0.00000000000E+00  0.00000000000E+00 -0.15562107772E+04  0.15562107772E+04  0.25500000920E-02 0. -1.
    10030    2    1    2    0    0  0.00000000000E+00  0.00000000000E+00 -0.71062362259E+03  0.24017979319E+04  0.22942640154E+04 0.  0.
        4    1    3    3  502    0  0.79384962344E+03  0.56946171226E+02 -0.12201500827E+04  0.14567799863E+04  0.12699999809E+01 0. -1.
       -4    1    3    3    0  502 -0.79384962344E+03 -0.56946171226E+02  0.50952646015E+03  0.94501794562E+03  0.12699999809E+01 0.  1.
</event>
<event>
 5   0  0.7391007E-06  0.2301070E+04  0.7818609E-02  0.8477499E-01
        1   -1    0    0  501    0  0.00000000000E+00  0.00000000000E+00  0.80862573426E+03  0.80862573427E+03  0.50400001928E-02 0. -1.
       -1   -1    0    0    0  501  0.00000000000E+00  0.00000000000E+00 -0.16370132212E+04  0.16370132212E+04  0.50400001928E-02 0.  1.
    10030    2    1    2    0    0  0.00000000000E+00  0.00000000000E+00 -0.82838748695E+03  0.24456389555E+04  0.23010702015E+04 0.  0.
        1    1    3    3  502    0 -0.89426904102E+03 -0.62641715178E+03 -0.28612486128E+02  0.10922152902E+04  0.50400001928E-02 0. -1.
       -1    1    3    3    0  502  0.89426904102E+03  0.62641715178E+03 -0.79977500082E+03  0.13534236653E+04  0.50400001928E-02 0.  1.
</event>
<event>
 5   0  0.1626636E-05  0.2304882E+04  0.7818609E-02  0.8475999E-01
        2   -1    0    0  501    0  0.00000000000E+00  0.00000000000E+00  0.17186576721E+04  0.17186576721E+04  0.25500000920E-02 0.  1.
       -2   -1    0    0    0  501  0.00000000000E+00  0.00000000000E+00 -0.77276588733E+03  0.77276588734E+03  0.25500000920E-02 0. -1.
    10030    2    1    2    0    0  0.00000000000E+00  0.00000000000E+00  0.94589178473E+03  0.24914235594E+04  0.23048817939E+04 0.  0.
        4    1    3    3  502    0 -0.16290114488E+03  0.36622546388E+03  0.16408844969E+04  0.16891303734E+04  0.12699999809E+01 0.  1.
       -4    1    3    3    0  502  0.16290114488E+03 -0.36622546388E+03 -0.69499271216E+03  0.80229318597E+03  0.12699999809E+01 0. -1.
</event>
<event>
 5   0  0.7416556E-06  0.2296804E+04  0.7818609E-02  0.8479182E-01
        1   -1    0    0  501    0  0.00000000000E+00  0.00000000000E+00  0.18231690651E+04  0.18231690651E+04  0.50400001928E-02 0.  1.
       -1   -1    0    0    0  501  0.00000000000E+00  0.00000000000E+00 -0.72337048714E+03  0.72337048716E+03  0.50400001928E-02 0. -1.
    10030    2    1    2    0    0  0.00000000000E+00  0.00000000000E+00  0.10997985780E+04  0.25465395523E+04  0.22968036005E+04 0.  0.
        4    1    3    3  502    0 -0.46374974348E+03  0.97713317203E+03  0.97783538570E+03  0.14580866623E+04  0.12699999809E+01 0. -1.
       -4    1    3    3    0  502  0.46374974348E+03 -0.97713317203E+03  0.12196319228E+03  0.10884528899E+04  0.12699999809E+01 0.  1.
</event>
<event>
 5   0  0.1588969E-05  0.2282299E+04  0.7818609E-02  0.8484933E-01
       -2   -1    0    0    0  501  0.00000000000E+00  0.00000000000E+00  0.71983148783E+03  0.71983148783E+03  0.25500000920E-02 0. -1.
        2   -1    0    0  501    0  0.00000000000E+00  0.00000000000E+00 -0.18090658879E+04  0.18090658879E+04  0.25500000920E-02 0.  1.
    10030    2    1    2    0    0  0.00000000000E+00  0.00000000000E+00 -0.10892344000E+04  0.25288973757E+04  0.22822993578E+04 0.  0.
        1    1    3    3  502    0  0.76431163531E+03 -0.49669693194E+03  0.21610639202E+03  0.93679351555E+03  0.50400001928E-02 0. -1.
       -1    1    3    3    0  502 -0.76431163531E+03  0.49669693194E+03 -0.13053407921E+04  0.15921038602E+04  0.50400001928E-02 0.  1.
</event>
<event>
 5   0  0.7183014E-06  0.2308966E+04  0.7818609E-02  0.8474394E-01
        1   -1    0    0  501    0  0.00000000000E+00  0.00000000000E+00  0.20909436032E+04  0.20909436032E+04  0.50400001928E-02 0.  1.
       -1   -1    0    0    0  501  0.00000000000E+00  0.00000000000E+00 -0.63743054799E+03  0.63743054801E+03  0.50400001928E-02 0. -1.
    10030    2    1    2    0    0  0.00000000000E+00  0.00000000000E+00  0.14535130552E+04  0.27283741512E+04  0.23089662855E+04 0.  0.
        3    1    3    3  502    0 -0.39253582038E+03 -0.71590878842E+03 -0.23772890829E+03  0.85036745450E+03  0.10100000352E+00 0. -1.
       -3    1    3    3    0  502  0.39253582038E+03  0.71590878842E+03  0.16912419635E+04  0.18780066967E+04  0.10100000352E+00 0.  1.
</event>
<event>
 5   0  0.1602809E-05  0.2300685E+04  0.7818609E-02  0.8477651E-01
       -2   -1    0    0    0  501  0.00000000000E+00  0.00000000000E+00  0.78251843280E+03  0.78251843281E+03  0.25500000920E-02 0. -1.
        2   -1    0    0  501    0  0.00000000000E+00  0.00000000000E+00 -0.16910629892E+04  0.16910629892E+04  0.25500000920E-02 0.  1.
    10030    2    1    2    0    0  0.00000000000E+00  0.00000000000E+00 -0.90854455644E+03  0.24735814221E+04  0.23006850807E+04 0.  0.
        3    1    3    3  502    0 -0.73679680935E+03  0.57999982299E+03 -0.11706954501E+04  0.14999323918E+04  0.10100000352E+00 0.  1.
       -3    1    3    3    0  502  0.73679680935E+03 -0.57999982299E+03  0.26215089362E+03  0.97364903027E+03  0.10100000352E+00 0. -1.
</event>
<event>
 5   0  0.7278815E-06  0.2275335E+04  0.7818609E-02  0.8487710E-01
       -1   -1    0    0    0  501  0.00000000000E+00  0.00000000000E+00  0.79585757015E+03  0.79585757016E+03  0.50400001928E-02 0. -1.
        1   -1    0    0  501    0  0.00000000000E+00  0.00000000000E+00 -0.16262803080E+04  0.16262803080E+04  0.50400001928E-02 0.  1.
    10030    2    1    2    0    0  0.00000000000E+00  0.00000000000E+00 -0.83042273783E+03  0.24221378781E+04  0.22753351352E+04 0.  0.
        5    1    3    3  502    0 -0.35102486834E+03  0.15334256446E+03 -0.15555558912E+04  0.16020326529E+04  0.46999998093E+01 0.  1.
       -5    1    3    3    0  502  0.35102486834E+03 -0.15334256446E+03  0.72513315341E+03  0.82010522522E+03  0.46999998093E+01 0. -1.
</event>
<event>
 5   0  0.1588969E-05  0.2296616E+04  0.7818609E-02  0.8479257E-01
        2   -1    0    0  501    0  0.00000000000E+00  0.00000000000E+00  0.15018771606E+04  0.15018771606E+04  0.25500000920E-02 0.  1.
       -2   -1    0    0    0  501  0.00000000000E+00  0.00000000000E+00 -0.87797521888E+03  0.87797521888E+03  0.25500000920E-02 0. -1.
    10030    2    1    2    0    0  0.00000000000E+00  0.00000000000E+00  0.62390194169E+03  0.23798523795E+04  0.22966157091E+04 0.  0.
        1    1    3    3  502    0 -0.32095404644E+02  0.68018779061E+03  0.12700839605E+04  0.14411102706E+04  0.50400001928E-02 0.  1.
       -1    1    3    3    0  502  0.32095404644E+02 -0.68018779061E+03 -0.64618201876E+03  0.93874210883E+03  0.50400001928E-02 0. -1.
</event>
<event>
 5   0  0.1602809E-05  0.2303668E+04  0.7818609E-02  0.8476476E-01
       -2   -1    0    0    0  501  0.00000000000E+00  0.00000000000E+00  0.10934335918E+04  0.10934335918E+04  0.25500000920E-02 0. -1.
        2   -1    0    0  501    0  0.00000000000E+00  0.00000000000E+00 -0.12133533320E+04  0.12133533320E+04  0.25500000920E-02 0.  1.
    10030    2    1    2    0    0  0.00000000000E+00  0.00000000000E+00 -0.11991974027E+03  0.23067869238E+04  0.23036677642E+04 0.  0.
        3    1    3    3  502    0  0.56422243030E+03  0.18253751199E+03 -0.10487452953E+04  0.12047960818E+04  0.10100000352E+00 0.  1.
       -3    1    3    3    0  502 -0.56422243030E+03 -0.18253751199E+03  0.92882555499E+03  0.11019908420E+04  0.10100000352E+00 0. -1.
</event>
<event>
 5   0  0.5704875E-06  0.2301771E+04  0.7818609E-02  0.8477223E-01
       -3   -1    0    0    0  501  0.00000000000E+00  0.00000000000E+00  0.11612760355E+04  0.11612760398E+04  0.10100000352E+00 0. -1.
        3   -1    0    0  501    0  0.00000000000E+00  0.00000000000E+00 -0.11405880670E+04  0.11405880714E+04  0.10100000352E+00 0.  1.
    10030    2    1    2    0    0  0.00000000000E+00  0.00000000000E+00  0.20687968485E+02  0.23018641113E+04  0.23017711430E+04 0.  0.
        4    1    3    3  502    0 -0.10925861548E+04  0.11865067866E+03  0.35199135343E+03  0.11540026061E+04  0.12699999809E+01 0. -1.
       -4    1    3    3    0  502  0.10925861548E+04 -0.11865067866E+03 -0.33130338494E+03  0.11478615051E+04  0.12699999809E+01 0.  1.
</event>
<event>
 5   0  0.7416556E-06  0.2141587E+04  0.7818609E-02  0.8543142E-01
       -1   -1    0    0    0  501  0.00000000000E+00  0.00000000000E+00  0.44445990330E+03  0.44445990333E+03  0.50400001928E-02 0.  1.
        1   -1    0    0  501    0  0.00000000000E+00  0.00000000000E+00 -0.25797580540E+04  0.25797580541E+04  0.50400001928E-02 0. -1.
    10030    2    1    2    0    0  0.00000000000E+00  0.00000000000E+00 -0.21352981507E+04  0.30242179574E+04  0.21415872761E+04 0.  0.
        4    1    3    3  502    0 -0.89264830511E+03 -0.30142274142E+03 -0.34909289856E+03  0.10047607329E+04  0.12699999809E+01 0.  1.
       -4    1    3    3    0  502  0.89264830511E+03  0.30142274142E+03 -0.17862052522E+04  0.20194572245E+04  0.12699999809E+01 0. -1.
</event>
<event>
 5   0  0.7202572E-06  0.2295970E+04  0.7818609E-02  0.8479512E-01
       -1   -1    0    0    0  501  0.00000000000E+00  0.00000000000E+00  0.91413270617E+03  0.91413270618E+03  0.50400001928E-02 0. -1.
        1   -1    0    0  501    0  0.00000000000E+00  0.00000000000E+00 -0.14416610060E+04  0.14416610060E+04  0.50400001928E-02 0.  1.
    10030    2    1    2    0    0  0.00000000000E+00  0.00000000000E+00 -0.52752829981E+03  0.23557937122E+04  0.22959699273E+04 0.  0.
        2    1    3    3  502    0 -0.12079301637E+03  0.10604591617E+04  0.16998564421E+03  0.10807681091E+04  0.25500000920E-02 0. -1.
       -2    1    3    3    0  502  0.12079301637E+03 -0.10604591617E+04 -0.69751394402E+03  0.12750256031E+04  0.25500000920E-02 0.  1.
</event>
<event>
 5   0  0.1626636E-05  0.2294505E+04  0.7818609E-02  0.8480091E-01
       -2   -1    0    0    0  501  0.00000000000E+00  0.00000000000E+00  0.11768092364E+04  0.11768092364E+04  0.25500000920E-02 0.  1.
        2   -1    0    0  501    0  0.00000000000E+00  0.00000000000E+00 -0.11184383545E+04  0.11184383546E+04  0.25500000920E-02 0. -1.
    10030    2    1    2    0    0  0.00000000000E+00  0.00000000000E+00  0.58370881841E+02  0.22952475909E+04  0.22945052504E+04 0.  0.
        4    1    3    3  502    0  0.19893074962E+03  0.86345021128E+03  0.75816483036E+03  0.11661626102E+04  0.12699999809E+01 0.  1.
       -4    1    3    3    0  502 -0.19893074962E+03 -0.86345021128E+03 -0.69979394852E+03  0.11290849808E+04  0.12699999809E+01 0. -1.
</event>
<event>
 5   0  0.1588969E-05  0.2303063E+04  0.7818609E-02  0.8476714E-01
       -2   -1    0    0    0  501  0.00000000000E+00  0.00000000000E+00  0.70326841464E+03  0.70326841464E+03  0.25500000920E-02 0. -1.
        2   -1    0    0  501    0  0.00000000000E+00  0.00000000000E+00 -0.18855178521E+04  0.18855178521E+04  0.25500000920E-02 0.  1.
    10030    2    1    2    0    0  0.00000000000E+00  0.00000000000E+00 -0.11822494375E+04  0.25887862668E+04  0.23030633084E+04 0.  0.
        1    1    3    3  502    0  0.12992520710E+03 -0.10094785858E+04  0.14303096143E+02  0.10179057683E+04  0.50400001928E-02 0. -1.
       -1    1    3    3    0  502 -0.12992520710E+03  0.10094785858E+04 -0.11965525336E+04  0.15708804985E+04  0.50400001928E-02 0.  1.
</event>
<event>
 5   0  0.7391007E-06  0.2306367E+04  0.7818609E-02  0.8475415E-01
       -1   -1    0    0    0  501  0.00000000000E+00  0.00000000000E+00  0.10428871561E+04  0.10428871561E+04  0.50400001928E-02 0.  1.
        1   -1    0    0  501    0  0.00000000000E+00  0.00000000000E+00 -0.12751446912E+04  0.12751446912E+04  0.50400001928E-02 0. -1.
    10030    2    1    2    0    0  0.00000000000E+00  0.00000000000E+00 -0.23225753511E+03  0.23180318473E+04  0.23063668577E+04 0.  0.
        1    1    3    3  502    0  0.94939268655E+03 -0.61388824332E+03 -0.34449321657E+03  0.11818971296E+04  0.50400001928E-02 0. -1.
       -1    1    3    3    0  502 -0.94939268655E+03  0.61388824332E+03  0.11223568146E+03  0.11361347177E+04  0.50400001928E-02 0.  1.
</event>
<event>
 5   0  0.1697855E-05  0.2322352E+04  0.7818609E-02  0.8469160E-01
       -2   -1    0    0    0  501  0.00000000000E+00  0.00000000000E+00  0.10523466048E+04  0.10523466048E+04  0.25500000920E-02 0. -1.
        2   -1    0    0  501    0  0.00000000000E+00  0.00000000000E+00 -0.12812601071E+04  0.12812601071E+04  0.25500000920E-02 0.  1.
    10030    2    1    2    0    0  0.00000000000E+00  0.00000000000E+00 -0.22891350235E+03  0.23336067119E+04  0.23223520177E+04 0.  0.
        5    1    3    3  502    0  0.39691801455E+02 -0.25781119526E+03 -0.12514284395E+04  0.12783337908E+04  0.46999998093E+01 0.  1.
       -5    1    3    3    0  502 -0.39691801455E+02  0.25781119526E+03  0.10225149371E+04  0.10552729211E+04  0.46999998093E+01 0. -1.
</event>
<event>
 5   0  0.7416556E-06  0.2302557E+04  0.7818609E-02  0.8476914E-01
        1   -1    0    0  501    0  0.00000000000E+00  0.00000000000E+00  0.14352429094E+04  0.14352429094E+04  0.50400001928E-02 0. -1.
       -1   -1    0    0    0  501  0.00000000000E+00  0.00000000000E+00 -0.92349653925E+03  0.92349653927E+03  0.50400001928E-02 0.  1.
    10030    2    1    2    0    0  0.00000000000E+00  0.00000000000E+00  0.51174637018E+03  0.23587394487E+04  0.23025567180E+04 0.  0.
        4    1    3    3  502    0  0.69155210024E+03 -0.48006534925E+03  0.10603588275E+04  0.13539089714E+04  0.12699999809E+01 0. -1.
       -4    1    3    3    0  502 -0.69155210024E+03  0.48006534925E+03 -0.54861245732E+03  0.10048304773E+04  0.12699999809E+01 0.  1.
</event>
<event>
 5   0  0.7183014E-06  0.2295261E+04  0.7818609E-02  0.8479792E-01
        1   -1    0    0  501    0  0.00000000000E+00  0.00000000000E+00  0.74142330453E+03  0.74142330454E+03  0.50400001928E-02 0.  1.
       -1   -1    0    0    0  501  0.00000000000E+00  0.00000000000E+00 -0.17763885263E+04  0.17763885263E+04  0.50400001928E-02 0. -1.
    10030    2    1    2    0    0  0.00000000000E+00  0.00000000000E+00 -0.10349652218E+04  0.25178118309E+04  0.22952610757E+04 0.  0.
        3    1    3    3  502    0  0.39989605063E+03 -0.44129298760E+03 -0.15936228479E+04  0.17012613391E+04  0.10100000352E+00 0. -1.
       -3    1    3    3    0  502 -0.39989605063E+03  0.44129298760E+03  0.55865762613E+03  0.81655049179E+03  0.10100000352E+00 0.  1.
</event>
<event>
 5   0  0.7202572E-06  0.2301936E+04  0.7818609E-02  0.8477158E-01
        1   -1    0    0  501    0  0.00000000000E+00  0.00000000000E+00  0.15811808813E+04  0.15811808813E+04  0.50400001928E-02 0.  1.
       -1   -1    0    0    0  501  0.00000000000E+00  0.00000000000E+00 -0.83780856379E+03  0.83780856381E+03  0.50400001928E-02 0. -1.
    10030    2    1    2    0    0  0.00000000000E+00  0.00000000000E+00  0.74337231747E+03  0.24189894451E+04  0.23019356057E+04 0.  0.
        2    1    3    3  502    0  0.93663109798E+03  0.52062398334E+03 -0.69670588388E+02  0.10738627178E+04  0.25500000920E-02 0. -1.
       -2    1    3    3    0  502 -0.93663109798E+03 -0.52062398334E+03  0.81304290585E+03  0.13451267273E+04  0.25500000920E-02 0.  1.
</event>
<event>
 5   0  0.1626636E-05  0.2293590E+04  0.7818609E-02  0.8480453E-01
        2   -1    0    0  501    0  0.00000000000E+00  0.00000000000E+00  0.16166430674E+04  0.16166430674E+04  0.25500000920E-02 0. -1.
       -2   -1    0    0    0  501  0.00000000000E+00  0.00000000000E+00 -0.81349968269E+03  0.81349968269E+03  0.25500000920E-02 0.  1.
    10030    2    1    2    0    0  0.00000000000E+00  0.00000000000E+00  0.80314338467E+03  0.24301427500E+04  0.22935898695E+04 0.  0.
        4    1    3    3  502    0  0.34018685747E+03  0.71948011946E+03 -0.47327354295E+03  0.92594179064E+03  0.12699999809E+01 0.  1.
       -4    1    3    3    0  502 -0.34018685747E+03 -0.71948011946E+03  0.12764169276E+04  0.15042009594E+04  0.12699999809E+01 0. -1.
</event>
<event>
 5   0  0.7391007E-06  0.2290520E+04  0.7818609E-02  0.8481668E-01
        1   -1    0    0  501    0  0.00000000000E+00  0.00000000000E+00  0.10021723488E+04  0.10021723489E+04  0.50400001928E-02 0. -1.
       -1   -1    0    0    0  501  0.00000000000E+00  0.00000000000E+00 -0.13087773354E+04  0.13087773354E+04  0.50400001928E-02 0.  1.
    10030    2    1    2    0    0  0.00000000000E+00  0.00000000000E+00 -0.30660498656E+03  0.23109496843E+04  0.22905199902E+04 0.  0.
        1    1    3    3  502    0 -0.53980621478E+03  0.43161513158E+02  0.86483989220E+03  0.10203929169E+04  0.50400001928E-02 0. -1.
       -1    1    3    3    0  502  0.53980621478E+03 -0.43161513158E+02 -0.11714448788E+04  0.12905567673E+04  0.50400001928E-02 0.  1.
</event>
<event>
 5   0  0.7183014E-06  0.2303839E+04  0.7818609E-02  0.8476409E-01
        1   -1    0    0  501    0  0.00000000000E+00  0.00000000000E+00  0.10557995310E+04  0.10557995310E+04  0.50400001928E-02 0. -1.
       -1   -1    0    0    0  501  0.00000000000E+00  0.00000000000E+00 -0.12567900009E+04  0.12567900009E+04  0.50400001928E-02 0.  1.
    10030    2    1    2    0    0  0.00000000000E+00  0.00000000000E+00 -0.20099046996E+03  0.23125895319E+04  0.23038387908E+04 0.  0.
        3    1    3    3  502    0 -0.80224259143E+03  0.43473886586E+03  0.60525939270E+03  0.10949566200E+04  0.10100000352E+00 0. -1.
       -3    1    3    3    0  502  0.80224259143E+03 -0.43473886586E+03 -0.80624986266E+03  0.12176329119E+04  0.10100000352E+00 0.  1.
</event>
<event>
 5   0  0.1635955E-05  0.2301045E+04  0.7818609E-02  0.8477509E-01
        2   -1    0    0  501    0  0.00000000000E+00  0.00000000000E+00  0.15669771284E+04  0.15669771284E+04  0.25500000920E-02 0.  1.
       -2   -1    0    0    0  501  0.00000000000E+00  0.00000000000E+00 -0.84474870603E+03  0.84474870604E+03  0.25500000920E-02 0. -1.
    10030    2    1    2    0    0  0.00000000000E+00  0.00000000000E+00  0.72222842233E+03  0.24117258344E+04  0.23010448945E+04 0.  0.
        2    1    3    3  502    0  0.75606489092E+03 -0.53998042532E+02 -0.54605397912E+03  0.93419743951E+03  0.25500000920E-02 0. -1.
       -2    1    3    3    0  502 -0.75606489092E+03  0.53998042532E+02  0.12682824014E+04  0.14775283949E+04  0.25500000920E-02 0.  1.
</event>
<event>
 5   0  0.1626636E-05  0.2295515E+04  0.7818609E-02  0.8479692E-01
       -2   -1    0    0    0  501  0.00000000000E+00  0.00000000000E+00  0.12985695709E+04  0.12985695709E+04  0.25500000920E-02 0. -1.
        2   -1    0    0  501    0  0.00000000000E+00  0.00000000000E+00 -0.10144600294E+04  0.10144600294E+04  0.25500000920E-02 0.  1.
    10030    2    1    2    0    0  0.00000000000E+00  0.00000000000E+00  0.28410954150E+03  0.23130296004E+04  0.22955146919E+04 0.  0.
        4    1    3    3  502    0  0.85462097316E+03  0.27675761844E+03  0.86191003145E+03  0.12449346579E+04  0.12699999809E+01 0. -1.
       -4    1    3    3    0  502 -0.85462097316E+03 -0.27675761844E+03 -0.57780048995E+03  0.10680949425E+04  0.12699999809E+01 0.  1.
</event>
<event>
 5   0  0.7278815E-06  0.2300545E+04  0.7818609E-02  0.8477706E-01
        1   -1    0    0  501    0  0.00000000000E+00  0.00000000000E+00  0.86603530799E+03  0.86603530800E+03  0.50400001928E-02 0. -1.
       -1   -1    0    0    0  501  0.00000000000E+00  0.00000000000E+00 -0.15277976697E+04  0.15277976697E+04  0.50400001928E-02 0.  1.
    10030    2    1    2    0    0  0.00000000000E+00  0.00000000000E+00 -0.66176236173E+03  0.23938329777E+04  0.23005449141E+04 0.  0.
        5    1    3    3  502    0 -0.89155576076E+03  0.14993141223E+03  0.40912030455E+03  0.99234702423E+03  0.46999998093E+01 0. -1.
       -5    1    3    3    0  502  0.89155576076E+03 -0.14993141223E+03 -0.10708826663E+04  0.14014859535E+04  0.46999998093E+01 0.  1.
</event>
<event>
 5   0  0.1626636E-05  0.2294342E+04  0.7818609E-02  0.8480155E-01
        2   -1    0    0  501    0  0.00000000000E+00  0.00000000000E+00  0.17797988360E+04  0.17797988360E+04  0.25500000920E-02 0. -1.
       -2   -1    0    0    0  501  0.00000000000E+00  0.00000000000E+00 -0.73941031718E+03  0.73941031718E+03  0.25500000920E-02 0.  1.
    10030    2    1    2    0    0  0.00000000000E+00  0.00000000000E+00  0.10403885188E+04  0.25192091532E+04  0.22943422777E+04 0.  0.
        4    1    3    3  502    0 -0.38857124144E+03  0.42625504622E+03 -0.56861859827E+03  0.80994425568E+03  0.12699999809E+01 0.  1.
       -4    1    3    3    0  502  0.38857124144E+03 -0.42625504622E+03  0.16090071171E+04  0.17092648975E+04  0.12699999809E+01 0. -1.
</event>
<event>
 5   0  0.7202572E-06  0.2300381E+04  0.7818609E-02  0.8477771E-01
        1   -1    0    0  501    0  0.00000000000E+00  0.00000000000E+00  0.18313305245E+04  0.18313305245E+04  0.50400001928E-02 0.  1.
       -1   -1    0    0    0  501  0.00000000000E+00  0.00000000000E+00 -0.72239171350E+03  0.72239171352E+03  0.50400001928E-02 0. -1.
    10030    2    1    2    0    0  0.00000000000E+00  0.00000000000E+00  0.11089388110E+04  0.25537222380E+04  0.23003808342E+04 0.  0.
        2    1    3    3  502    0  0.76729877773E+03  0.15918091733E+03  0.14891252101E+04  0.16827298863E+04  0.25500000920E-02 0.  1.
       -2    1    3    3    0  502 -0.76729877773E+03 -0.15918091733E+03 -0.38018639910E+03  0.87099235176E+03  0.25500000920E-02 0. -1.
</event>
<event>
 5   0  0.1697855E-05  0.2307222E+04  0.7818609E-02  0.8475079E-01
       -2   -1    0    0    0  501  0.00000000000E+00  0.00000000000E+00  0.46862786136E+03  0.46862786137E+03  0.25500000920E-02 0.  1.
        2   -1    0    0  501    0  0.00000000000E+00  0.00000000000E+00 -0.28398184351E+04  0.28398184351E+04  0.25500000920E-02 0. -1.
    10030    2    1    2    0    0  0.00000000000E+00  0.00000000000E+00 -0.23711905738E+04  0.33084462965E+04  0.23072217405E+04 0.  0.
        5    1    3    3  502    0 -0.58501959887E+03  0.67921097574E+03 -0.22267874386E+04  0.24004540961E+04  0.46999998093E+01 0. -1.
       -5    1    3    3    0  502  0.58501959887E+03 -0.67921097574E+03 -0.14440313518E+03  0.90799220045E+03  0.46999998093E+01 0.  1.
</event>
<event>
 5   0  0.7416556E-06  0.2302606E+04  0.7818609E-02  0.8476894E-01
        1   -1    0    0  501    0  0.00000000000E+00  0.00000000000E+00  0.17987602059E+04  0.17987602059E+04  0.50400001928E-02 0. -1.
       -1   -1    0    0    0  501  0.00000000000E+00  0.00000000000E+00 -0.73689566902E+03  0.73689566904E+03  0.50400001928E-02 0.  1.
    10030    2    1    2    0    0  0.00000000000E+00  0.00000000000E+00  0.10618645369E+04  0.25356558749E+04  0.23026060065E+04 0.  0.
        4    1    3    3  502    0  0.65335968837E+03 -0.77203122511E+03  0.11366844983E+04  0.15215006923E+04  0.12699999809E+01 0. -1.
       -4    1    3    3    0  502 -0.65335968837E+03  0.77203122511E+03 -0.74819961479E+02  0.10141551826E+04  0.12699999809E+01 0.  1.
</event>
<event>
 5   0  0.1602809E-05  0.2292736E+04  0.7818609E-02  0.8480791E-01
       -2   -1    0    0    0  501  0.00000000000E+00  0.00000000000E+00  0.13669195000E+04  0.13669195000E+04  0.25500000920E-02 0.  1.
        2   -1    0    0  501    0  0.00000000000E+00  0.00000000000E+00 -0.96140248532E+03  0.96140248532E+03  0.25500000920E-02 0. -1.
    10030    2    1    2    0    0  0.00000000000E+00  0.00000000000E+00  0.40551701466E+03  0.23283219853E+04  0.22927361859E+04 0.  0.
        3    1    3    3  502    0 -0.52407342996E+03  0.23898328958E+03 -0.80378317612E+03  0.98885457834E+03  0.10100000352E+00 0. -1.
       -3    1    3    3    0  502  0.52407342996E+03 -0.23898328958E+03  0.12093001908E+04  0.13394674070E+04  0.10100000352E+00 0.  1.
</event>
<event>
 5   0  0.5704875E-06  0.2303957E+04  0.7818609E-02  0.8476363E-01
       -4   -1    0    0    0  501  0.00000000000E+00  0.00000000000E+00  0.94192095500E+03  0.94192181118E+03  0.12699999809E+01 0.  1.
        4   -1    0    0  501    0  0.00000000000E+00  0.00000000000E+00 -0.14088787076E+04  0.14088792800E+04  0.12699999809E+01 0. -1.
    10030    2    1    2    0    0  0.00000000000E+00  0.00000000000E+00 -0.46695775259E+03  0.23508010912E+04  0.23039566462E+04 0.  0.
        3    1    3    3  502    0  0.22975623713E+03  0.11273057100E+03 -0.13795067509E+04  0.14030449017E+04  0.10100000352E+00 0. -1.
       -3    1    3    3    0  502 -0.22975623713E+03 -0.11273057100E+03  0.91254899833E+03  0.94775618948E+03  0.10100000352E+00 0.  1.
</event>
<event>
 5   0  0.1635955E-05  0.2295967E+04  0.7818609E-02  0.8479513E-01
       -2   -1    0    0    0  501  0.00000000000E+00  0.00000000000E+00  0.72359716185E+03  0.72359716185E+03  0.25500000920E-02 0.  1.
        2   -1    0    0  501    0  0.00000000000E+00  0.00000000000E+00 -0.18212703762E+04  0.18212703762E+04  0.25500000920E-02 0. -1.
    10030    2    1    2    0    0  0.00000000000E+00  0.00000000000E+00 -0.10976732143E+04  0.25448675380E+04  0.22959669642E+04 0.  0.
        2    1    3    3  502    0 -0.45848456787E+03 -0.12688308976E+03  0.60920212818E+03  0.77293896941E+03  0.25500000920E-02 0.  1.
       -2    1    3    3    0  502  0.45848456787E+03  0.12688308976E+03 -0.17068753425E+04  0.17719285686E+04  0.25500000920E-02 0. -1.
</event>
<event>
 5   0  0.5704875E-06  0.2307032E+04  0.7818609E-02  0.8475154E-01
       -3   -1    0    0    0  501  0.00000000000E+00  0.00000000000E+00  0.14438618538E+04  0.14438618573E+04  0.10100000352E+00 0.  1.
        3   -1    0    0  501    0  0.00000000000E+00  0.00000000000E+00 -0.92155572440E+03  0.92155572994E+03  0.10100000352E+00 0. -1.
    10030    2    1    2    0    0  0.00000000000E+00  0.00000000000E+00  0.52230612936E+03  0.23654175872E+04  0.23070320044E+04 0.  0.
        3    1    3    3  502    0 -0.37828843623E+03 -0.66850791429E+03  0.11435100963E+04  0.13775414051E+04  0.10100000352E+00 0.  1.
       -3    1    3    3    0  502  0.37828843623E+03  0.66850791429E+03 -0.62120396689E+03  0.98787618209E+03  0.10100000352E+00 0. -1.
</event>
<event>
 5   0  0.1626636E-05  0.2365278E+04  0.7818609E-02  0.8452619E-01
        2   -1    0    0  501    0  0.00000000000E+00  0.00000000000E+00  0.19676783508E+04  0.19676783508E+04  0.25500000920E-02 0.  1.
       -2   -1    0    0    0  501  0.00000000000E+00  0.00000000000E+00 -0.71080458093E+03  0.71080458093E+03  0.25500000920E-02 0. -1.
    10030    2    1    2    0    0  0.00000000000E+00  0.00000000000E+00  0.12568737699E+04  0.26784829317E+04  0.23652778150E+04 0.  0.
        4    1    3    3  502    0  0.93577739454E+03  0.54029797911E+03  0.11727423965E+04  0.15946559440E+04  0.12699999809E+01 0. -1.
       -4    1    3    3    0  502 -0.93577739454E+03 -0.54029797911E+03  0.84131373356E+02  0.10838269877E+04  0.12699999809E+01 0.  1.
</event>
<event>
 5   0  0.1697855E-05  0.2325611E+04  0.7818609E-02  0.8467891E-01
       -2   -1    0    0    0  501  0.00000000000E+00  0.00000000000E+00  0.91470862687E+03  0.91470862687E+03  0.25500000920E-02 0. -1.
        2   -1    0    0  501    0  0.00000000000E+00  0.00000000000E+00 -0.14781935639E+04  0.14781935639E+04  0.25500000920E-02 0.  1.
    10030    2    1    2    0    0  0.00000000000E+00  0.00000000000E+00 -0.56348493699E+03  0.23929021907E+04  0.23256108058E+04 0.  0.
        5    1    3    3  502    0 -0.77803721698E+03 -0.22971046074E+01 -0.11708917685E+04  0.14058295811E+04  0.46999998093E+01 0.  1.
       -5    1    3    3    0  502  0.77803721698E+03  0.22971046074E+01  0.60740683149E+03  0.98707260960E+03  0.46999998093E+01 0. -1.
</event>
<event>
 5   0  0.7416556E-06  0.2300246E+04  0.7818609E-02  0.8477824E-01
       -1   -1    0    0    0  501  0.00000000000E+00  0.00000000000E+00  0.71787780996E+03  0.71787780998E+03  0.50400001928E-02 0.  1.
        1   -1    0    0  501    0  0.00000000000E+00  0.00000000000E+00 -0.18426293173E+04  0.18426293173E+04  0.50400001928E-02 0. -1.
    10030    2    1    2    0    0  0.00000000000E+00  0.00000000000E+00 -0.11247515073E+04  0.25605071273E+04  0.23002458120E+04 0.  0.
        4    1    3    3  502    0 -0.64316844421E+03  0.83122467251E+03 -0.42427424898E+02  0.10518563605E+04  0.12699999809E+01 0.  1.
       -4    1    3    3    0  502  0.64316844421E+03 -0.83122467251E+03 -0.10823240824E+04  0.15086507668E+04  0.12699999809E+01 0. -1.
</event>
<event>
 5   0  0.7202572E-06  0.2276960E+04  0.7818609E-02  0.8487061E-01
       -1   -1    0    0    0  501  0.00000000000E+00  0.00000000000E+00  0.17026605042E+04  0.17026605042E+04  0.50400001928E-02 0. -1.
        1   -1    0    0  501    0  0.00000000000E+00  0.00000000000E+00 -0.76124202334E+03  0.76124202336E+03  0.50400001928E-02 0.  1.
    10030    2    1    2    0    0  0.00000000000E+00  0.00000000000E+00  0.94141848083E+03  0.24639025275E+04  0.22769600148E+04 0.  0.
        2    1    3    3  502    0  0.30949561469E+03 -0.81690928443E+03 -0.31930542034E+03  0.93009906245E+03  0.25500000920E-02 0.  1.
       -2    1    3    3    0  502 -0.30949561469E+03  0.81690928443E+03  0.12607239012E+04  0.15338034651E+04  0.25500000920E-02 0. -1.
</event>
<event>
 5   0  0.1697855E-05  0.2298932E+04  0.7818609E-02  0.8478342E-01
       -2   -1    0    0    0  501  0.00000000000E+00  0.00000000000E+00  0.63107143498E+03  0.63107143499E+03  0.25500000920E-02 0. -1.
        2   -1    0    0  501    0  0.00000000000E+00  0.00000000000E+00 -0.20936963230E+04  0.20936963230E+04  0.25500000920E-02 0.  1.
    10030    2    1    2    0    0  0.00000000000E+00  0.00000000000E+00 -0.14626248880E+04  0.27247677580E+04  0.22989318763E+04 0.  0.
        5    1    3    3  502    0 -0.93338374442E+03  0.40086516466E+03 -0.13688656772E+04  0.17046153311E+04  0.46999998093E+01 0.  1.
       -5    1    3    3    0  502  0.93338374442E+03 -0.40086516466E+03 -0.93759210807E+02  0.10201524269E+04  0.46999998093E+01 0. -1.
</event>
<event>
 5   0  0.7183014E-06  0.2300995E+04  0.7818609E-02  0.8477529E-01
       -1   -1    0    0    0  501  0.00000000000E+00  0.00000000000E+00  0.87485258367E+03  0.87485258368E+03  0.50400001928E-02 0. -1.
        1   -1    0    0  501    0  0.00000000000E+00  0.00000000000E+00 -0.15129915164E+04  0.15129915164E+04  0.50400001928E-02 0.  1.
    10030    2    1    2    0    0  0.00000000000E+00  0.00000000000E+00 -0.63813893274E+03  0.23878441001E+04  0.23009950345E+04 0.  0.
        3    1    3    3  502    0  0.91903383949E+03 -0.50474936616E+03 -0.81049298615E+03  0.13252524331E+04  0.10100000352E+00 0. -1.
       -3    1    3    3    0  502 -0.91903383949E+03  0.50474936616E+03  0.17235405341E+03  0.10625916670E+04  0.10100000352E+00 0.  1.
</event>
<event>
 5   0  0.1588969E-05  0.2313731E+04  0.7818609E-02  0.8472527E-01
        2   -1    0    0  501    0  0.00000000000E+00  0.00000000000E+00  0.86764326055E+03  0.86764326055E+03  0.25500000920E-02 0.  1.
       -2   -1    0    0    0  501  0.00000000000E+00  0.00000000000E+00 -0.15424980289E+04  0.15424980289E+04  0.25500000920E-02 0. -1.
    10030    2    1    2    0    0  0.00000000000E+00  0.00000000000E+00 -0.67485476840E+03  0.24101412895E+04  0.23137312024E+04 0.  0.
        1    1    3    3  502    0 -0.83746999265E+03 -0.53660285274E+03  0.27798585075E+03  0.10327510559E+04  0.50400001928E-02 0.  1.
       -1    1    3    3    0  502  0.83746999265E+03  0.53660285274E+03 -0.95284061914E+03  0.13773902336E+04  0.50400001928E-02 0. -1.
</event>
<event>
 5   0  0.7391007E-06  0.2334061E+04  0.7818609E-02  0.8464611E-01
        1   -1    0    0  501    0  0.00000000000E+00  0.00000000000E+00  0.16315530592E+04  0.16315530592E+04  0.50400001928E-02 0. -1.
       -1   -1    0    0    0  501  0.00000000000E+00  0.00000000000E+00 -0.83476310762E+03  0.83476310763E+03  0.50400001928E-02 0.  1.
    10030    2    1    2    0    0  0.00000000000E+00  0.00000000000E+00  0.79678995159E+03  0.24663161668E+04  0.23340610977E+04 0.  0.
        1    1    3    3  502    0  0.20249110661E+01 -0.87322111715E+03  0.12165013593E+04  0.14974627798E+04  0.50400001928E-02 0. -1.
       -1    1    3    3    0  502 -0.20249110661E+01  0.87322111715E+03 -0.41971140775E+03  0.96885338701E+03  0.50400001928E-02 0.  1.
</event>
<event>
 5   0  0.1588969E-05  0.2302231E+04  0.7818609E-02  0.8477042E-01
        2   -1    0    0  501    0  0.00000000000E+00  0.00000000000E+00  0.22013390590E+04  0.22013390590E+04  0.25500000920E-02 0. -1.
       -2   -1    0    0    0  501  0.00000000000E+00  0.00000000000E+00 -0.60193698489E+03  0.60193698489E+03  0.25500000920E-02 0.  1.
    10030    2    1    2    0    0  0.00000000000E+00  0.00000000000E+00  0.15994020741E+04  0.28032760439E+04  0.23022314357E+04 0.  0.
        1    1    3    3  502    0 -0.48424268767E+03  0.95334504868E+03  0.28065502078E+03  0.11054976269E+04  0.50400001928E-02 0.  1.
       -1    1    3    3    0  502  0.48424268767E+03 -0.95334504868E+03  0.13187470533E+04  0.16977784169E+04  0.50400001928E-02 0. -1.
</event>
<event>
 5   0  0.1588969E-05  0.2261563E+04  0.7818609E-02  0.8493233E-01
        2   -1    0    0  501    0  0.00000000000E+00  0.00000000000E+00  0.11290671650E+04  0.11290671650E+04  0.25500000920E-02 0. -1.
       -2   -1    0    0    0  501  0.00000000000E+00  0.00000000000E+00 -0.11324979531E+04  0.11324979531E+04  0.25500000920E-02 0.  1.
    10030    2    1    2    0    0  0.00000000000E+00  0.00000000000E+00 -0.34307881325E+01  0.22615651181E+04  0.22615625159E+04 0.  0.
        1    1    3    3  502    0  0.24571758746E+03  0.42714625394E+03 -0.10194764574E+04  0.11323264998E+04  0.50400001928E-02 0.  1.
       -1    1    3    3    0  502 -0.24571758746E+03 -0.42714625394E+03  0.10160456692E+04  0.11292386183E+04  0.50400001928E-02 0. -1.
</event>
<event>
 5   0  0.1697855E-05  0.2300726E+04  0.7818609E-02  0.8477635E-01
       -2   -1    0    0    0  501  0.00000000000E+00  0.00000000000E+00  0.15728811635E+04  0.15728811635E+04  0.25500000920E-02 0. -1.
        2   -1    0    0  501    0  0.00000000000E+00  0.00000000000E+00 -0.84134482742E+03  0.84134482742E+03  0.25500000920E-02 0.  1.
    10030    2    1    2    0    0  0.00000000000E+00  0.00000000000E+00  0.73153633604E+03  0.24142259909E+04  0.23007263471E+04 0.  0.
        5    1    3    3  502    0  0.45896383932E+03 -0.10240682439E+04  0.63112632269E+03  0.12875193588E+04  0.46999998093E+01 0. -1.
       -5    1    3    3    0  502 -0.45896383932E+03  0.10240682439E+04  0.10041001334E+03  0.11267066321E+04  0.46999998093E+01 0.  1.
</event>
<event>
 5   0  0.1602809E-05  0.2302434E+04  0.7818609E-02  0.8476962E-01
       -2   -1    0    0    0  501  0.00000000000E+00  0.00000000000E+00  0.66450019608E+03  0.66450019609E+03  0.25500000920E-02 0. -1.
        2   -1    0    0  501    0  0.00000000000E+00  0.00000000000E+00 -0.19944327566E+04  0.19944327566E+04  0.25500000920E-02 0.  1.
    10030    2    1    2    0    0  0.00000000000E+00  0.00000000000E+00 -0.13299325605E+04  0.26589329527E+04  0.23024343273E+04 0.  0.
        3    1    3    3  502    0  0.33666058507E+03 -0.48445209825E+03  0.47666720603E+03  0.75844961635E+03  0.10100000352E+00 0. -1.
       -3    1    3    3    0  502 -0.33666058507E+03  0.48445209825E+03 -0.18065997665E+04  0.19004833363E+04  0.10100000352E+00 0.  1.
</event>
<event>
 5   0  0.7202572E-06  0.2304930E+04  0.7818609E-02  0.8475980E-01
        1   -1    0    0  501    0  0.00000000000E+00  0.00000000000E+00  0.16399798786E+04  0.16399798787E+04  0.50400001928E-02 0.  1.
       -1   -1    0    0    0  501  0.00000000000E+00  0.00000000000E+00 -0.80987303353E+03  0.80987303355E+03  0.50400001928E-02 0. -1.
    10030    2    1    2    0    0  0.00000000000E+00  0.00000000000E+00  0.83010684512E+03  0.24498529122E+04  0.23049299159E+04 0.  0.
        2    1    3    3  502    0 -0.12234507758E+03 -0.10840083163E+04  0.81008445543E+03  0.13587785591E+04  0.25500000920E-02 0. -1.
       -2    1    3    3    0  502  0.12234507758E+03  0.10840083163E+04  0.20022389689E+02  0.10910743531E+04  0.25500000920E-02 0.  1.
</event>
<event>
 5   0  0.7183014E-06  0.2298690E+04  0.7818609E-02  0.8478438E-01
       -1   -1    0    0    0  501  0.00000000000E+00  0.00000000000E+00  0.10164626334E+04  0.10164626334E+04  0.50400001928E-02 0.  1.
        1   -1    0    0  501    0  0.00000000000E+00  0.00000000000E+00 -0.12995996463E+04  0.12995996464E+04  0.50400001928E-02 0. -1.
    10030    2    1    2    0    0  0.00000000000E+00  0.00000000000E+00 -0.28313701297E+03  0.23160622798E+04  0.22986904784E+04 0.  0.
        3    1    3    3  502    0  0.94858573242E+03 -0.44396378402E+03 -0.61851224531E+03  0.12163371823E+04  0.10100000352E+00 0. -1.
       -3    1    3    3    0  502 -0.94858573242E+03  0.44396378402E+03  0.33537523234E+03  0.10997250974E+04  0.10100000352E+00 0.  1.
</event>
<event>
 5   0  0.5704875E-06  0.2284546E+04  0.7818609E-02  0.8484039E-01
        3   -1    0    0  501    0  0.00000000000E+00  0.00000000000E+00  0.12484684129E+04  0.12484684170E+04  0.10100000352E+00 0.  1.
       -3   -1    0    0    0  501  0.00000000000E+00  0.00000000000E+00 -0.10451108182E+04  0.10451108231E+04  0.10100000352E+00 0. -1.
    10030    2    1    2    0    0  0.00000000000E+00  0.00000000000E+00  0.20335759473E+03  0.22935792400E+04  0.22845462173E+04 0.  0.
        5    1    3    3  502    0  0.10362562265E+04 -0.19988184918E+03  0.54042625929E+03  0.11856906647E+04  0.46999998093E+01 0.  1.
       -5    1    3    3    0  502 -0.10362562265E+04  0.19988184918E+03 -0.33706866457E+03  0.11078885753E+04  0.46999998093E+01 0. -1.
</event>
<event>
 5   0  0.7202572E-06  0.2302600E+04  0.7818609E-02  0.8476897E-01
        1   -1    0    0  501    0  0.00000000000E+00  0.00000000000E+00  0.85067336958E+03  0.85067336959E+03  0.50400001928E-02 0.  1.
       -1   -1    0    0    0  501  0.00000000000E+00  0.00000000000E+00 -0.15581674228E+04  0.15581674228E+04  0.50400001928E-02 0. -1.
    10030    2    1    2    0    0  0.00000000000E+00  0.00000000000E+00 -0.70749405320E+03  0.24088407924E+04  0.23025998627E+04 0.  0.
        2    1    3    3  502    0  0.20482083408E+03  0.11060041728E+04 -0.61062643419E+03  0.12798677457E+04  0.25500000920E-02 0.  1.
       -2    1    3    3    0  502 -0.20482083408E+03 -0.11060041728E+04 -0.96867619013E+02  0.11289730466E+04  0.25500000920E-02 0. -1.
</event>
<event>
 5   0  0.7391007E-06  0.2302649E+04  0.7818609E-02  0.8476877E-01
        1   -1    0    0  501    0  0.00000000000E+00  0.00000000000E+00  0.11181170673E+04  0.11181170673E+04  0.50400001928E-02 0.  1.
       -1   -1    0    0    0  501  0.00000000000E+00  0.00000000000E+00 -0.11855179124E+04  0.11855179125E+04  0.50400001928E-02 0. -1.
    10030    2    1    2    0    0  0.00000000000E+00  0.00000000000E+00 -0.67400845127E+02  0.23036349798E+04  0.23026487457E+04 0.  0.
        1    1    3    3  502    0  0.21740924215E+03  0.50130367592E+03  0.98013169459E+03  0.11221543088E+04  0.50400001928E-02 0.  1.
       -1    1    3    3    0  502 -0.21740924215E+03 -0.50130367592E+03 -0.10475325397E+04  0.11814806710E+04  0.50400001928E-02 0. -1.
</event>
<event>
 5   0  0.1588969E-05  0.2304756E+04  0.7818609E-02  0.8476048E-01
        2   -1    0    0  501    0  0.00000000000E+00  0.00000000000E+00  0.12797088804E+04  0.12797088804E+04  0.25500000920E-02 0.  1.
       -2   -1    0    0    0  501  0.00000000000E+00  0.00000000000E+00 -0.10377163600E+04  0.10377163600E+04  0.25500000920E-02 0. -1.
    10030    2    1    2    0    0  0.00000000000E+00  0.00000000000E+00  0.24199252043E+03  0.23174252405E+04  0.23047558147E+04 0.  0.
        1    1    3    3  502    0 -0.26096096953E+03  0.11206523795E+04  0.18468843303E+03  0.11653635487E+04  0.50400001928E-02 0.  1.
       -1    1    3    3    0  502  0.26096096953E+03 -0.11206523795E+04  0.57304087404E+02  0.11520616918E+04  0.50400001928E-02 0. -1.
</event>
<event>
 5   0  0.7183014E-06  0.2294969E+04  0.7818609E-02  0.8479907E-01
       -1   -1    0    0    0  501  0.00000000000E+00  0.00000000000E+00  0.86246503169E+03  0.86246503170E+03  0.50400001928E-02 0.  1.
        1   -1    0    0  501    0  0.00000000000E+00  0.00000000000E+00 -0.15266949813E+04  0.15266949813E+04  0.50400001928E-02 0. -1.
    10030    2    1    2    0    0  0.00000000000E+00  0.00000000000E+00 -0.66422994962E+03  0.23891600130E+04  0.22949693117E+04 0.  0.
        3    1    3    3  502    0  0.27542104879E+03 -0.41120808346E+03  0.74563890630E+03  0.89494481998E+03  0.10100000352E+00 0.  1.
       -3    1    3    3    0  502 -0.27542104879E+03  0.41120808346E+03 -0.14098688559E+04  0.14942151930E+04  0.10100000352E+00 0. -1.
</event>
<event>
 5   0  0.1635955E-05  0.2285618E+04  0.7818609E-02  0.8483613E-01
        2   -1    0    0  501    0  0.00000000000E+00  0.00000000000E+00  0.93070297967E+03  0.93070297967E+03  0.25500000920E-02 0. -1.
       -2   -1    0    0    0  501  0.00000000000E+00  0.00000000000E+00 -0.14032537174E+04  0.14032537174E+04  0.25500000920E-02 0.  1.
    10030    2    1    2    0    0  0.00000000000E+00  0.00000000000E+00 -0.47255073776E+03  0.23339566971E+04  0.22856180049E+04 0.  0.
        2    1    3    3  502    0  0.99650679058E+03 -0.22675167960E+03 -0.75853128411E+03  0.12727182787E+04  0.25500000920E-02 0.  1.
       -2    1    3    3    0  502 -0.99650679058E+03  0.22675167960E+03  0.28598054635E+03  0.10612384184E+04  0.25500000920E-02 0. -1.
</event>
<event>
 5   0  0.7278815E-06  0.2302361E+04  0.7818609E-02  0.8476991E-01
        1   -1    0    0  501    0  0.00000000000E+00  0.00000000000E+00  0.12923870955E+04  0.12923870955E+04  0.50400001928E-02 0. -1.
       -1   -1    0    0    0  501  0.00000000000E+00  0.00000000000E+00 -0.10254022186E+04  0.10254022186E+04  0.50400001928E-02 0.  1.
    10030    2    1    2    0    0  0.00000000000E+00  0.00000000000E+00  0.26698487691E+03  0.23177893141E+04  0.23023610447E+04 0.  0.
        5    1    3    3  502    0  0.10672370968E+04  0.27907326119E+03  0.46481426013E+03  0.11970594355E+04  0.46999998093E+01 0. -1.
       -5    1    3    3    0  502 -0.10672370968E+04 -0.27907326119E+03 -0.19782938322E+03  0.11207298785E+04  0.46999998093E+01 0.  1.
</event>
<event>
 5   0  0.1626636E-05  0.2284470E+04  0.7818609E-02  0.8484070E-01
        2   -1    0    0  501    0  0.00000000000E+00  0.00000000000E+00  0.12863284468E+04  0.12863284468E+04  0.25500000920E-02 0.  1.
       -2   -1    0    0    0  501  0.00000000000E+00  0.00000000000E+00 -0.10142827299E+04  0.10142827300E+04  0.25500000920E-02 0. -1.
    10030    2    1    2    0    0  0.00000000000E+00  0.00000000000E+00  0.27204571687E+03  0.23006111768E+04  0.22844699417E+04 0.  0.
        4    1    3    3  502    0 -0.10354294285E+04  0.45492270391E+03  0.29724883927E+03  0.11693704517E+04  0.12699999809E+01 0.  1.
       -4    1    3    3    0  502  0.10354294285E+04 -0.45492270391E+03 -0.25203122399E+02  0.11312407251E+04  0.12699999809E+01 0. -1.
</event>
<event>
 5   0  0.1588969E-05  0.2301221E+04  0.7818609E-02  0.8477440E-01
        2   -1    0    0  501    0  0.00000000000E+00  0.00000000000E+00  0.18743419933E+04  0.18743419933E+04  0.25500000920E-02 0. -1.
       -2   -1    0    0    0  501  0.00000000000E+00  0.00000000000E+00 -0.70633058086E+03  0.70633058086E+03  0.25500000920E-02 0.  1.
    10030    2    1    2    0    0  0.00000000000E+00  0.00000000000E+00  0.11680114124E+04  0.25806725741E+04  0.23012214746E+04 0.  0.
        1    1    3    3  502    0  0.22395659177E+03  0.90135401003E+03 -0.17767099242E+03  0.94560170683E+03  0.50400001928E-02 0.  1.
       -1    1    3    3    0  502 -0.22395659177E+03 -0.90135401003E+03  0.13456824048E+04  0.16350708673E+04  0.50400001928E-02 0. -1.
</event>
<event>
 5   0  0.1588969E-05  0.2299758E+04  0.7818609E-02  0.8478017E-01
       -2   -1    0    0    0  501  0.00000000000E+00  0.00000000000E+00  0.10509057841E+04  0.10509057841E+04  0.25500000920E-02 0. -1.
        2   -1    0    0  501    0  0.00000000000E+00  0.00000000000E+00 -0.12581732974E+04  0.12581732974E+04  0.25500000920E-02 0.  1.
    10030    2    1    2    0    0  0.00000000000E+00  0.00000000000E+00 -0.20726751329E+03  0.23090790815E+04  0.22997578965E+04 0.  0.
        1    1    3    3  502    0  0.39272810822E+03 -0.56260080094E+03 -0.10301232278E+04  0.12377030713E+04  0.50400001928E-02 0.  1.
       -1    1    3    3    0  502 -0.39272810822E+03  0.56260080094E+03  0.82285571452E+03  0.10713760102E+04  0.50400001928E-02 0. -1.
</event>
<event>
 5   0  0.7416556E-06  0.2299240E+04  0.7818609E-02  0.8478221E-01
        1   -1    0    0  501    0  0.00000000000E+00  0.00000000000E+00  0.10639239206E+04  0.10639239206E+04  0.50400001928E-02 0. -1.
       -1   -1    0    0    0  501  0.00000000000E+00  0.00000000000E+00 -0.12422190008E+04  0.12422190008E+04  0.50400001928E-02 0.  1.
    10030    2    1    2    0    0  0.00000000000E+00  0.00000000000E+00 -0.17829508019E+03  0.23061429214E+04  0.22992403177E+04 0.  0.
        4    1    3    3  502    0  0.41356235700E+02  0.85991482544E+03 -0.85331474349E+03  0.12121516034E+04  0.12699999809E+01 0.  1.
       -4    1    3    3    0  502 -0.41356235700E+02 -0.85991482544E+03  0.67501966330E+03  0.10939913181E+04  0.12699999809E+01 0. -1.
</event>
<event>
 5   0  0.1626636E-05  0.2345223E+04  0.7818609E-02  0.8460301E-01
       -2   -1    0    0    0  501  0.00000000000E+00  0.00000000000E+00  0.10846009697E+04  0.10846009697E+04  0.25500000920E-02 0. -1.
        2   -1    0    0  501    0  0.00000000000E+00  0.00000000000E+00 -0.12677632173E+04  0.12677632173E+04  0.25500000920E-02 0.  1.
    10030    2    1    2    0    0  0.00000000000E+00  0.00000000000E+00 -0.18316224765E+03  0.23523641870E+04  0.23452225607E+04 0.  0.
        4    1    3    3  502    0 -0.10235792700E+04 -0.29212484118E+03 -0.58497756675E+03  0.12145994448E+04  0.12699999809E+01 0.  1.
       -4    1    3    3    0  502  0.10235792700E+04  0.29212484118E+03  0.40181531910E+03  0.11377647421E+04  0.12699999809E+01 0. -1.
</event>
<event>
 5   0  0.1626636E-05  0.2292442E+04  0.7818609E-02  0.8480907E-01
        2   -1    0    0  501    0  0.00000000000E+00  0.00000000000E+00  0.14522714736E+04  0.14522714736E+04  0.25500000920E-02 0. -1.
       -2   -1    0    0    0  501  0.00000000000E+00  0.00000000000E+00 -0.90466774058E+03  0.90466774058E+03  0.25500000920E-02 0.  1.
    10030    2    1    2    0    0  0.00000000000E+00  0.00000000000E+00  0.54760373303E+03  0.23569392142E+04  0.22924424989E+04 0.  0.
        4    1    3    3  502    0  0.10219202105E+04  0.51310130170E+03  0.35493775340E+03  0.11973204600E+04  0.12699999809E+01 0. -1.
       -4    1    3    3    0  502 -0.10219202105E+04 -0.51310130170E+03  0.19266597963E+03  0.11596187541E+04  0.12699999809E+01 0.  1.
</event>
<event>
 5   0  0.7202572E-06  0.2304810E+04  0.7818609E-02  0.8476027E-01
        1   -1    0    0  501    0  0.00000000000E+00  0.00000000000E+00  0.97866161379E+03  0.97866161380E+03  0.50400001928E-02 0.  1.
       -1   -1    0    0    0  501  0.00000000000E+00  0.00000000000E+00 -0.13569936751E+04  0.13569936751E+04  0.50400001928E-02 0. -1.
    10030    2    1    2    0    0  0.00000000000E+00  0.00000000000E+00 -0.37833206130E+03  0.23356552889E+04  0.23048102915E+04 0.  0.
        2    1    3    3  502    0  0.78984470138E+03 -0.39294790594E+03 -0.94055708641E+03  0.12895388098E+04  0.25500000920E-02 0. -1.
       -2    1    3    3    0  502 -0.78984470138E+03  0.39294790594E+03  0.56222502511E+03  0.10461164791E+04  0.25500000920E-02 0.  1.
</event>
<event>
 5   0  0.1588969E-05  0.2302178E+04  0.7818609E-02  0.8477063E-01
       -2   -1    0    0    0  501  0.00000000000E+00  0.00000000000E+00  0.12880052237E+04  0.12880052237E+04  0.25500000920E-02 0. -1.
        2   -1    0    0  501    0  0.00000000000E+00  0.00000000000E+00 -0.10287271810E+04  0.10287271811E+04  0.25500000920E-02 0.  1.
    10030    2    1    2    0    0  0.00000000000E+00  0.00000000000E+00  0.25927804267E+03  0.23167324048E+04  0.23021780843E+04 0.  0.
        1    1    3    3  502    0 -0.50955418741E+03  0.92855741362E+03  0.58320078771E+03  0.12091267506E+04  0.50400001928E-02 0. -1.
       -1    1    3    3    0  502  0.50955418741E+03 -0.92855741362E+03 -0.32392274504E+03  0.11076056541E+04  0.50400001928E-02 0.  1.
</event>
<event>
 5   0  0.7278815E-06  0.2292575E+04  0.7818609E-02  0.8480854E-01
        1   -1    0    0  501    0  0.00000000000E+00  0.00000000000E+00  0.10264050828E+04  0.10264050828E+04  0.50400001928E-02 0.  1.
       -1   -1    0    0    0  501  0.00000000000E+00  0.00000000000E+00 -0.12801723460E+04  0.12801723460E+04  0.50400001928E-02 0. -1.
    10030    2    1    2    0    0  0.00000000000E+00  0.00000000000E+00 -0.25376726323E+03  0.23065774289E+04  0.22925753230E+04 0.  0.
        5    1    3    3  502    0  0.11343350909E+04 -0.26737427679E+02  0.36967790486E+02  0.11352619504E+04  0.46999998093E+01 0. -1.
       -5    1    3    3    0  502 -0.11343350909E+04  0.26737427679E+02 -0.29073505372E+03  0.11713154784E+04  0.46999998093E+01 0.  1.
</event>
<event>
 5   0  0.7278815E-06  0.2255383E+04  0.7818609E-02  0.8495723E-01
        1   -1    0    0  501    0  0.00000000000E+00  0.00000000000E+00  0.81939167651E+03  0.81939167653E+03  0.50400001928E-02 0.  1.
       -1   -1    0    0    0  501  0.00000000000E+00  0.00000000000E+00 -0.15519911348E+04  0.15519911348E+04  0.50400001928E-02 0. -1.
    10030    2    1    2    0    0  0.00000000000E+00  0.00000000000E+00 -0.73259945826E+03  0.23713828113E+04  0.22553834422E+04 0.  0.
        5    1    3    3  502    0 -0.39390008459E+03 -0.10432282109E+04 -0.18978385825E+03  0.11311597498E+04  0.46999998093E+01 0.  1.
       -5    1    3    3    0  502  0.39390008459E+03  0.10432282109E+04 -0.54281560001E+03  0.12402230615E+04  0.46999998093E+01 0. -1.
</event>
<event>
 5   0  0.7278815E-06  0.2283485E+04  0.7818609E-02  0.8484461E-01
        1   -1    0    0  501    0  0.00000000000E+00  0.00000000000E+00  0.13730688223E+04  0.13730688223E+04  0.50400001928E-02 0.  1.
       -1   -1    0    0    0  501  0.00000000000E+00  0.00000000000E+00 -0.94938903752E+03  0.94938903753E+03  0.50400001928E-02 0. -1.
    10030    2    1    2    0    0  0.00000000000E+00  0.00000000000E+00  0.42367978479E+03  0.23224578598E+04  0.22834854829E+04 0.  0.
        5    1    3    3  502    0 -0.25600132722E+03  0.33081191754E+03 -0.86863826594E+03  0.96412018513E+03  0.46999998093E+01 0. -1.
       -5    1    3    3    0  502  0.25600132722E+03 -0.33081191754E+03  0.12923180507E+04  0.13583376747E+04  0.46999998093E+01 0.  1.
</event>
<event>
 5   0  0.7202572E-06  0.2304428E+04  0.7818609E-02  0.8476177E-01
        1   -1    0    0  501    0  0.00000000000E+00  0.00000000000E+00  0.84471340583E+03  0.84471340585E+03  0.50400001928E-02 0.  1.
       -1   -1    0    0    0  501  0.00000000000E+00  0.00000000000E+00 -0.15716544778E+04  0.15716544778E+04  0.50400001928E-02 0. -1.
    10030    2    1    2    0    0  0.00000000000E+00  0.00000000000E+00 -0.72694107197E+03  0.24163678837E+04  0.23044284383E+04 0.  0.
        2    1    3    3  502    0  0.10051005741E+04  0.25211451858E+03 -0.89173706118E+03  0.13671078527E+04  0.25500000920E-02 0.  1.
       -2    1    3    3    0  502 -0.10051005741E+04 -0.25211451858E+03  0.16479598921E+03  0.10492600310E+04  0.25500000920E-02 0. -1.
</event>
<event>
 5   0  0.1602809E-05  0.2318471E+04  0.7818609E-02  0.8470674E-01
       -2   -1    0    0    0  501  0.00000000000E+00  0.00000000000E+00  0.93750775329E+03  0.93750775329E+03  0.25500000920E-02 0. -1.
        2   -1    0    0  501    0  0.00000000000E+00  0.00000000000E+00 -0.14334035326E+04  0.14334035326E+04  0.25500000920E-02 0.  1.
    10030    2    1    2    0    0  0.00000000000E+00  0.00000000000E+00 -0.49589577936E+03  0.23709112859E+04  0.23184709836E+04 0.  0.
        3    1    3    3  502    0 -0.96923173926E+03 -0.57930534083E+03 -0.51622122819E+03  0.12415672390E+04  0.10100000352E+00 0.  1.
       -3    1    3    3    0  502  0.96923173926E+03  0.57930534083E+03  0.20325448832E+02  0.11293440469E+04  0.10100000352E+00 0. -1.
</event>
<event>
 5   0  0.1697855E-05  0.2314328E+04  0.7818609E-02  0.8472293E-01
       -2   -1    0    0    0  501  0.00000000000E+00  0.00000000000E+00  0.72834911015E+03  0.72834911016E+03  0.25500000920E-02 0.  1.
        2   -1    0    0  501    0  0.00000000000E+00  0.00000000000E+00 -0.18384433973E+04  0.18384433973E+04  0.25500000920E-02 0. -1.
    10030    2    1    2    0    0  0.00000000000E+00  0.00000000000E+00 -0.11100942872E+04  0.25667925075E+04  0.23143280774E+04 0.  0.
        5    1    3    3  502    0 -0.18374371249E+03 -0.11355497984E+04 -0.69433117172E+03  0.13436342369E+04  0.46999998093E+01 0. -1.
       -5    1    3    3    0  502  0.18374371249E+03  0.11355497984E+04 -0.41576311543E+03  0.12231582705E+04  0.46999998093E+01 0.  1.
</event>
<event>
 5   0  0.1635955E-05  0.2290207E+04  0.7818609E-02  0.8481792E-01
        2   -1    0    0  501    0  0.00000000000E+00  0.00000000000E+00  0.12889200281E+04  0.12889200281E+04  0.25500000920E-02 0. -1.
       -2   -1    0    0    0  501  0.00000000000E+00  0.00000000000E+00 -0.10173342835E+04  0.10173342835E+04  0.25500000920E-02 0.  1.
    10030    2    1    2    0    0  0.00000000000E+00  0.00000000000E+00  0.27158574459E+03  0.23062543116E+04  0.22902074432E+04 0.  0.
        2    1    3    3  502    0  0.10504598601E+04  0.18723568890E+02  0.59444662554E+03  0.12071384677E+04  0.25500000920E-02 0. -1.
       -2    1    3    3    0  502 -0.10504598601E+04 -0.18723568890E+02 -0.32286088095E+03  0.10991158438E+04  0.25500000920E-02 0.  1.
</event>
<event>
 5   0  0.7202572E-06  0.2307967E+04  0.7818609E-02  0.8474786E-01
        1   -1    0    0  501    0  0.00000000000E+00  0.00000000000E+00  0.14115470720E+04  0.14115470720E+04  0.50400001928E-02 0.  1.
       -1   -1    0    0    0  501  0.00000000000E+00  0.00000000000E+00 -0.94341730609E+03  0.94341730610E+03  0.50400001928E-02 0. -1.
    10030    2    1    2    0    0  0.00000000000E+00  0.00000000000E+00  0.46812976592E+03  0.23549643781E+04  0.23079670155E+04 0.  0.
        2    1    3    3  502    0 -0.33568486738E+03 -0.19894478257E+03  0.13421879375E+04  0.13977595703E+04  0.25500000920E-02 0.  1.
       -2    1    3    3    0  502  0.33568486738E+03  0.19894478257E+03 -0.87405817163E+03  0.95720480781E+03  0.25500000920E-02 0. -1.
</event>
<event>
 5   0  0.1588969E-05  0.2296513E+04  0.7818609E-02  0.8479297E-01
        2   -1    0    0  501    0  0.00000000000E+00  0.00000000000E+00  0.26150149030E+04  0.26150149030E+04  0.25500000920E-02 0. -1.
       -2   -1    0    0    0  501  0.00000000000E+00  0.00000000000E+00 -0.50420111822E+03  0.50420111822E+03  0.25500000920E-02 0.  1.
    10030    2    1    2    0    0  0.00000000000E+00  0.00000000000E+00  0.21108137848E+04  0.31192160212E+04  0.22965133906E+04 0.  0.
        1    1    3    3  502    0 -0.85665181369E+03  0.69714356990E+03  0.62884182855E+03  0.12709459203E+04  0.50400001928E-02 0.  1.
       -1    1    3    3    0  502  0.85665181369E+03 -0.69714356990E+03  0.14819719563E+04  0.18482701010E+04  0.50400001928E-02 0. -1.
</event>
<event>
 5   0  0.7202572E-06  0.2321588E+04  0.7818609E-02  0.8469457E-01
        1   -1    0    0  501    0  0.00000000000E+00  0.00000000000E+00  0.12795203997E+04  0.12795203997E+04  0.50400001928E-02 0.  1.
       -1   -1    0    0    0  501  0.00000000000E+00  0.00000000000E+00 -0.10530845356E+04  0.10530845356E+04  0.50400001928E-02 0. -1.
    10030    2    1    2    0    0  0.00000000000E+00  0.00000000000E+00  0.22643586409E+03  0.23326049352E+04  0.23215883751E+04 0.  0.
        2    1    3    3  502    0 -0.55669058984E+02  0.77587784073E+03  0.97890827336E+03  0.12503387043E+04  0.25500000920E-02 0.  1.
       -2    1    3    3    0  502  0.55669058984E+02 -0.77587784073E+03 -0.75247240927E+03  0.10822662309E+04  0.25500000920E-02 0. -1.
</event>
<event>
 5   0  0.7391007E-06  0.2285625E+04  0.7818609E-02  0.8483611E-01
        1   -1    0    0  501    0  0.00000000000E+00  0.00000000000E+00  0.14387871687E+04  0.14387871687E+04  0.50400001928E-02 0.  1.
       -1   -1    0    0    0  501  0.00000000000E+00  0.00000000000E+00 -0.90772314621E+03  0.90772314623E+03  0.50400001928E-02 0. -1.
    10030    2    1    2    0    0  0.00000000000E+00  0.00000000000E+00  0.53106402246E+03  0.23465103149E+04  0.22856250047E+04 0.  0.
        1    1    3    3  502    0  0.48538801827E+03 -0.26460830727E+02 -0.79629137281E+03  0.93294247104E+03  0.50400001928E-02 0. -1.
       -1    1    3    3    0  502 -0.48538801827E+03  0.26460830727E+02  0.13273553953E+04  0.14135678439E+04  0.50400001928E-02 0.  1.
</event>
<event>
 5   0  0.7183014E-06  0.2300829E+04  0.7818609E-02  0.8477594E-01
       -1   -1    0    0    0  501  0.00000000000E+00  0.00000000000E+00  0.77354356304E+03  0.77354356306E+03  0.50400001928E-02 0. -1.
        1   -1    0    0  501    0  0.00000000000E+00  0.00000000000E+00 -0.17108969657E+04  0.17108969657E+04  0.50400001928E-02 0.  1.
    10030    2    1    2    0    0  0.00000000000E+00  0.00000000000E+00 -0.93735340261E+03  0.24844405287E+04  0.23008288375E+04 0.  0.
        3    1    3    3  502    0 -0.11069317407E+04 -0.20634893177E+03 -0.72323439878E+03  0.13382622187E+04  0.10100000352E+00 0.  1.
       -3    1    3    3    0  502  0.11069317407E+04  0.20634893177E+03 -0.21411900383E+03  0.11461783100E+04  0.10100000352E+00 0. -1.
</event>
<event>
 5   0  0.7202572E-06  0.2333147E+04  0.7818609E-02  0.8464965E-01
       -1   -1    0    0    0  501  0.00000000000E+00  0.00000000000E+00  0.76791535596E+03  0.76791535598E+03  0.50400001928E-02 0. -1.
        1   -1    0    0  501    0  0.00000000000E+00  0.00000000000E+00 -0.17721919744E+04  0.17721919744E+04  0.50400001928E-02 0.  1.
    10030    2    1    2    0    0  0.00000000000E+00  0.00000000000E+00 -0.10042766185E+04  0.25401073304E+04  0.23331467428E+04 0.  0.
        2    1    3    3  502    0 -0.46465536452E+03 -0.61599410203E+03  0.45042529210E+03  0.89344070048E+03  0.25500000920E-02 0. -1.
       -2    1    3    3    0  502  0.46465536452E+03  0.61599410203E+03 -0.14547019106E+04  0.16466666299E+04  0.25500000920E-02 0.  1.
</event>
<event>
 5   0  0.7183014E-06  0.2298238E+04  0.7818609E-02  0.8478616E-01
       -1   -1    0    0    0  501  0.00000000000E+00  0.00000000000E+00  0.11003797099E+04  0.11003797100E+04  0.50400001928E-02 0.  1.
        1   -1    0    0  501    0  0.00000000000E+00  0.00000000000E+00 -0.12000174827E+04  0.12000174827E+04  0.50400001928E-02 0. -1.
    10030    2    1    2    0    0  0.00000000000E+00  0.00000000000E+00 -0.99637772751E+02  0.23003971927E+04  0.22982383598E+04 0.  0.
        3    1    3    3  502    0  0.15643548559E+03  0.10782436235E+04 -0.41539272127E+03  0.11660328022E+04  0.10100000352E+00 0. -1.
       -3    1    3    3    0  502 -0.15643548559E+03 -0.10782436235E+04  0.31575494852E+03  0.11343643905E+04  0.10100000352E+00 0.  1.
</event>
<event>
 5   0  0.7416556E-06  0.2306694E+04  0.7818609E-02  0.8475286E-01
        1   -1    0    0  501    0  0.00000000000E+00  0.00000000000E+00  0.22401594010E+04  0.22401594010E+04  0.50400001928E-02 0.  1.
       -1   -1    0    0    0  501  0.00000000000E+00  0.00000000000E+00 -0.59380122196E+03  0.59380122199E+03  0.50400001928E-02 0. -1.
    10030    2    1    2    0    0  0.00000000000E+00  0.00000000000E+00  0.16463581790E+04  0.28339606229E+04  0.23066940757E+04 0.  0.
        4    1    3    3  502    0 -0.35359666516E+03  0.10177848793E+04  0.13286787795E+04  0.17106447832E+04  0.12699999809E+01 0.  1.
       -4    1    3    3    0  502  0.35359666516E+03 -0.10177848793E+04  0.31767939945E+03  0.11233158398E+04  0.12699999809E+01 0. -1.
</event>
<event>
 5   0  0.7202572E-06  0.2316810E+04  0.7818609E-02  0.8471323E-01
        1   -1    0    0  501    0  0.00000000000E+00  0.00000000000E+00  0.22691490480E+04  0.22691490480E+04  0.50400001928E-02 0. -1.
       -1   -1    0    0    0  501  0.00000000000E+00  0.00000000000E+00 -0.59136797059E+03  0.59136797062E+03  0.50400001928E-02 0.  1.
    10030    2    1    2    0    0  0.00000000000E+00  0.00000000000E+00  0.16777810774E+04  0.28605170186E+04  0.23168099339E+04 0.  0.
        2    1    3    3  502    0 -0.16618003154E+03  0.18068816470E+03  0.22366641136E+04  0.22500956363E+04  0.25500000920E-02 0. -1.
       -2    1    3    3    0  502  0.16618003154E+03 -0.18068816470E+03 -0.55888303620E+03  0.61042138224E+03  0.25500000920E-02 0.  1.
</event>
<event>
 5   0  0.1635955E-05  0.2319956E+04  0.7818609E-02  0.8470094E-01
       -2   -1    0    0    0  501  0.00000000000E+00  0.00000000000E+00  0.76248454145E+03  0.76248454146E+03  0.25500000920E-02 0.  1.
        2   -1    0    0  501    0  0.00000000000E+00  0.00000000000E+00 -0.17646898443E+04  0.17646898443E+04  0.25500000920E-02 0. -1.
    10030    2    1    2    0    0  0.00000000000E+00  0.00000000000E+00 -0.10022053028E+04  0.25271743857E+04  0.23199557985E+04 0.  0.
        2    1    3    3  502    0 -0.83908868535E+03 -0.39838809412E+03 -0.12579769585E+04  0.15637419619E+04  0.25500000920E-02 0. -1.
       -2    1    3    3    0  502  0.83908868535E+03  0.39838809412E+03  0.25577165565E+03  0.96343242381E+03  0.25500000920E-02 0.  1.
</event>
<event>
 5   0  0.7202572E-06  0.2309970E+04  0.7818609E-02  0.8474000E-01
        1   -1    0    0  501    0  0.00000000000E+00  0.00000000000E+00  0.21675735581E+04  0.21675735581E+04  0.50400001928E-02 0. -1.
       -1   -1    0    0    0  501  0.00000000000E+00  0.00000000000E+00 -0.61543034492E+03  0.61543034494E+03  0.50400001928E-02 0.  1.
    10030    2    1    2    0    0  0.00000000000E+00  0.00000000000E+00  0.15521432132E+04  0.27830039031E+04  0.23099701665E+04 0.  0.
        2    1    3    3  502    0  0.47814178889E+03 -0.32336609229E+03  0.19813357930E+04  0.20637046117E+04  0.25500000920E-02 0. -1.
       -2    1    3    3    0  502 -0.47814178889E+03  0.32336609229E+03 -0.42919257981E+03  0.71929929132E+03  0.25500000920E-02 0.  1.
</event>
<event>
 5   0  0.7278815E-06  0.2221898E+04  0.7818609E-02  0.8509368E-01
        1   -1    0    0  501    0  0.00000000000E+00  0.00000000000E+00  0.13110000888E+04  0.13110000888E+04  0.50400001928E-02 0.  1.
       -1   -1    0    0    0  501  0.00000000000E+00  0.00000000000E+00 -0.94142488444E+03  0.94142488445E+03  0.50400001928E-02 0. -1.
    10030    2    1    2    0    0  0.00000000000E+00  0.00000000000E+00  0.36957520436E+03  0.22524249733E+04  0.22218983839E+04 0.  0.
        5    1    3    3  502    0 -0.57405945228E+03  0.91525092493E+03  0.44710420407E+03  0.11692530819E+04  0.46999998093E+01 0.  1.
       -5    1    3    3    0  502  0.57405945228E+03 -0.91525092493E+03 -0.77528999704E+02  0.10831718913E+04  0.46999998093E+01 0. -1.
</event>
<event>
 5   0  0.5704875E-06  0.2305135E+04  0.7818609E-02  0.8475899E-01
       -3   -1    0    0    0  501  0.00000000000E+00  0.00000000000E+00  0.13613688775E+04  0.13613688813E+04  0.10100000352E+00 0. -1.
        3   -1    0    0  501    0  0.00000000000E+00  0.00000000000E+00 -0.97579118942E+03  0.97579119465E+03  0.10100000352E+00 0.  1.
    10030    2    1    2    0    0  0.00000000000E+00  0.00000000000E+00  0.38557768813E+03  0.23371600759E+04  0.23051349347E+04 0.  0.
        5    1    3    3  502    0  0.10252580253E+04  0.37483349318E+03 -0.18212611142E+03  0.11067276885E+04  0.46999998093E+01 0.  1.
       -5    1    3    3    0  502 -0.10252580253E+04 -0.37483349318E+03  0.56770379954E+03  0.12304323874E+04  0.46999998093E+01 0. -1.
</event>
<event>
 5   0  0.1602809E-05  0.2300352E+04  0.7818609E-02  0.8477782E-01
        2   -1    0    0  501    0  0.00000000000E+00  0.00000000000E+00  0.10899988977E+04  0.10899988977E+04  0.25500000920E-02 0.  1.
       -2   -1    0    0    0  501  0.00000000000E+00  0.00000000000E+00 -0.12136758097E+04  0.12136758097E+04  0.25500000920E-02 0. -1.
    10030    2    1    2    0    0  0.00000000000E+00  0.00000000000E+00 -0.12367691199E+03  0.23036747074E+04  0.23003524032E+04 0.  0.
        3    1    3    3  502    0  0.25171398942E+03 -0.54727428271E+03 -0.10430679376E+04  0.12045164198E+04  0.10100000352E+00 0. -1.
       -3    1    3    3    0  502 -0.25171398942E+03  0.54727428271E+03  0.91939102563E+03  0.10991582876E+04  0.10100000352E+00 0.  1.
</event>
<event>
 5   0  0.1602809E-05  0.2298002E+04  0.7818609E-02  0.8478709E-01
       -2   -1    0    0    0  501  0.00000000000E+00  0.00000000000E+00  0.49831433621E+03  0.49831433621E+03  0.25500000920E-02 0.  1.
        2   -1    0    0  501    0  0.00000000000E+00  0.00000000000E+00 -0.26493379496E+04  0.26493379496E+04  0.25500000920E-02 0. -1.
    10030    2    1    2    0    0  0.00000000000E+00  0.00000000000E+00 -0.21510236134E+04  0.31476522858E+04  0.22980018118E+04 0.  0.
        3    1    3    3  502    0  0.35847083036E+03  0.23252631976E+03 -0.25364691029E+04  0.25722063186E+04  0.10100000352E+00 0. -1.
       -3    1    3    3    0  502 -0.35847083036E+03 -0.23252631976E+03  0.38544548947E+03  0.57544596719E+03  0.10100000352E+00 0.  1.
</event>
<event>
 5   0  0.1626636E-05  0.2298510E+04  0.7818609E-02  0.8478509E-01
        2   -1    0    0  501    0  0.00000000000E+00  0.00000000000E+00  0.14235420382E+04  0.14235420382E+04  0.25500000920E-02 0. -1.
       -2   -1    0    0    0  501  0.00000000000E+00  0.00000000000E+00 -0.92781747287E+03  0.92781747288E+03  0.25500000920E-02 0.  1.
    10030    2    1    2    0    0  0.00000000000E+00  0.00000000000E+00  0.49572456535E+03  0.23513595111E+04  0.22985101057E+04 0.  0.
        4    1    3    3  502    0  0.43513021948E+03 -0.39753822057E+03 -0.76143861134E+03  0.96289423950E+03  0.12699999809E+01 0.  1.
       -4    1    3    3    0  502 -0.43513021948E+03  0.39753822057E+03  0.12571631767E+04  0.13884652716E+04  0.12699999809E+01 0. -1.
</event>
<event>
 5   0  0.1602809E-05  0.2299086E+04  0.7818609E-02  0.8478282E-01
        2   -1    0    0  501    0  0.00000000000E+00  0.00000000000E+00  0.11863798470E+04  0.11863798470E+04  0.25500000920E-02 0.  1.
       -2   -1    0    0    0  501  0.00000000000E+00  0.00000000000E+00 -0.11138499076E+04  0.11138499076E+04  0.25500000920E-02 0. -1.
    10030    2    1    2    0    0  0.00000000000E+00  0.00000000000E+00  0.72529939429E+02  0.23002297547E+04  0.22990859775E+04 0.  0.
        3    1    3    3  502    0  0.99382783857E+03 -0.45526453373E+03  0.39209553443E+03  0.11613347867E+04  0.10100000352E+00 0.  1.
       -3    1    3    3    0  502 -0.99382783857E+03  0.45526453373E+03 -0.31956559500E+03  0.11388949680E+04  0.10100000352E+00 0. -1.
</event>
<event>
 5   0  0.1588969E-05  0.2305147E+04  0.7818609E-02  0.8475895E-01
       -2   -1    0    0    0  501  0.00000000000E+00  0.00000000000E+00  0.85246910573E+03  0.85246910573E+03  0.25500000920E-02 0.  1.
        2   -1    0    0  501    0  0.00000000000E+00  0.00000000000E+00 -0.15583268915E+04  0.15583268915E+04  0.25500000920E-02 0. -1.
    10030    2    1    2    0    0  0.00000000000E+00  0.00000000000E+00 -0.70585778577E+03  0.24107959972E+04  0.23051468774E+04 0.  0.
        1    1    3    3  502    0  0.97314255208E+03  0.18431752934E+03 -0.96938990221E+03  0.13858918287E+04  0.50400001928E-02 0. -1.
       -1    1    3    3    0  502 -0.97314255208E+03 -0.18431752934E+03  0.26353211644E+03  0.10249041685E+04  0.50400001928E-02 0.  1.
</event>
<event>
 5   0  0.1602809E-05  0.2193712E+04  0.7818609E-02  0.8521050E-01
       -2   -1    0    0    0  501  0.00000000000E+00  0.00000000000E+00  0.53646408286E+03  0.53646408287E+03  0.25500000920E-02 0. -1.
        2   -1    0    0  501    0  0.00000000000E+00  0.00000000000E+00 -0.22426356167E+04  0.22426356167E+04  0.25500000920E-02 0.  1.
    10030    2    1    2    0    0  0.00000000000E+00  0.00000000000E+00 -0.17061715339E+04  0.27790996996E+04  0.21937123415E+04 0.  0.
        3    1    3    3  502    0  0.88197774069E+03  0.35851871526E+03 -0.16306288411E+03  0.96592438557E+03  0.10100000352E+00 0. -1.
       -3    1    3    3    0  502 -0.88197774069E+03 -0.35851871526E+03 -0.15431086498E+04  0.18131753140E+04  0.10100000352E+00 0.  1.
</event>
<event>
 5   0  0.1697855E-05  0.2296258E+04  0.7818609E-02  0.8479398E-01
       -2   -1    0    0    0  501  0.00000000000E+00  0.00000000000E+00  0.11388820613E+04  0.11388820613E+04  0.25500000920E-02 0.  1.
        2   -1    0    0  501    0  0.00000000000E+00  0.00000000000E+00 -0.11574509536E+04  0.11574509536E+04  0.25500000920E-02 0. -1.
    10030    2    1    2    0    0  0.00000000000E+00  0.00000000000E+00 -0.18568892331E+02  0.22963330149E+04  0.22962579367E+04 0.  0.
        5    1    3    3  502    0  0.53696011398E+03  0.95466018429E+03  0.33492995497E+03  0.11453830784E+04  0.46999998093E+01 0. -1.
       -5    1    3    3    0  502 -0.53696011398E+03 -0.95466018429E+03 -0.35349884730E+03  0.11509499366E+04  0.46999998093E+01 0.  1.
</event>
<event>
 5   0  0.7183014E-06  0.2295690E+04  0.7818609E-02  0.8479622E-01
       -1   -1    0    0    0  501  0.00000000000E+00  0.00000000000E+00  0.18099864892E+04  0.18099864892E+04  0.50400001928E-02 0. -1.
        1   -1    0    0  501    0  0.00000000000E+00  0.00000000000E+00 -0.72793248773E+03  0.72793248775E+03  0.50400001928E-02 0.  1.
    10030    2    1    2    0    0  0.00000000000E+00  0.00000000000E+00  0.10820540014E+04  0.25379189769E+04  0.22956898465E+04 0.  0.
        3    1    3    3  502    0 -0.67534503264E+01  0.10717242584E+04  0.99537804397E+03  0.14626742480E+04  0.10100000352E+00 0. -1.
       -3    1    3    3    0  502  0.67534503264E+01 -0.10717242584E+04  0.86675957460E+02  0.10752447289E+04  0.10100000352E+00 0.  1.
</event>
<event>
 5   0  0.7391007E-06  0.2296899E+04  0.7818609E-02  0.8479145E-01
        1   -1    0    0  501    0  0.00000000000E+00  0.00000000000E+00  0.15892123178E+04  0.15892123178E+04  0.50400001928E-02 0.  1.
       -1   -1    0    0    0  501  0.00000000000E+00  0.00000000000E+00 -0.82993066681E+03  0.82993066683E+03  0.50400001928E-02 0. -1.
    10030    2    1    2    0    0  0.00000000000E+00  0.00000000000E+00  0.75928165096E+03  0.24191429846E+04  0.22968988124E+04 0.  0.
        1    1    3    3  502    0 -0.62505793534E+03 -0.29064417713E+01 -0.63508219902E+03  0.89108656677E+03  0.50400001928E-02 0. -1.
       -1    1    3    3    0  502  0.62505793534E+03  0.29064417713E+01  0.13943638500E+04  0.15280564178E+04  0.50400001928E-02 0.  1.
</event>
<event>
 5   0  0.7183014E-06  0.2300534E+04  0.7818609E-02  0.8477711E-01
       -1   -1    0    0    0  501  0.00000000000E+00  0.00000000000E+00  0.16387614112E+04  0.16387614112E+04  0.50400001928E-02 0.  1.
        1   -1    0    0  501    0  0.00000000000E+00  0.00000000000E+00 -0.80738652858E+03  0.80738652859E+03  0.50400001928E-02 0. -1.
    10030    2    1    2    0    0  0.00000000000E+00  0.00000000000E+00  0.83137488265E+03  0.24461479398E+04  0.23005337529E+04 0.  0.
        3    1    3    3  502    0 -0.88825035496E+03 -0.73003417631E+03  0.45213980793E+03  0.12354630742E+04  0.10100000352E+00 0.  1.
       -3    1    3    3    0  502  0.88825035496E+03  0.73003417631E+03  0.37923507472E+03  0.12106848656E+04  0.10100000352E+00 0. -1.
</event>
<event>
 5   0  0.7391007E-06  0.2302254E+04  0.7818609E-02  0.8477033E-01
       -1   -1    0    0    0  501  0.00000000000E+00  0.00000000000E+00  0.11052518917E+04  0.11052518917E+04  0.50400001928E-02 0. -1.
        1   -1    0    0  501    0  0.00000000000E+00  0.00000000000E+00 -0.11989065378E+04  0.11989065379E+04  0.50400001928E-02 0.  1.
    10030    2    1    2    0    0  0.00000000000E+00  0.00000000000E+00 -0.93654646117E+02  0.23041584296E+04  0.23022543031E+04 0.  0.
        1    1    3    3  502    0  0.82859498182E+03  0.75837621963E+03  0.20515379376E+03  0.11418372097E+04  0.50400001928E-02 0. -1.
       -1    1    3    3    0  502 -0.82859498182E+03 -0.75837621963E+03 -0.29880843988E+03  0.11623212199E+04  0.50400001928E-02 0.  1.
</event>
<event>
 5   0  0.7416556E-06  0.2302148E+04  0.7818609E-02  0.8477075E-01
        1   -1    0    0  501    0  0.00000000000E+00  0.00000000000E+00  0.15467054730E+04  0.15467054730E+04  0.50400001928E-02 0. -1.
       -1   -1    0    0    0  501  0.00000000000E+00  0.00000000000E+00 -0.85664083688E+03  0.85664083689E+03  0.50400001928E-02 0.  1.
    10030    2    1    2    0    0  0.00000000000E+00  0.00000000000E+00  0.69006463610E+03  0.24033463099E+04  0.23021477544E+04 0.  0.
        4    1    3    3  502    0  0.94678746547E+03 -0.23410273984E+03  0.98326480942E+03  0.13849266753E+04  0.12699999809E+01 0. -1.
       -4    1    3    3    0  502 -0.94678746547E+03  0.23410273984E+03 -0.29320017332E+03  0.10184196346E+04  0.12699999809E+01 0.  1.
</event>
<event>
 5   0  0.1626636E-05  0.2312622E+04  0.7818609E-02  0.8472961E-01
       -2   -1    0    0    0  501  0.00000000000E+00  0.00000000000E+00  0.19441274770E+04  0.19441274770E+04  0.25500000920E-02 0.  1.
        2   -1    0    0  501    0  0.00000000000E+00  0.00000000000E+00 -0.68774060799E+03  0.68774060800E+03  0.25500000920E-02 0. -1.
    10030    2    1    2    0    0  0.00000000000E+00  0.00000000000E+00  0.12563868690E+04  0.26318680850E+04  0.23126222459E+04 0.  0.
        4    1    3    3  502    0 -0.14933373569E+03  0.99994731529E+03 -0.10389341183E+02  0.10110908709E+04  0.12699999809E+01 0. -1.
       -4    1    3    3    0  502  0.14933373569E+03 -0.99994731529E+03  0.12667762101E+04  0.16207772140E+04  0.12699999809E+01 0.  1.
</event>
<event>
 5   0  0.1697855E-05  0.2317860E+04  0.7818609E-02  0.8470912E-01
        2   -1    0    0  501    0  0.00000000000E+00  0.00000000000E+00  0.11105946324E+04  0.11105946324E+04  0.25500000920E-02 0. -1.
       -2   -1    0    0    0  501  0.00000000000E+00  0.00000000000E+00 -0.12093690112E+04  0.12093690112E+04  0.25500000920E-02 0.  1.
    10030    2    1    2    0    0  0.00000000000E+00  0.00000000000E+00 -0.98774378794E+02  0.23199636436E+04  0.23178599892E+04 0.  0.
        5    1    3    3  502    0 -0.28778750042E+03 -0.38115156506E+03 -0.11062804248E+04  0.12049799290E+04  0.46999998093E+01 0.  1.
       -5    1    3    3    0  502  0.28778750042E+03  0.38115156506E+03  0.10075060460E+04  0.11149837146E+04  0.46999998093E+01 0. -1.
</event>
<event>
 5   0  0.7391007E-06  0.2337830E+04  0.7818609E-02  0.8463153E-01
        1   -1    0    0  501    0  0.00000000000E+00  0.00000000000E+00  0.14245862172E+04  0.14245862173E+04  0.50400001928E-02 0. -1.
       -1   -1    0    0    0  501  0.00000000000E+00  0.00000000000E+00 -0.95912924989E+03  0.95912924990E+03  0.50400001928E-02 0.  1.
    10030    2    1    2    0    0  0.00000000000E+00  0.00000000000E+00  0.46545696736E+03  0.23837154672E+04  0.23378300280E+04 0.  0.
        1    1    3    3  502    0  0.53348174100E+03 -0.83742914262E+03 -0.39620224924E+03  0.10690493717E+04  0.50400001928E-02 0.  1.
       -1    1    3    3    0  502 -0.53348174100E+03  0.83742914262E+03  0.86165921660E+03  0.13146660954E+04  0.50400001928E-02 0. -1.
</event>
<event>
 5   0  0.1602809E-05  0.2309369E+04  0.7818609E-02  0.8474236E-01
        2   -1    0    0  501    0  0.00000000000E+00  0.00000000000E+00  0.12995952112E+04  0.12995952112E+04  0.25500000920E-02 0.  1.
       -2   -1    0    0    0  501  0.00000000000E+00  0.00000000000E+00 -0.10259322215E+04  0.10259322215E+04  0.25500000920E-02 0. -1.
    10030    2    1    2    0    0  0.00000000000E+00  0.00000000000E+00  0.27366298969E+03  0.23255274328E+04  0.23093692664E+04 0.  0.
        3    1    3    3  502    0  0.86015030245E+03 -0.36213464922E+03  0.82151270406E+03  0.12433355059E+04  0.10100000352E+00 0.  1.
       -3    1    3    3    0  502 -0.86015030245E+03  0.36213464922E+03 -0.54784971437E+03  0.10821919269E+04  0.10100000352E+00 0. -1.
</event>
<event>
 5   0  0.1588969E-05  0.2316916E+04  0.7818609E-02  0.8471281E-01
       -2   -1    0    0    0  501  0.00000000000E+00  0.00000000000E+00  0.16300735576E+04  0.16300735576E+04  0.25500000920E-02 0. -1.
        2   -1    0    0  501    0  0.00000000000E+00  0.00000000000E+00 -0.82329134555E+03  0.82329134555E+03  0.25500000920E-02 0.  1.
    10030    2    1    2    0    0  0.00000000000E+00  0.00000000000E+00  0.80678221205E+03  0.24533649031E+04  0.23169164444E+04 0.  0.
        1    1    3    3  502    0 -0.38286718303E+03 -0.10765940887E+03  0.15555163160E+04  0.16055556165E+04  0.50400001928E-02 0. -1.
       -1    1    3    3    0  502  0.38286718303E+03  0.10765940887E+03 -0.74873410396E+03  0.84780928670E+03  0.50400001928E-02 0.  1.
</event>
<event>
 5   0  0.1635955E-05  0.2296806E+04  0.7818609E-02  0.8479181E-01
       -2   -1    0    0    0  501  0.00000000000E+00  0.00000000000E+00  0.94880119385E+03  0.94880119385E+03  0.25500000920E-02 0.  1.
        2   -1    0    0  501    0  0.00000000000E+00  0.00000000000E+00 -0.13899958668E+04  0.13899958668E+04  0.25500000920E-02 0. -1.
    10030    2    1    2    0    0  0.00000000000E+00  0.00000000000E+00 -0.44119467299E+03  0.23387970607E+04  0.22968062503E+04 0.  0.
        2    1    3    3  502    0 -0.75559130308E+03 -0.80219407733E+03  0.10841371625E+03  0.11073333233E+04  0.25500000920E-02 0.  1.
       -2    1    3    3    0  502  0.75559130308E+03  0.80219407733E+03 -0.54960838925E+03  0.12314637374E+04  0.25500000920E-02 0. -1.
</event>
<event>
 5   0  0.7202572E-06  0.2301628E+04  0.7818609E-02  0.8477279E-01
       -1   -1    0    0    0  501  0.00000000000E+00  0.00000000000E+00  0.11770376767E+04  0.11770376767E+04  0.50400001928E-02 0. -1.
        1   -1    0    0  501    0  0.00000000000E+00  0.00000000000E+00 -0.11251747361E+04  0.11251747361E+04  0.50400001928E-02 0.  1.
    10030    2    1    2    0    0  0.00000000000E+00  0.00000000000E+00  0.51862940611E+02  0.23022124129E+04  0.23016281692E+04 0.  0.
        2    1    3    3  502    0  0.14296547173E+03 -0.97177242333E+03 -0.57388089112E+03  0.11375939724E+04  0.25500000920E-02 0.  1.
       -2    1    3    3    0  502 -0.14296547173E+03  0.97177242333E+03  0.62574383173E+03  0.11646184404E+04  0.25500000920E-02 0. -1.
</event>
<event>
 5   0  0.7416556E-06  0.2298546E+04  0.7818609E-02  0.8478495E-01
        1   -1    0    0  501    0  0.00000000000E+00  0.00000000000E+00  0.15162652923E+04  0.15162652923E+04  0.50400001928E-02 0.  1.
       -1   -1    0    0    0  501  0.00000000000E+00  0.00000000000E+00 -0.87110664294E+03  0.87110664295E+03  0.50400001928E-02 0. -1.
    10030    2    1    2    0    0  0.00000000000E+00  0.00000000000E+00  0.64515864939E+03  0.23873719353E+04  0.22985462959E+04 0.  0.
        4    1    3    3  502    0 -0.56707452106E+03  0.48136269594E+03  0.12325310560E+04  0.14395895159E+04  0.12699999809E+01 0.  1.
       -4    1    3    3    0  502  0.56707452106E+03 -0.48136269594E+03 -0.58737240661E+03  0.94778241935E+03  0.12699999809E+01 0. -1.
</event>
<event>
 5   0  0.1697855E-05  0.2464214E+04  0.7818609E-02  0.8415847E-01
       -2   -1    0    0    0  501  0.00000000000E+00  0.00000000000E+00  0.87395821373E+03  0.87395821374E+03  0.25500000920E-02 0.  1.
        2   -1    0    0  501    0  0.00000000000E+00  0.00000000000E+00 -0.17370248697E+04  0.17370248697E+04  0.25500000920E-02 0. -1.
    10030    2    1    2    0    0  0.00000000000E+00  0.00000000000E+00 -0.86306665599E+03  0.26109830835E+04  0.24642135884E+04 0.  0.
        5    1    3    3  502    0  0.55419850516E+03 -0.61215879163E+03 -0.14004320313E+04  0.16257633080E+04  0.46999998093E+01 0. -1.
       -5    1    3    3    0  502 -0.55419850516E+03  0.61215879163E+03  0.53736537535E+03  0.98521977544E+03  0.46999998093E+01 0.  1.
</event>
<event>
 5   0  0.5704875E-06  0.2298837E+04  0.7818609E-02  0.8478380E-01
       -4   -1    0    0    0  501  0.00000000000E+00  0.00000000000E+00  0.16320975584E+04  0.16320980526E+04  0.12699999809E+01 0. -1.
        4   -1    0    0  501    0  0.00000000000E+00  0.00000000000E+00 -0.80948654300E+03  0.80948753924E+03  0.12699999809E+01 0.  1.
    10030    2    1    2    0    0  0.00000000000E+00  0.00000000000E+00  0.82261101544E+03  0.24415855918E+04  0.22988369493E+04 0.  0.
        3    1    3    3  502    0 -0.72394374979E+03 -0.80853501372E+03  0.91939341606E+01  0.10853146824E+04  0.10100000352E+00 0. -1.
       -3    1    3    3    0  502  0.72394374979E+03  0.80853501372E+03  0.81341708128E+03  0.13562709094E+04  0.10100000352E+00 0.  1.
</event>
<event>
 5   0  0.7278815E-06  0.2329379E+04  0.7818609E-02  0.8466427E-01
        1   -1    0    0  501    0  0.00000000000E+00  0.00000000000E+00  0.25247975107E+04  0.25247975107E+04  0.50400001928E-02 0. -1.
       -1   -1    0    0    0  501  0.00000000000E+00  0.00000000000E+00 -0.53727155214E+03  0.53727155216E+03  0.50400001928E-02 0.  1.
    10030    2    1    2    0    0  0.00000000000E+00  0.00000000000E+00  0.19875259585E+04  0.30620690628E+04  0.23293792112E+04 0.  0.
        5    1    3    3  502    0 -0.87103351512E+03 -0.66328272860E+03  0.47151303284E+03  0.11920528481E+04  0.46999998093E+01 0.  1.
       -5    1    3    3    0  502  0.87103351512E+03  0.66328272860E+03  0.15160129257E+04  0.18700162147E+04  0.46999998093E+01 0. -1.
</event>
<event>
 5   0  0.7416556E-06  0.2311720E+04  0.7818609E-02  0.8473314E-01
       -1   -1    0    0    0  501  0.00000000000E+00  0.00000000000E+00  0.82525793560E+03  0.82525793562E+03  0.50400001928E-02 0.  1.
        1   -1    0    0  501    0  0.00000000000E+00  0.00000000000E+00 -0.16189029738E+04  0.16189029738E+04  0.50400001928E-02 0. -1.
    10030    2    1    2    0    0  0.00000000000E+00  0.00000000000E+00 -0.79364503817E+03  0.24441609094E+04  0.23117201614E+04 0.  0.
        4    1    3    3  502    0  0.21465888778E+03  0.11316846270E+04 -0.29528745639E+03  0.11891109401E+04  0.12699999809E+01 0. -1.
       -4    1    3    3    0  502 -0.21465888778E+03 -0.11316846270E+04 -0.49835758177E+03  0.12550499693E+04  0.12699999809E+01 0.  1.
</event>
<event>
 5   0  0.7183014E-06  0.2305628E+04  0.7818609E-02  0.8475705E-01
       -1   -1    0    0    0  501  0.00000000000E+00  0.00000000000E+00  0.79975383924E+03  0.79975383925E+03  0.50400001928E-02 0. -1.
        1   -1    0    0  501    0  0.00000000000E+00  0.00000000000E+00 -0.16617364228E+04  0.16617364228E+04  0.50400001928E-02 0.  1.
    10030    2    1    2    0    0  0.00000000000E+00  0.00000000000E+00 -0.86198258360E+03  0.24614902621E+04  0.23056279700E+04 0.  0.
        3    1    3    3  502    0  0.68642992110E+03 -0.92313231155E+03 -0.35095132559E+03  0.12027161529E+04  0.10100000352E+00 0. -1.
       -3    1    3    3    0  502 -0.68642992110E+03  0.92313231155E+03 -0.51103125801E+03  0.12587741092E+04  0.10100000352E+00 0.  1.
</event>
<event>
 5   0  0.7278815E-06  0.2301083E+04  0.7818609E-02  0.8477494E-01
       -1   -1    0    0    0  501  0.00000000000E+00  0.00000000000E+00  0.47439249554E+03  0.47439249557E+03  0.50400001928E-02 0.  1.
        1   -1    0    0  501    0  0.00000000000E+00  0.00000000000E+00 -0.27904030243E+04  0.27904030243E+04  0.50400001928E-02 0. -1.
    10030    2    1    2    0    0  0.00000000000E+00  0.00000000000E+00 -0.23160105287E+04  0.32647955199E+04  0.23010834442E+04 0.  0.
        5    1    3    3  502    0 -0.79093917009E+03 -0.74107139539E+03 -0.17055853353E+04  0.20208451227E+04  0.46999998093E+01 0.  1.
       -5    1    3    3    0  502  0.79093917009E+03  0.74107139539E+03 -0.61042519344E+03  0.12439503972E+04  0.46999998093E+01 0. -1.
</event>
<event>
 5   0  0.7391007E-06  0.2300466E+04  0.7818609E-02  0.8477738E-01
        1   -1    0    0  501    0  0.00000000000E+00  0.00000000000E+00  0.89974726498E+03  0.89974726499E+03  0.50400001928E-02 0.  1.
       -1   -1    0    0    0  501  0.00000000000E+00  0.00000000000E+00 -0.14704523570E+04  0.14704523571E+04  0.50400001928E-02 0. -1.
    10030    2    1    2    0    0  0.00000000000E+00  0.00000000000E+00 -0.57070509206E+03  0.23701996220E+04  0.23004655934E+04 0.  0.
        1    1    3    3  502    0 -0.12469638474E+03  0.20483295615E+03  0.87370597275E+03  0.90601757993E+03  0.50400001928E-02 0.  1.
       -1    1    3    3    0  502  0.12469638474E+03 -0.20483295615E+03 -0.14444110648E+04  0.14641820421E+04  0.50400001928E-02 0. -1.
</event>
<event>
 5   0  0.5704875E-06  0.2307043E+04  0.7818609E-02  0.8475149E-01
        3   -1    0    0  501    0  0.00000000000E+00  0.00000000000E+00  0.88810201952E+03  0.88810202527E+03  0.10100000352E+00 0.  1.
       -3   -1    0    0    0  501  0.00000000000E+00  0.00000000000E+00 -0.14982646628E+04  0.14982646662E+04  0.10100000352E+00 0. -1.
    10030    2    1    2    0    0  0.00000000000E+00  0.00000000000E+00 -0.61016264324E+03  0.23863666914E+04  0.23070430284E+04 0.  0.
        5    1    3    3  502    0 -0.66073145438E+03  0.70058215883E+03  0.35173851059E+03  0.10252431350E+04  0.46999998093E+01 0.  1.
       -5    1    3    3    0  502  0.66073145438E+03 -0.70058215883E+03 -0.96190115383E+03  0.13611235564E+04  0.46999998093E+01 0. -1.
</event>
<event>
 5   0  0.1588969E-05  0.2294708E+04  0.7818609E-02  0.8480011E-01
        2   -1    0    0  501    0  0.00000000000E+00  0.00000000000E+00  0.89433742405E+03  0.89433742405E+03  0.25500000920E-02 0. -1.
       -2   -1    0    0    0  501  0.00000000000E+00  0.00000000000E+00 -0.14719516088E+04  0.14719516088E+04  0.25500000920E-02 0.  1.
    10030    2    1    2    0    0  0.00000000000E+00  0.00000000000E+00 -0.57761418478E+03  0.23662890329E+04  0.22947081820E+04 0.  0.
        1    1    3    3  502    0  0.11260839636E+04 -0.25457991432E+02 -0.63571574020E+02  0.11281642378E+04  0.50400001928E-02 0. -1.
       -1    1    3    3    0  502 -0.11260839636E+04  0.25457991432E+02 -0.51404261076E+03  0.12381247951E+04  0.50400001928E-02 0.  1.
</event>
<event>
 5   0  0.7391007E-06  0.2302301E+04  0.7818609E-02  0.8477015E-01
        1   -1    0    0  501    0  0.00000000000E+00  0.00000000000E+00  0.12596155342E+04  0.12596155342E+04  0.50400001928E-02 0. -1.
       -1   -1    0    0    0  501  0.00000000000E+00  0.00000000000E+00 -0.10520249112E+04  0.10520249112E+04  0.50400001928E-02 0.  1.
    10030    2    1    2    0    0  0.00000000000E+00  0.00000000000E+00  0.20759062305E+03  0.23116404454E+04  0.23023005195E+04 0.  0.
        1    1    3    3  502    0  0.67219613620E+03  0.41669758534E+03 -0.73605626131E+03  0.10803996219E+04  0.50400001928E-02 0.  1.
       -1    1    3    3    0  502 -0.67219613620E+03 -0.41669758534E+03  0.94364688436E+03  0.12312408235E+04  0.50400001928E-02 0. -1.
</event>
<event>
 5   0  0.1626636E-05  0.2296854E+04  0.7818609E-02  0.8479163E-01
       -2   -1    0    0    0  501  0.00000000000E+00  0.00000000000E+00  0.72737369985E+03  0.72737369985E+03  0.25500000920E-02 0.  1.
        2   -1    0    0  501    0  0.00000000000E+00  0.00000000000E+00 -0.18132147178E+04  0.18132147178E+04  0.25500000920E-02 0. -1.
    10030    2    1    2    0    0  0.00000000000E+00  0.00000000000E+00 -0.10858410180E+04  0.25405884177E+04  0.22968541076E+04 0.  0.
        4    1    3    3  502    0  0.56749771162E+03 -0.40569157699E+03 -0.15520018638E+04  0.17015730094E+04  0.12699999809E+01 0. -1.
       -4    1    3    3    0  502 -0.56749771162E+03  0.40569157699E+03  0.46616084576E+03  0.83901540829E+03  0.12699999809E+01 0.  1.
</event>
<event>
 5   0  0.1697855E-05  0.2299039E+04  0.7818609E-02  0.8478300E-01
       -2   -1    0    0    0  501  0.00000000000E+00  0.00000000000E+00  0.80196334369E+03  0.80196334370E+03  0.25500000920E-02 0.  1.
        2   -1    0    0  501    0  0.00000000000E+00  0.00000000000E+00 -0.16477002775E+04  0.16477002775E+04  0.25500000920E-02 0. -1.
    10030    2    1    2    0    0  0.00000000000E+00  0.00000000000E+00 -0.84573693384E+03  0.24496636212E+04  0.22990391245E+04 0.  0.
        5    1    3    3  502    0 -0.65387608280E+03  0.33465408169E+03  0.51927079580E+03  0.89956185747E+03  0.46999998093E+01 0.  1.
       -5    1    3    3    0  502  0.65387608280E+03 -0.33465408169E+03 -0.13650077296E+04  0.15501017638E+04  0.46999998093E+01 0. -1.
</event>
<event>
 5   0  0.7202572E-06  0.2303383E+04  0.7818609E-02  0.8476589E-01
       -1   -1    0    0    0  501  0.00000000000E+00  0.00000000000E+00  0.48151833407E+03  0.48151833410E+03  0.50400001928E-02 0.  1.
        1   -1    0    0  501    0  0.00000000000E+00  0.00000000000E+00 -0.27546049793E+04  0.27546049793E+04  0.50400001928E-02 0. -1.
    10030    2    1    2    0    0  0.00000000000E+00  0.00000000000E+00 -0.22730866453E+04  0.32361233134E+04  0.23033825568E+04 0.  0.
        2    1    3    3  502    0 -0.79131249083E+03  0.10618321431E+03  0.29596071065E+02  0.79895322803E+03  0.25500000920E-02 0.  1.
       -2    1    3    3    0  502  0.79131249083E+03 -0.10618321431E+03 -0.23026827163E+04  0.24371700854E+04  0.25500000920E-02 0. -1.
</event>
<event>
 5   0  0.7391007E-06  0.2297222E+04  0.7818609E-02  0.8479017E-01
       -1   -1    0    0    0  501  0.00000000000E+00  0.00000000000E+00  0.50354884770E+03  0.50354884773E+03  0.50400001928E-02 0. -1.
        1   -1    0    0  501    0  0.00000000000E+00  0.00000000000E+00 -0.26200175307E+04  0.26200175307E+04  0.50400001928E-02 0.  1.
    10030    2    1    2    0    0  0.00000000000E+00  0.00000000000E+00 -0.21164686830E+04  0.31235663784E+04  0.22972216337E+04 0.  0.
        1    1    3    3  502    0 -0.94333531435E+03 -0.62147495959E+03 -0.77564199350E+03  0.13703040330E+04  0.50400001928E-02 0. -1.
       -1    1    3    3    0  502  0.94333531435E+03  0.62147495959E+03 -0.13408266895E+04  0.17532623454E+04  0.50400001928E-02 0.  1.
</event>
<event>
 5   0  0.1635955E-05  0.2295786E+04  0.7818609E-02  0.8479585E-01
       -2   -1    0    0    0  501  0.00000000000E+00  0.00000000000E+00  0.67991587664E+03  0.67991587665E+03  0.25500000920E-02 0. -1.
        2   -1    0    0  501    0  0.00000000000E+00  0.00000000000E+00 -0.19379721655E+04  0.19379721655E+04  0.25500000920E-02 0.  1.
    10030    2    1    2    0    0  0.00000000000E+00  0.00000000000E+00 -0.12580562888E+04  0.26178880421E+04  0.22957857424E+04 0.  0.
        2    1    3    3  502    0  0.17400562751E+03 -0.11013718553E+04 -0.31807871723E+03  0.11595136879E+04  0.25500000920E-02 0. -1.
       -2    1    3    3    0  502 -0.17400562751E+03  0.11013718553E+04 -0.93997757158E+03  0.14583743542E+04  0.25500000920E-02 0.  1.
</event>
<event>
 5   0  0.7183014E-06  0.2293631E+04  0.7818609E-02  0.8480437E-01
       -1   -1    0    0    0  501  0.00000000000E+00  0.00000000000E+00  0.69622548212E+03  0.69622548214E+03  0.50400001928E-02 0. -1.
        1   -1    0    0  501    0  0.00000000000E+00  0.00000000000E+00 -0.18890222963E+04  0.18890222963E+04  0.50400001928E-02 0.  1.
    10030    2    1    2    0    0  0.00000000000E+00  0.00000000000E+00 -0.11927968142E+04  0.25852477784E+04  0.22936307105E+04 0.  0.
        3    1    3    3  502    0  0.22547242117E+03 -0.96894107052E+02  0.66628210141E+03  0.71004093512E+03  0.10100000352E+00 0. -1.
       -3    1    3    3    0  502 -0.22547242117E+03  0.96894107052E+02 -0.18590789156E+04  0.18752068433E+04  0.10100000352E+00 0.  1.
</event>
<event>
 5   0  0.7183014E-06  0.2318740E+04  0.7818609E-02  0.8470569E-01
       -1   -1    0    0    0  501  0.00000000000E+00  0.00000000000E+00  0.70690606454E+03  0.70690606455E+03  0.50400001928E-02 0.  1.
        1   -1    0    0  501    0  0.00000000000E+00  0.00000000000E+00 -0.19014395711E+04  0.19014395711E+04  0.50400001928E-02 0. -1.
    10030    2    1    2    0    0  0.00000000000E+00  0.00000000000E+00 -0.11945335065E+04  0.26083456356E+04  0.23187403168E+04 0.  0.
        3    1    3    3  502    0  0.99316605017E+03  0.52143919075E+02  0.73007445663E+02  0.99721005251E+03  0.10100000352E+00 0. -1.
       -3    1    3    3    0  502 -0.99316605017E+03 -0.52143919075E+02 -0.12675409522E+04  0.16111355831E+04  0.10100000352E+00 0.  1.
</event>
<event>
 5   0  0.1635955E-05  0.2300859E+04  0.7818609E-02  0.8477582E-01
       -2   -1    0    0    0  501  0.00000000000E+00  0.00000000000E+00  0.64423600059E+03  0.64423600059E+03  0.25500000920E-02 0.  1.
        2   -1    0    0  501    0  0.00000000000E+00  0.00000000000E+00 -0.20543528628E+04  0.20543528628E+04  0.25500000920E-02 0. -1.
    10030    2    1    2    0    0  0.00000000000E+00  0.00000000000E+00 -0.14101168622E+04  0.26985888634E+04  0.23008590328E+04 0.  0.
        2    1    3    3  502    0  0.10914579523E+04 -0.87544793837E+02 -0.11189697278E+04  0.15655790636E+04  0.25500000920E-02 0.  1.
       -2    1    3    3    0  502 -0.10914579523E+04  0.87544793837E+02 -0.29114713441E+03  0.11330097998E+04  0.25500000920E-02 0. -1.
</event>
<event>
 5   0  0.7278815E-06  0.2377200E+04  0.7818609E-02  0.8448089E-01
        1   -1    0    0  501    0  0.00000000000E+00  0.00000000000E+00  0.14297621852E+04  0.14297621852E+04  0.50400001928E-02 0.  1.
       -1   -1    0    0    0  501  0.00000000000E+00  0.00000000000E+00 -0.98811508501E+03  0.98811508502E+03  0.50400001928E-02 0. -1.
    10030    2    1    2    0    0  0.00000000000E+00  0.00000000000E+00  0.44164710014E+03  0.24178772702E+04  0.23771996830E+04 0.  0.
        5    1    3    3  502    0  0.70887594968E+03  0.50949151788E+03  0.10412618042E+04  0.13587990851E+04  0.46999998093E+01 0.  1.
       -5    1    3    3    0  502 -0.70887594968E+03 -0.50949151788E+03 -0.59961470404E+03  0.10590781851E+04  0.46999998093E+01 0. -1.
</event>
<event>
 5   0  0.1602809E-05  0.2289612E+04  0.7818609E-02  0.8482028E-01
        2   -1    0    0  501    0  0.00000000000E+00  0.00000000000E+00  0.16040675282E+04  0.16040675282E+04  0.25500000920E-02 0.  1.
       -2   -1    0    0    0  501  0.00000000000E+00  0.00000000000E+00 -0.81703603858E+03  0.81703603858E+03  0.25500000920E-02 0. -1.
    10030    2    1    2    0    0  0.00000000000E+00  0.00000000000E+00  0.78703148964E+03  0.24211035668E+04  0.22896121758E+04 0.  0.
        3    1    3    3  502    0  0.17221336548E+03  0.10023525671E+04 -0.16222646834E+03  0.10298958925E+04  0.10100000352E+00 0. -1.
       -3    1    3    3    0  502 -0.17221336548E+03 -0.10023525671E+04  0.94925795798E+03  0.13912076743E+04  0.10100000352E+00 0.  1.
</event>
<event>
 5   0  0.1602809E-05  0.2274922E+04  0.7818609E-02  0.8487875E-01
        2   -1    0    0  501    0  0.00000000000E+00  0.00000000000E+00  0.19506892794E+04  0.19506892794E+04  0.25500000920E-02 0. -1.
       -2   -1    0    0    0  501  0.00000000000E+00  0.00000000000E+00 -0.66326159075E+03  0.66326159075E+03  0.25500000920E-02 0.  1.
    10030    2    1    2    0    0  0.00000000000E+00  0.00000000000E+00  0.12874276887E+04  0.26139508702E+04  0.22749217785E+04 0.  0.
        3    1    3    3  502    0  0.11661299376E+03  0.59159764008E+02  0.19420243713E+04  0.19464216236E+04  0.10100000352E+00 0. -1.
       -3    1    3    3    0  502 -0.11661299376E+03 -0.59159764008E+02 -0.65459668259E+03  0.66752924659E+03  0.10100000352E+00 0.  1.
</event>
<event>
 5   0  0.1635955E-05  0.2297504E+04  0.7818609E-02  0.8478906E-01
       -2   -1    0    0    0  501  0.00000000000E+00  0.00000000000E+00  0.86060618852E+03  0.86060618852E+03  0.25500000920E-02 0.  1.
        2   -1    0    0  501    0  0.00000000000E+00  0.00000000000E+00 -0.15333743731E+04  0.15333743731E+04  0.25500000920E-02 0. -1.
    10030    2    1    2    0    0  0.00000000000E+00  0.00000000000E+00 -0.67276818455E+03  0.23939805616E+04  0.22975042762E+04 0.  0.
        2    1    3    3  502    0 -0.46415730537E+02 -0.11390223912E+04 -0.48413046891E+03  0.12385106938E+04  0.25500000920E-02 0.  1.
       -2    1    3    3    0  502  0.46415730537E+02  0.11390223912E+04 -0.18863771564E+03  0.11554698678E+04  0.25500000920E-02 0. -1.
</event>
<event>
 5   0  0.7416556E-06  0.2305747E+04  0.7818609E-02  0.8475659E-01
        1   -1    0    0  501    0  0.00000000000E+00  0.00000000000E+00  0.81376035408E+03  0.81376035410E+03  0.50400001928E-02 0.  1.
       -1   -1    0    0    0  501  0.00000000000E+00  0.00000000000E+00 -0.16333033554E+04  0.16333033554E+04  0.50400001928E-02 0. -1.
    10030    2    1    2    0    0  0.00000000000E+00  0.00000000000E+00 -0.81954300135E+03  0.24470637095E+04  0.23057471820E+04 0.  0.
        4    1    3    3  502    0 -0.10872478433E+04 -0.34703182582E+03 -0.58278743517E+03  0.12814764018E+04  0.12699999809E+01 0.  1.
       -4    1    3    3    0  502  0.10872478433E+04  0.34703182582E+03 -0.23675556618E+03  0.11655873077E+04  0.12699999809E+01 0. -1.
</event>
<event>
 5   0  0.1588969E-05  0.2305022E+04  0.7818609E-02  0.8475944E-01
        2   -1    0    0  501    0  0.00000000000E+00  0.00000000000E+00  0.16267403146E+04  0.16267403146E+04  0.25500000920E-02 0. -1.
       -2   -1    0    0    0  501  0.00000000000E+00  0.00000000000E+00 -0.81652963562E+03  0.81652963563E+03  0.25500000920E-02 0.  1.
    10030    2    1    2    0    0  0.00000000000E+00  0.00000000000E+00  0.81021067899E+03  0.24432699502E+04  0.23050220618E+04 0.  0.
        1    1    3    3  502    0 -0.58227209327E+03 -0.17260788358E+02 -0.64899508149E+03  0.87208562724E+03  0.50400001928E-02 0.  1.
       -1    1    3    3    0  502  0.58227209327E+03  0.17260788358E+02  0.14592057605E+04  0.15711843230E+04  0.50400001928E-02 0. -1.
</event>
<event>
 5   0  0.1635955E-05  0.2268170E+04  0.7818609E-02  0.8490578E-01
       -2   -1    0    0    0  501  0.00000000000E+00  0.00000000000E+00  0.60225924462E+03  0.60225924462E+03  0.25500000920E-02 0. -1.
        2   -1    0    0  501    0  0.00000000000E+00  0.00000000000E+00 -0.21355402446E+04  0.21355402446E+04  0.25500000920E-02 0.  1.
    10030    2    1    2    0    0  0.00000000000E+00  0.00000000000E+00 -0.15332810000E+04  0.27377994892E+04  0.22681700594E+04 0.  0.
        2    1    3    3  502    0  0.66280359222E+02 -0.68015172575E+03  0.32582462848E+03  0.75707406810E+03  0.25500000920E-02 0. -1.
       -2    1    3    3    0  502 -0.66280359222E+02  0.68015172575E+03 -0.18591056284E+04  0.19807254211E+04  0.25500000920E-02 0.  1.
</event>
<event>
 5   0  0.1588969E-05  0.2293333E+04  0.7818609E-02  0.8480555E-01
        2   -1    0    0  501    0  0.00000000000E+00  0.00000000000E+00  0.19262225974E+04  0.19262225974E+04  0.25500000920E-02 0.  1.
       -2   -1    0    0    0  501  0.00000000000E+00  0.00000000000E+00 -0.68260210023E+03  0.68260210024E+03  0.25500000920E-02 0. -1.
    10030    2    1    2    0    0  0.00000000000E+00  0.00000000000E+00  0.12436204972E+04  0.26088246977E+04  0.22933325886E+04 0.  0.
        1    1    3    3  502    0  0.86247529896E+03  0.75216332974E+03  0.70407998376E+03  0.13436301349E+04  0.50400001928E-02 0. -1.
       -1    1    3    3    0  502 -0.86247529896E+03 -0.75216332974E+03  0.53954051344E+03  0.12651945627E+04  0.50400001928E-02 0.  1.
</event>
<event>
 5   0  0.1602809E-05  0.2303582E+04  0.7818609E-02  0.8476510E-01
        2   -1    0    0  501    0  0.00000000000E+00  0.00000000000E+00  0.16052224422E+04  0.16052224422E+04  0.25500000920E-02 0.  1.
       -2   -1    0    0    0  501  0.00000000000E+00  0.00000000000E+00 -0.82644123152E+03  0.82644123152E+03  0.25500000920E-02 0. -1.
    10030    2    1    2    0    0  0.00000000000E+00  0.00000000000E+00  0.77878121064E+03  0.24316636737E+04  0.23035815696E+04 0.  0.
        3    1    3    3  502    0 -0.71894909506E+02 -0.11422267075E+04  0.52609513947E+03  0.12596137643E+04  0.10100000352E+00 0. -1.
       -3    1    3    3    0  502  0.71894909506E+02  0.11422267075E+04  0.25268607116E+03  0.11720499094E+04  0.10100000352E+00 0.  1.
</event>
<event>
 5   0  0.7202572E-06  0.2198855E+04  0.7818609E-02  0.8518905E-01
       -1   -1    0    0    0  501  0.00000000000E+00  0.00000000000E+00  0.15882904677E+04  0.15882904678E+04  0.50400001928E-02 0.  1.
        1   -1    0    0  501    0  0.00000000000E+00  0.00000000000E+00 -0.76103248847E+03  0.76103248849E+03  0.50400001928E-02 0. -1.
    10030    2    1    2    0    0  0.00000000000E+00  0.00000000000E+00  0.82725797927E+03  0.23493229562E+04  0.21988548357E+04 0.  0.
        2    1    3    3  502    0 -0.94028454493E+03  0.23601001482E+02 -0.19457777727E+03  0.96049598860E+03  0.25500000920E-02 0. -1.
       -2    1    3    3    0  502  0.94028454493E+03 -0.23601001482E+02  0.10218357565E+04  0.13888269676E+04  0.25500000920E-02 0.  1.
</event>
<event>
 5   0  0.1588969E-05  0.2309485E+04  0.7818609E-02  0.8474191E-01
       -2   -1    0    0    0  501  0.00000000000E+00  0.00000000000E+00  0.10640792671E+04  0.10640792671E+04  0.25500000920E-02 0. -1.
        2   -1    0    0  501    0  0.00000000000E+00  0.00000000000E+00 -0.12531304075E+04  0.12531304075E+04  0.25500000920E-02 0.  1.
    10030    2    1    2    0    0  0.00000000000E+00  0.00000000000E+00 -0.18905114034E+03  0.23172096746E+04  0.23094848651E+04 0.  0.
        1    1    3    3  502    0 -0.62303224509E+03 -0.13095160850E+02 -0.10699343583E+04  0.12381842322E+04  0.50400001928E-02 0.  1.
       -1    1    3    3    0  502  0.62303224509E+03  0.13095160850E+02  0.88088321797E+03  0.10790254424E+04  0.50400001928E-02 0. -1.
</event>
<event>
 5   0  0.1626636E-05  0.2281259E+04  0.7818609E-02  0.8485347E-01
        2   -1    0    0  501    0  0.00000000000E+00  0.00000000000E+00  0.22569288011E+04  0.22569288011E+04  0.25500000920E-02 0. -1.
       -2   -1    0    0    0  501  0.00000000000E+00  0.00000000000E+00 -0.57646294029E+03  0.57646294029E+03  0.25500000920E-02 0.  1.
    10030    2    1    2    0    0  0.00000000000E+00  0.00000000000E+00  0.16804658608E+04  0.28333917414E+04  0.22812591372E+04 0.  0.
        4    1    3    3  502    0 -0.25320372402E+03  0.29276448539E+03  0.21728625856E+04  0.22070696859E+04  0.12699999809E+01 0. -1.
       -4    1    3    3    0  502  0.25320372402E+03 -0.29276448539E+03 -0.49239672475E+03  0.62632205550E+03  0.12699999809E+01 0.  1.
</event>
<event>
 5   0  0.7391007E-06  0.2300837E+04  0.7818609E-02  0.8477591E-01
        1   -1    0    0  501    0  0.00000000000E+00  0.00000000000E+00  0.12587868951E+04  0.12587868951E+04  0.50400001928E-02 0.  1.
       -1   -1    0    0    0  501  0.00000000000E+00  0.00000000000E+00 -0.10513799457E+04  0.10513799457E+04  0.50400001928E-02 0. -1.
    10030    2    1    2    0    0  0.00000000000E+00  0.00000000000E+00  0.20740694946E+03  0.23101668408E+04  0.23008374974E+04 0.  0.
        1    1    3    3  502    0 -0.64474380278E+03  0.56366007198E+03  0.87496920174E+03  0.12243277143E+04  0.50400001928E-02 0.  1.
       -1    1    3    3    0  502  0.64474380278E+03 -0.56366007198E+03 -0.66756225228E+03  0.10858391265E+04  0.50400001928E-02 0. -1.
</event>
<event>
 5   0  0.7202572E-06  0.2301026E+04  0.7818609E-02  0.8477517E-01
        1   -1    0    0  501    0  0.00000000000E+00  0.00000000000E+00  0.22834705301E+04  0.22834705301E+04  0.50400001928E-02 0. -1.
       -1   -1    0    0    0  501  0.00000000000E+00  0.00000000000E+00 -0.57967911016E+03  0.57967911018E+03  0.50400001928E-02 0.  1.
    10030    2    1    2    0    0  0.00000000000E+00  0.00000000000E+00  0.17037914199E+04  0.28631496403E+04  0.23010260016E+04 0.  0.
        2    1    3    3  502    0  0.68785215314E+03 -0.98058215669E+02  0.19929358887E+04  0.21105803597E+04  0.25500000920E-02 0. -1.
       -2    1    3    3    0  502 -0.68785215314E+03  0.98058215669E+02 -0.28914446877E+03  0.75256928058E+03  0.25500000920E-02 0.  1.
</event>
<event>
 5   0  0.7278815E-06  0.2308302E+04  0.7818609E-02  0.8474655E-01
       -1   -1    0    0    0  501  0.00000000000E+00  0.00000000000E+00  0.12367204631E+04  0.12367204631E+04  0.50400001928E-02 0.  1.
        1   -1    0    0  501    0  0.00000000000E+00  0.00000000000E+00 -0.10770940421E+04  0.10770940421E+04  0.50400001928E-02 0. -1.
    10030    2    1    2    0    0  0.00000000000E+00  0.00000000000E+00  0.15962642102E+03  0.23138145053E+04  0.23083017503E+04 0.  0.
        5    1    3    3  502    0 -0.80999055624E+03  0.81784953481E+03 -0.45280342662E+01  0.11510886829E+04  0.46999998093E+01 0.  1.
       -5    1    3    3    0  502  0.80999055624E+03 -0.81784953481E+03  0.16415445529E+03  0.11627258224E+04  0.46999998093E+01 0. -1.
</event>
<event>
 5   0  0.5704875E-06  0.2298025E+04  0.7818609E-02  0.8478700E-01
        3   -1    0    0  501    0  0.00000000000E+00  0.00000000000E+00  0.11891277322E+04  0.11891277365E+04  0.10100000352E+00 0.  1.
       -3   -1    0    0    0  501  0.00000000000E+00  0.00000000000E+00 -0.11102506835E+04  0.11102506881E+04  0.10100000352E+00 0. -1.
    10030    2    1    2    0    0  0.00000000000E+00  0.00000000000E+00  0.78877048696E+02  0.22993784245E+04  0.22980251414E+04 0.  0.
        3    1    3    3  502    0 -0.64023075569E+03 -0.62768693168E+03  0.75843218944E+03  0.11743533118E+04  0.10100000352E+00 0.  1.
       -3    1    3    3    0  502  0.64023075569E+03  0.62768693168E+03 -0.67955514075E+03  0.11250251127E+04  0.10100000352E+00 0. -1.
</event>
<event>
 5   0  0.7183014E-06  0.2282832E+04  0.7818609E-02  0.8484721E-01
        1   -1    0    0  501    0  0.00000000000E+00  0.00000000000E+00  0.74741392170E+03  0.74741392171E+03  0.50400001928E-02 0.  1.
       -1   -1    0    0    0  501  0.00000000000E+00  0.00000000000E+00 -0.17431183481E+04  0.17431183482E+04  0.50400001928E-02 0. -1.
    10030    2    1    2    0    0  0.00000000000E+00  0.00000000000E+00 -0.99570442645E+03  0.24905322699E+04  0.22828323816E+04 0.  0.
        3    1    3    3  502    0  0.13955064346E+03  0.75308562384E+03 -0.14211481790E+04  0.16143960158E+04  0.10100000352E+00 0. -1.
       -3    1    3    3    0  502 -0.13955064346E+03 -0.75308562384E+03  0.42544375255E+03  0.87613625408E+03  0.10100000352E+00 0.  1.
</event>
<event>
 5   0  0.1626636E-05  0.2289787E+04  0.7818609E-02  0.8481959E-01
        2   -1    0    0  501    0  0.00000000000E+00  0.00000000000E+00  0.69661241565E+03  0.69661241566E+03  0.25500000920E-02 0.  1.
       -2   -1    0    0    0  501  0.00000000000E+00  0.00000000000E+00 -0.18816500328E+04  0.18816500328E+04  0.25500000920E-02 0. -1.
    10030    2    1    2    0    0  0.00000000000E+00  0.00000000000E+00 -0.11850376171E+04  0.25782624484E+04  0.22897866929E+04 0.  0.
        4    1    3    3  502    0 -0.63763542507E+03  0.74784167122E+03  0.68782691132E+02  0.98517956334E+03  0.12699999809E+01 0. -1.
       -4    1    3    3    0  502  0.63763542507E+03 -0.74784167122E+03 -0.12538203083E+04  0.15930828851E+04  0.12699999809E+01 0.  1.
</event>
<event>
 5   0  0.7391007E-06  0.2292961E+04  0.7818609E-02  0.8480702E-01
       -1   -1    0    0    0  501  0.00000000000E+00  0.00000000000E+00  0.52270004660E+03  0.52270004662E+03  0.50400001928E-02 0. -1.
        1   -1    0    0  501    0  0.00000000000E+00  0.00000000000E+00 -0.25146681374E+04  0.25146681374E+04  0.50400001928E-02 0.  1.
    10030    2    1    2    0    0  0.00000000000E+00  0.00000000000E+00 -0.19919680908E+04  0.30373681840E+04  0.22929606649E+04 0.  0.
        1    1    3    3  502    0  0.56711597910E+03 -0.93289512606E+03 -0.14596174653E+04  0.18227443581E+04  0.50400001928E-02 0.  1.
       -1    1    3    3    0  502 -0.56711597910E+03  0.93289512606E+03 -0.53235062549E+03  0.12146238259E+04  0.50400001928E-02 0. -1.
</event>
<event>
 5   0  0.1697855E-05  0.2316288E+04  0.7818609E-02  0.8471526E-01
        2   -1    0    0  501    0  0.00000000000E+00  0.00000000000E+00  0.18735175814E+04  0.18735175814E+04  0.25500000920E-02 0. -1.
       -2   -1    0    0    0  501  0.00000000000E+00  0.00000000000E+00 -0.71592495173E+03  0.71592495173E+03  0.25500000920E-02 0.  1.
    10030    2    1    2    0    0  0.00000000000E+00  0.00000000000E+00  0.11575926297E+04  0.25894425332E+04  0.23162883966E+04 0.  0.
        5    1    3    3  502    0 -0.35559297057E+03 -0.11019926485E+04  0.60229237518E+03  0.13052250202E+04  0.46999998093E+01 0. -1.
       -5    1    3    3    0  502  0.35559297057E+03  0.11019926485E+04  0.55530025453E+03  0.12842175130E+04  0.46999998093E+01 0.  1.
</event>
<event>
 5   0  0.1697855E-05  0.2278433E+04  0.7818609E-02  0.8486474E-01
       -2   -1    0    0    0  501  0.00000000000E+00  0.00000000000E+00  0.63504788699E+03  0.63504788700E+03  0.25500000920E-02 0.  1.
        2   -1    0    0  501    0  0.00000000000E+00  0.00000000000E+00 -0.20436475379E+04  0.20436475379E+04  0.25500000920E-02 0. -1.
    10030    2    1    2    0    0  0.00000000000E+00  0.00000000000E+00 -0.14085996509E+04  0.26786954249E+04  0.22784328392E+04 0.  0.
        5    1    3    3  502    0 -0.19100048720E+03 -0.10599241138E+04 -0.26775927964E+03  0.11097916178E+04  0.46999998093E+01 0. -1.
       -5    1    3    3    0  502  0.19100048720E+03  0.10599241138E+04 -0.11408403713E+04  0.15689038071E+04  0.46999998093E+01 0.  1.
</event>
<event>
 5   0  0.1697855E-05  0.2303053E+04  0.7818609E-02  0.8476718E-01
       -2   -1    0    0    0  501  0.00000000000E+00  0.00000000000E+00  0.10278044513E+04  0.10278044513E+04  0.25500000920E-02 0.  1.
        2   -1    0    0  501    0  0.00000000000E+00  0.00000000000E+00 -0.12901416624E+04  0.12901416624E+04  0.25500000920E-02 0. -1.
    10030    2    1    2    0    0  0.00000000000E+00  0.00000000000E+00 -0.26233721111E+03  0.23179461138E+04  0.23030530550E+04 0.  0.
        5    1    3    3  502    0  0.97998695038E+03 -0.34764541048E+03  0.36676240061E+03  0.11026189291E+04  0.46999998093E+01 0.  1.
       -5    1    3    3    0  502 -0.97998695038E+03  0.34764541048E+03 -0.62909961172E+03  0.12153271847E+04  0.46999998093E+01 0. -1.
</event>
<event>
 5   0  0.1635955E-05  0.2299588E+04  0.7818609E-02  0.8478084E-01
        2   -1    0    0  501    0  0.00000000000E+00  0.00000000000E+00  0.15823847375E+04  0.15823847375E+04  0.25500000920E-02 0.  1.
       -2   -1    0    0    0  501  0.00000000000E+00  0.00000000000E+00 -0.83546416214E+03  0.83546416215E+03  0.25500000920E-02 0. -1.
    10030    2    1    2    0    0  0.00000000000E+00  0.00000000000E+00  0.74692057535E+03  0.24178488996E+04  0.22995875621E+04 0.  0.
        2    1    3    3  502    0  0.14669634862E+03 -0.23799283725E+03 -0.79918290599E+03  0.84667214819E+03  0.25500000920E-02 0. -1.
       -2    1    3    3    0  502 -0.14669634862E+03  0.23799283725E+03  0.15461034813E+04  0.15711767515E+04  0.25500000920E-02 0.  1.
</event>
<event>
 5   0  0.7416556E-06  0.2408001E+04  0.7818609E-02  0.8436514E-01
       -1   -1    0    0    0  501  0.00000000000E+00  0.00000000000E+00  0.10100457693E+04  0.10100457693E+04  0.50400001928E-02 0. -1.
        1   -1    0    0  501    0  0.00000000000E+00  0.00000000000E+00 -0.14351993446E+04  0.14351993446E+04  0.50400001928E-02 0.  1.
    10030    2    1    2    0    0  0.00000000000E+00  0.00000000000E+00 -0.42515357531E+03  0.24452451139E+04  0.24080008523E+04 0.  0.
        4    1    3    3  502    0  0.13525882288E+03 -0.10630585643E+04 -0.76990711731E+03  0.13195253096E+04  0.12699999809E+01 0.  1.
       -4    1    3    3    0  502 -0.13525882288E+03  0.10630585643E+04  0.34475354200E+03  0.11257198044E+04  0.12699999809E+01 0. -1.
</event>
<event>
 5   0  0.1588969E-05  0.2309881E+04  0.7818609E-02  0.8474035E-01
       -2   -1    0    0    0  501  0.00000000000E+00  0.00000000000E+00  0.74236833984E+03  0.74236833985E+03  0.25500000920E-02 0. -1.
        2   -1    0    0  501    0  0.00000000000E+00  0.00000000000E+00 -0.17968005184E+04  0.17968005184E+04  0.25500000920E-02 0.  1.
    10030    2    1    2    0    0  0.00000000000E+00  0.00000000000E+00 -0.10544321785E+04  0.25391688582E+04  0.23098812245E+04 0.  0.
        1    1    3    3  502    0 -0.75231735907E+03  0.36906387715E+03 -0.14009049041E+04  0.16323982677E+04  0.50400001928E-02 0.  1.
       -1    1    3    3    0  502  0.75231735907E+03 -0.36906387715E+03  0.34647272556E+03  0.90677059048E+03  0.50400001928E-02 0. -1.
</event>
<event>
 5   0  0.1697855E-05  0.2295483E+04  0.7818609E-02  0.8479704E-01
        2   -1    0    0  501    0  0.00000000000E+00  0.00000000000E+00  0.19389413964E+04  0.19389413964E+04  0.25500000920E-02 0. -1.
       -2   -1    0    0    0  501  0.00000000000E+00  0.00000000000E+00 -0.67939680111E+03  0.67939680112E+03  0.25500000920E-02 0.  1.
    10030    2    1    2    0    0  0.00000000000E+00  0.00000000000E+00  0.12595445952E+04  0.26183381975E+04  0.22954830274E+04 0.  0.
        5    1    3    3  502    0  0.58927114260E+03  0.90145310674E+03  0.10823527889E+04  0.15268817350E+04  0.46999998093E+01 0. -1.
       -5    1    3    3    0  502 -0.58927114260E+03 -0.90145310674E+03  0.17719180634E+03  0.10914564624E+04  0.46999998093E+01 0.  1.
</event>
<event>
 5   0  0.1626636E-05  0.2305113E+04  0.7818609E-02  0.8475908E-01
       -2   -1    0    0    0  501  0.00000000000E+00  0.00000000000E+00  0.10652315057E+04  0.10652315057E+04  0.25500000920E-02 0. -1.
        2   -1    0    0  501    0  0.00000000000E+00  0.00000000000E+00 -0.12470399587E+04  0.12470399587E+04  0.25500000920E-02 0.  1.
    10030    2    1    2    0    0  0.00000000000E+00  0.00000000000E+00 -0.18180845305E+03  0.23122714644E+04  0.23051127979E+04 0.  0.
        4    1    3    3  502    0  0.47003134411E+02  0.10693570071E+04 -0.51960827975E+03  0.11898437210E+04  0.12699999809E+01 0.  1.
       -4    1    3    3    0  502 -0.47003134411E+02 -0.10693570071E+04  0.33779982671E+03  0.11224277433E+04  0.12699999809E+01 0. -1.
</event>
<event>
 5   0  0.1602809E-05  0.2296545E+04  0.7818609E-02  0.8479284E-01
       -2   -1    0    0    0  501  0.00000000000E+00  0.00000000000E+00  0.13502621408E+04  0.13502621408E+04  0.25500000920E-02 0.  1.
        2   -1    0    0  501    0  0.00000000000E+00  0.00000000000E+00 -0.97649934142E+03  0.97649934142E+03  0.25500000920E-02 0. -1.
    10030    2    1    2    0    0  0.00000000000E+00  0.00000000000E+00  0.37376279935E+03  0.23267614822E+04  0.22965453109E+04 0.  0.
        3    1    3    3  502    0  0.84369617086E+03 -0.52622900524E+03  0.76871060047E+03  0.12568437421E+04  0.10100000352E+00 0.  1.
       -3    1    3    3    0  502 -0.84369617086E+03  0.52622900524E+03 -0.39494780112E+03  0.10699177401E+04  0.10100000352E+00 0. -1.
</event>
<event>
 5   0  0.1697855E-05  0.2292092E+04  0.7818609E-02  0.8481046E-01
       -2   -1    0    0    0  501  0.00000000000E+00  0.00000000000E+00  0.21342789726E+04  0.21342789726E+04  0.25500000920E-02 0.  1.
        2   -1    0    0  501    0  0.00000000000E+00  0.00000000000E+00 -0.61539341169E+03  0.61539341170E+03  0.25500000920E-02 0. -1.
    10030    2    1    2    0    0  0.00000000000E+00  0.00000000000E+00  0.15188855609E+04  0.27496723843E+04  0.22920918118E+04 0.  0.
        5    1    3    3  502    0  0.61288128045E+03  0.95641999999E+03  0.57736510448E+03  0.12742586999E+04  0.46999998093E+01 0.  1.
       -5    1    3    3    0  502 -0.61288128045E+03 -0.95641999999E+03  0.94152045638E+03  0.14754136844E+04  0.46999998093E+01 0. -1.
</event>
<event>
 5   0  0.7416556E-06  0.2289390E+04  0.7818609E-02  0.8482116E-01
        1   -1    0    0  501    0  0.00000000000E+00  0.00000000000E+00  0.23000187078E+04  0.23000187078E+04  0.50400001928E-02 0. -1.
       -1   -1    0    0    0  501  0.00000000000E+00  0.00000000000E+00 -0.56970281991E+03  0.56970281993E+03  0.50400001928E-02 0.  1.
    10030    2    1    2    0    0  0.00000000000E+00  0.00000000000E+00  0.17303158879E+04  0.28697215277E+04  0.22893904374E+04 0.  0.
        4    1    3    3  502    0  0.53724574039E+03  0.83006481172E+03  0.14216098446E+03  0.99892539042E+03  0.12699999809E+01 0.  1.
       -4    1    3    3    0  502 -0.53724574039E+03 -0.83006481172E+03  0.15881549034E+04  0.18707961373E+04  0.12699999809E+01 0. -1.
</event>
<event>
 5   0  0.7183014E-06  0.2305011E+04  0.7818609E-02  0.8475948E-01
       -1   -1    0    0    0  501  0.00000000000E+00  0.00000000000E+00  0.82448436499E+03  0.82448436501E+03  0.50400001928E-02 0.  1.
        1   -1    0    0  501    0  0.00000000000E+00  0.00000000000E+00 -0.16110300037E+04  0.16110300037E+04  0.50400001928E-02 0. -1.
    10030    2    1    2    0    0  0.00000000000E+00  0.00000000000E+00 -0.78654563867E+03  0.24355143687E+04  0.23050111059E+04 0.  0.
        3    1    3    3  502    0  0.19310638572E+02 -0.10488452925E+04 -0.89760107784E+03  0.13806292237E+04  0.10100000352E+00 0. -1.
       -3    1    3    3    0  502 -0.19310638572E+02  0.10488452925E+04  0.11105543917E+03  0.10548851449E+04  0.10100000352E+00 0.  1.
</event>
<event>
 5   0  0.7278815E-06  0.2290838E+04  0.7818609E-02  0.8481542E-01
        1   -1    0    0  501    0  0.00000000000E+00  0.00000000000E+00  0.15420945116E+04  0.15420945116E+04  0.50400001928E-02 0. -1.
       -1   -1    0    0    0  501  0.00000000000E+00  0.00000000000E+00 -0.85078121331E+03  0.85078121332E+03  0.50400001928E-02 0.  1.
    10030    2    1    2    0    0  0.00000000000E+00  0.00000000000E+00  0.69131329833E+03  0.23928757250E+04  0.22908383092E+04 0.  0.
        5    1    3    3  502    0  0.72227366973E+03 -0.86793967433E+03  0.14483171198E+03  0.11384185729E+04  0.46999998093E+01 0.  1.
       -5    1    3    3    0  502 -0.72227366973E+03  0.86793967433E+03  0.54648158634E+03  0.12544571521E+04  0.46999998093E+01 0. -1.
</event>
<event>
 5   0  0.1588969E-05  0.2300547E+04  0.7818609E-02  0.8477705E-01
        2   -1    0    0  501    0  0.00000000000E+00  0.00000000000E+00  0.13718907746E+04  0.13718907746E+04  0.25500000920E-02 0.  1.
       -2   -1    0    0    0  501  0.00000000000E+00  0.00000000000E+00 -0.96445683649E+03  0.96445683650E+03  0.25500000920E-02 0. -1.
    10030    2    1    2    0    0  0.00000000000E+00  0.00000000000E+00  0.40743393814E+03  0.23363476111E+04  0.23005472710E+04 0.  0.
        1    1    3    3  502    0  0.60304360308E+03  0.80179814155E+02 -0.78771209226E+03  0.99527922219E+03  0.50400001928E-02 0. -1.
       -1    1    3    3    0  502 -0.60304360308E+03 -0.80179814155E+02  0.11951460304E+04  0.13410683889E+04  0.50400001928E-02 0.  1.
</event>
<event>
 5   0  0.1697855E-05  0.2194782E+04  0.7818609E-02  0.8520603E-01
        2   -1    0    0  501    0  0.00000000000E+00  0.00000000000E+00  0.16230556247E+04  0.16230556247E+04  0.25500000920E-02 0.  1.
       -2   -1    0    0    0  501  0.00000000000E+00  0.00000000000E+00 -0.74197548411E+03  0.74197548411E+03  0.25500000920E-02 0. -1.
    10030    2    1    2    0    0  0.00000000000E+00  0.00000000000E+00  0.88108014057E+03  0.23650311088E+04  0.21947824337E+04 0.  0.
        5    1    3    3  502    0 -0.37052595148E+02  0.87325787255E+03 -0.27447692433E+03  0.91613966116E+03  0.46999998093E+01 0. -1.
       -5    1    3    3    0  502  0.37052595148E+02 -0.87325787255E+03  0.11555570649E+04  0.14488914476E+04  0.46999998093E+01 0.  1.
</event>
<event>
 5   0  0.7278815E-06  0.2299736E+04  0.7818609E-02  0.8478025E-01
        1   -1    0    0  501    0  0.00000000000E+00  0.00000000000E+00  0.17608913356E+04  0.17608913356E+04  0.50400001928E-02 0.  1.
       -1   -1    0    0    0  501  0.00000000000E+00  0.00000000000E+00 -0.75086783898E+03  0.75086783900E+03  0.50400001928E-02 0. -1.
    10030    2    1    2    0    0  0.00000000000E+00  0.00000000000E+00  0.10100234966E+04  0.25117591746E+04  0.22997362213E+04 0.  0.
        5    1    3    3  502    0  0.68817113321E+01 -0.71793152656E+03 -0.47595981180E+03  0.86141329641E+03  0.46999998093E+01 0. -1.
       -5    1    3    3    0  502 -0.68817113321E+01  0.71793152656E+03  0.14859833084E+04  0.16503458782E+04  0.46999998093E+01 0.  1.
</event>
<event>
 5   0  0.7391007E-06  0.2297067E+04  0.7818609E-02  0.8479079E-01
       -1   -1    0    0    0  501  0.00000000000E+00  0.00000000000E+00  0.13143056854E+04  0.13143056854E+04  0.50400001928E-02 0.  1.
        1   -1    0    0  501    0  0.00000000000E+00  0.00000000000E+00 -0.10036698881E+04  0.10036698881E+04  0.50400001928E-02 0. -1.
    10030    2    1    2    0    0  0.00000000000E+00  0.00000000000E+00  0.31063579725E+03  0.23179755735E+04  0.22970668603E+04 0.  0.
        1    1    3    3  502    0  0.95330634387E+03  0.22088712784E+01  0.80171957809E+03  0.12456131608E+04  0.50400001928E-02 0.  1.
       -1    1    3    3    0  502 -0.95330634387E+03 -0.22088712784E+01 -0.49108378084E+03  0.10723624127E+04  0.50400001928E-02 0. -1.
</event>
<event>
 5   0  0.1626636E-05  0.2266772E+04  0.7818609E-02  0.8491139E-01
        2   -1    0    0  501    0  0.00000000000E+00  0.00000000000E+00  0.14054670325E+04  0.14054670325E+04  0.25500000920E-02 0.  1.
       -2   -1    0    0    0  501  0.00000000000E+00  0.00000000000E+00 -0.91397687739E+03  0.91397687739E+03  0.25500000920E-02 0. -1.
    10030    2    1    2    0    0  0.00000000000E+00  0.00000000000E+00  0.49149015514E+03  0.23194439099E+04  0.22667724806E+04 0.  0.
        4    1    3    3  502    0  0.72160617100E+03 -0.61990108911E+03  0.87615326261E+03  0.12933054468E+04  0.12699999809E+01 0.  1.
       -4    1    3    3    0  502 -0.72160617100E+03  0.61990108911E+03 -0.38466310747E+03  0.10261384631E+04  0.12699999809E+01 0. -1.
</event>
<event>
 5   0  0.7391007E-06  0.2307174E+04  0.7818609E-02  0.8475098E-01
       -1   -1    0    0    0  501  0.00000000000E+00  0.00000000000E+00  0.10969318779E+04  0.10969318779E+04  0.50400001928E-02 0.  1.
        1   -1    0    0  501    0  0.00000000000E+00  0.00000000000E+00 -0.12131683060E+04  0.12131683060E+04  0.50400001928E-02 0. -1.
    10030    2    1    2    0    0  0.00000000000E+00  0.00000000000E+00 -0.11623642803E+03  0.23101001839E+04  0.23071740187E+04 0.  0.
        1    1    3    3  502    0 -0.24792428976E+03 -0.99465998858E+03 -0.58789043163E+03  0.11817064381E+04  0.50400001928E-02 0. -1.
       -1    1    3    3    0  502  0.24792428976E+03  0.99465998858E+03  0.47165400360E+03  0.11283937458E+04  0.50400001928E-02 0.  1.
</event>
<event>
 5   0  0.1626636E-05  0.2287657E+04  0.7818609E-02  0.8482804E-01
        2   -1    0    0  501    0  0.00000000000E+00  0.00000000000E+00  0.11420078024E+04  0.11420078024E+04  0.25500000920E-02 0.  1.
       -2   -1    0    0    0  501  0.00000000000E+00  0.00000000000E+00 -0.11456519158E+04  0.11456519158E+04  0.25500000920E-02 0. -1.
    10030    2    1    2    0    0  0.00000000000E+00  0.00000000000E+00 -0.36441133411E+01  0.22876597182E+04  0.22876568158E+04 0.  0.
        4    1    3    3  502    0 -0.31163922671E+03  0.40033857718E+02 -0.11016507551E+04  0.11455818244E+04  0.12699999809E+01 0. -1.
       -4    1    3    3    0  502  0.31163922671E+03 -0.40033857718E+02  0.10980066417E+04  0.11420778938E+04  0.12699999809E+01 0.  1.
</event>
<event>
 5   0  0.1588969E-05  0.2302126E+04  0.7818609E-02  0.8477083E-01
       -2   -1    0    0    0  501  0.00000000000E+00  0.00000000000E+00  0.96010809067E+03  0.96010809068E+03  0.25500000920E-02 0.  1.
        2   -1    0    0  501    0  0.00000000000E+00  0.00000000000E+00 -0.13799964827E+04  0.13799964827E+04  0.25500000920E-02 0. -1.
    10030    2    1    2    0    0  0.00000000000E+00  0.00000000000E+00 -0.41988839203E+03  0.23401045734E+04  0.23021257899E+04 0.  0.
        1    1    3    3  502    0 -0.71410604433E+03  0.83563796387E+02 -0.11236703253E+04  0.13340035048E+04  0.50400001928E-02 0. -1.
       -1    1    3    3    0  502  0.71410604433E+03 -0.83563796387E+02  0.70378193331E+03  0.10061010686E+04  0.50400001928E-02 0.  1.
</event>
<event>
 5   0  0.5704875E-06  0.2280608E+04  0.7818609E-02  0.8485606E-01
        4   -1    0    0  501    0  0.00000000000E+00  0.00000000000E+00  0.11360788692E+04  0.11360795791E+04  0.12699999809E+01 0. -1.
       -4   -1    0    0    0  501  0.00000000000E+00  0.00000000000E+00 -0.11445436873E+04  0.11445443919E+04  0.12699999809E+01 0.  1.
    10030    2    1    2    0    0  0.00000000000E+00  0.00000000000E+00 -0.84648180604E+01  0.22806239710E+04  0.22806082618E+04 0.  0.
        4    1    3    3  502    0  0.83290084993E+03 -0.47520098297E+03  0.61282297213E+03  0.11380217081E+04  0.12699999809E+01 0. -1.
       -4    1    3    3    0  502 -0.83290084993E+03  0.47520098297E+03 -0.62128779019E+03  0.11426022629E+04  0.12699999809E+01 0.  1.
</event>
<event>
 5   0  0.7391007E-06  0.2324521E+04  0.7818609E-02  0.8468315E-01
       -1   -1    0    0    0  501  0.00000000000E+00  0.00000000000E+00  0.48967859136E+03  0.48967859138E+03  0.50400001928E-02 0. -1.
        1   -1    0    0  501    0  0.00000000000E+00  0.00000000000E+00 -0.27586445324E+04  0.27586445324E+04  0.50400001928E-02 0.  1.
    10030    2    1    2    0    0  0.00000000000E+00  0.00000000000E+00 -0.22689659410E+04  0.32483231238E+04  0.23245207409E+04 0.  0.
        1    1    3    3  502    0  0.39650431396E+03 -0.10825189566E+04 -0.13407437257E+04  0.17682354765E+04  0.50400001928E-02 0.  1.
       -1    1    3    3    0  502 -0.39650431396E+03  0.10825189566E+04 -0.92822221536E+03  0.14800876473E+04  0.50400001928E-02 0. -1.
</event>
<event>
 5   0  0.5704875E-06  0.2294486E+04  0.7818609E-02  0.8480099E-01
        3   -1    0    0  501    0  0.00000000000E+00  0.00000000000E+00  0.12287101041E+04  0.12287101082E+04  0.10100000352E+00 0. -1.
       -3   -1    0    0    0  501  0.00000000000E+00  0.00000000000E+00 -0.10711770872E+04  0.10711770920E+04  0.10100000352E+00 0.  1.
    10030    2    1    2    0    0  0.00000000000E+00  0.00000000000E+00  0.15753301684E+03  0.22998872002E+04  0.22944856684E+04 0.  0.
        4    1    3    3  502    0 -0.32311754790E+03  0.91187474191E+03  0.69685745051E+03  0.11922803420E+04  0.12699999809E+01 0. -1.
       -4    1    3    3    0  502  0.32311754790E+03 -0.91187474191E+03 -0.53932443367E+03  0.11076068582E+04  0.12699999809E+01 0.  1.
</event>
<event>
 5   0  0.1626636E-05  0.2307635E+04  0.7818609E-02  0.8474917E-01
        2   -1    0    0  501    0  0.00000000000E+00  0.00000000000E+00  0.23198211728E+04  0.23198211728E+04  0.25500000920E-02 0. -1.
       -2   -1    0    0    0  501  0.00000000000E+00  0.00000000000E+00 -0.57387805210E+03  0.57387805211E+03  0.25500000920E-02 0.  1.
    10030    2    1    2    0    0  0.00000000000E+00  0.00000000000E+00  0.17459431206E+04  0.28936992249E+04  0.23076346815E+04 0.  0.
        4    1    3    3  502    0 -0.78384757564E+03 -0.83983930829E+03  0.73823124977E+03  0.13655526634E+04  0.12699999809E+01 0. -1.
       -4    1    3    3    0  502  0.78384757564E+03  0.83983930829E+03  0.10077118709E+04  0.15281465614E+04  0.12699999809E+01 0.  1.
</event>
<event>
 5   0  0.7416556E-06  0.2311284E+04  0.7818609E-02  0.8473485E-01
       -1   -1    0    0    0  501  0.00000000000E+00  0.00000000000E+00  0.68300764902E+03  0.68300764904E+03  0.50400001928E-02 0. -1.
        1   -1    0    0  501    0  0.00000000000E+00  0.00000000000E+00 -0.19553353216E+04  0.19553353217E+04  0.50400001928E-02 0.  1.
    10030    2    1    2    0    0  0.00000000000E+00  0.00000000000E+00 -0.12723276726E+04  0.26383429707E+04  0.23112844750E+04 0.  0.
        4    1    3    3  502    0  0.79495862451E+03 -0.66356368269E+02 -0.15906320557E+04  0.17794589998E+04  0.12699999809E+01 0.  1.
       -4    1    3    3    0  502 -0.79495862451E+03  0.66356368269E+02  0.31830438310E+03  0.85888397092E+03  0.12699999809E+01 0. -1.
</event>
<event>
 5   0  0.1626636E-05  0.2299672E+04  0.7818609E-02  0.8478051E-01
       -2   -1    0    0    0  501  0.00000000000E+00  0.00000000000E+00  0.14360884534E+04  0.14360884534E+04  0.25500000920E-02 0.  1.
        2   -1    0    0  501    0  0.00000000000E+00  0.00000000000E+00 -0.92064132972E+03  0.92064132973E+03  0.25500000920E-02 0. -1.
    10030    2    1    2    0    0  0.00000000000E+00  0.00000000000E+00  0.51544712363E+03  0.23567297831E+04  0.22996716142E+04 0.  0.
        4    1    3    3  502    0  0.96504355958E+03  0.81609953818E+02 -0.37745413504E+03  0.10394433575E+04  0.12699999809E+01 0. -1.
       -4    1    3    3    0  502 -0.96504355958E+03 -0.81609953818E+02  0.89290125867E+03  0.13172864256E+04  0.12699999809E+01 0.  1.
</event>
<event>
 5   0  0.7202572E-06  0.2312303E+04  0.7818609E-02  0.8473086E-01
        1   -1    0    0  501    0  0.00000000000E+00  0.00000000000E+00  0.19091576985E+04  0.19091576985E+04  0.50400001928E-02 0.  1.
       -1   -1    0    0    0  501  0.00000000000E+00  0.00000000000E+00 -0.70014458755E+03  0.70014458757E+03  0.50400001928E-02 0. -1.
    10030    2    1    2    0    0  0.00000000000E+00  0.00000000000E+00  0.12090131110E+04  0.26093022861E+04  0.23123031198E+04 0.  0.
        2    1    3    3  502    0  0.59073961857E+02 -0.39416372130E+03  0.18291826515E+04  0.18721014782E+04  0.25500000920E-02 0.  1.
       -2    1    3    3    0  502 -0.59073961857E+02  0.39416372130E+03 -0.62016954052E+03  0.73720080789E+03  0.25500000920E-02 0. -1.
</event>
<event>
 5   0  0.1588969E-05  0.2298219E+04  0.7818609E-02  0.8478624E-01
        2   -1    0    0  501    0  0.00000000000E+00  0.00000000000E+00  0.13187568599E+04  0.13187568599E+04  0.25500000920E-02 0. -1.
       -2   -1    0    0    0  501  0.00000000000E+00  0.00000000000E+00 -0.10012857240E+04  0.10012857240E+04  0.25500000920E-02 0.  1.
    10030    2    1    2    0    0  0.00000000000E+00  0.00000000000E+00  0.31747113589E+03  0.23200425839E+04  0.22982188036E+04 0.  0.
        1    1    3    3  502    0  0.93282980106E+03  0.53211723947E+03 -0.25396463032E+03  0.11035480179E+04  0.50400001928E-02 0. -1.
       -1    1    3    3    0  502 -0.93282980106E+03 -0.53211723947E+03  0.57143576620E+03  0.12164945660E+04  0.50400001928E-02 0.  1.
</event>
<event>
 5   0  0.7183014E-06  0.2303002E+04  0.7818609E-02  0.8476738E-01
       -1   -1    0    0    0  501  0.00000000000E+00  0.00000000000E+00  0.12037134040E+04  0.12037134040E+04  0.50400001928E-02 0. -1.
        1   -1    0    0  501    0  0.00000000000E+00  0.00000000000E+00 -0.11015534769E+04  0.11015534769E+04  0.50400001928E-02 0.  1.
    10030    2    1    2    0    0  0.00000000000E+00  0.00000000000E+00  0.10215992706E+03  0.23052668809E+04  0.23030021149E+04 0.  0.
        3    1    3    3  502    0  0.30614933017E+03 -0.25979541188E+03  0.11313695195E+04  0.12005074212E+04  0.10100000352E+00 0. -1.
       -3    1    3    3    0  502 -0.30614933017E+03  0.25979541188E+03 -0.10292095925E+04  0.11047594597E+04  0.10100000352E+00 0.  1.
</event>
<event>
 5   0  0.7391007E-06  0.2294834E+04  0.7818609E-02  0.8479961E-01
        1   -1    0    0  501    0  0.00000000000E+00  0.00000000000E+00  0.11324962474E+04  0.11324962474E+04  0.50400001928E-02 0.  1.
       -1   -1    0    0    0  501  0.00000000000E+00  0.00000000000E+00 -0.11625342376E+04  0.11625342376E+04  0.50400001928E-02 0. -1.
    10030    2    1    2    0    0  0.00000000000E+00  0.00000000000E+00 -0.30037990203E+02  0.22950304850E+04  0.22948339038E+04 0.  0.
        1    1    3    3  502    0 -0.94072038353E+03 -0.26345422910E+03 -0.61690332592E+03  0.11553928701E+04  0.50400001928E-02 0. -1.
       -1    1    3    3    0  502  0.94072038353E+03  0.26345422910E+03  0.58686533571E+03  0.11396376148E+04  0.50400001928E-02 0.  1.
</event>
<event>
 5   0  0.7183014E-06  0.2289387E+04  0.7818609E-02  0.8482118E-01
        1   -1    0    0  501    0  0.00000000000E+00  0.00000000000E+00  0.15748892162E+04  0.15748892162E+04  0.50400001928E-02 0. -1.
       -1   -1    0    0    0  501  0.00000000000E+00  0.00000000000E+00 -0.83200945975E+03  0.83200945977E+03  0.50400001928E-02 0.  1.
    10030    2    1    2    0    0  0.00000000000E+00  0.00000000000E+00  0.74287975640E+03  0.24068986759E+04  0.22893865780E+04 0.  0.
        3    1    3    3  502    0  0.97746447051E+03 -0.55607135134E+03  0.59611600277E+03  0.12727947352E+04  0.10100000352E+00 0.  1.
       -3    1    3    3    0  502 -0.97746447051E+03  0.55607135134E+03  0.14676375364E+03  0.11341039408E+04  0.10100000352E+00 0. -1.
</event>
<event>
 5   0  0.1602809E-05  0.2292163E+04  0.7818609E-02  0.8481018E-01
        2   -1    0    0  501    0  0.00000000000E+00  0.00000000000E+00  0.17520518404E+04  0.17520518404E+04  0.25500000920E-02 0.  1.
       -2   -1    0    0    0  501  0.00000000000E+00  0.00000000000E+00 -0.74969394144E+03  0.74969394144E+03  0.25500000920E-02 0. -1.
    10030    2    1    2    0    0  0.00000000000E+00  0.00000000000E+00  0.10023578989E+04  0.25017457818E+04  0.22921628649E+04 0.  0.
        3    1    3    3  502    0 -0.10499776172E+04  0.17801609196E+03  0.38946535060E+02  0.10656732935E+04  0.10100000352E+00 0. -1.
       -3    1    3    3    0  502  0.10499776172E+04 -0.17801609196E+03  0.96341136388E+03  0.14360724884E+04  0.10100000352E+00 0.  1.
</event>
<event>
 5   0  0.1635955E-05  0.2306847E+04  0.7818609E-02  0.8475226E-01
       -2   -1    0    0    0  501  0.00000000000E+00  0.00000000000E+00  0.10356562951E+04  0.10356562951E+04  0.25500000920E-02 0.  1.
        2   -1    0    0  501    0  0.00000000000E+00  0.00000000000E+00 -0.12845823051E+04  0.12845823051E+04  0.25500000920E-02 0. -1.
    10030    2    1    2    0    0  0.00000000000E+00  0.00000000000E+00 -0.24892600999E+03  0.23202386002E+04  0.23068469831E+04 0.  0.
        2    1    3    3  502    0 -0.79335180276E+03 -0.12894065348E+02 -0.96646816260E+03  0.12504535374E+04  0.25500000920E-02 0. -1.
       -2    1    3    3    0  502  0.79335180276E+03  0.12894065348E+02  0.71754215261E+03  0.10697850628E+04  0.25500000920E-02 0.  1.
</event>
<event>
 5   0  0.7416556E-06  0.2262055E+04  0.7818609E-02  0.8493034E-01
        1   -1    0    0  501    0  0.00000000000E+00  0.00000000000E+00  0.16851042278E+04  0.16851042278E+04  0.50400001928E-02 0. -1.
       -1   -1    0    0    0  501  0.00000000000E+00  0.00000000000E+00 -0.75913611495E+03  0.75913611497E+03  0.50400001928E-02 0.  1.
    10030    2    1    2    0    0  0.00000000000E+00  0.00000000000E+00  0.92596811289E+03  0.24442403428E+04  0.22620552397E+04 0.  0.
        4    1    3    3  502    0  0.74846536373E+03  0.84701466906E+03  0.50603801724E+03  0.12384305948E+04  0.12699999809E+01 0. -1.
       -4    1    3    3    0  502 -0.74846536373E+03 -0.84701466906E+03  0.41993009565E+03  0.12058097480E+04  0.12699999809E+01 0.  1.
</event>
<event>
 5   0  0.1588969E-05  0.2297025E+04  0.7818609E-02  0.8479095E-01
       -2   -1    0    0    0  501  0.00000000000E+00  0.00000000000E+00  0.14945165849E+04  0.14945165849E+04  0.25500000920E-02 0.  1.
        2   -1    0    0  501    0  0.00000000000E+00  0.00000000000E+00 -0.88261354038E+03  0.88261354038E+03  0.25500000920E-02 0. -1.
    10030    2    1    2    0    0  0.00000000000E+00  0.00000000000E+00  0.61190304457E+03  0.23771301253E+04  0.22970246618E+04 0.  0.
        1    1    3    3  502    0  0.24949124189E+03  0.38664657000E+03  0.13949508715E+04  0.14688871242E+04  0.50400001928E-02 0.  1.
       -1    1    3    3    0  502 -0.24949124189E+03 -0.38664657000E+03 -0.78304782688E+03  0.90824300112E+03  0.50400001928E-02 0. -1.
</event>
<event>
 5   0  0.1697855E-05  0.2297884E+04  0.7818609E-02  0.8478756E-01
       -2   -1    0    0    0  501  0.00000000000E+00  0.00000000000E+00  0.75341406564E+03  0.75341406564E+03  0.25500000920E-02 0. -1.
        2   -1    0    0  501    0  0.00000000000E+00  0.00000000000E+00 -0.17521144697E+04  0.17521144697E+04  0.25500000920E-02 0.  1.
    10030    2    1    2    0    0  0.00000000000E+00  0.00000000000E+00 -0.99870040402E+03  0.25055285353E+04  0.22978839710E+04 0.  0.
        5    1    3    3  502    0 -0.19902005477E+03 -0.78263053147E+03 -0.13904686886E+04  0.16079629334E+04  0.46999998093E+01 0.  1.
       -5    1    3    3    0  502  0.19902005477E+03  0.78263053147E+03  0.39176828460E+03  0.89756560195E+03  0.46999998093E+01 0. -1.
</event>
<event>
 5   0  0.7416556E-06  0.2290778E+04  0.7818609E-02  0.8481566E-01
        1   -1    0    0  501    0  0.00000000000E+00  0.00000000000E+00  0.67677880359E+03  0.67677880361E+03  0.50400001928E-02 0. -1.
       -1   -1    0    0    0  501  0.00000000000E+00  0.00000000000E+00 -0.19384705624E+04  0.19384705624E+04  0.50400001928E-02 0.  1.
    10030    2    1    2    0    0  0.00000000000E+00  0.00000000000E+00 -0.12616917588E+04  0.26152493660E+04  0.22907778487E+04 0.  0.
        4    1    3    3  502    0 -0.76821603128E+03  0.79967960713E+03 -0.30338979012E+03  0.11496479124E+04  0.12699999809E+01 0. -1.
       -4    1    3    3    0  502  0.76821603128E+03 -0.79967960713E+03 -0.95830196866E+03  0.14656014536E+04  0.12699999809E+01 0.  1.
</event>
<event>
 5   0  0.1588969E-05  0.2302335E+04  0.7818609E-02  0.8477001E-01
        2   -1    0    0  501    0  0.00000000000E+00  0.00000000000E+00  0.18131278490E+04  0.18131278490E+04  0.25500000920E-02 0.  1.
       -2   -1    0    0    0  501  0.00000000000E+00  0.00000000000E+00 -0.73088424604E+03  0.73088424605E+03  0.25500000920E-02 0. -1.
    10030    2    1    2    0    0  0.00000000000E+00  0.00000000000E+00  0.10822436029E+04  0.25440120950E+04  0.23023349721E+04 0.  0.
        1    1    3    3  502    0  0.37610510686E+03  0.97793020185E+03  0.14218815298E+02  0.10478571973E+04  0.50400001928E-02 0. -1.
       -1    1    3    3    0  502 -0.37610510686E+03 -0.97793020185E+03  0.10680247876E+04  0.14961548978E+04  0.50400001928E-02 0.  1.
</event>
<event>
 5   0  0.7391007E-06  0.2289701E+04  0.7818609E-02  0.8481993E-01
       -1   -1    0    0    0  501  0.00000000000E+00  0.00000000000E+00  0.11318809944E+04  0.11318809944E+04  0.50400001928E-02 0.  1.
        1   -1    0    0  501    0  0.00000000000E+00  0.00000000000E+00 -0.11579689296E+04  0.11579689296E+04  0.50400001928E-02 0. -1.
    10030    2    1    2    0    0  0.00000000000E+00  0.00000000000E+00 -0.26087935212E+02  0.22898499240E+04  0.22897013111E+04 0.  0.
        1    1    3    3  502    0 -0.19205492220E+02  0.43645744811E+03 -0.10713276899E+04  0.11569818382E+04  0.50400001928E-02 0. -1.
       -1    1    3    3    0  502  0.19205492220E+02 -0.43645744811E+03  0.10452397546E+04  0.11328680857E+04  0.50400001928E-02 0.  1.
</event>
<event>
 5   0  0.1588969E-05  0.2317501E+04  0.7818609E-02  0.8471053E-01
       -2   -1    0    0    0  501  0.00000000000E+00  0.00000000000E+00  0.94422573185E+03  0.94422573185E+03  0.25500000920E-02 0.  1.
        2   -1    0    0  501    0  0.00000000000E+00  0.00000000000E+00 -0.14220141039E+04  0.14220141039E+04  0.25500000920E-02 0. -1.
    10030    2    1    2    0    0  0.00000000000E+00  0.00000000000E+00 -0.47778837204E+03  0.23662398357E+04  0.23175006433E+04 0.  0.
        1    1    3    3  502    0 -0.91823518964E+03 -0.63936800283E+03 -0.54648558121E+03  0.12452284116E+04  0.50400001928E-02 0.  1.
       -1    1    3    3    0  502  0.91823518964E+03  0.63936800283E+03  0.68697209167E+02  0.11210114242E+04  0.50400001928E-02 0. -1.
</event>
<event>
 5   0  0.7416556E-06  0.2291402E+04  0.7818609E-02  0.8481319E-01
       -1   -1    0    0    0  501  0.00000000000E+00  0.00000000000E+00  0.14517283435E+04  0.14517283435E+04  0.50400001928E-02 0.  1.
        1   -1    0    0  501    0  0.00000000000E+00  0.00000000000E+00 -0.90418497711E+03  0.90418497712E+03  0.50400001928E-02 0. -1.
    10030    2    1    2    0    0  0.00000000000E+00  0.00000000000E+00  0.54754336642E+03  0.23559133207E+04  0.22914021551E+04 0.  0.
        4    1    3    3  502    0  0.72646578072E+03 -0.77350359786E+03  0.71786857347E+03  0.12811702651E+04  0.12699999809E+01 0.  1.
       -4    1    3    3    0  502 -0.72646578072E+03  0.77350359786E+03 -0.17032520705E+03  0.10747430556E+04  0.12699999809E+01 0. -1.
</event>
<event>
 5   0  0.1635955E-05  0.2326081E+04  0.7818609E-02  0.8467708E-01
       -2   -1    0    0    0  501  0.00000000000E+00  0.00000000000E+00  0.71672934379E+03  0.71672934380E+03  0.25500000920E-02 0.  1.
        2   -1    0    0  501    0  0.00000000000E+00  0.00000000000E+00 -0.18872712320E+04  0.18872712320E+04  0.25500000920E-02 0. -1.
    10030    2    1    2    0    0  0.00000000000E+00  0.00000000000E+00 -0.11705418882E+04  0.26040005758E+04  0.23260805418E+04 0.  0.
        2    1    3    3  502    0 -0.52514693293E+03 -0.29920215062E+03 -0.16976541144E+04  0.18020351607E+04  0.25500000920E-02 0. -1.
       -2    1    3    3    0  502  0.52514693293E+03  0.29920215062E+03  0.52711222618E+03  0.80196541515E+03  0.25500000920E-02 0.  1.
</event>
<event>
 5   0  0.1635955E-05  0.2306113E+04  0.7818609E-02  0.8475515E-01
        2   -1    0    0  501    0  0.00000000000E+00  0.00000000000E+00  0.18879240142E+04  0.18879240142E+04  0.25500000920E-02 0.  1.
       -2   -1    0    0    0  501  0.00000000000E+00  0.00000000000E+00 -0.70423337597E+03  0.70423337597E+03  0.25500000920E-02 0. -1.
    10030    2    1    2    0    0  0.00000000000E+00  0.00000000000E+00  0.11836906383E+04  0.25921573902E+04  0.23061128352E+04 0.  0.
        2    1    3    3  502    0  0.10738689593E+04  0.19292624696E+03  0.10111038220E+04  0.14875301736E+04  0.25500000920E-02 0.  1.
       -2    1    3    3    0  502 -0.10738689593E+04 -0.19292624696E+03  0.17258681624E+03  0.11046272166E+04  0.25500000920E-02 0. -1.
</event>
<event>
 5   0  0.7416556E-06  0.2297778E+04  0.7818609E-02  0.8478798E-01
        1   -1    0    0  501    0  0.00000000000E+00  0.00000000000E+00  0.96453233702E+03  0.96453233703E+03  0.50400001928E-02 0.  1.
       -1   -1    0    0    0  501  0.00000000000E+00  0.00000000000E+00 -0.13684830456E+04  0.13684830456E+04  0.50400001928E-02 0. -1.
    10030    2    1    2    0    0  0.00000000000E+00  0.00000000000E+00 -0.40395070861E+03  0.23330153827E+04  0.22977781879E+04 0.  0.
        4    1    3    3  502    0  0.28094653044E+03  0.31708746062E+02 -0.13326086424E+04  0.13622715604E+04  0.12699999809E+01 0. -1.
       -4    1    3    3    0  502 -0.28094653044E+03 -0.31708746062E+02  0.92865793381E+03  0.97074382227E+03  0.12699999809E+01 0.  1.
</event>
<event>
 5   0  0.7278815E-06  0.2297287E+04  0.7818609E-02  0.8478992E-01
        1   -1    0    0  501    0  0.00000000000E+00  0.00000000000E+00  0.10063986807E+04  0.10063986807E+04  0.50400001928E-02 0.  1.
       -1   -1    0    0    0  501  0.00000000000E+00  0.00000000000E+00 -0.13109927811E+04  0.13109927811E+04  0.50400001928E-02 0. -1.
    10030    2    1    2    0    0  0.00000000000E+00  0.00000000000E+00 -0.30459410038E+03  0.23173914618E+04  0.22972865779E+04 0.  0.
        5    1    3    3  502    0  0.42930113191E+03 -0.41256995427E+03 -0.11431591158E+04  0.12889330017E+04  0.46999998093E+01 0. -1.
       -5    1    3    3    0  502 -0.42930113191E+03  0.41256995427E+03  0.83856501538E+03  0.10284584600E+04  0.46999998093E+01 0.  1.
</event>
<event>
 5   0  0.7202572E-06  0.2297107E+04  0.7818609E-02  0.8479063E-01
        1   -1    0    0  501    0  0.00000000000E+00  0.00000000000E+00  0.10537770199E+04  0.10537770199E+04  0.50400001928E-02 0. -1.
       -1   -1    0    0    0  501  0.00000000000E+00  0.00000000000E+00 -0.12518541050E+04  0.12518541050E+04  0.50400001928E-02 0.  1.
    10030    2    1    2    0    0  0.00000000000E+00  0.00000000000E+00 -0.19807708511E+03  0.23056311249E+04  0.22971069528E+04 0.  0.
        2    1    3    3  502    0 -0.67208298291E+03  0.93069472332E+03 -0.13504482973E+03  0.11559088675E+04  0.25500000920E-02 0.  1.
       -2    1    3    3    0  502  0.67208298291E+03 -0.93069472332E+03 -0.63032255379E+02  0.11497222574E+04  0.25500000920E-02 0. -1.
</event>
<event>
 5   0  0.1602809E-05  0.2344628E+04  0.7818609E-02  0.8460530E-01
        2   -1    0    0  501    0  0.00000000000E+00  0.00000000000E+00  0.13869257260E+04  0.13869257260E+04  0.25500000920E-02 0. -1.
       -2   -1    0    0    0  501  0.00000000000E+00  0.00000000000E+00 -0.99091100582E+03  0.99091100582E+03  0.25500000920E-02 0.  1.
    10030    2    1    2    0    0  0.00000000000E+00  0.00000000000E+00  0.39601472015E+03  0.23778367318E+04  0.23446278733E+04 0.  0.
        3    1    3    3  502    0  0.10225600025E+04  0.50417592147E+03 -0.78801099215E+02  0.11428175453E+04  0.10100000352E+00 0.  1.
       -3    1    3    3    0  502 -0.10225600025E+04 -0.50417592147E+03  0.47481581936E+03  0.12350191865E+04  0.10100000352E+00 0. -1.
</event>
<event>
 5   0  0.7202572E-06  0.2277148E+04  0.7818609E-02  0.8486986E-01
        1   -1    0    0  501    0  0.00000000000E+00  0.00000000000E+00  0.20833446823E+04  0.20833446824E+04  0.50400001928E-02 0.  1.
       -1   -1    0    0    0  501  0.00000000000E+00  0.00000000000E+00 -0.62224497742E+03  0.62224497744E+03  0.50400001928E-02 0. -1.
    10030    2    1    2    0    0  0.00000000000E+00  0.00000000000E+00  0.14610997049E+04  0.27055896598E+04  0.22771480100E+04 0.  0.
        2    1    3    3  502    0  0.12604391813E+03  0.11315129160E+04  0.74471905744E+03  0.13604466263E+04  0.25500000920E-02 0. -1.
       -2    1    3    3    0  502 -0.12604391813E+03 -0.11315129160E+04  0.71638064749E+03  0.13451430335E+04  0.25500000920E-02 0.  1.
</event>
<event>
 5   0  0.7391007E-06  0.2272449E+04  0.7818609E-02  0.8488864E-01
        1   -1    0    0  501    0  0.00000000000E+00  0.00000000000E+00  0.17874401858E+04  0.17874401858E+04  0.50400001928E-02 0.  1.
       -1   -1    0    0    0  501  0.00000000000E+00  0.00000000000E+00 -0.72226506964E+03  0.72226506965E+03  0.50400001928E-02 0. -1.
    10030    2    1    2    0    0  0.00000000000E+00  0.00000000000E+00  0.10651751161E+04  0.25097052554E+04  0.22724485563E+04 0.  0.
        1    1    3    3  502    0  0.74236974086E+03  0.57753445198E+03 -0.17141955455E+03  0.95605624263E+03  0.50400001928E-02 0. -1.
       -1    1    3    3    0  502 -0.74236974086E+03 -0.57753445198E+03  0.12365946707E+04  0.15536490128E+04  0.50400001928E-02 0.  1.
</event>
<event>
 5   0  0.1588969E-05  0.2299417E+04  0.7818609E-02  0.8478151E-01
       -2   -1    0    0    0  501  0.00000000000E+00  0.00000000000E+00  0.17571294887E+04  0.17571294887E+04  0.25500000920E-02 0.  1.
        2   -1    0    0  501    0  0.00000000000E+00  0.00000000000E+00 -0.75226666008E+03  0.75226666008E+03  0.25500000920E-02 0. -1.
    10030    2    1    2    0    0  0.00000000000E+00  0.00000000000E+00  0.10048628286E+04  0.25093961487E+04  0.22994172581E+04 0.  0.
        1    1    3    3  502    0 -0.52790644598E+03 -0.15656609710E+03  0.16038693994E+04  0.16957580042E+04  0.50400001928E-02 0.  1.
       -1    1    3    3    0  502  0.52790644598E+03  0.15656609710E+03 -0.59900657077E+03  0.81363814458E+03  0.50400001928E-02 0. -1.
</event>
<event>
 5   0  0.7278815E-06  0.2301475E+04  0.7818609E-02  0.8477340E-01
       -1   -1    0    0    0  501  0.00000000000E+00  0.00000000000E+00  0.72138845742E+03  0.72138845744E+03  0.50400001928E-02 0. -1.
        1   -1    0    0  501    0  0.00000000000E+00  0.00000000000E+00 -0.18356223020E+04  0.18356223020E+04  0.50400001928E-02 0.  1.
    10030    2    1    2    0    0  0.00000000000E+00  0.00000000000E+00 -0.11142338446E+04  0.25570107594E+04  0.23014749539E+04 0.  0.
        5    1    3    3  502    0  0.68487916044E+03  0.27864738380E+03  0.42252723370E+03  0.85161915322E+03  0.46999998093E+01 0. -1.
       -5    1    3    3    0  502 -0.68487916044E+03 -0.27864738380E+03 -0.15367610783E+04  0.17053916062E+04  0.46999998093E+01 0.  1.
</event>
<event>
 5   0  0.7278815E-06  0.2278086E+04  0.7818609E-02  0.8486612E-01
        1   -1    0    0  501    0  0.00000000000E+00  0.00000000000E+00  0.17945338009E+04  0.17945338009E+04  0.50400001928E-02 0.  1.
       -1   -1    0    0    0  501  0.00000000000E+00  0.00000000000E+00 -0.72298380807E+03  0.72298380809E+03  0.50400001928E-02 0. -1.
    10030    2    1    2    0    0  0.00000000000E+00  0.00000000000E+00  0.10715499928E+04  0.25175176090E+04  0.22780859344E+04 0.  0.
        5    1    3    3  502    0 -0.10423331623E+04 -0.27331270822E+03  0.94367376493E+03  0.14323758314E+04  0.46999998093E+01 0.  1.
       -5    1    3    3    0  502  0.10423331623E+04  0.27331270822E+03  0.12787622788E+03  0.10851417776E+04  0.46999998093E+01 0. -1.
</event>
<event>
 5   0  0.1635955E-05  0.2295941E+04  0.7818609E-02  0.8479523E-01
       -2   -1    0    0    0  501  0.00000000000E+00  0.00000000000E+00  0.50953937676E+03  0.50953937676E+03  0.25500000920E-02 0.  1.
        2   -1    0    0  501    0  0.00000000000E+00  0.00000000000E+00 -0.25863283455E+04  0.25863283455E+04  0.25500000920E-02 0. -1.
    10030    2    1    2    0    0  0.00000000000E+00  0.00000000000E+00 -0.20767889688E+04  0.30958677223E+04  0.22959408819E+04 0.  0.
        2    1    3    3  502    0 -0.52075878510E+03  0.15591707452E+02 -0.24177342262E+04  0.24732310046E+04  0.25500000920E-02 0. -1.
       -2    1    3    3    0  502  0.52075878510E+03 -0.15591707452E+02  0.34094525745E+03  0.62263671767E+03  0.25500000920E-02 0.  1.
</event>
<event>
 5   0  0.1635955E-05  0.2246449E+04  0.7818609E-02  0.8499340E-01
        2   -1    0    0  501    0  0.00000000000E+00  0.00000000000E+00  0.58696016305E+03  0.58696016305E+03  0.25500000920E-02 0.  1.
       -2   -1    0    0    0  501  0.00000000000E+00  0.00000000000E+00 -0.21494350457E+04  0.21494350457E+04  0.25500000920E-02 0. -1.
    10030    2    1    2    0    0  0.00000000000E+00  0.00000000000E+00 -0.15624748826E+04  0.27363952087E+04  0.22464485259E+04 0.  0.
        2    1    3    3  502    0 -0.24775195688E+03  0.53522334709E+03 -0.19456449547E+04  0.20330714088E+04  0.25500000920E-02 0. -1.
       -2    1    3    3    0  502  0.24775195688E+03 -0.53522334709E+03  0.38317007209E+03  0.70332379994E+03  0.25500000920E-02 0.  1.
</event>
<event>
 5   0  0.7183014E-06  0.2298313E+04  0.7818609E-02  0.8478586E-01
        1   -1    0    0  501    0  0.00000000000E+00  0.00000000000E+00  0.11702607196E+04  0.11702607196E+04  0.50400001928E-02 0.  1.
       -1   -1    0    0    0  501  0.00000000000E+00  0.00000000000E+00 -0.11284332180E+04  0.11284332180E+04  0.50400001928E-02 0. -1.
    10030    2    1    2    0    0  0.00000000000E+00  0.00000000000E+00  0.41827501613E+02  0.22986939375E+04  0.22983133552E+04 0.  0.
        3    1    3    3  502    0  0.44165721067E+03  0.10112461953E+04  0.34171770279E+03  0.11551843826E+04  0.10100000352E+00 0.  1.
       -3    1    3    3    0  502 -0.44165721067E+03 -0.10112461953E+04 -0.29989020118E+03  0.11435095549E+04  0.10100000352E+00 0. -1.
</event>
<event>
 5   0  0.1697855E-05  0.2296208E+04  0.7818609E-02  0.8479418E-01
        2   -1    0    0  501    0  0.00000000000E+00  0.00000000000E+00  0.79184174589E+03  0.79184174589E+03  0.25500000920E-02 0.  1.
       -2   -1    0    0    0  501  0.00000000000E+00  0.00000000000E+00 -0.16646543520E+04  0.16646543520E+04  0.25500000920E-02 0. -1.
    10030    2    1    2    0    0  0.00000000000E+00  0.00000000000E+00 -0.87281260614E+03  0.24564960979E+04  0.22962080118E+04 0.  0.
        5    1    3    3  502    0  0.81208070114E+02 -0.91296836696E+02 -0.16576683551E+04  0.16621721717E+04  0.46999998093E+01 0. -1.
       -5    1    3    3    0  502 -0.81208070114E+02  0.91296836696E+02  0.78485574895E+03  0.79432392618E+03  0.46999998093E+01 0.  1.
</event>
<event>
 5   0  0.7416556E-06  0.2312059E+04  0.7818609E-02  0.8473181E-01
        1   -1    0    0  501    0  0.00000000000E+00  0.00000000000E+00  0.12873430245E+04  0.12873430245E+04  0.50400001928E-02 0. -1.
       -1   -1    0    0    0  501  0.00000000000E+00  0.00000000000E+00 -0.10381106885E+04  0.10381106886E+04  0.50400001928E-02 0.  1.
    10030    2    1    2    0    0  0.00000000000E+00  0.00000000000E+00  0.24923233592E+03  0.23254537130E+04  0.23120593016E+04 0.  0.
        4    1    3    3  502    0 -0.13199586475E+03  0.53306870847E+03 -0.89853704512E+03  0.10530696039E+04  0.12699999809E+01 0.  1.
       -4    1    3    3    0  502  0.13199586475E+03 -0.53306870847E+03  0.11477693810E+04  0.12723841091E+04  0.12699999809E+01 0. -1.
</event>
<event>
 5   0  0.1635955E-05  0.2300802E+04  0.7818609E-02  0.8477605E-01
        2   -1    0    0  501    0  0.00000000000E+00  0.00000000000E+00  0.13441574701E+04  0.13441574701E+04  0.25500000920E-02 0. -1.
       -2   -1    0    0    0  501  0.00000000000E+00  0.00000000000E+00 -0.98457429757E+03  0.98457429757E+03  0.25500000920E-02 0.  1.
    10030    2    1    2    0    0  0.00000000000E+00  0.00000000000E+00  0.35958317249E+03  0.23287317676E+04  0.23008023791E+04 0.  0.
        2    1    3    3  502    0 -0.49976060584E+03  0.86000021034E+03  0.76478854072E+03  0.12546961931E+04  0.25500000920E-02 0. -1.
       -2    1    3    3    0  502  0.49976060584E+03 -0.86000021034E+03 -0.40520536823E+03  0.10740355745E+04  0.25500000920E-02 0.  1.
</event>
<event>
 5   0  0.7278815E-06  0.2282203E+04  0.7818609E-02  0.8484971E-01
        1   -1    0    0  501    0  0.00000000000E+00  0.00000000000E+00  0.19435137696E+04  0.19435137696E+04  0.50400001928E-02 0. -1.
       -1   -1    0    0    0  501  0.00000000000E+00  0.00000000000E+00 -0.66997856355E+03  0.66997856356E+03  0.50400001928E-02 0.  1.
    10030    2    1    2    0    0  0.00000000000E+00  0.00000000000E+00  0.12735352060E+04  0.26134923331E+04  0.22822029389E+04 0.  0.
        5    1    3    3  502    0 -0.61854868669E+03 -0.60495234784E+03 -0.21522119550E+03  0.89157841716E+03  0.46999998093E+01 0.  1.
       -5    1    3    3    0  502  0.61854868669E+03  0.60495234784E+03  0.14887564015E+04  0.17219139160E+04  0.46999998093E+01 0. -1.
</event>
<event>
 5   0  0.7278815E-06  0.2298636E+04  0.7818609E-02  0.8478459E-01
       -1   -1    0    0    0  501  0.00000000000E+00  0.00000000000E+00  0.70038279561E+03  0.70038279563E+03  0.50400001928E-02 0. -1.
        1   -1    0    0  501    0  0.00000000000E+00  0.00000000000E+00 -0.18860142551E+04  0.18860142551E+04  0.50400001928E-02 0.  1.
    10030    2    1    2    0    0  0.00000000000E+00  0.00000000000E+00 -0.11856314595E+04  0.25863970507E+04  0.22986360622E+04 0.  0.
        5    1    3    3  502    0 -0.41578418589E+03  0.93414866598E+03 -0.23337416664E+01  0.10225154061E+04  0.46999998093E+01 0. -1.
       -5    1    3    3    0  502  0.41578418589E+03 -0.93414866598E+03 -0.11832977178E+04  0.15638816446E+04  0.46999998093E+01 0.  1.
</event>
<event>
 5   0  0.7202572E-06  0.2315577E+04  0.7818609E-02  0.8471805E-01
       -1   -1    0    0    0  501  0.00000000000E+00  0.00000000000E+00  0.53481720317E+03  0.53481720319E+03  0.50400001928E-02 0.  1.
        1   -1    0    0  501    0  0.00000000000E+00  0.00000000000E+00 -0.25064153795E+04  0.25064153795E+04  0.50400001928E-02 0. -1.
    10030    2    1    2    0    0  0.00000000000E+00  0.00000000000E+00 -0.19715981764E+04  0.30412325827E+04  0.23155768727E+04 0.  0.
        2    1    3    3  502    0  0.10969292605E+04 -0.35063794869E+03 -0.11427097567E+04  0.16223397800E+04  0.25500000920E-02 0.  1.
       -2    1    3    3    0  502 -0.10969292605E+04  0.35063794869E+03 -0.82888841961E+03  0.14188928028E+04  0.25500000920E-02 0. -1.
</event>
<event>
 5   0  0.7278815E-06  0.2327246E+04  0.7818609E-02  0.8467255E-01
       -1   -1    0    0    0  501  0.00000000000E+00  0.00000000000E+00  0.62019406259E+03  0.62019406261E+03  0.50400001928E-02 0. -1.
        1   -1    0    0  501    0  0.00000000000E+00  0.00000000000E+00 -0.21832170803E+04  0.21832170803E+04  0.50400001928E-02 0.  1.
    10030    2    1    2    0    0  0.00000000000E+00  0.00000000000E+00 -0.15630230177E+04  0.28034111429E+04  0.23272458147E+04 0.  0.
        5    1    3    3  502    0  0.89788157505E+03 -0.26613635268E+03  0.50430275328E+02  0.93786202807E+03  0.46999998093E+01 0. -1.
       -5    1    3    3    0  502 -0.89788157505E+03  0.26613635268E+03 -0.16134532930E+04  0.18655491148E+04  0.46999998093E+01 0.  1.
</event>
<event>
 5   0  0.1635955E-05  0.2299659E+04  0.7818609E-02  0.8478056E-01
       -2   -1    0    0    0  501  0.00000000000E+00  0.00000000000E+00  0.11060153292E+04  0.11060153292E+04  0.25500000920E-02 0. -1.
        2   -1    0    0  501    0  0.00000000000E+00  0.00000000000E+00 -0.11953792241E+04  0.11953792241E+04  0.25500000920E-02 0.  1.
    10030    2    1    2    0    0  0.00000000000E+00  0.00000000000E+00 -0.89363894859E+02  0.23013945533E+04  0.22996588843E+04 0.  0.
        2    1    3    3  502    0  0.16318027828E+03  0.11244456753E+04  0.13180836982E+03  0.11438441006E+04  0.25500000920E-02 0. -1.
       -2    1    3    3    0  502 -0.16318027828E+03 -0.11244456753E+04 -0.22117226468E+03  0.11575504528E+04  0.25500000920E-02 0.  1.
</event>
<event>
 5   0  0.1635955E-05  0.2308902E+04  0.7818609E-02  0.8474419E-01
       -2   -1    0    0    0  501  0.00000000000E+00  0.00000000000E+00  0.99646098436E+03  0.99646098436E+03  0.25500000920E-02 0.  1.
        2   -1    0    0  501    0  0.00000000000E+00  0.00000000000E+00 -0.13374906267E+04  0.13374906267E+04  0.25500000920E-02 0. -1.
    10030    2    1    2    0    0  0.00000000000E+00  0.00000000000E+00 -0.34102964231E+03  0.23339516110E+04  0.23089020996E+04 0.  0.
        2    1    3    3  502    0  0.46352705273E+03 -0.94242679620E+03 -0.65501810797E+03  0.12377698965E+04  0.25500000920E-02 0.  1.
       -2    1    3    3    0  502 -0.46352705273E+03  0.94242679620E+03  0.31398846565E+03  0.10961817146E+04  0.25500000920E-02 0. -1.
</event>
<event>
 5   0  0.7416556E-06  0.2314541E+04  0.7818609E-02  0.8472210E-01
       -1   -1    0    0    0  501  0.00000000000E+00  0.00000000000E+00  0.96323882968E+03  0.96323882969E+03  0.50400001928E-02 0. -1.
        1   -1    0    0  501    0  0.00000000000E+00  0.00000000000E+00 -0.13903872149E+04  0.13903872149E+04  0.50400001928E-02 0.  1.
    10030    2    1    2    0    0  0.00000000000E+00  0.00000000000E+00 -0.42714838525E+03  0.23536260446E+04  0.23145409512E+04 0.  0.
        4    1    3    3  502    0  0.79158176384E+03  0.73975257762E+03  0.20003476279E+03  0.11017491022E+04  0.12699999809E+01 0. -1.
       -4    1    3    3    0  502 -0.79158176384E+03 -0.73975257762E+03 -0.62718314804E+03  0.12518769424E+04  0.12699999809E+01 0.  1.
</event>
<event>
 5   0  0.1626636E-05  0.2299932E+04  0.7818609E-02  0.8477948E-01
        2   -1    0    0  501    0  0.00000000000E+00  0.00000000000E+00  0.20236112710E+04  0.20236112710E+04  0.25500000920E-02 0.  1.
       -2   -1    0    0    0  501  0.00000000000E+00  0.00000000000E+00 -0.65349604376E+03  0.65349604376E+03  0.25500000920E-02 0. -1.
    10030    2    1    2    0    0  0.00000000000E+00  0.00000000000E+00  0.13701152273E+04  0.26771073148E+04  0.22999321379E+04 0.  0.
        4    1    3    3  502    0 -0.19849720386E+03 -0.12965023614E+03  0.19948535309E+04  0.20088933636E+04  0.12699999809E+01 0.  1.
       -4    1    3    3    0  502  0.19849720386E+03  0.12965023614E+03 -0.62473830362E+03  0.66821395120E+03  0.12699999809E+01 0. -1.
</event>
<event>
 5   0  0.5704875E-06  0.2253324E+04  0.7818609E-02  0.8496555E-01
        3   -1    0    0  501    0  0.00000000000E+00  0.00000000000E+00  0.77497683670E+03  0.77497684329E+03  0.10100000352E+00 0.  1.
       -3   -1    0    0    0  501  0.00000000000E+00  0.00000000000E+00 -0.16379428250E+04  0.16379428281E+04  0.10100000352E+00 0. -1.
    10030    2    1    2    0    0  0.00000000000E+00  0.00000000000E+00 -0.86296598828E+03  0.24129196714E+04  0.22533244426E+04 0.  0.
        1    1    3    3  502    0 -0.68273431039E+03 -0.35362236496E+03 -0.13133350633E+04  0.15218488440E+04  0.50400001928E-02 0. -1.
       -1    1    3    3    0  502  0.68273431039E+03  0.35362236496E+03  0.45036907502E+03  0.89107082734E+03  0.50400001928E-02 0.  1.
</event>
<event>
 5   0  0.7278815E-06  0.2296546E+04  0.7818609E-02  0.8479284E-01
       -1   -1    0    0    0  501  0.00000000000E+00  0.00000000000E+00  0.73679819901E+03  0.73679819903E+03  0.50400001928E-02 0.  1.
        1   -1    0    0  501    0  0.00000000000E+00  0.00000000000E+00 -0.17895406687E+04  0.17895406687E+04  0.50400001928E-02 0. -1.
    10030    2    1    2    0    0  0.00000000000E+00  0.00000000000E+00 -0.10527424697E+04  0.25263388678E+04  0.22965455291E+04 0.  0.
        5    1    3    3  502    0  0.64276505794E+03  0.21346225993E+03 -0.15464038328E+04  0.16882239070E+04  0.46999998093E+01 0. -1.
       -5    1    3    3    0  502 -0.64276505794E+03 -0.21346225993E+03  0.49366136305E+03  0.83811496078E+03  0.46999998093E+01 0.  1.
</event>
<event>
 5   0  0.7183014E-06  0.2302435E+04  0.7818609E-02  0.8476962E-01
        1   -1    0    0  501    0  0.00000000000E+00  0.00000000000E+00  0.13991833321E+04  0.13991833321E+04  0.50400001928E-02 0.  1.
       -1   -1    0    0    0  501  0.00000000000E+00  0.00000000000E+00 -0.94719644542E+03  0.94719644543E+03  0.50400001928E-02 0. -1.
    10030    2    1    2    0    0  0.00000000000E+00  0.00000000000E+00  0.45198688663E+03  0.23463797775E+04  0.23024347796E+04 0.  0.
        3    1    3    3  502    0  0.11424718965E+03  0.91341660468E+03 -0.47851822186E+03  0.10374786807E+04  0.10100000352E+00 0. -1.
       -3    1    3    3    0  502 -0.11424718965E+03 -0.91341660468E+03  0.93050510849E+03  0.13089010968E+04  0.10100000352E+00 0.  1.
</event>
<event>
 5   0  0.1635955E-05  0.2308922E+04  0.7818609E-02  0.8474412E-01
        2   -1    0    0  501    0  0.00000000000E+00  0.00000000000E+00  0.14153933920E+04  0.14153933920E+04  0.25500000920E-02 0.  1.
       -2   -1    0    0    0  501  0.00000000000E+00  0.00000000000E+00 -0.94163195561E+03  0.94163195562E+03  0.25500000920E-02 0. -1.
    10030    2    1    2    0    0  0.00000000000E+00  0.00000000000E+00  0.47376143638E+03  0.23570253476E+04  0.23089215211E+04 0.  0.
        2    1    3    3  502    0 -0.57023070451E+03  0.99933139206E+03  0.33347426394E+03  0.11979279495E+04  0.25500000920E-02 0.  1.
       -2    1    3    3    0  502  0.57023070451E+03 -0.99933139206E+03  0.14028717245E+03  0.11590973981E+04  0.25500000920E-02 0. -1.
</event>
<event>
 5   0  0.7391007E-06  0.2321595E+04  0.7818609E-02  0.8469455E-01
        1   -1    0    0  501    0  0.00000000000E+00  0.00000000000E+00  0.16508597590E+04  0.16508597590E+04  0.50400001928E-02 0.  1.
       -1   -1    0    0    0  501  0.00000000000E+00  0.00000000000E+00 -0.81621178387E+03  0.81621178389E+03  0.50400001928E-02 0. -1.
    10030    2    1    2    0    0  0.00000000000E+00  0.00000000000E+00  0.83464797512E+03  0.24670715429E+04  0.23215953040E+04 0.  0.
        1    1    3    3  502    0  0.10585802585E+03  0.74434981335E+02 -0.80852245971E+03  0.81881319967E+03  0.50400001928E-02 0. -1.
       -1    1    3    3    0  502 -0.10585802585E+03 -0.74434981335E+02  0.16431704348E+04  0.16482583432E+04  0.50400001928E-02 0.  1.
</event>
<event>
 5   0  0.1635955E-05  0.2296870E+04  0.7818609E-02  0.8479156E-01
        2   -1    0    0  501    0  0.00000000000E+00  0.00000000000E+00  0.73545236004E+03  0.73545236004E+03  0.25500000920E-02 0.  1.
       -2   -1    0    0    0  501  0.00000000000E+00  0.00000000000E+00 -0.17933213440E+04  0.17933213440E+04  0.25500000920E-02 0. -1.
    10030    2    1    2    0    0  0.00000000000E+00  0.00000000000E+00 -0.10578689840E+04  0.25287737041E+04  0.22968695346E+04 0.  0.
        2    1    3    3  502    0  0.67606162515E+03 -0.63629850266E+03 -0.12731799718E+04  0.15757291474E+04  0.25500000920E-02 0. -1.
       -2    1    3    3    0  502 -0.67606162515E+03  0.63629850266E+03  0.21531098779E+03  0.95304455665E+03  0.25500000920E-02 0.  1.
</event>
<event>
 5   0  0.1635955E-05  0.2298166E+04  0.7818609E-02  0.8478645E-01
        2   -1    0    0  501    0  0.00000000000E+00  0.00000000000E+00  0.29471425913E+04  0.29471425913E+04  0.25500000920E-02 0.  1.
       -2   -1    0    0    0  501  0.00000000000E+00  0.00000000000E+00 -0.44802428351E+03  0.44802428352E+03  0.25500000920E-02 0. -1.
    10030    2    1    2    0    0  0.00000000000E+00  0.00000000000E+00  0.24991183078E+04  0.33951668748E+04  0.22981657450E+04 0.  0.
        2    1    3    3  502    0  0.72364298840E+03  0.88774064545E+03  0.13869501265E+04  0.17987143413E+04  0.25500000920E-02 0.  1.
       -2    1    3    3    0  502 -0.72364298840E+03 -0.88774064545E+03  0.11121681813E+04  0.15964525335E+04  0.25500000920E-02 0. -1.
</event>
<event>
 5   0  0.7183014E-06  0.2320213E+04  0.7818609E-02  0.8469994E-01
       -1   -1    0    0    0  501  0.00000000000E+00  0.00000000000E+00  0.12300520684E+04  0.12300520684E+04  0.50400001928E-02 0. -1.
        1   -1    0    0  501    0  0.00000000000E+00  0.00000000000E+00 -0.10941386170E+04  0.10941386170E+04  0.50400001928E-02 0.  1.
    10030    2    1    2    0    0  0.00000000000E+00  0.00000000000E+00  0.13591345138E+03  0.23241906854E+04  0.23202133255E+04 0.  0.
        3    1    3    3  502    0 -0.59288562129E+03 -0.70391449335E+03  0.77545244309E+03  0.12034681033E+04  0.10100000352E+00 0. -1.
       -3    1    3    3    0  502  0.59288562129E+03  0.70391449335E+03 -0.63953899171E+03  0.11207225821E+04  0.10100000352E+00 0.  1.
</event>
<event>
 5   0  0.7391007E-06  0.2298200E+04  0.7818609E-02  0.8478631E-01
        1   -1    0    0  501    0  0.00000000000E+00  0.00000000000E+00  0.92732585513E+03  0.92732585514E+03  0.50400001928E-02 0. -1.
       -1   -1    0    0    0  501  0.00000000000E+00  0.00000000000E+00 -0.14239122963E+04  0.14239122963E+04  0.50400001928E-02 0.  1.
    10030    2    1    2    0    0  0.00000000000E+00  0.00000000000E+00 -0.49658644114E+03  0.23512381514E+04  0.22981998936E+04 0.  0.
        1    1    3    3  502    0  0.85702781673E+03 -0.45438497475E+03 -0.87851959323E+03  0.13087242107E+04  0.50400001928E-02 0.  1.
       -1    1    3    3    0  502 -0.85702781673E+03  0.45438497475E+03  0.38193315210E+03  0.10425139407E+04  0.50400001928E-02 0. -1.
</event>
<event>
 5   0  0.7183014E-06  0.2304797E+04  0.7818609E-02  0.8476032E-01
        1   -1    0    0  501    0  0.00000000000E+00  0.00000000000E+00  0.12752081445E+04  0.12752081445E+04  0.50400001928E-02 0. -1.
       -1   -1    0    0    0  501  0.00000000000E+00  0.00000000000E+00 -0.10414163560E+04  0.10414163560E+04  0.50400001928E-02 0.  1.
    10030    2    1    2    0    0  0.00000000000E+00  0.00000000000E+00  0.23379178852E+03  0.23166245005E+04  0.23047972744E+04 0.  0.
        3    1    3    3  502    0  0.52796440080E+03  0.40924427178E+03  0.10607542171E+04  0.12535656352E+04  0.10100000352E+00 0. -1.
       -3    1    3    3    0  502 -0.52796440080E+03 -0.40924427178E+03 -0.82696242860E+03  0.10630588653E+04  0.10100000352E+00 0.  1.
</event>
<event>
 5   0  0.5704875E-06  0.2305061E+04  0.7818609E-02  0.8475928E-01
       -3   -1    0    0    0  501  0.00000000000E+00  0.00000000000E+00  0.10353942183E+04  0.10353942232E+04  0.10100000352E+00 0.  1.
        3   -1    0    0  501    0  0.00000000000E+00  0.00000000000E+00 -0.12829183018E+04  0.12829183058E+04  0.10100000352E+00 0. -1.
    10030    2    1    2    0    0  0.00000000000E+00  0.00000000000E+00 -0.24752408349E+03  0.23183125290E+04  0.23050606956E+04 0.  0.
        4    1    3    3  502    0 -0.30663441236E+03 -0.87581427741E+03  0.56372408152E+03  0.10857540073E+04  0.12699999809E+01 0.  1.
       -4    1    3    3    0  502  0.30663441236E+03  0.87581427741E+03 -0.81124816501E+03  0.12325585217E+04  0.12699999809E+01 0. -1.
</event>
<event>
 5   0  0.7416556E-06  0.2281878E+04  0.7818609E-02  0.8485101E-01
        1   -1    0    0  501    0  0.00000000000E+00  0.00000000000E+00  0.11677447804E+04  0.11677447804E+04  0.50400001928E-02 0.  1.
       -1   -1    0    0    0  501  0.00000000000E+00  0.00000000000E+00 -0.11147487135E+04  0.11147487135E+04  0.50400001928E-02 0. -1.
    10030    2    1    2    0    0  0.00000000000E+00  0.00000000000E+00  0.52996066887E+02  0.22824934939E+04  0.22818781665E+04 0.  0.
        4    1    3    3  502    0 -0.19196017473E+03 -0.16106036059E+03  0.11398800467E+04  0.11670978032E+04  0.12699999809E+01 0.  1.
       -4    1    3    3    0  502  0.19196017473E+03  0.16106036059E+03 -0.10868839798E+04  0.11153956907E+04  0.12699999809E+01 0. -1.
</event>
<event>
 5   0  0.7416556E-06  0.2301794E+04  0.7818609E-02  0.8477214E-01
       -1   -1    0    0    0  501  0.00000000000E+00  0.00000000000E+00  0.15453813140E+04  0.15453813140E+04  0.50400001928E-02 0. -1.
        1   -1    0    0  501    0  0.00000000000E+00  0.00000000000E+00 -0.85711146993E+03  0.85711146995E+03  0.50400001928E-02 0.  1.
    10030    2    1    2    0    0  0.00000000000E+00  0.00000000000E+00  0.68826984411E+03  0.24024927840E+04  0.23017941261E+04 0.  0.
        4    1    3    3  502    0 -0.16900308676E+03 -0.41070589308E+03  0.14523381866E+04  0.15187261752E+04  0.12699999809E+01 0. -1.
       -4    1    3    3    0  502  0.16900308676E+03  0.41070589308E+03 -0.76406834251E+03  0.88376660883E+03  0.12699999809E+01 0.  1.
</event>
<event>
 5   0  0.1588969E-05  0.2292246E+04  0.7818609E-02  0.8480984E-01
        2   -1    0    0  501    0  0.00000000000E+00  0.00000000000E+00  0.10312722026E+04  0.10312722026E+04  0.25500000920E-02 0.  1.
       -2   -1    0    0    0  501  0.00000000000E+00  0.00000000000E+00 -0.12737650525E+04  0.12737650525E+04  0.25500000920E-02 0. -1.
    10030    2    1    2    0    0  0.00000000000E+00  0.00000000000E+00 -0.24249284996E+03  0.23050372551E+04  0.22922464887E+04 0.  0.
        1    1    3    3  502    0  0.10923627110E+04 -0.45030987982E+01 -0.47005649257E+03  0.11892138901E+04  0.50400001928E-02 0. -1.
       -1    1    3    3    0  502 -0.10923627110E+04  0.45030987982E+01  0.22756364262E+03  0.11158233649E+04  0.50400001928E-02 0.  1.
</event>
<event>
 5   0  0.1602809E-05  0.2292574E+04  0.7818609E-02  0.8480855E-01
       -2   -1    0    0    0  501  0.00000000000E+00  0.00000000000E+00  0.14120265252E+04  0.14120265252E+04  0.25500000920E-02 0. -1.
        2   -1    0    0  501    0  0.00000000000E+00  0.00000000000E+00 -0.93055895639E+03  0.93055895640E+03  0.25500000920E-02 0.  1.
    10030    2    1    2    0    0  0.00000000000E+00  0.00000000000E+00  0.48146756885E+03  0.23425854816E+04  0.22925740378E+04 0.  0.
        3    1    3    3  502    0 -0.83031993115E+03 -0.47438480731E+03 -0.40511588269E+03  0.10385523685E+04  0.10100000352E+00 0.  1.
       -3    1    3    3    0  502  0.83031993115E+03  0.47438480731E+03  0.88658345154E+03  0.13040331132E+04  0.10100000352E+00 0. -1.
</event>
<event>
 5   0  0.5704875E-06  0.2305274E+04  0.7818609E-02  0.8475844E-01
       -3   -1    0    0    0  501  0.00000000000E+00  0.00000000000E+00  0.99466697399E+03  0.99466697912E+03  0.10100000352E+00 0.  1.
        3   -1    0    0  501    0  0.00000000000E+00  0.00000000000E+00 -0.13356957116E+04  0.13356957155E+04  0.10100000352E+00 0. -1.
    10030    2    1    2    0    0  0.00000000000E+00  0.00000000000E+00 -0.34102873765E+03  0.23303626946E+04  0.23052743196E+04 0.  0.
        2    1    3    3  502    0 -0.34569669732E+02 -0.81435543690E+03 -0.99437013729E+03  0.12857456240E+04  0.25500000920E-02 0. -1.
       -2    1    3    3    0  502  0.34569669732E+02  0.81435543690E+03  0.65334139964E+03  0.10446170706E+04  0.25500000920E-02 0.  1.
</event>
<event>
 5   0  0.1635955E-05  0.2300800E+04  0.7818609E-02  0.8477606E-01
       -2   -1    0    0    0  501  0.00000000000E+00  0.00000000000E+00  0.85994869117E+03  0.85994869117E+03  0.25500000920E-02 0.  1.
        2   -1    0    0  501    0  0.00000000000E+00  0.00000000000E+00 -0.15389518659E+04  0.15389518659E+04  0.25500000920E-02 0. -1.
    10030    2    1    2    0    0  0.00000000000E+00  0.00000000000E+00 -0.67900317470E+03  0.23989005570E+04  0.23007995504E+04 0.  0.
        2    1    3    3  502    0  0.43426933348E+03  0.60215277581E+03 -0.12557434292E+04  0.14587903823E+04  0.25500000920E-02 0. -1.
       -2    1    3    3    0  502 -0.43426933348E+03 -0.60215277581E+03  0.57674025455E+03  0.94011017473E+03  0.25500000920E-02 0.  1.
</event>
<event>
 5   0  0.1626636E-05  0.2301309E+04  0.7818609E-02  0.8477405E-01
        2   -1    0    0  501    0  0.00000000000E+00  0.00000000000E+00  0.14456359364E+04  0.14456359364E+04  0.25500000920E-02 0. -1.
       -2   -1    0    0    0  501  0.00000000000E+00  0.00000000000E+00 -0.91586409956E+03  0.91586409957E+03  0.25500000920E-02 0.  1.
    10030    2    1    2    0    0  0.00000000000E+00  0.00000000000E+00  0.52977183682E+03  0.23615000359E+04  0.23013092406E+04 0.  0.
        4    1    3    3  502    0  0.35054454610E+03  0.15888879897E+03  0.13776266379E+04  0.14303789343E+04  0.12699999809E+01 0. -1.
       -4    1    3    3    0  502 -0.35054454610E+03 -0.15888879897E+03 -0.84785480112E+03  0.93112110164E+03  0.12699999809E+01 0.  1.
</event>
<event>
 5   0  0.7416556E-06  0.2290479E+04  0.7818609E-02  0.8481685E-01
        1   -1    0    0  501    0  0.00000000000E+00  0.00000000000E+00  0.83665580289E+03  0.83665580290E+03  0.50400001928E-02 0. -1.
       -1   -1    0    0    0  501  0.00000000000E+00  0.00000000000E+00 -0.15676380856E+04  0.15676380856E+04  0.50400001928E-02 0.  1.
    10030    2    1    2    0    0  0.00000000000E+00  0.00000000000E+00 -0.73098228274E+03  0.24042938885E+04  0.22904789902E+04 0.  0.
        4    1    3    3  502    0 -0.40129455566E+03  0.62692279554E+03 -0.12790851437E+04  0.14799087572E+04  0.12699999809E+01 0.  1.
       -4    1    3    3    0  502  0.40129455566E+03 -0.62692279554E+03  0.54810286093E+03  0.92438513134E+03  0.12699999809E+01 0. -1.
</event>
<event>
 5   0  0.1697855E-05  0.2299748E+04  0.7818609E-02  0.8478021E-01
       -2   -1    0    0    0  501  0.00000000000E+00  0.00000000000E+00  0.11080662904E+04  0.11080662904E+04  0.25500000920E-02 0.  1.
        2   -1    0    0  501    0  0.00000000000E+00  0.00000000000E+00 -0.11932590521E+04  0.11932590521E+04  0.25500000920E-02 0. -1.
    10030    2    1    2    0    0  0.00000000000E+00  0.00000000000E+00 -0.85192761776E+02  0.23013253425E+04  0.22997479265E+04 0.  0.
        5    1    3    3  502    0  0.26187178962E+03  0.94315780716E+03 -0.64638786722E+03  0.11730144280E+04  0.46999998093E+01 0. -1.
       -5    1    3    3    0  502 -0.26187178962E+03 -0.94315780716E+03  0.56119510544E+03  0.11283109145E+04  0.46999998093E+01 0.  1.
</event>
<event>
 5   0  0.1588969E-05  0.2365656E+04  0.7818609E-02  0.8452475E-01
       -2   -1    0    0    0  501  0.00000000000E+00  0.00000000000E+00  0.19563889450E+04  0.19563889450E+04  0.25500000920E-02 0. -1.
        2   -1    0    0  501    0  0.00000000000E+00  0.00000000000E+00 -0.71513471740E+03  0.71513471741E+03  0.25500000920E-02 0.  1.
    10030    2    1    2    0    0  0.00000000000E+00  0.00000000000E+00  0.12412542276E+04  0.26715236624E+04  0.23656556430E+04 0.  0.
        1    1    3    3  502    0 -0.27402761191E+03  0.69256936279E+03  0.16583125412E+04  0.18178954697E+04  0.50400001928E-02 0. -1.
       -1    1    3    3    0  502  0.27402761191E+03 -0.69256936279E+03 -0.41705831364E+03  0.85362819269E+03  0.50400001928E-02 0.  1.
</event>
<event>
 5   0  0.7416556E-06  0.2295765E+04  0.7818609E-02  0.8479593E-01
        1   -1    0    0  501    0  0.00000000000E+00  0.00000000000E+00  0.12808021535E+04  0.12808021535E+04  0.50400001928E-02 0.  1.
       -1   -1    0    0    0  501  0.00000000000E+00  0.00000000000E+00 -0.10287569846E+04  0.10287569846E+04  0.50400001928E-02 0. -1.
    10030    2    1    2    0    0  0.00000000000E+00  0.00000000000E+00  0.25204516894E+03  0.23095591381E+04  0.22957649369E+04 0.  0.
        4    1    3    3  502    0  0.64471623287E+02  0.11425765184E+04  0.36071367499E+02  0.11449630767E+04  0.12699999809E+01 0. -1.
       -4    1    3    3    0  502 -0.64471623287E+02 -0.11425765184E+04  0.21597380145E+03  0.11645960615E+04  0.12699999809E+01 0.  1.
</event>
<event>
 5   0  0.7183014E-06  0.2314992E+04  0.7818609E-02  0.8472033E-01
       -1   -1    0    0    0  501  0.00000000000E+00  0.00000000000E+00  0.11222314064E+04  0.11222314065E+04  0.50400001928E-02 0.  1.
        1   -1    0    0  501    0  0.00000000000E+00  0.00000000000E+00 -0.11938684569E+04  0.11938684569E+04  0.50400001928E-02 0. -1.
    10030    2    1    2    0    0  0.00000000000E+00  0.00000000000E+00 -0.71637050420E+02  0.23160998633E+04  0.23149917300E+04 0.  0.
        3    1    3    3  502    0 -0.41077252585E+03  0.62107782598E+03  0.85079128034E+03  0.11306270591E+04  0.10100000352E+00 0.  1.
       -3    1    3    3    0  502  0.41077252585E+03 -0.62107782598E+03 -0.92242833076E+03  0.11854728042E+04  0.10100000352E+00 0. -1.
</event>
<event>
 5   0  0.1626636E-05  0.2300151E+04  0.7818609E-02  0.8477862E-01
       -2   -1    0    0    0  501  0.00000000000E+00  0.00000000000E+00  0.56246842460E+03  0.56246842460E+03  0.25500000920E-02 0.  1.
        2   -1    0    0  501    0  0.00000000000E+00  0.00000000000E+00 -0.23515519670E+04  0.23515519670E+04  0.25500000920E-02 0. -1.
    10030    2    1    2    0    0  0.00000000000E+00  0.00000000000E+00 -0.17890835424E+04  0.29140203916E+04  0.23001510648E+04 0.  0.
        4    1    3    3  502    0 -0.10093445009E+04  0.50169944273E+03 -0.11839722691E+04  0.16347081083E+04  0.12699999809E+01 0. -1.
       -4    1    3    3    0  502  0.10093445009E+04 -0.50169944273E+03 -0.60511127321E+03  0.12793122833E+04  0.12699999809E+01 0.  1.
</event>
<event>
 5   0  0.1602809E-05  0.2263920E+04  0.7818609E-02  0.8492284E-01
        2   -1    0    0  501    0  0.00000000000E+00  0.00000000000E+00  0.12805584619E+04  0.12805584619E+04  0.25500000920E-02 0.  1.
       -2   -1    0    0    0  501  0.00000000000E+00  0.00000000000E+00 -0.10006056241E+04  0.10006056241E+04  0.25500000920E-02 0. -1.
    10030    2    1    2    0    0  0.00000000000E+00  0.00000000000E+00  0.27995283774E+03  0.22811640860E+04  0.22639204924E+04 0.  0.
        3    1    3    3  502    0  0.68080626560E+03 -0.40730913705E+03  0.95355192453E+03  0.12404270182E+04  0.10100000352E+00 0.  1.
       -3    1    3    3    0  502 -0.68080626560E+03  0.40730913705E+03 -0.67359908679E+03  0.10407370678E+04  0.10100000352E+00 0. -1.
</event>
<event>
 5   0  0.1635955E-05  0.2311009E+04  0.7818609E-02  0.8473593E-01
        2   -1    0    0  501    0  0.00000000000E+00  0.00000000000E+00  0.27551573952E+04  0.27551573952E+04  0.25500000920E-02 0. -1.
       -2   -1    0    0    0  501  0.00000000000E+00  0.00000000000E+00 -0.48461510401E+03  0.48461510402E+03  0.25500000920E-02 0.  1.
    10030    2    1    2    0    0  0.00000000000E+00  0.00000000000E+00  0.22705422912E+04  0.32397724992E+04  0.23110092061E+04 0.  0.
        2    1    3    3  502    0  0.75921917754E+03 -0.51535961754E+03  0.15076990334E+03  0.92991443622E+03  0.25500000920E-02 0.  1.
       -2    1    3    3    0  502 -0.75921917754E+03  0.51535961754E+03  0.21197723879E+04  0.23098580630E+04  0.25500000920E-02 0. -1.
</event>
<event>
 5   0  0.1635955E-05  0.2300412E+04  0.7818609E-02  0.8477759E-01
        2   -1    0    0  501    0  0.00000000000E+00  0.00000000000E+00  0.96485453060E+03  0.96485453061E+03  0.25500000920E-02 0. -1.
       -2   -1    0    0    0  501  0.00000000000E+00  0.00000000000E+00 -0.13711640455E+04  0.13711640455E+04  0.25500000920E-02 0.  1.
    10030    2    1    2    0    0  0.00000000000E+00  0.00000000000E+00 -0.40630951489E+03  0.23360185761E+04  0.23004119992E+04 0.  0.
        2    1    3    3  502    0 -0.34707533970E+03 -0.75136156982E+03  0.60793745504E+03  0.10269340043E+04  0.25500000920E-02 0. -1.
       -2    1    3    3    0  502  0.34707533970E+03  0.75136156982E+03 -0.10142469699E+04  0.13090845718E+04  0.25500000920E-02 0.  1.
</event>
<event>
 5   0  0.1626636E-05  0.2286901E+04  0.7818609E-02  0.8483104E-01
       -2   -1    0    0    0  501  0.00000000000E+00  0.00000000000E+00  0.90707360993E+03  0.90707360993E+03  0.25500000920E-02 0.  1.
        2   -1    0    0  501    0  0.00000000000E+00  0.00000000000E+00 -0.14414260940E+04  0.14414260940E+04  0.25500000920E-02 0. -1.
    10030    2    1    2    0    0  0.00000000000E+00  0.00000000000E+00 -0.53435248411E+03  0.23484997040E+04  0.22869014588E+04 0.  0.
        4    1    3    3  502    0 -0.64482744037E+03  0.37946554431E+03 -0.11551525030E+04  0.13762904654E+04  0.12699999809E+01 0. -1.
       -4    1    3    3    0  502  0.64482744037E+03 -0.37946554431E+03  0.62080001887E+03  0.97220923854E+03  0.12699999809E+01 0.  1.
</event>
<event>
 5   0  0.1697855E-05  0.2304999E+04  0.7818609E-02  0.8475953E-01
       -2   -1    0    0    0  501  0.00000000000E+00  0.00000000000E+00  0.12383723463E+04  0.12383723463E+04  0.25500000920E-02 0.  1.
        2   -1    0    0  501    0  0.00000000000E+00  0.00000000000E+00 -0.10725814543E+04  0.10725814543E+04  0.25500000920E-02 0. -1.
    10030    2    1    2    0    0  0.00000000000E+00  0.00000000000E+00  0.16579089197E+03  0.23109538006E+04  0.23049990995E+04 0.  0.
        5    1    3    3  502    0  0.41359113177E+03 -0.70000418482E+03 -0.73601920430E+03  0.10967268767E+04  0.46999998093E+01 0. -1.
       -5    1    3    3    0  502 -0.41359113177E+03  0.70000418482E+03  0.90181009627E+03  0.12142269239E+04  0.46999998093E+01 0.  1.
</event>
<event>
 5   0  0.1697855E-05  0.2297172E+04  0.7818609E-02  0.8479037E-01
        2   -1    0    0  501    0  0.00000000000E+00  0.00000000000E+00  0.40447478527E+03  0.40447478528E+03  0.25500000920E-02 0.  1.
       -2   -1    0    0    0  501  0.00000000000E+00  0.00000000000E+00 -0.32616360613E+04  0.32616360613E+04  0.25500000920E-02 0. -1.
    10030    2    1    2    0    0  0.00000000000E+00  0.00000000000E+00 -0.28571612760E+04  0.36661108465E+04  0.22971717790E+04 0.  0.
        5    1    3    3  502    0 -0.65148983443E+03  0.92722691011E+03 -0.17273156764E+04  0.20658727655E+04  0.46999998093E+01 0.  1.
       -5    1    3    3    0  502  0.65148983443E+03 -0.92722691011E+03 -0.11298455996E+04  0.16002380811E+04  0.46999998093E+01 0. -1.
</event>
<event>
 5   0  0.1602809E-05  0.2304344E+04  0.7818609E-02  0.8476210E-01
        2   -1    0    0  501    0  0.00000000000E+00  0.00000000000E+00  0.14954370545E+04  0.14954370545E+04  0.25500000920E-02 0.  1.
       -2   -1    0    0    0  501  0.00000000000E+00  0.00000000000E+00 -0.88770059549E+03  0.88770059549E+03  0.25500000920E-02 0. -1.
    10030    2    1    2    0    0  0.00000000000E+00  0.00000000000E+00  0.60773645897E+03  0.23831376500E+04  0.23043440401E+04 0.  0.
        3    1    3    3  502    0 -0.87828788976E+03  0.56959664410E+03  0.80164781467E+03  0.13185102136E+04  0.10100000352E+00 0.  1.
       -3    1    3    3    0  502  0.87828788976E+03 -0.56959664410E+03 -0.19391135570E+03  0.10646274364E+04  0.10100000352E+00 0. -1.
</event>
<event>
 5   0  0.7391007E-06  0.2283388E+04  0.7818609E-02  0.8484500E-01
       -1   -1    0    0    0  501  0.00000000000E+00  0.00000000000E+00  0.91642501622E+03  0.91642501623E+03  0.50400001928E-02 0. -1.
        1   -1    0    0  501    0  0.00000000000E+00  0.00000000000E+00 -0.14223369254E+04  0.14223369254E+04  0.50400001928E-02 0.  1.
    10030    2    1    2    0    0  0.00000000000E+00  0.00000000000E+00 -0.50591190916E+03  0.23387619416E+04  0.22833879565E+04 0.  0.
        1    1    3    3  502    0  0.33430459254E+03 -0.10756573293E+04 -0.62250222040E+02  0.11281282467E+04  0.50400001928E-02 0.  1.
       -1    1    3    3    0  502 -0.33430459254E+03  0.10756573293E+04 -0.44366168712E+03  0.12106336950E+04  0.50400001928E-02 0. -1.
</event>
<event>
 5   0  0.7391007E-06  0.2347538E+04  0.7818609E-02  0.8459410E-01
        1   -1    0    0  501    0  0.00000000000E+00  0.00000000000E+00  0.11672116164E+04  0.11672116164E+04  0.50400001928E-02 0. -1.
       -1   -1    0    0    0  501  0.00000000000E+00  0.00000000000E+00 -0.11803628700E+04  0.11803628700E+04  0.50400001928E-02 0.  1.
    10030    2    1    2    0    0  0.00000000000E+00  0.00000000000E+00 -0.13151253629E+02  0.23475744864E+04  0.23475376490E+04 0.  0.
        1    1    3    3  502    0 -0.27503510390E+03 -0.21286318508E+03  0.11145031627E+04  0.11675068923E+04  0.50400001928E-02 0. -1.
       -1    1    3    3    0  502  0.27503510390E+03  0.21286318508E+03 -0.11276544163E+04  0.11800675941E+04  0.50400001928E-02 0.  1.
</event>
<event>
 5   0  0.1635955E-05  0.2294859E+04  0.7818609E-02  0.8479951E-01
       -2   -1    0    0    0  501  0.00000000000E+00  0.00000000000E+00  0.67110564066E+03  0.67110564067E+03  0.25500000920E-02 0.  1.
        2   -1    0    0  501    0  0.00000000000E+00  0.00000000000E+00 -0.19618292454E+04  0.19618292454E+04  0.25500000920E-02 0. -1.
    10030    2    1    2    0    0  0.00000000000E+00  0.00000000000E+00 -0.12907236048E+04  0.26329348861E+04  0.22948591875E+04 0.  0.
        2    1    3    3  502    0 -0.91382385178E+02  0.91851762058E+03 -0.14273664535E+04  0.16998236238E+04  0.25500000920E-02 0. -1.
       -2    1    3    3    0  502  0.91382385178E+02 -0.91851762058E+03  0.13664284872E+03  0.93311126225E+03  0.25500000920E-02 0.  1.
</event>
<event>
 5   0  0.1626636E-05  0.2309044E+04  0.7818609E-02  0.8474364E-01
       -2   -1    0    0    0  501  0.00000000000E+00  0.00000000000E+00  0.16032486103E+04  0.16032486103E+04  0.25500000920E-02 0. -1.
        2   -1    0    0  501    0  0.00000000000E+00  0.00000000000E+00 -0.83138759984E+03  0.83138759984E+03  0.25500000920E-02 0.  1.
    10030    2    1    2    0    0  0.00000000000E+00  0.00000000000E+00  0.77186101047E+03  0.24346362102E+04  0.23090439702E+04 0.  0.
        4    1    3    3  502    0  0.49046517782E+03 -0.38337968380E+02 -0.71533757867E+03  0.86817933334E+03  0.12699999809E+01 0.  1.
       -4    1    3    3    0  502 -0.49046517782E+03  0.38337968380E+02  0.14871985891E+04  0.15664568768E+04  0.12699999809E+01 0. -1.
</event>
<event>
 5   0  0.7278815E-06  0.2278520E+04  0.7818609E-02  0.8486439E-01
        1   -1    0    0  501    0  0.00000000000E+00  0.00000000000E+00  0.17039063837E+04  0.17039063837E+04  0.50400001928E-02 0.  1.
       -1   -1    0    0    0  501  0.00000000000E+00  0.00000000000E+00 -0.76172775476E+03  0.76172775477E+03  0.50400001928E-02 0. -1.
    10030    2    1    2    0    0  0.00000000000E+00  0.00000000000E+00  0.94217862894E+03  0.24656341385E+04  0.22785195053E+04 0.  0.
        5    1    3    3  502    0 -0.11076243463E+04 -0.12550546644E+03  0.72557738199E+03  0.13300631346E+04  0.46999998093E+01 0. -1.
       -5    1    3    3    0  502  0.11076243463E+04  0.12550546644E+03  0.21660124695E+03  0.11355710039E+04  0.46999998093E+01 0.  1.
</event>
<event>
 5   0  0.1588969E-05  0.2308129E+04  0.7818609E-02  0.8474723E-01
       -2   -1    0    0    0  501  0.00000000000E+00  0.00000000000E+00  0.86037326299E+03  0.86037326299E+03  0.25500000920E-02 0. -1.
        2   -1    0    0  501    0  0.00000000000E+00  0.00000000000E+00 -0.15480077559E+04  0.15480077559E+04  0.25500000920E-02 0.  1.
    10030    2    1    2    0    0  0.00000000000E+00  0.00000000000E+00 -0.68763449296E+03  0.24083810189E+04  0.23081286655E+04 0.  0.
        1    1    3    3  502    0  0.38186011490E+03  0.53944397606E+02  0.79114851752E+03  0.88013812676E+03  0.50400001928E-02 0. -1.
       -1    1    3    3    0  502 -0.38186011490E+03 -0.53944397606E+02 -0.14787830105E+04  0.15282428922E+04  0.50400001928E-02 0.  1.
</event>
<event>
 5   0  0.7278815E-06  0.2301232E+04  0.7818609E-02  0.8477435E-01
       -1   -1    0    0    0  501  0.00000000000E+00  0.00000000000E+00  0.16171981271E+04  0.16171981271E+04  0.50400001928E-02 0. -1.
        1   -1    0    0  501    0  0.00000000000E+00  0.00000000000E+00 -0.81864890306E+03  0.81864890307E+03  0.50400001928E-02 0.  1.
    10030    2    1    2    0    0  0.00000000000E+00  0.00000000000E+00  0.79854922402E+03  0.24358470302E+04  0.23012322549E+04 0.  0.
        5    1    3    3  502    0 -0.98362232681E+02 -0.11446405961E+04  0.33217760386E+03  0.11959269516E+04  0.46999998093E+01 0. -1.
       -5    1    3    3    0  502  0.98362232681E+02  0.11446405961E+04  0.46637162016E+03  0.12399200785E+04  0.46999998093E+01 0.  1.
</event>
<event>
 5   0  0.7416556E-06  0.2295579E+04  0.7818609E-02  0.8479666E-01
       -1   -1    0    0    0  501  0.00000000000E+00  0.00000000000E+00  0.19900986798E+04  0.19900986798E+04  0.50400001928E-02 0. -1.
        1   -1    0    0  501    0  0.00000000000E+00  0.00000000000E+00 -0.66198786098E+03  0.66198786100E+03  0.50400001928E-02 0.  1.
    10030    2    1    2    0    0  0.00000000000E+00  0.00000000000E+00  0.13281108188E+04  0.26520865408E+04  0.22955793763E+04 0.  0.
        4    1    3    3  502    0  0.21300442497E+03 -0.38557825995E+03  0.18885541676E+04  0.19392472603E+04  0.12699999809E+01 0. -1.
       -4    1    3    3    0  502 -0.21300442497E+03  0.38557825995E+03 -0.56044334886E+03  0.71283928047E+03  0.12699999809E+01 0.  1.
</event>
<event>
 5   0  0.7391007E-06  0.2299071E+04  0.7818609E-02  0.8478287E-01
       -1   -1    0    0    0  501  0.00000000000E+00  0.00000000000E+00  0.98262486636E+03  0.98262486638E+03  0.50400001928E-02 0.  1.
        1   -1    0    0  501    0  0.00000000000E+00  0.00000000000E+00 -0.13447979332E+04  0.13447979332E+04  0.50400001928E-02 0. -1.
    10030    2    1    2    0    0  0.00000000000E+00  0.00000000000E+00 -0.36217306680E+03  0.23274227995E+04  0.22990710206E+04 0.  0.
        1    1    3    3  502    0 -0.66935555659E+03 -0.89366287207E+03 -0.45788423475E+03  0.12067842237E+04  0.50400001928E-02 0. -1.
       -1    1    3    3    0  502  0.66935555659E+03  0.89366287207E+03  0.95711167949E+02  0.11206385759E+04  0.50400001928E-02 0.  1.
</event>
<event>
 5   0  0.7391007E-06  0.2298349E+04  0.7818609E-02  0.8478572E-01
        1   -1    0    0  501    0  0.00000000000E+00  0.00000000000E+00  0.98413844260E+03  0.98413844261E+03  0.50400001928E-02 0. -1.
       -1   -1    0    0    0  501  0.00000000000E+00  0.00000000000E+00 -0.13418860372E+04  0.13418860372E+04  0.50400001928E-02 0.  1.
    10030    2    1    2    0    0  0.00000000000E+00  0.00000000000E+00 -0.35774759461E+03  0.23260244798E+04  0.22983486549E+04 0.  0.
        1    1    3    3  502    0 -0.47122647817E+03 -0.76717797917E+03  0.54385798280E+03  0.10518545294E+04  0.50400001928E-02 0. -1.
       -1    1    3    3    0  502  0.47122647817E+03  0.76717797917E+03 -0.90160557741E+03  0.12741699505E+04  0.50400001928E-02 0.  1.
</event>
<event>
 5   0  0.7391007E-06  0.2304401E+04  0.7818609E-02  0.8476188E-01
       -1   -1    0    0    0  501  0.00000000000E+00  0.00000000000E+00  0.15637538991E+04  0.15637538991E+04  0.50400001928E-02 0.  1.
        1   -1    0    0  501    0  0.00000000000E+00  0.00000000000E+00 -0.84896129520E+03  0.84896129521E+03  0.50400001928E-02 0. -1.
    10030    2    1    2    0    0  0.00000000000E+00  0.00000000000E+00  0.71479260391E+03  0.24127151943E+04  0.23044014716E+04 0.  0.
        1    1    3    3  502    0 -0.10313200453E+03  0.27073732872E+03 -0.81020291184E+03  0.86044387958E+03  0.50400001928E-02 0. -1.
       -1    1    3    3    0  502  0.10313200453E+03 -0.27073732872E+03  0.15249955157E+04  0.15522713148E+04  0.50400001928E-02 0.  1.
</event>
<event>
 5   0  0.7202572E-06  0.2198732E+04  0.7818609E-02  0.8518956E-01
       -1   -1    0    0    0  501  0.00000000000E+00  0.00000000000E+00  0.93543104364E+03  0.93543104365E+03  0.50400001928E-02 0. -1.
        1   -1    0    0  501    0  0.00000000000E+00  0.00000000000E+00 -0.12920302793E+04  0.12920302793E+04  0.50400001928E-02 0.  1.
    10030    2    1    2    0    0  0.00000000000E+00  0.00000000000E+00 -0.35659923563E+03  0.22274613229E+04  0.21987316640E+04 0.  0.
        2    1    3    3  502    0 -0.10475131695E+03  0.72823126210E+03 -0.10058649434E+04  0.12462174344E+04  0.25500000920E-02 0.  1.
       -2    1    3    3    0  502  0.10475131695E+03 -0.72823126210E+03  0.64926570774E+03  0.98124388852E+03  0.25500000920E-02 0. -1.
</event>
<event>
 5   0  0.7278815E-06  0.2313621E+04  0.7818609E-02  0.8472570E-01
       -1   -1    0    0    0  501  0.00000000000E+00  0.00000000000E+00  0.70162666741E+03  0.70162666743E+03  0.50400001928E-02 0. -1.
        1   -1    0    0  501    0  0.00000000000E+00  0.00000000000E+00 -0.19072974814E+04  0.19072974814E+04  0.50400001928E-02 0.  1.
    10030    2    1    2    0    0  0.00000000000E+00  0.00000000000E+00 -0.12056708140E+04  0.26089241489E+04  0.23136212099E+04 0.  0.
        5    1    3    3  502    0 -0.52033587307E+03 -0.20579061122E+03 -0.17445303726E+04  0.18320773748E+04  0.46999998093E+01 0.  1.
       -5    1    3    3    0  502  0.52033587307E+03  0.20579061122E+03  0.53885955857E+03  0.77684677404E+03  0.46999998093E+01 0. -1.
</event>
<event>
 5   0  0.1602809E-05  0.2295350E+04  0.7818609E-02  0.8479757E-01
       -2   -1    0    0    0  501  0.00000000000E+00  0.00000000000E+00  0.18029338908E+04  0.18029338908E+04  0.25500000920E-02 0. -1.
        2   -1    0    0  501    0  0.00000000000E+00  0.00000000000E+00 -0.73056360567E+03  0.73056360567E+03  0.25500000920E-02 0.  1.
    10030    2    1    2    0    0  0.00000000000E+00  0.00000000000E+00  0.10723702852E+04  0.25334974965E+04  0.22953499812E+04 0.  0.
        3    1    3    3  502    0  0.33553826834E+03  0.92648571747E+03  0.11856156543E+04  0.15416375074E+04  0.10100000352E+00 0. -1.
       -3    1    3    3    0  502 -0.33553826834E+03 -0.92648571747E+03 -0.11324536915E+03  0.99185998913E+03  0.10100000352E+00 0.  1.
</event>
<event>
 5   0  0.7183014E-06  0.2296111E+04  0.7818609E-02  0.8479456E-01
       -1   -1    0    0    0  501  0.00000000000E+00  0.00000000000E+00  0.61526263795E+03  0.61526263797E+03  0.50400001928E-02 0. -1.
        1   -1    0    0  501    0  0.00000000000E+00  0.00000000000E+00 -0.21422253589E+04  0.21422253590E+04  0.50400001928E-02 0.  1.
    10030    2    1    2    0    0  0.00000000000E+00  0.00000000000E+00 -0.15269627210E+04  0.27574879969E+04  0.22961108209E+04 0.  0.
        3    1    3    3  502    0 -0.77317367226E+02 -0.63944357077E+03 -0.19047933338E+04  0.20107470528E+04  0.10100000352E+00 0.  1.
       -3    1    3    3    0  502  0.77317367226E+02  0.63944357077E+03  0.37783061282E+03  0.74674094415E+03  0.10100000352E+00 0. -1.
</event>
<event>
 5   0  0.7202572E-06  0.2321214E+04  0.7818609E-02  0.8469603E-01
       -1   -1    0    0    0  501  0.00000000000E+00  0.00000000000E+00  0.13539365407E+04  0.13539365407E+04  0.50400001928E-02 0. -1.
        1   -1    0    0  501    0  0.00000000000E+00  0.00000000000E+00 -0.99488300088E+03  0.99488300089E+03  0.50400001928E-02 0.  1.
    10030    2    1    2    0    0  0.00000000000E+00  0.00000000000E+00  0.35905353984E+03  0.23488195416E+04  0.23212138623E+04 0.  0.
        2    1    3    3  502    0 -0.35683219972E+03 -0.93995028811E+03  0.76622625612E+03  0.12640958977E+04  0.25500000920E-02 0. -1.
       -2    1    3    3    0  502  0.35683219972E+03  0.93995028811E+03 -0.40717271629E+03  0.10847236440E+04  0.25500000920E-02 0.  1.
</event>
<event>
 5   0  0.1697855E-05  0.2214375E+04  0.7818609E-02  0.8512468E-01
       -2   -1    0    0    0  501  0.00000000000E+00  0.00000000000E+00  0.49276760708E+03  0.49276760709E+03  0.25500000920E-02 0. -1.
        2   -1    0    0  501    0  0.00000000000E+00  0.00000000000E+00 -0.24877135437E+04  0.24877135437E+04  0.25500000920E-02 0.  1.
    10030    2    1    2    0    0  0.00000000000E+00  0.00000000000E+00 -0.19949459367E+04  0.29804811508E+04  0.22143754425E+04 0.  0.
        5    1    3    3  502    0  0.91131825373E+02 -0.76744707690E+03  0.69637471748E+02  0.77598420919E+03  0.46999998093E+01 0. -1.
       -5    1    3    3    0  502 -0.91131825373E+02  0.76744707690E+03 -0.20645834084E+04  0.22044969416E+04  0.46999998093E+01 0.  1.
</event>
<event>
 5   0  0.1602809E-05  0.2321283E+04  0.7818609E-02  0.8469576E-01
       -2   -1    0    0    0  501  0.00000000000E+00  0.00000000000E+00  0.63978968069E+03  0.63978968070E+03  0.25500000920E-02 0.  1.
        2   -1    0    0  501    0  0.00000000000E+00  0.00000000000E+00 -0.21055187582E+04  0.21055187582E+04  0.25500000920E-02 0. -1.
    10030    2    1    2    0    0  0.00000000000E+00  0.00000000000E+00 -0.14657290775E+04  0.27453084389E+04  0.23212834157E+04 0.  0.
        3    1    3    3  502    0  0.10371206550E+04  0.13440211712E+03 -0.13282132359E+04  0.16905128193E+04  0.10100000352E+00 0.  1.
       -3    1    3    3    0  502 -0.10371206550E+04 -0.13440211712E+03 -0.13751584152E+03  0.10547956195E+04  0.10100000352E+00 0. -1.
</event>
<event>
 5   0  0.7391007E-06  0.2296725E+04  0.7818609E-02  0.8479213E-01
       -1   -1    0    0    0  501  0.00000000000E+00  0.00000000000E+00  0.12855712469E+04  0.12855712469E+04  0.50400001928E-02 0. -1.
        1   -1    0    0  501    0  0.00000000000E+00  0.00000000000E+00 -0.10257981510E+04  0.10257981510E+04  0.50400001928E-02 0.  1.
    10030    2    1    2    0    0  0.00000000000E+00  0.00000000000E+00  0.25977309594E+03  0.23113693979E+04  0.22967251538E+04 0.  0.
        1    1    3    3  502    0 -0.71922519072E+03 -0.64681239624E+03 -0.49299887129E+03  0.10856790677E+04  0.50400001928E-02 0.  1.
       -1    1    3    3    0  502  0.71922519072E+03  0.64681239624E+03  0.75277196722E+03  0.12256903302E+04  0.50400001928E-02 0. -1.
</event>
<event>
 5   0  0.1626636E-05  0.2291282E+04  0.7818609E-02  0.8481367E-01
        2   -1    0    0  501    0  0.00000000000E+00  0.00000000000E+00  0.13467031086E+04  0.13467031086E+04  0.25500000920E-02 0. -1.
       -2   -1    0    0    0  501  0.00000000000E+00  0.00000000000E+00 -0.97459721903E+03  0.97459721903E+03  0.25500000920E-02 0.  1.
    10030    2    1    2    0    0  0.00000000000E+00  0.00000000000E+00  0.37210588957E+03  0.23213003276E+04  0.22912818286E+04 0.  0.
        4    1    3    3  502    0  0.62820396545E+03  0.40541875627E+02 -0.78367469183E+03  0.10052022192E+04  0.12699999809E+01 0.  1.
       -4    1    3    3    0  502 -0.62820396545E+03 -0.40541875627E+02  0.11557805814E+04  0.13160981085E+04  0.12699999809E+01 0. -1.
</event>
<event>
 5   0  0.1588969E-05  0.2298133E+04  0.7818609E-02  0.8478658E-01
       -2   -1    0    0    0  501  0.00000000000E+00  0.00000000000E+00  0.15089949413E+04  0.15089949413E+04  0.25500000920E-02 0.  1.
        2   -1    0    0  501    0  0.00000000000E+00  0.00000000000E+00 -0.87498868649E+03  0.87498868649E+03  0.25500000920E-02 0. -1.
    10030    2    1    2    0    0  0.00000000000E+00  0.00000000000E+00  0.63400625478E+03  0.23839836278E+04  0.22981327217E+04 0.  0.
        1    1    3    3  502    0 -0.10210481991E+04  0.49654360705E+03  0.13359761310E+03  0.11432162091E+04  0.50400001928E-02 0.  1.
       -1    1    3    3    0  502  0.10210481991E+04 -0.49654360705E+03  0.50040864168E+03  0.12407674187E+04  0.50400001928E-02 0. -1.
</event>
<event>
 5   0  0.1602809E-05  0.2296374E+04  0.7818609E-02  0.8479352E-01
       -2   -1    0    0    0  501  0.00000000000E+00  0.00000000000E+00  0.78490297469E+03  0.78490297469E+03  0.25500000920E-02 0.  1.
        2   -1    0    0  501    0  0.00000000000E+00  0.00000000000E+00 -0.16796135466E+04  0.16796135466E+04  0.25500000920E-02 0. -1.
    10030    2    1    2    0    0  0.00000000000E+00  0.00000000000E+00 -0.89471057194E+03  0.24645165213E+04  0.22963742457E+04 0.  0.
        3    1    3    3  502    0  0.85486155101E+03 -0.16309930457E+03  0.35644623115E+03  0.94044860595E+03  0.10100000352E+00 0.  1.
       -3    1    3    3    0  502 -0.85486155101E+03  0.16309930457E+03 -0.12511568031E+04  0.15240679154E+04  0.10100000352E+00 0. -1.
</event>
<event>
 5   0  0.7278815E-06  0.2292259E+04  0.7818609E-02  0.8480979E-01
        1   -1    0    0  501    0  0.00000000000E+00  0.00000000000E+00  0.11408813903E+04  0.11408813903E+04  0.50400001928E-02 0. -1.
       -1   -1    0    0    0  501  0.00000000000E+00  0.00000000000E+00 -0.11514021907E+04  0.11514021907E+04  0.50400001928E-02 0.  1.
    10030    2    1    2    0    0  0.00000000000E+00  0.00000000000E+00 -0.10520800446E+02  0.22922835810E+04  0.22922594374E+04 0.  0.
        5    1    3    3  502    0 -0.47695219526E+03  0.10366054779E+04  0.10224388903E+03  0.11456483824E+04  0.46999998093E+01 0. -1.
       -5    1    3    3    0  502  0.47695219526E+03 -0.10366054779E+04 -0.11276468948E+03  0.11466351985E+04  0.46999998093E+01 0.  1.
</event>
<event>
 5   0  0.7202572E-06  0.2444226E+04  0.7818609E-02  0.8423129E-01
       -1   -1    0    0    0  501  0.00000000000E+00  0.00000000000E+00  0.12191976612E+04  0.12191976612E+04  0.50400001928E-02 0.  1.
        1   -1    0    0  501    0  0.00000000000E+00  0.00000000000E+00 -0.12250351544E+04  0.12250351544E+04  0.50400001928E-02 0. -1.
    10030    2    1    2    0    0  0.00000000000E+00  0.00000000000E+00 -0.58374932691E+01  0.24442328156E+04  0.24442258448E+04 0.  0.
        2    1    3    3  502    0 -0.11555539534E+04 -0.24357858356E+03  0.31160485173E+03  0.12213652398E+04  0.25500000920E-02 0. -1.
       -2    1    3    3    0  502  0.11555539534E+04  0.24357858356E+03 -0.31744234499E+03  0.12228675758E+04  0.25500000920E-02 0.  1.
</event>
<event>
 5   0  0.7183014E-06  0.2297009E+04  0.7818609E-02  0.8479101E-01
       -1   -1    0    0    0  501  0.00000000000E+00  0.00000000000E+00  0.74894627623E+03  0.74894627624E+03  0.50400001928E-02 0.  1.
        1   -1    0    0  501    0  0.00000000000E+00  0.00000000000E+00 -0.17612250010E+04  0.17612250010E+04  0.50400001928E-02 0. -1.
    10030    2    1    2    0    0  0.00000000000E+00  0.00000000000E+00 -0.10122787248E+04  0.25101712773E+04  0.22970092783E+04 0.  0.
        3    1    3    3  502    0  0.82602997292E+03  0.20022962465E+03 -0.13502488522E+04  0.15954903296E+04  0.10100000352E+00 0. -1.
       -3    1    3    3    0  502 -0.82602997292E+03 -0.20022962465E+03  0.33797012744E+03  0.91468094765E+03  0.10100000352E+00 0.  1.
</event>
<event>
 5   0  0.1635955E-05  0.2275396E+04  0.7818609E-02  0.8487686E-01
        2   -1    0    0  501    0  0.00000000000E+00  0.00000000000E+00  0.23296210741E+04  0.23296210741E+04  0.25500000920E-02 0.  1.
       -2   -1    0    0    0  501  0.00000000000E+00  0.00000000000E+00 -0.55560838947E+03  0.55560838947E+03  0.25500000920E-02 0. -1.
    10030    2    1    2    0    0  0.00000000000E+00  0.00000000000E+00  0.17740126846E+04  0.28852294636E+04  0.22753962407E+04 0.  0.
        2    1    3    3  502    0 -0.39707799603E+03  0.11006434398E+03  0.22316801314E+04  0.22694010892E+04  0.25500000920E-02 0.  1.
       -2    1    3    3    0  502  0.39707799603E+03 -0.11006434398E+03 -0.45766744682E+03  0.61582837433E+03  0.25500000920E-02 0. -1.
</event>
<event>
 5   0  0.1626636E-05  0.2291287E+04  0.7818609E-02  0.8481365E-01
        2   -1    0    0  501    0  0.00000000000E+00  0.00000000000E+00  0.11449051623E+04  0.11449051623E+04  0.25500000920E-02 0.  1.
       -2   -1    0    0    0  501  0.00000000000E+00  0.00000000000E+00 -0.11463819664E+04  0.11463819664E+04  0.25500000920E-02 0. -1.
    10030    2    1    2    0    0  0.00000000000E+00  0.00000000000E+00 -0.14768040278E+01  0.22912871287E+04  0.22912866528E+04 0.  0.
        4    1    3    3  502    0 -0.58363611957E+03  0.42605212279E+03 -0.88975235878E+03  0.11462165608E+04  0.12699999809E+01 0. -1.
       -4    1    3    3    0  502  0.58363611957E+03 -0.42605212279E+03  0.88827555476E+03  0.11450705679E+04  0.12699999809E+01 0.  1.
</event>
<event>
 5   0  0.7202572E-06  0.2294248E+04  0.7818609E-02  0.8480193E-01
        1   -1    0    0  501    0  0.00000000000E+00  0.00000000000E+00  0.11601564082E+04  0.11601564082E+04  0.50400001928E-02 0. -1.
       -1   -1    0    0    0  501  0.00000000000E+00  0.00000000000E+00 -0.11342379330E+04  0.11342379330E+04  0.50400001928E-02 0.  1.
    10030    2    1    2    0    0  0.00000000000E+00  0.00000000000E+00  0.25918475217E+02  0.22943943413E+04  0.22942479434E+04 0.  0.
        2    1    3    3  502    0  0.12177570809E+03  0.62746675552E+03 -0.93965052260E+03  0.11364360769E+04  0.25500000920E-02 0.  1.
       -2    1    3    3    0  502 -0.12177570809E+03 -0.62746675552E+03  0.96556899781E+03  0.11579582643E+04  0.25500000920E-02 0. -1.
</event>
<event>
 5   0  0.7278815E-06  0.2294870E+04  0.7818609E-02  0.8479946E-01
        1   -1    0    0  501    0  0.00000000000E+00  0.00000000000E+00  0.12093479656E+04  0.12093479656E+04  0.50400001928E-02 0. -1.
       -1   -1    0    0    0  501  0.00000000000E+00  0.00000000000E+00 -0.10886918507E+04  0.10886918507E+04  0.50400001928E-02 0.  1.
    10030    2    1    2    0    0  0.00000000000E+00  0.00000000000E+00  0.12065611489E+03  0.22980398163E+04  0.22948701704E+04 0.  0.
        5    1    3    3  502    0 -0.46428948132E+03 -0.44599962385E+03 -0.89077575938E+03  0.10990832227E+04  0.46999998093E+01 0.  1.
       -5    1    3    3    0  502  0.46428948132E+03  0.44599962385E+03  0.10114318743E+04  0.11989565936E+04  0.46999998093E+01 0. -1.
</event>
<event>
 5   0  0.7202572E-06  0.2240045E+04  0.7818609E-02  0.8501943E-01
       -1   -1    0    0    0  501  0.00000000000E+00  0.00000000000E+00  0.88847572801E+03  0.88847572802E+03  0.50400001928E-02 0.  1.
        1   -1    0    0  501    0  0.00000000000E+00  0.00000000000E+00 -0.14119123882E+04  0.14119123883E+04  0.50400001928E-02 0. -1.
    10030    2    1    2    0    0  0.00000000000E+00  0.00000000000E+00 -0.52343666024E+03  0.23003881163E+04  0.22400445416E+04 0.  0.
        2    1    3    3  502    0  0.83158956230E+03  0.16064578610E+03 -0.10143330217E+04  0.13214460820E+04  0.25500000920E-02 0. -1.
       -2    1    3    3    0  502 -0.83158956230E+03 -0.16064578610E+03  0.49089636148E+03  0.97894203426E+03  0.25500000920E-02 0.  1.
</event>
<event>
 5   0  0.1635955E-05  0.2274479E+04  0.7818609E-02  0.8488052E-01
       -2   -1    0    0    0  501  0.00000000000E+00  0.00000000000E+00  0.71558892827E+03  0.71558892828E+03  0.25500000920E-02 0.  1.
        2   -1    0    0  501    0  0.00000000000E+00  0.00000000000E+00 -0.18073412161E+04  0.18073412161E+04  0.25500000920E-02 0. -1.
    10030    2    1    2    0    0  0.00000000000E+00  0.00000000000E+00 -0.10917522878E+04  0.25229301444E+04  0.22744787217E+04 0.  0.
        2    1    3    3  502    0  0.27296303313E+03 -0.25305663059E+03  0.64610808347E+03  0.74565550442E+03  0.25500000920E-02 0.  1.
       -2    1    3    3    0  502 -0.27296303313E+03  0.25305663059E+03 -0.17378603713E+04  0.17772746400E+04  0.25500000920E-02 0. -1.
</event>
<event>
 5   0  0.1602809E-05  0.2313717E+04  0.7818609E-02  0.8472532E-01
       -2   -1    0    0    0  501  0.00000000000E+00  0.00000000000E+00  0.76051201356E+03  0.76051201357E+03  0.25500000920E-02 0.  1.
        2   -1    0    0  501    0  0.00000000000E+00  0.00000000000E+00 -0.17597641172E+04  0.17597641172E+04  0.25500000920E-02 0. -1.
    10030    2    1    2    0    0  0.00000000000E+00  0.00000000000E+00 -0.99925210359E+03  0.25202761307E+04  0.23137171410E+04 0.  0.
        3    1    3    3  502    0 -0.33883535118E+03  0.10498922926E+04 -0.87890450953E+03  0.14105163482E+04  0.10100000352E+00 0.  1.
       -3    1    3    3    0  502  0.33883535118E+03 -0.10498922926E+04 -0.12034759406E+03  0.11097597826E+04  0.10100000352E+00 0. -1.
</event>
<event>
 5   0  0.1635955E-05  0.2299918E+04  0.7818609E-02  0.8477953E-01
        2   -1    0    0  501    0  0.00000000000E+00  0.00000000000E+00  0.82087005812E+03  0.82087005813E+03  0.25500000920E-02 0.  1.
       -2   -1    0    0    0  501  0.00000000000E+00  0.00000000000E+00 -0.16109807919E+04  0.16109807919E+04  0.25500000920E-02 0. -1.
    10030    2    1    2    0    0  0.00000000000E+00  0.00000000000E+00 -0.79011073378E+03  0.24318508500E+04  0.22999181692E+04 0.  0.
        2    1    3    3  502    0  0.60003014103E+03 -0.28179176275E+02 -0.14319062026E+04  0.15527992816E+04  0.25500000920E-02 0. -1.
       -2    1    3    3    0  502 -0.60003014103E+03  0.28179176275E+02  0.64179546879E+03  0.87905156839E+03  0.25500000920E-02 0.  1.
</event>
<event>
 5   0  0.7183014E-06  0.2299875E+04  0.7818609E-02  0.8477970E-01
       -1   -1    0    0    0  501  0.00000000000E+00  0.00000000000E+00  0.10403586269E+04  0.10403586269E+04  0.50400001928E-02 0.  1.
        1   -1    0    0  501    0  0.00000000000E+00  0.00000000000E+00 -0.12710579014E+04  0.12710579014E+04  0.50400001928E-02 0. -1.
    10030    2    1    2    0    0  0.00000000000E+00  0.00000000000E+00 -0.23069927453E+03  0.23114165284E+04  0.22998748254E+04 0.  0.
        3    1    3    3  502    0 -0.13022711863E+03 -0.27286981624E+03 -0.12303943471E+04  0.12669993285E+04  0.10100000352E+00 0. -1.
       -3    1    3    3    0  502  0.13022711863E+03  0.27286981624E+03  0.99969507253E+03  0.10444171998E+04  0.10100000352E+00 0.  1.
</event>
<event>
 5   0  0.7278815E-06  0.2287294E+04  0.7818609E-02  0.8482948E-01
       -1   -1    0    0    0  501  0.00000000000E+00  0.00000000000E+00  0.31038692873E+04  0.31038692873E+04  0.50400001928E-02 0.  1.
        1   -1    0    0  501    0  0.00000000000E+00  0.00000000000E+00 -0.42138631415E+03  0.42138631418E+03  0.50400001928E-02 0. -1.
    10030    2    1    2    0    0  0.00000000000E+00  0.00000000000E+00  0.26824829732E+04  0.35252556015E+04  0.22872936310E+04 0.  0.
        5    1    3    3  502    0 -0.63626419956E+03 -0.51653727760E+02 -0.12123135784E+03  0.64978409596E+03  0.46999998093E+01 0. -1.
       -5    1    3    3    0  502  0.63626419956E+03  0.51653727760E+02  0.28037143310E+04  0.28754715056E+04  0.46999998093E+01 0.  1.
</event>
<event>
 5   0  0.1697855E-05  0.2327245E+04  0.7818609E-02  0.8467256E-01
        2   -1    0    0  501    0  0.00000000000E+00  0.00000000000E+00  0.88319186310E+03  0.88319186311E+03  0.25500000920E-02 0.  1.
       -2   -1    0    0    0  501  0.00000000000E+00  0.00000000000E+00 -0.15330952753E+04  0.15330952753E+04  0.25500000920E-02 0. -1.
    10030    2    1    2    0    0  0.00000000000E+00  0.00000000000E+00 -0.64990341220E+03  0.24162871384E+04  0.23272449570E+04 0.  0.
        5    1    3    3  502    0  0.70114010922E+03  0.31761427457E+03 -0.12309904895E+04  0.14518388186E+04  0.46999998093E+01 0. -1.
       -5    1    3    3    0  502 -0.70114010922E+03 -0.31761427457E+03  0.58108707725E+03  0.96444831978E+03  0.46999998093E+01 0.  1.
</event>
<event>
 5   0  0.7278815E-06  0.2299568E+04  0.7818609E-02  0.8478092E-01
       -1   -1    0    0    0  501  0.00000000000E+00  0.00000000000E+00  0.13872556918E+04  0.13872556918E+04  0.50400001928E-02 0.  1.
        1   -1    0    0  501    0  0.00000000000E+00  0.00000000000E+00 -0.95296277480E+03  0.95296277481E+03  0.50400001928E-02 0. -1.
    10030    2    1    2    0    0  0.00000000000E+00  0.00000000000E+00  0.43429291698E+03  0.23402184666E+04  0.22995678145E+04 0.  0.
        5    1    3    3  502    0 -0.74207289129E+03 -0.51240638570E+03 -0.50872836889E+03  0.10354028798E+04  0.46999998093E+01 0. -1.
       -5    1    3    3    0  502  0.74207289129E+03  0.51240638570E+03  0.94302128587E+03  0.13048155868E+04  0.46999998093E+01 0.  1.
</event>
<event>
 5   0  0.7202572E-06  0.2298524E+04  0.7818609E-02  0.8478503E-01
       -1   -1    0    0    0  501  0.00000000000E+00  0.00000000000E+00  0.10602647030E+04  0.10602647030E+04  0.50400001928E-02 0.  1.
        1   -1    0    0  501    0  0.00000000000E+00  0.00000000000E+00 -0.12457291039E+04  0.12457291039E+04  0.50400001928E-02 0. -1.
    10030    2    1    2    0    0  0.00000000000E+00  0.00000000000E+00 -0.18546440089E+03  0.23059938068E+04  0.22985235246E+04 0.  0.
        2    1    3    3  502    0  0.18614799968E+03 -0.46690858952E+03 -0.11296035562E+04  0.12363894625E+04  0.25500000920E-02 0. -1.
       -2    1    3    3    0  502 -0.18614799968E+03  0.46690858952E+03  0.94413915535E+03  0.10696043443E+04  0.25500000920E-02 0.  1.
</event>
<event>
 5   0  0.1697855E-05  0.2287074E+04  0.7818609E-02  0.8483035E-01
       -2   -1    0    0    0  501  0.00000000000E+00  0.00000000000E+00  0.44654875856E+03  0.44654875857E+03  0.25500000920E-02 0. -1.
        2   -1    0    0  501    0  0.00000000000E+00  0.00000000000E+00 -0.29284085436E+04  0.29284085436E+04  0.25500000920E-02 0.  1.
    10030    2    1    2    0    0  0.00000000000E+00  0.00000000000E+00 -0.24818597850E+04  0.33749573021E+04  0.22870742880E+04 0.  0.
        5    1    3    3  502    0 -0.10910772903E+04 -0.35090855026E+02 -0.73839236980E+03  0.13179250371E+04  0.46999998093E+01 0. -1.
       -5    1    3    3    0  502  0.10910772903E+04  0.35090855026E+02 -0.17434674152E+04  0.20570322651E+04  0.46999998093E+01 0.  1.
</event>
<event>
 5   0  0.7391007E-06  0.2298630E+04  0.7818609E-02  0.8478462E-01
       -1   -1    0    0    0  501  0.00000000000E+00  0.00000000000E+00  0.26042471402E+04  0.26042471402E+04  0.50400001928E-02 0. -1.
        1   -1    0    0  501    0  0.00000000000E+00  0.00000000000E+00 -0.50721934198E+03  0.50721934200E+03  0.50400001928E-02 0.  1.
    10030    2    1    2    0    0  0.00000000000E+00  0.00000000000E+00  0.20970277982E+04  0.31114664822E+04  0.22986296099E+04 0.  0.
        1    1    3    3  502    0 -0.93017739263E+03 -0.16422864263E+03  0.19348221064E+04  0.21530763136E+04  0.50400001928E-02 0. -1.
       -1    1    3    3    0  502  0.93017739263E+03  0.16422864263E+03  0.16220569186E+03  0.95839016863E+03  0.50400001928E-02 0.  1.
</event>
<event>
 5   0  0.1602809E-05  0.2304011E+04  0.7818609E-02  0.8476341E-01
       -2   -1    0    0    0  501  0.00000000000E+00  0.00000000000E+00  0.64023127301E+03  0.64023127302E+03  0.25500000920E-02 0.  1.
        2   -1    0    0  501    0  0.00000000000E+00  0.00000000000E+00 -0.20728703361E+04  0.20728703361E+04  0.25500000920E-02 0. -1.
    10030    2    1    2    0    0  0.00000000000E+00  0.00000000000E+00 -0.14326390631E+04  0.27131016091E+04  0.23040107761E+04 0.  0.
        3    1    3    3  502    0  0.10390371777E+03 -0.80878840141E+03  0.24191133071E+03  0.85056202769E+03  0.10100000352E+00 0.  1.
       -3    1    3    3    0  502 -0.10390371777E+03  0.80878840141E+03 -0.16745503938E+04  0.18625395814E+04  0.10100000352E+00 0. -1.
</event>
<event>
 5   0  0.1588969E-05  0.2302440E+04  0.7818609E-02  0.8476960E-01
        2   -1    0    0  501    0  0.00000000000E+00  0.00000000000E+00  0.19444321240E+04  0.19444321240E+04  0.25500000920E-02 0. -1.
       -2   -1    0    0    0  501  0.00000000000E+00  0.00000000000E+00 -0.68159106874E+03  0.68159106875E+03  0.25500000920E-02 0.  1.
    10030    2    1    2    0    0  0.00000000000E+00  0.00000000000E+00  0.12628410553E+04  0.26260231928E+04  0.23024400705E+04 0.  0.
        1    1    3    3  502    0 -0.52795243060E+03  0.85996999230E+03  0.12633918693E+04  0.16169233662E+04  0.50400001928E-02 0. -1.
       -1    1    3    3    0  502  0.52795243060E+03 -0.85996999230E+03 -0.55081402001E+00  0.10090998266E+04  0.50400001928E-02 0.  1.
</event>
<event>
 5   0  0.1602809E-05  0.2309668E+04  0.7818609E-02  0.8474119E-01
        2   -1    0    0  501    0  0.00000000000E+00  0.00000000000E+00  0.12970563662E+04  0.12970563662E+04  0.25500000920E-02 0.  1.
       -2   -1    0    0    0  501  0.00000000000E+00  0.00000000000E+00 -0.10282060722E+04  0.10282060722E+04  0.25500000920E-02 0. -1.
    10030    2    1    2    0    0  0.00000000000E+00  0.00000000000E+00  0.26885029409E+03  0.23252624384E+04  0.23096677092E+04 0.  0.
        3    1    3    3  502    0  0.82957280621E+03 -0.41067353322E+03 -0.56074229904E+03  0.10822549274E+04  0.10100000352E+00 0. -1.
       -3    1    3    3    0  502 -0.82957280621E+03  0.41067353322E+03  0.82959259312E+03  0.12430075110E+04  0.10100000352E+00 0.  1.
</event>
<event>
 5   0  0.7202572E-06  0.2309648E+04  0.7818609E-02  0.8474127E-01
       -1   -1    0    0    0  501  0.00000000000E+00  0.00000000000E+00  0.80757252786E+03  0.80757252788E+03  0.50400001928E-02 0.  1.
        1   -1    0    0  501    0  0.00000000000E+00  0.00000000000E+00 -0.16513910803E+04  0.16513910803E+04  0.50400001928E-02 0. -1.
    10030    2    1    2    0    0  0.00000000000E+00  0.00000000000E+00 -0.84381855239E+03  0.24589636081E+04  0.23096476521E+04 0.  0.
        2    1    3    3  502    0  0.33362983646E+02  0.72379293233E+03  0.53546326039E+03  0.90094961057E+03  0.25500000920E-02 0.  1.
       -2    1    3    3    0  502 -0.33362983646E+02 -0.72379293233E+03 -0.13792818128E+04  0.15580139976E+04  0.25500000920E-02 0. -1.
</event>
<event>
 5   0  0.1626636E-05  0.2299097E+04  0.7818609E-02  0.8478277E-01
        2   -1    0    0  501    0  0.00000000000E+00  0.00000000000E+00  0.89139845344E+03  0.89139845345E+03  0.25500000920E-02 0.  1.
       -2   -1    0    0    0  501  0.00000000000E+00  0.00000000000E+00 -0.14824592828E+04  0.14824592828E+04  0.25500000920E-02 0. -1.
    10030    2    1    2    0    0  0.00000000000E+00  0.00000000000E+00 -0.59106082940E+03  0.23738577363E+04  0.22990971376E+04 0.  0.
        4    1    3    3  502    0 -0.10565197510E+04 -0.45209841250E+03 -0.32533674841E+03  0.11943502717E+04  0.12699999809E+01 0.  1.
       -4    1    3    3    0  502  0.10565197510E+04  0.45209841250E+03 -0.26572408099E+03  0.11795074646E+04  0.12699999809E+01 0. -1.
</event>
<event>
 5   0  0.7278815E-06  0.2299407E+04  0.7818609E-02  0.8478155E-01
       -1   -1    0    0    0  501  0.00000000000E+00  0.00000000000E+00  0.57137671601E+03  0.57137671603E+03  0.50400001928E-02 0.  1.
        1   -1    0    0  501    0  0.00000000000E+00  0.00000000000E+00 -0.23133920561E+04  0.23133920561E+04  0.50400001928E-02 0. -1.
    10030    2    1    2    0    0  0.00000000000E+00  0.00000000000E+00 -0.17420153401E+04  0.28847687722E+04  0.22994071896E+04 0.  0.
        5    1    3    3  502    0  0.23028502825E+03  0.10863307037E+04 -0.49746850493E+03  0.12168165825E+04  0.46999998093E+01 0.  1.
       -5    1    3    3    0  502 -0.23028502825E+03 -0.10863307037E+04 -0.12445468352E+04  0.16679521897E+04  0.46999998093E+01 0. -1.
</event>
<event>
 5   0  0.5704875E-06  0.2300018E+04  0.7818609E-02  0.8477914E-01
        4   -1    0    0  501    0  0.00000000000E+00  0.00000000000E+00  0.13996700827E+04  0.13996706589E+04  0.12699999809E+01 0.  1.
       -4   -1    0    0    0  501  0.00000000000E+00  0.00000000000E+00 -0.94487944929E+03  0.94488030279E+03  0.12699999809E+01 0. -1.
    10030    2    1    2    0    0  0.00000000000E+00  0.00000000000E+00  0.45479063340E+03  0.23445509617E+04  0.23000184111E+04 0.  0.
        5    1    3    3  502    0 -0.56575813600E+03  0.97759243800E+03  0.70389972745E+01  0.11295312660E+04  0.46999998093E+01 0. -1.
       -5    1    3    3    0  502  0.56575813600E+03 -0.97759243800E+03  0.44775163613E+03  0.12150196957E+04  0.46999998093E+01 0.  1.
</event>
<event>
 5   0  0.5704875E-06  0.2301427E+04  0.7818609E-02  0.8477359E-01
        3   -1    0    0  501    0  0.00000000000E+00  0.00000000000E+00  0.84001595178E+03  0.84001595785E+03  0.10100000352E+00 0. -1.
       -3   -1    0    0    0  501  0.00000000000E+00  0.00000000000E+00 -0.15763291931E+04  0.15763291963E+04  0.10100000352E+00 0.  1.
    10030    2    1    2    0    0  0.00000000000E+00  0.00000000000E+00 -0.73631324133E+03  0.24163451542E+04  0.23014271040E+04 0.  0.
        5    1    3    3  502    0 -0.82250073634E+03  0.59094292407E+03 -0.94169188755E+03  0.13829413226E+04  0.46999998093E+01 0.  1.
       -5    1    3    3    0  502  0.82250073634E+03 -0.59094292407E+03  0.20537864621E+03  0.10334038316E+04  0.46999998093E+01 0. -1.
</event>
<event>
 5   0  0.7202572E-06  0.2296888E+04  0.7818609E-02  0.8479149E-01
        1   -1    0    0  501    0  0.00000000000E+00  0.00000000000E+00  0.15867418577E+04  0.15867418577E+04  0.50400001928E-02 0.  1.
       -1   -1    0    0    0  501  0.00000000000E+00  0.00000000000E+00 -0.83121463766E+03  0.83121463767E+03  0.50400001928E-02 0. -1.
    10030    2    1    2    0    0  0.00000000000E+00  0.00000000000E+00  0.75552722008E+03  0.24179564954E+04  0.22968875100E+04 0.  0.
        2    1    3    3  502    0  0.89680937440E+01 -0.86443025863E+03 -0.41813178309E+03  0.96028864763E+03  0.25500000920E-02 0. -1.
       -2    1    3    3    0  502 -0.89680937440E+01  0.86443025863E+03  0.11736590032E+04  0.14576678478E+04  0.25500000920E-02 0.  1.
</event>
<event>
 5   0  0.7183014E-06  0.2303164E+04  0.7818609E-02  0.8476675E-01
        1   -1    0    0  501    0  0.00000000000E+00  0.00000000000E+00  0.19317778645E+04  0.19317778645E+04  0.50400001928E-02 0. -1.
       -1   -1    0    0    0  501  0.00000000000E+00  0.00000000000E+00 -0.68648716102E+03  0.68648716104E+03  0.50400001928E-02 0.  1.
    10030    2    1    2    0    0  0.00000000000E+00  0.00000000000E+00  0.12452907035E+04  0.26182650256E+04  0.23031636520E+04 0.  0.
        3    1    3    3  502    0  0.10274900187E+04  0.32514998144E+03  0.16131454517E+03  0.10897158536E+04  0.10100000352E+00 0.  1.
       -3    1    3    3    0  502 -0.10274900187E+04 -0.32514998144E+03  0.10839761583E+04  0.15285491719E+04  0.10100000352E+00 0. -1.
</event>
<event>
 5   0  0.7278815E-06  0.2309648E+04  0.7818609E-02  0.8474127E-01
       -1   -1    0    0    0  501  0.00000000000E+00  0.00000000000E+00  0.10277390192E+04  0.10277390192E+04  0.50400001928E-02 0. -1.
        1   -1    0    0  501    0  0.00000000000E+00  0.00000000000E+00 -0.12976233640E+04  0.12976233640E+04  0.50400001928E-02 0.  1.
    10030    2    1    2    0    0  0.00000000000E+00  0.00000000000E+00 -0.26988434481E+03  0.23253623832E+04  0.23096477337E+04 0.  0.
        5    1    3    3  502    0  0.29658954887E+03  0.10709529205E+04 -0.45123015544E+03  0.11993899539E+04  0.46999998093E+01 0.  1.
       -5    1    3    3    0  502 -0.29658954887E+03 -0.10709529205E+04  0.18134581063E+03  0.11259724293E+04  0.46999998093E+01 0. -1.
</event>
<event>
 5   0  0.1697855E-05  0.2299164E+04  0.7818609E-02  0.8478251E-01
        2   -1    0    0  501    0  0.00000000000E+00  0.00000000000E+00  0.10741506256E+04  0.10741506256E+04  0.25500000920E-02 0.  1.
       -2   -1    0    0    0  501  0.00000000000E+00  0.00000000000E+00 -0.12303109071E+04  0.12303109071E+04  0.25500000920E-02 0. -1.
    10030    2    1    2    0    0  0.00000000000E+00  0.00000000000E+00 -0.15616028149E+03  0.23044615327E+04  0.22991643965E+04 0.  0.
        5    1    3    3  502    0  0.70673064229E+02 -0.23294792429E+03 -0.12041710584E+04  0.12285395579E+04  0.46999998093E+01 0. -1.
       -5    1    3    3    0  502 -0.70673064229E+02  0.23294792429E+03  0.10480107769E+04  0.10759219748E+04  0.46999998093E+01 0.  1.
</event>
<event>
 5   0  0.7391007E-06  0.2271426E+04  0.7818609E-02  0.8489273E-01
       -1   -1    0    0    0  501  0.00000000000E+00  0.00000000000E+00  0.59958371213E+03  0.59958371215E+03  0.50400001928E-02 0.  1.
        1   -1    0    0  501    0  0.00000000000E+00  0.00000000000E+00 -0.21512329324E+04  0.21512329324E+04  0.50400001928E-02 0. -1.
    10030    2    1    2    0    0  0.00000000000E+00  0.00000000000E+00 -0.15516492203E+04  0.27508166446E+04  0.22714261840E+04 0.  0.
        1    1    3    3  502    0 -0.69242491732E+03  0.42609798361E+03  0.18452749960E+03  0.83370387782E+03  0.50400001928E-02 0.  1.
       -1    1    3    3    0  502  0.69242491732E+03 -0.42609798361E+03 -0.17361767199E+04  0.19171127668E+04  0.50400001928E-02 0. -1.
</event>
<event>
 5   0  0.7278815E-06  0.2298762E+04  0.7818609E-02  0.8478409E-01
        1   -1    0    0  501    0  0.00000000000E+00  0.00000000000E+00  0.11254653949E+04  0.11254653949E+04  0.50400001928E-02 0. -1.
       -1   -1    0    0    0  501  0.00000000000E+00  0.00000000000E+00 -0.11738049023E+04  0.11738049023E+04  0.50400001928E-02 0.  1.
    10030    2    1    2    0    0  0.00000000000E+00  0.00000000000E+00 -0.48339507454E+02  0.22992702972E+04  0.22987620998E+04 0.  0.
        5    1    3    3  502    0  0.93669294544E+03  0.47030904791E+03 -0.49594174231E+03  0.11595536108E+04  0.46999998093E+01 0. -1.
       -5    1    3    3    0  502 -0.93669294544E+03 -0.47030904791E+03  0.44760223485E+03  0.11397166864E+04  0.46999998093E+01 0.  1.
</event>
<event>
 5   0  0.7416556E-06  0.2188576E+04  0.7818609E-02  0.8523198E-01
       -1   -1    0    0    0  501  0.00000000000E+00  0.00000000000E+00  0.12690848083E+04  0.12690848083E+04  0.50400001928E-02 0.  1.
        1   -1    0    0  501    0  0.00000000000E+00  0.00000000000E+00 -0.94356667732E+03  0.94356667734E+03  0.50400001928E-02 0. -1.
    10030    2    1    2    0    0  0.00000000000E+00  0.00000000000E+00  0.32551813099E+03  0.22126514857E+04  0.21885759168E+04 0.  0.
        4    1    3    3  502    0  0.97118458601E+03  0.50397567549E+03  0.14603804005E+03  0.11038657996E+04  0.12699999809E+01 0.  1.
       -4    1    3    3    0  502 -0.97118458601E+03 -0.50397567549E+03  0.17948009094E+03  0.11087856860E+04  0.12699999809E+01 0. -1.
</event>
<event>
 5   0  0.7202572E-06  0.2288912E+04  0.7818609E-02  0.8482306E-01
        1   -1    0    0  501    0  0.00000000000E+00  0.00000000000E+00  0.18588374120E+04  0.18588374120E+04  0.50400001928E-02 0. -1.
       -1   -1    0    0    0  501  0.00000000000E+00  0.00000000000E+00 -0.70462280516E+03  0.70462280518E+03  0.50400001928E-02 0.  1.
    10030    2    1    2    0    0  0.00000000000E+00  0.00000000000E+00  0.11542146068E+04  0.25634602171E+04  0.22889117341E+04 0.  0.
        2    1    3    3  502    0 -0.22554563150E+03 -0.66741497349E+03  0.15872137586E+04  0.17365370985E+04  0.25500000920E-02 0. -1.
       -2    1    3    3    0  502  0.22554563150E+03  0.66741497349E+03 -0.43299915183E+03  0.82692311869E+03  0.25500000920E-02 0.  1.
</event>
<event>
 5   0  0.1635955E-05  0.2316935E+04  0.7818609E-02  0.8471274E-01
       -2   -1    0    0    0  501  0.00000000000E+00  0.00000000000E+00  0.46820082849E+03  0.46820082850E+03  0.25500000920E-02 0.  1.
        2   -1    0    0  501    0  0.00000000000E+00  0.00000000000E+00 -0.28663924022E+04  0.28663924022E+04  0.25500000920E-02 0. -1.
    10030    2    1    2    0    0  0.00000000000E+00  0.00000000000E+00 -0.23981915737E+04  0.33345932307E+04  0.23169353012E+04 0.  0.
        2    1    3    3  502    0 -0.57708478692E+03 -0.13560324996E+03 -0.26315646110E+04  0.26975076264E+04  0.25500000920E-02 0. -1.
       -2    1    3    3    0  502  0.57708478692E+03  0.13560324996E+03  0.23337303726E+03  0.63708560431E+03  0.25500000920E-02 0.  1.
</event>
<event>
 5   0  0.1602809E-05  0.2289481E+04  0.7818609E-02  0.8482080E-01
       -2   -1    0    0    0  501  0.00000000000E+00  0.00000000000E+00  0.60926626769E+03  0.60926626769E+03  0.25500000920E-02 0. -1.
        2   -1    0    0  501    0  0.00000000000E+00  0.00000000000E+00 -0.21508351409E+04  0.21508351409E+04  0.25500000920E-02 0.  1.
    10030    2    1    2    0    0  0.00000000000E+00  0.00000000000E+00 -0.15415688733E+04  0.27601014086E+04  0.22894814249E+04 0.  0.
        3    1    3    3  502    0 -0.69253268565E+03 -0.53169586019E+03  0.12175911228E+03  0.88154824035E+03  0.10100000352E+00 0. -1.
       -3    1    3    3    0  502  0.69253268565E+03  0.53169586019E+03 -0.16633279855E+04  0.18785531683E+04  0.10100000352E+00 0.  1.
</event>
<event>
 5   0  0.1626636E-05  0.2303546E+04  0.7818609E-02  0.8476524E-01
       -2   -1    0    0    0  501  0.00000000000E+00  0.00000000000E+00  0.22539937835E+04  0.22539937835E+04  0.25500000920E-02 0. -1.
        2   -1    0    0  501    0  0.00000000000E+00  0.00000000000E+00 -0.58854711414E+03  0.58854711414E+03  0.25500000920E-02 0.  1.
    10030    2    1    2    0    0  0.00000000000E+00  0.00000000000E+00  0.16654466694E+04  0.28425408977E+04  0.23035464281E+04 0.  0.
        4    1    3    3  502    0  0.77450838119E+03 -0.80804556438E+03  0.11679019498E+04  0.16176518302E+04  0.12699999809E+01 0. -1.
       -4    1    3    3    0  502 -0.77450838119E+03  0.80804556438E+03  0.49754471962E+03  0.12248890675E+04  0.12699999809E+01 0.  1.
</event>
<event>
 5   0  0.7278815E-06  0.2300261E+04  0.7818609E-02  0.8477818E-01
       -1   -1    0    0    0  501  0.00000000000E+00  0.00000000000E+00  0.51322971982E+03  0.51322971984E+03  0.50400001928E-02 0. -1.
        1   -1    0    0  501    0  0.00000000000E+00  0.00000000000E+00 -0.25774043479E+04  0.25774043479E+04  0.50400001928E-02 0.  1.
    10030    2    1    2    0    0  0.00000000000E+00  0.00000000000E+00 -0.20641746280E+04  0.30906340677E+04  0.23002612994E+04 0.  0.
        5    1    3    3  502    0  0.70696819619E+03 -0.39502925144E+03  0.65172138168E+02  0.81247869972E+03  0.46999998093E+01 0. -1.
       -5    1    3    3    0  502 -0.70696819619E+03  0.39502925144E+03 -0.21293467662E+04  0.22781553680E+04  0.46999998093E+01 0.  1.
</event>
<event>
 5   0  0.1588969E-05  0.2301186E+04  0.7818609E-02  0.8477454E-01
        2   -1    0    0  501    0  0.00000000000E+00  0.00000000000E+00  0.13477054513E+04  0.13477054513E+04  0.25500000920E-02 0. -1.
       -2   -1    0    0    0  501  0.00000000000E+00  0.00000000000E+00 -0.98231006454E+03  0.98231006455E+03  0.25500000920E-02 0.  1.
    10030    2    1    2    0    0  0.00000000000E+00  0.00000000000E+00  0.36539538679E+03  0.23300155159E+04  0.23011863279E+04 0.  0.
        1    1    3    3  502    0  0.19268760774E+03  0.13146176650E+03  0.13235134168E+04  0.13439116321E+04  0.50400001928E-02 0. -1.
       -1    1    3    3    0  502 -0.19268760774E+03 -0.13146176650E+03 -0.95811803003E+03  0.98610388384E+03  0.50400001928E-02 0.  1.
</event>
<event>
 5   0  0.1697855E-05  0.2302081E+04  0.7818609E-02  0.8477101E-01
       -2   -1    0    0    0  501  0.00000000000E+00  0.00000000000E+00  0.68412095305E+03  0.68412095306E+03  0.25500000920E-02 0. -1.
        2   -1    0    0  501    0  0.00000000000E+00  0.00000000000E+00 -0.19366370238E+04  0.19366370238E+04  0.25500000920E-02 0.  1.
    10030    2    1    2    0    0  0.00000000000E+00  0.00000000000E+00 -0.12525160708E+04  0.26207579769E+04  0.23020807688E+04 0.  0.
        5    1    3    3  502    0  0.87111491548E+03  0.53425170795E+03 -0.23206155154E+02  0.10221676472E+04  0.46999998093E+01 0.  1.
       -5    1    3    3    0  502 -0.87111491548E+03 -0.53425170795E+03 -0.12293099156E+04  0.15985903297E+04  0.46999998093E+01 0. -1.
</event>
<event>
 5   0  0.7416556E-06  0.2308155E+04  0.7818609E-02  0.8474713E-01
        1   -1    0    0  501    0  0.00000000000E+00  0.00000000000E+00  0.11931556613E+04  0.11931556613E+04  0.50400001928E-02 0. -1.
       -1   -1    0    0    0  501  0.00000000000E+00  0.00000000000E+00 -0.11162790386E+04  0.11162790386E+04  0.50400001928E-02 0.  1.
    10030    2    1    2    0    0  0.00000000000E+00  0.00000000000E+00  0.76876622724E+02  0.23094347000E+04  0.23081548081E+04 0.  0.
        4    1    3    3  502    0  0.10660238068E+04  0.42285775198E+03 -0.90775107123E+02  0.11504160847E+04  0.12699999809E+01 0.  1.
       -4    1    3    3    0  502 -0.10660238068E+04 -0.42285775198E+03  0.16765172985E+03  0.11590186152E+04  0.12699999809E+01 0. -1.
</event>
<event>
 5   0  0.7202572E-06  0.2296329E+04  0.7818609E-02  0.8479370E-01
       -1   -1    0    0    0  501  0.00000000000E+00  0.00000000000E+00  0.76010202319E+03  0.76010202320E+03  0.50400001928E-02 0. -1.
        1   -1    0    0  501    0  0.00000000000E+00  0.00000000000E+00 -0.17343488107E+04  0.17343488107E+04  0.50400001928E-02 0.  1.
    10030    2    1    2    0    0  0.00000000000E+00  0.00000000000E+00 -0.97424678747E+03  0.24944508339E+04  0.22963292795E+04 0.  0.
        2    1    3    3  502    0  0.33772011122E+03  0.90938173854E+02  0.70082792198E+03  0.78325245050E+03  0.25500000920E-02 0. -1.
       -2    1    3    3    0  502 -0.33772011122E+03 -0.90938173854E+02 -0.16750747094E+04  0.17111983834E+04  0.25500000920E-02 0.  1.
</event>
<event>
 5   0  0.7202572E-06  0.2299951E+04  0.7818609E-02  0.8477940E-01
        1   -1    0    0  501    0  0.00000000000E+00  0.00000000000E+00  0.98694891867E+03  0.98694891868E+03  0.50400001928E-02 0.  1.
       -1   -1    0    0    0  501  0.00000000000E+00  0.00000000000E+00 -0.13399314664E+04  0.13399314664E+04  0.50400001928E-02 0. -1.
    10030    2    1    2    0    0  0.00000000000E+00  0.00000000000E+00 -0.35298254777E+03  0.23268803851E+04  0.22999512272E+04 0.  0.
        2    1    3    3  502    0 -0.49200472601E+03  0.65993029395E+03 -0.98892996767E+03  0.12866853245E+04  0.25500000920E-02 0. -1.
       -2    1    3    3    0  502  0.49200472601E+03 -0.65993029395E+03  0.63594741990E+03  0.10401950606E+04  0.25500000920E-02 0.  1.
</event>
<event>
 5   0  0.7278815E-06  0.2297790E+04  0.7818609E-02  0.8478793E-01
       -1   -1    0    0    0  501  0.00000000000E+00  0.00000000000E+00  0.13892037949E+04  0.13892037949E+04  0.50400001928E-02 0.  1.
        1   -1    0    0  501    0  0.00000000000E+00  0.00000000000E+00 -0.95015587177E+03  0.95015587178E+03  0.50400001928E-02 0. -1.
    10030    2    1    2    0    0  0.00000000000E+00  0.00000000000E+00  0.43904792316E+03  0.23393596667E+04  0.22977903672E+04 0.  0.
        5    1    3    3  502    0  0.98769865330E+03  0.46317871662E+03  0.58639697238E+03  0.12385340740E+04  0.46999998093E+01 0. -1.
       -5    1    3    3    0  502 -0.98769865330E+03 -0.46317871662E+03 -0.14734904922E+03  0.11008255927E+04  0.46999998093E+01 0.  1.
</event>
<event>
 5   0  0.7202572E-06  0.2306051E+04  0.7818609E-02  0.8475539E-01
        1   -1    0    0  501    0  0.00000000000E+00  0.00000000000E+00  0.25288644118E+04  0.25288644118E+04  0.50400001928E-02 0. -1.
       -1   -1    0    0    0  501  0.00000000000E+00  0.00000000000E+00 -0.52571716265E+03  0.52571716268E+03  0.50400001928E-02 0.  1.
    10030    2    1    2    0    0  0.00000000000E+00  0.00000000000E+00  0.20031472491E+04  0.30545815744E+04  0.23060506702E+04 0.  0.
        2    1    3    3  502    0  0.23436908272E+02 -0.89288747957E+03  0.35736279336E+02  0.89390962715E+03  0.25500000920E-02 0.  1.
       -2    1    3    3    0  502 -0.23436908272E+02  0.89288747957E+03  0.19674109698E+04  0.21606719473E+04  0.25500000920E-02 0. -1.
</event>
<event>
 5   0  0.1635955E-05  0.2307616E+04  0.7818609E-02  0.8474924E-01
       -2   -1    0    0    0  501  0.00000000000E+00  0.00000000000E+00  0.53193522352E+03  0.53193522353E+03  0.25500000920E-02 0.  1.
        2   -1    0    0  501    0  0.00000000000E+00  0.00000000000E+00 -0.25026972544E+04  0.25026972544E+04  0.25500000920E-02 0. -1.
    10030    2    1    2    0    0  0.00000000000E+00  0.00000000000E+00 -0.19707620308E+04  0.30346324779E+04  0.23076159329E+04 0.  0.
        2    1    3    3  502    0 -0.11121126561E+04  0.19841603025E+03 -0.67666782427E+03  0.13168305986E+04  0.25500000920E-02 0.  1.
       -2    1    3    3    0  502  0.11121126561E+04 -0.19841603025E+03 -0.12940942066E+04  0.17178018793E+04  0.25500000920E-02 0. -1.
</event>
<event>
 5   0  0.1635955E-05  0.2299957E+04  0.7818609E-02  0.8477938E-01
       -2   -1    0    0    0  501  0.00000000000E+00  0.00000000000E+00  0.57674537377E+03  0.57674537378E+03  0.25500000920E-02 0. -1.
        2   -1    0    0  501    0  0.00000000000E+00  0.00000000000E+00 -0.22929547111E+04  0.22929547111E+04  0.25500000920E-02 0.  1.
    10030    2    1    2    0    0  0.00000000000E+00  0.00000000000E+00 -0.17162093373E+04  0.28697000849E+04  0.22999574100E+04 0.  0.
        2    1    3    3  502    0  0.99720743946E+03 -0.21451358086E+01 -0.15727151085E+04  0.18622191309E+04  0.25500000920E-02 0.  1.
       -2    1    3    3    0  502 -0.99720743946E+03  0.21451358086E+01 -0.14349422881E+03  0.10074809540E+04  0.25500000920E-02 0. -1.
</event>
<event>
 5   0  0.1602809E-05  0.2298468E+04  0.7818609E-02  0.8478525E-01
        2   -1    0    0  501    0  0.00000000000E+00  0.00000000000E+00  0.18525681442E+04  0.18525681442E+04  0.25500000920E-02 0. -1.
       -2   -1    0    0    0  501  0.00000000000E+00  0.00000000000E+00 -0.71292327775E+03  0.71292327776E+03  0.25500000920E-02 0.  1.
    10030    2    1    2    0    0  0.00000000000E+00  0.00000000000E+00  0.11396448664E+04  0.25654914220E+04  0.22984681452E+04 0.  0.
        3    1    3    3  502    0 -0.11136018495E+04  0.28373284846E+03  0.55731655320E+03  0.12771903379E+04  0.10100000352E+00 0. -1.
       -3    1    3    3    0  502  0.11136018495E+04 -0.28373284846E+03  0.58232831324E+03  0.12883010841E+04  0.10100000352E+00 0.  1.
</event>
<event>
 5   0  0.7391007E-06  0.2306299E+04  0.7818609E-02  0.8475442E-01
       -1   -1    0    0    0  501  0.00000000000E+00  0.00000000000E+00  0.74867071494E+03  0.74867071496E+03  0.50400001928E-02 0.  1.
        1   -1    0    0  501    0  0.00000000000E+00  0.00000000000E+00 -0.17761524121E+04  0.17761524121E+04  0.50400001928E-02 0. -1.
    10030    2    1    2    0    0  0.00000000000E+00  0.00000000000E+00 -0.10274816971E+04  0.25248231270E+04  0.23062985897E+04 0.  0.
        1    1    3    3  502    0  0.17252160592E+00 -0.44292465304E+03  0.65183299545E+03  0.78807901382E+03  0.50400001928E-02 0.  1.
       -1    1    3    3    0  502 -0.17252160592E+00  0.44292465304E+03 -0.16793146926E+04  0.17367441132E+04  0.50400001928E-02 0. -1.
</event>
<event>
 5   0  0.7202572E-06  0.2298898E+04  0.7818609E-02  0.8478356E-01
        1   -1    0    0  501    0  0.00000000000E+00  0.00000000000E+00  0.16446059359E+04  0.16446059359E+04  0.50400001928E-02 0. -1.
       -1   -1    0    0    0  501  0.00000000000E+00  0.00000000000E+00 -0.80337329579E+03  0.80337329580E+03  0.50400001928E-02 0.  1.
    10030    2    1    2    0    0  0.00000000000E+00  0.00000000000E+00  0.84123264009E+03  0.24479792317E+04  0.22988975541E+04 0.  0.
        2    1    3    3  502    0 -0.77659525855E+03 -0.19613592522E+03  0.12984958512E+04  0.15256673859E+04  0.25500000920E-02 0. -1.
       -2    1    3    3    0  502  0.77659525855E+03  0.19613592522E+03 -0.45726321107E+03  0.92231184584E+03  0.25500000920E-02 0.  1.
</event>
<event>
 5   0  0.7202572E-06  0.2300812E+04  0.7818609E-02  0.8477601E-01
       -1   -1    0    0    0  501  0.00000000000E+00  0.00000000000E+00  0.14613828700E+04  0.14613828700E+04  0.50400001928E-02 0.  1.
        1   -1    0    0  501    0  0.00000000000E+00  0.00000000000E+00 -0.90560416604E+03  0.90560416605E+03  0.50400001928E-02 0. -1.
    10030    2    1    2    0    0  0.00000000000E+00  0.00000000000E+00  0.55577870396E+03  0.23669870361E+04  0.23008123915E+04 0.  0.
        2    1    3    3  502    0 -0.75594844469E+03  0.47920254550E+03  0.10214079702E+04  0.13580748772E+04  0.25500000920E-02 0.  1.
       -2    1    3    3    0  502  0.75594844469E+03 -0.47920254550E+03 -0.46562926622E+03  0.10089121588E+04  0.25500000920E-02 0. -1.
</event>
<event>
 5   0  0.1602809E-05  0.2297633E+04  0.7818609E-02  0.8478855E-01
        2   -1    0    0  501    0  0.00000000000E+00  0.00000000000E+00  0.19708473318E+04  0.19708473318E+04  0.25500000920E-02 0.  1.
       -2   -1    0    0    0  501  0.00000000000E+00  0.00000000000E+00 -0.66965072330E+03  0.66965072330E+03  0.25500000920E-02 0. -1.
    10030    2    1    2    0    0  0.00000000000E+00  0.00000000000E+00  0.13011966085E+04  0.26404980551E+04  0.22976329918E+04 0.  0.
        3    1    3    3  502    0 -0.74646512232E+03  0.49949594624E+03 -0.17258158793E+03  0.91459870646E+03  0.10100000352E+00 0. -1.
       -3    1    3    3    0  502  0.74646512232E+03 -0.49949594624E+03  0.14737781964E+04  0.17258993486E+04  0.10100000352E+00 0.  1.
</event>
<event>
 5   0  0.1635955E-05  0.2293161E+04  0.7818609E-02  0.8480622E-01
       -2   -1    0    0    0  501  0.00000000000E+00  0.00000000000E+00  0.54725653911E+03  0.54725653911E+03  0.25500000920E-02 0. -1.
        2   -1    0    0  501    0  0.00000000000E+00  0.00000000000E+00 -0.24022501117E+04  0.24022501117E+04  0.25500000920E-02 0.  1.
    10030    2    1    2    0    0  0.00000000000E+00  0.00000000000E+00 -0.18549935726E+04  0.29495066508E+04  0.22931612086E+04 0.  0.
        2    1    3    3  502    0 -0.96151648660E+03  0.49833623379E+03 -0.44316395025E+03  0.11701483849E+04  0.25500000920E-02 0. -1.
       -2    1    3    3    0  502  0.96151648660E+03 -0.49833623379E+03 -0.14118296224E+04  0.17793582659E+04  0.25500000920E-02 0.  1.
</event>
<event>
 5   0  0.1635955E-05  0.2305336E+04  0.7818609E-02  0.8475820E-01
        2   -1    0    0  501    0  0.00000000000E+00  0.00000000000E+00  0.22340873188E+04  0.22340873188E+04  0.25500000920E-02 0.  1.
       -2   -1    0    0    0  501  0.00000000000E+00  0.00000000000E+00 -0.59471443879E+03  0.59471443880E+03  0.25500000920E-02 0. -1.
    10030    2    1    2    0    0  0.00000000000E+00  0.00000000000E+00  0.16393728801E+04  0.28288017576E+04  0.23053364059E+04 0.  0.
        2    1    3    3  502    0  0.38452319549E+03 -0.10188089728E+02  0.21530073627E+04  0.21870991265E+04  0.25500000920E-02 0.  1.
       -2    1    3    3    0  502 -0.38452319549E+03  0.10188089728E+02 -0.51363448268E+03  0.64170263117E+03  0.25500000920E-02 0. -1.
</event>
<event>
 5   0  0.7416556E-06  0.2301644E+04  0.7818609E-02  0.8477273E-01
       -1   -1    0    0    0  501  0.00000000000E+00  0.00000000000E+00  0.71995745613E+03  0.71995745615E+03  0.50400001928E-02 0. -1.
        1   -1    0    0  501    0  0.00000000000E+00  0.00000000000E+00 -0.18395403367E+04  0.18395403367E+04  0.50400001928E-02 0.  1.
    10030    2    1    2    0    0  0.00000000000E+00  0.00000000000E+00 -0.11195828806E+04  0.25594977929E+04  0.23016435704E+04 0.  0.
        4    1    3    3  502    0 -0.13672275582E+03 -0.79010025081E+03 -0.14777641107E+04  0.16812911402E+04  0.12699999809E+01 0.  1.
       -4    1    3    3    0  502  0.13672275582E+03  0.79010025081E+03  0.35818123013E+03  0.87820665267E+03  0.12699999809E+01 0. -1.
</event>
<event>
 5   0  0.5704875E-06  0.2293342E+04  0.7818609E-02  0.8480551E-01
        3   -1    0    0  501    0  0.00000000000E+00  0.00000000000E+00  0.16181647002E+04  0.16181647034E+04  0.10100000352E+00 0.  1.
       -3   -1    0    0    0  501  0.00000000000E+00  0.00000000000E+00 -0.81255910990E+03  0.81255911617E+03  0.10100000352E+00 0. -1.
    10030    2    1    2    0    0  0.00000000000E+00  0.00000000000E+00  0.80560559034E+03  0.24307238196E+04  0.22933420852E+04 0.  0.
        4    1    3    3  502    0 -0.14487132504E+02  0.83802298458E+02 -0.80921104896E+03  0.81366875133E+03  0.12699999809E+01 0. -1.
       -4    1    3    3    0  502  0.14487132504E+02 -0.83802298458E+02  0.16148166393E+04  0.16170550682E+04  0.12699999809E+01 0.  1.
</event>
<event>
 5   0  0.1588969E-05  0.2298626E+04  0.7818609E-02  0.8478463E-01
        2   -1    0    0  501    0  0.00000000000E+00  0.00000000000E+00  0.20366065572E+04  0.20366065572E+04  0.25500000920E-02 0.  1.
       -2   -1    0    0    0  501  0.00000000000E+00  0.00000000000E+00 -0.64858868205E+03  0.64858868205E+03  0.25500000920E-02 0. -1.
    10030    2    1    2    0    0  0.00000000000E+00  0.00000000000E+00  0.13880178752E+04  0.26851952393E+04  0.22986256440E+04 0.  0.
        1    1    3    3  502    0 -0.58431549936E+03 -0.97124694953E+03  0.91619163156E+03  0.14574472016E+04  0.50400001928E-02 0.  1.
       -1    1    3    3    0  502  0.58431549936E+03  0.97124694953E+03  0.47182624361E+03  0.12277480376E+04  0.50400001928E-02 0. -1.
</event>
<event>
 5   0  0.1602809E-05  0.2299643E+04  0.7818609E-02  0.8478062E-01
        2   -1    0    0  501    0  0.00000000000E+00  0.00000000000E+00  0.11778734225E+04  0.11778734225E+04  0.25500000920E-02 0. -1.
       -2   -1    0    0    0  501  0.00000000000E+00  0.00000000000E+00 -0.11224373832E+04  0.11224373832E+04  0.25500000920E-02 0.  1.
    10030    2    1    2    0    0  0.00000000000E+00  0.00000000000E+00  0.55436039231E+02  0.23003108057E+04  0.22996427219E+04 0.  0.
        3    1    3    3  502    0 -0.41255900420E+03 -0.31071583911E+03 -0.99987779748E+03  0.11253909919E+04  0.10100000352E+00 0.  1.
       -3    1    3    3    0  502  0.41255900420E+03  0.31071583911E+03  0.10553138367E+04  0.11749198138E+04  0.10100000352E+00 0. -1.
</event>
<event>
 5   0  0.7202572E-06  0.2295973E+04  0.7818609E-02  0.8479510E-01
        1   -1    0    0  501    0  0.00000000000E+00  0.00000000000E+00  0.12251980836E+04  0.12251980836E+04  0.50400001928E-02 0.  1.
       -1   -1    0    0    0  501  0.00000000000E+00  0.00000000000E+00 -0.10756411432E+04  0.10756411432E+04  0.50400001928E-02 0. -1.
    10030    2    1    2    0    0  0.00000000000E+00  0.00000000000E+00  0.14955694037E+03  0.23008392268E+04  0.22959734034E+04 0.  0.
        2    1    3    3  502    0 -0.60124500036E+03  0.46098332878E+03 -0.78952968325E+03  0.10942386854E+04  0.25500000920E-02 0. -1.
       -2    1    3    3    0  502  0.60124500036E+03 -0.46098332878E+03  0.93908662362E+03  0.12066005414E+04  0.25500000920E-02 0.  1.
</event>
<event>
 5   0  0.1602809E-05  0.2302383E+04  0.7818609E-02  0.8476982E-01
       -2   -1    0    0    0  501  0.00000000000E+00  0.00000000000E+00  0.12322763608E+04  0.12322763608E+04  0.25500000920E-02 0. -1.
        2   -1    0    0  501    0  0.00000000000E+00  0.00000000000E+00 -0.10754425167E+04  0.10754425167E+04  0.25500000920E-02 0.  1.
    10030    2    1    2    0    0  0.00000000000E+00  0.00000000000E+00  0.15683384412E+03  0.23077188776E+04  0.23023834527E+04 0.  0.
        3    1    3    3  502    0 -0.35456828839E+03 -0.51555093630E+03  0.10469537132E+04  0.12196817318E+04  0.10100000352E+00 0. -1.
       -3    1    3    3    0  502  0.35456828839E+03  0.51555093630E+03 -0.89011986908E+03  0.10880371458E+04  0.10100000352E+00 0.  1.
</event>
<event>
 5   0  0.1635955E-05  0.2309082E+04  0.7818609E-02  0.8474349E-01
        2   -1    0    0  501    0  0.00000000000E+00  0.00000000000E+00  0.14706441769E+04  0.14706441769E+04  0.25500000920E-02 0.  1.
       -2   -1    0    0    0  501  0.00000000000E+00  0.00000000000E+00 -0.90638181900E+03  0.90638181901E+03  0.25500000920E-02 0. -1.
    10030    2    1    2    0    0  0.00000000000E+00  0.00000000000E+00  0.56426235790E+03  0.23770259959E+04  0.23090821936E+04 0.  0.
        2    1    3    3  502    0 -0.31682989554E+03  0.11071016963E+04  0.19656007528E+03  0.11681999880E+04  0.25500000920E-02 0. -1.
       -2    1    3    3    0  502  0.31682989554E+03 -0.11071016963E+04  0.36770228262E+03  0.12088260079E+04  0.25500000920E-02 0.  1.
</event>
<event>
 5   0  0.1602809E-05  0.2298862E+04  0.7818609E-02  0.8478370E-01
        2   -1    0    0  501    0  0.00000000000E+00  0.00000000000E+00  0.12831752606E+04  0.12831752606E+04  0.25500000920E-02 0.  1.
       -2   -1    0    0    0  501  0.00000000000E+00  0.00000000000E+00 -0.10296267980E+04  0.10296267980E+04  0.25500000920E-02 0. -1.
    10030    2    1    2    0    0  0.00000000000E+00  0.00000000000E+00  0.25354846264E+03  0.23128020586E+04  0.22988620096E+04 0.  0.
        3    1    3    3  502    0 -0.79692131472E+03  0.82797034020E+03  0.10268832787E+03  0.11537605336E+04  0.10100000352E+00 0. -1.
       -3    1    3    3    0  502  0.79692131472E+03 -0.82797034020E+03  0.15086013477E+03  0.11590415250E+04  0.10100000352E+00 0.  1.
</event>
<event>
 5   0  0.7278815E-06  0.2227274E+04  0.7818609E-02  0.8507161E-01
       -1   -1    0    0    0  501  0.00000000000E+00  0.00000000000E+00  0.94241452384E+03  0.94241452386E+03  0.50400001928E-02 0.  1.
        1   -1    0    0  501    0  0.00000000000E+00  0.00000000000E+00 -0.13159682769E+04  0.13159682769E+04  0.50400001928E-02 0. -1.
    10030    2    1    2    0    0  0.00000000000E+00  0.00000000000E+00 -0.37355375309E+03  0.22583828008E+04  0.22272742239E+04 0.  0.
        5    1    3    3  502    0  0.72238701907E+03 -0.15179546328E+03  0.65870429588E+03  0.98934236107E+03  0.46999998093E+01 0.  1.
       -5    1    3    3    0  502 -0.72238701907E+03  0.15179546328E+03 -0.10322580490E+04  0.12690404397E+04  0.46999998093E+01 0. -1.
</event>
<event>
 5   0  0.7278815E-06  0.2303061E+04  0.7818609E-02  0.8476715E-01
       -1   -1    0    0    0  501  0.00000000000E+00  0.00000000000E+00  0.73258065416E+03  0.73258065418E+03  0.50400001928E-02 0.  1.
        1   -1    0    0  501    0  0.00000000000E+00  0.00000000000E+00 -0.18100698122E+04  0.18100698122E+04  0.50400001928E-02 0. -1.
    10030    2    1    2    0    0  0.00000000000E+00  0.00000000000E+00 -0.10774891580E+04  0.25426504663E+04  0.23030606827E+04 0.  0.
        5    1    3    3  502    0 -0.63567070784E+03  0.19416535729E+03 -0.15768993099E+04  0.17112600499E+04  0.46999998093E+01 0. -1.
       -5    1    3    3    0  502  0.63567070784E+03 -0.19416535729E+03  0.49941015189E+03  0.83139041646E+03  0.46999998093E+01 0.  1.
</event>
<event>
 5   0  0.1588969E-05  0.2297677E+04  0.7818609E-02  0.8478838E-01
        2   -1    0    0  501    0  0.00000000000E+00  0.00000000000E+00  0.23440479300E+04  0.23440479300E+04  0.25500000920E-02 0. -1.
       -2   -1    0    0    0  501  0.00000000000E+00  0.00000000000E+00 -0.56305590258E+03  0.56305590259E+03  0.25500000920E-02 0.  1.
    10030    2    1    2    0    0  0.00000000000E+00  0.00000000000E+00  0.17809920274E+04  0.29071038326E+04  0.22976771078E+04 0.  0.
        1    1    3    3  502    0 -0.17010236890E+03  0.72554693608E+03  0.19967471144E+04  0.21312794775E+04  0.50400001928E-02 0. -1.
       -1    1    3    3    0  502  0.17010236890E+03 -0.72554693608E+03 -0.21575508698E+03  0.77582435508E+03  0.50400001928E-02 0.  1.
</event>
<event>
 5   0  0.7202572E-06  0.2288409E+04  0.7818609E-02  0.8482505E-01
        1   -1    0    0  501    0  0.00000000000E+00  0.00000000000E+00  0.55143864951E+03  0.55143864954E+03  0.50400001928E-02 0. -1.
       -1   -1    0    0    0  501  0.00000000000E+00  0.00000000000E+00 -0.23741612147E+04  0.23741612147E+04  0.50400001928E-02 0.  1.
    10030    2    1    2    0    0  0.00000000000E+00  0.00000000000E+00 -0.18227225651E+04  0.29255998642E+04  0.22884092763E+04 0.  0.
        2    1    3    3  502    0 -0.74810306013E+03 -0.86565886012E+03 -0.92855161939E+03  0.14735099459E+04  0.25500000920E-02 0.  1.
       -2    1    3    3    0  502  0.74810306013E+03  0.86565886012E+03 -0.89417094575E+03  0.14520899183E+04  0.25500000920E-02 0. -1.
</event>
<event>
 5   0  0.1635955E-05  0.2303966E+04  0.7818609E-02  0.8476359E-01
       -2   -1    0    0    0  501  0.00000000000E+00  0.00000000000E+00  0.16839813997E+04  0.16839813997E+04  0.25500000920E-02 0. -1.
        2   -1    0    0  501    0  0.00000000000E+00  0.00000000000E+00 -0.78805188087E+03  0.78805188088E+03  0.25500000920E-02 0.  1.
    10030    2    1    2    0    0  0.00000000000E+00  0.00000000000E+00  0.89592951885E+03  0.24720332806E+04  0.23039658933E+04 0.  0.
        2    1    3    3  502    0 -0.55984668146E+03  0.55940418090E+03  0.13461075107E+04  0.15615270650E+04  0.25500000920E-02 0. -1.
       -2    1    3    3    0  502  0.55984668146E+03 -0.55940418090E+03 -0.45017799184E+03  0.91050621562E+03  0.25500000920E-02 0.  1.
</event>
<event>
 5   0  0.7391007E-06  0.2293754E+04  0.7818609E-02  0.8480388E-01
       -1   -1    0    0    0  501  0.00000000000E+00  0.00000000000E+00  0.10192444334E+04  0.10192444334E+04  0.50400001928E-02 0. -1.
        1   -1    0    0  501    0  0.00000000000E+00  0.00000000000E+00 -0.12904923731E+04  0.12904923731E+04  0.50400001928E-02 0.  1.
    10030    2    1    2    0    0  0.00000000000E+00  0.00000000000E+00 -0.27124793964E+03  0.23097368065E+04  0.22937542742E+04 0.  0.
        1    1    3    3  502    0 -0.11014363707E+04  0.28927721362E+03  0.12784203488E+01  0.11387910341E+04  0.50400001928E-02 0. -1.
       -1    1    3    3    0  502  0.11014363707E+04 -0.28927721362E+03 -0.27252635999E+03  0.11709457724E+04  0.50400001928E-02 0.  1.
</event>
<event>
 5   0  0.1626636E-05  0.2303030E+04  0.7818609E-02  0.8476728E-01
        2   -1    0    0  501    0  0.00000000000E+00  0.00000000000E+00  0.24776366569E+04  0.24776366569E+04  0.25500000920E-02 0.  1.
       -2   -1    0    0    0  501  0.00000000000E+00  0.00000000000E+00 -0.53518194021E+03  0.53518194021E+03  0.25500000920E-02 0. -1.
    10030    2    1    2    0    0  0.00000000000E+00  0.00000000000E+00  0.19424547167E+04  0.30128185971E+04  0.23030296508E+04 0.  0.
        4    1    3    3  502    0  0.38513355489E+03  0.52697859446E+03 -0.26980401883E+03  0.70627906354E+03  0.12699999809E+01 0. -1.
       -4    1    3    3    0  502 -0.38513355489E+03 -0.52697859446E+03  0.22122587355E+04  0.23065395335E+04  0.12699999809E+01 0.  1.
</event>
<event>
 5   0  0.7416556E-06  0.2296331E+04  0.7818609E-02  0.8479369E-01
        1   -1    0    0  501    0  0.00000000000E+00  0.00000000000E+00  0.15493836269E+04  0.15493836269E+04  0.50400001928E-02 0. -1.
       -1   -1    0    0    0  501  0.00000000000E+00  0.00000000000E+00 -0.85084418256E+03  0.85084418258E+03  0.50400001928E-02 0.  1.
    10030    2    1    2    0    0  0.00000000000E+00  0.00000000000E+00  0.69853944435E+03  0.24002278095E+04  0.22963310263E+04 0.  0.
        4    1    3    3  502    0 -0.82858517725E+03 -0.34592685805E+03  0.10972324235E+04  0.14177938465E+04  0.12699999809E+01 0. -1.
       -4    1    3    3    0  502  0.82858517725E+03  0.34592685805E+03 -0.39869297918E+03  0.98243396298E+03  0.12699999809E+01 0.  1.
</event>
<event>
 5   0  0.1697855E-05  0.2298119E+04  0.7818609E-02  0.8478663E-01
       -2   -1    0    0    0  501  0.00000000000E+00  0.00000000000E+00  0.88318279706E+03  0.88318279706E+03  0.25500000920E-02 0. -1.
        2   -1    0    0  501    0  0.00000000000E+00  0.00000000000E+00 -0.14949761774E+04  0.14949761774E+04  0.25500000920E-02 0.  1.
    10030    2    1    2    0    0  0.00000000000E+00  0.00000000000E+00 -0.61179338036E+03  0.23781589745E+04  0.22981185713E+04 0.  0.
        5    1    3    3  502    0 -0.37662200700E+03  0.81033438038E+03 -0.10534336025E+04  0.13813871250E+04  0.46999998093E+01 0.  1.
       -5    1    3    3    0  502  0.37662200700E+03 -0.81033438038E+03  0.44164022213E+03  0.99677184951E+03  0.46999998093E+01 0. -1.
</event>
<event>
 5   0  0.7416556E-06  0.2307910E+04  0.7818609E-02  0.8474809E-01
        1   -1    0    0  501    0  0.00000000000E+00  0.00000000000E+00  0.11644496378E+04  0.11644496379E+04  0.50400001928E-02 0.  1.
       -1   -1    0    0    0  501  0.00000000000E+00  0.00000000000E+00 -0.11435546476E+04  0.11435546476E+04  0.50400001928E-02 0. -1.
    10030    2    1    2    0    0  0.00000000000E+00  0.00000000000E+00  0.20894990276E+02  0.23080042854E+04  0.23079096995E+04 0.  0.
        4    1    3    3  502    0 -0.53598015444E+03  0.44938018910E+03 -0.90740976591E+03  0.11456925314E+04  0.12699999809E+01 0. -1.
       -4    1    3    3    0  502  0.53598015444E+03 -0.44938018910E+03  0.92830475619E+03  0.11623117540E+04  0.12699999809E+01 0.  1.
</event>
<event>
 5   0  0.7278815E-06  0.2301234E+04  0.7818609E-02  0.8477435E-01
       -1   -1    0    0    0  501  0.00000000000E+00  0.00000000000E+00  0.20959382628E+04  0.20959382628E+04  0.50400001928E-02 0.  1.
        1   -1    0    0  501    0  0.00000000000E+00  0.00000000000E+00 -0.63165974100E+03  0.63165974102E+03  0.50400001928E-02 0. -1.
    10030    2    1    2    0    0  0.00000000000E+00  0.00000000000E+00  0.14642785218E+04  0.27275980038E+04  0.23012342951E+04 0.  0.
        5    1    3    3  502    0  0.57392712866E+03 -0.92129145148E+03  0.27966883526E+03  0.11208956396E+04  0.46999998093E+01 0. -1.
       -5    1    3    3    0  502 -0.57392712866E+03  0.92129145148E+03  0.11846096865E+04  0.16067023642E+04  0.46999998093E+01 0.  1.
</event>
<event>
 5   0  0.1588969E-05  0.2317405E+04  0.7818609E-02  0.8471090E-01
        2   -1    0    0  501    0  0.00000000000E+00  0.00000000000E+00  0.13686133364E+04  0.13686133364E+04  0.25500000920E-02 0.  1.
       -2   -1    0    0    0  501  0.00000000000E+00  0.00000000000E+00 -0.98098681192E+03  0.98098681192E+03  0.25500000920E-02 0. -1.
    10030    2    1    2    0    0  0.00000000000E+00  0.00000000000E+00  0.38762652452E+03  0.23496001484E+04  0.23174051296E+04 0.  0.
        1    1    3    3  502    0 -0.34257190097E+03  0.83138222705E+03  0.93474598635E+03  0.12970358414E+04  0.50400001928E-02 0.  1.
       -1    1    3    3    0  502  0.34257190097E+03 -0.83138222705E+03 -0.54711946183E+03  0.10525643070E+04  0.50400001928E-02 0. -1.
</event>
<event>
 5   0  0.7183014E-06  0.2297675E+04  0.7818609E-02  0.8478838E-01
       -1   -1    0    0    0  501  0.00000000000E+00  0.00000000000E+00  0.62744434739E+03  0.62744434741E+03  0.50400001928E-02 0.  1.
        1   -1    0    0  501    0  0.00000000000E+00  0.00000000000E+00 -0.21034975522E+04  0.21034975522E+04  0.50400001928E-02 0. -1.
    10030    2    1    2    0    0  0.00000000000E+00  0.00000000000E+00 -0.14760532048E+04  0.27309418996E+04  0.22976750414E+04 0.  0.
        3    1    3    3  502    0  0.76476594803E+03 -0.23017985279E+03  0.24351567530E+03  0.83495485759E+03  0.10100000352E+00 0.  1.
       -3    1    3    3    0  502 -0.76476594803E+03  0.23017985279E+03 -0.17195688801E+04  0.18959870421E+04  0.10100000352E+00 0. -1.
</event>
<event>
 5   0  0.1588969E-05  0.2300547E+04  0.7818609E-02  0.8477706E-01
        2   -1    0    0  501    0  0.00000000000E+00  0.00000000000E+00  0.19272339875E+04  0.19272339875E+04  0.25500000920E-02 0.  1.
       -2   -1    0    0    0  501  0.00000000000E+00  0.00000000000E+00 -0.68654289583E+03  0.68654289583E+03  0.25500000920E-02 0. -1.
    10030    2    1    2    0    0  0.00000000000E+00  0.00000000000E+00  0.12406910917E+04  0.26137768833E+04  0.23005467200E+04 0.  0.
        1    1    3    3  502    0 -0.89848724554E+02  0.30391619394E+03 -0.63596152826E+03  0.71055253971E+03  0.50400001928E-02 0. -1.
       -1    1    3    3    0  502  0.89848724554E+02 -0.30391619394E+03  0.18766526199E+04  0.19032243436E+04  0.50400001928E-02 0.  1.
</event>
<event>
 5   0  0.7183014E-06  0.2291873E+04  0.7818609E-02  0.8481132E-01
       -1   -1    0    0    0  501  0.00000000000E+00  0.00000000000E+00  0.15938934166E+04  0.15938934166E+04  0.50400001928E-02 0.  1.
        1   -1    0    0  501    0  0.00000000000E+00  0.00000000000E+00 -0.82387592205E+03  0.82387592207E+03  0.50400001928E-02 0. -1.
    10030    2    1    2    0    0  0.00000000000E+00  0.00000000000E+00  0.77001749454E+03  0.24177693387E+04  0.22918729531E+04 0.  0.
        3    1    3    3  502    0  0.97800516603E+03 -0.49054310889E+02  0.10129102107E+04  0.14088603676E+04  0.10100000352E+00 0.  1.
       -3    1    3    3    0  502 -0.97800516603E+03  0.49054310889E+02 -0.24289271615E+03  0.10089089711E+04  0.10100000352E+00 0. -1.
</event>
<event>
 5   0  0.7278815E-06  0.2306296E+04  0.7818609E-02  0.8475443E-01
        1   -1    0    0  501    0  0.00000000000E+00  0.00000000000E+00  0.11551543883E+04  0.11551543883E+04  0.50400001928E-02 0.  1.
       -1   -1    0    0    0  501  0.00000000000E+00  0.00000000000E+00 -0.11511446986E+04  0.11511446987E+04  0.50400001928E-02 0. -1.
    10030    2    1    2    0    0  0.00000000000E+00  0.00000000000E+00  0.40096896500E+01  0.23062990870E+04  0.23062956014E+04 0.  0.
        5    1    3    3  502    0 -0.28515164250E+03 -0.51336247794E+03  0.99441516531E+03  0.11548749300E+04  0.46999998093E+01 0.  1.
       -5    1    3    3    0  502  0.28515164250E+03  0.51336247794E+03 -0.99040547566E+03  0.11514241569E+04  0.46999998093E+01 0. -1.
</event>
<event>
 5   0  0.1626636E-05  0.2297653E+04  0.7818609E-02  0.8478847E-01
        2   -1    0    0  501    0  0.00000000000E+00  0.00000000000E+00  0.95037590599E+03  0.95037590599E+03  0.25500000920E-02 0.  1.
       -2   -1    0    0    0  501  0.00000000000E+00  0.00000000000E+00 -0.13887161665E+04  0.13887161665E+04  0.25500000920E-02 0. -1.
    10030    2    1    2    0    0  0.00000000000E+00  0.00000000000E+00 -0.43834026046E+03  0.23390920724E+04  0.22976530503E+04 0.  0.
        4    1    3    3  502    0  0.22268259947E+03  0.82026251734E+03 -0.10060150839E+04  0.13169988988E+04  0.12699999809E+01 0. -1.
       -4    1    3    3    0  502 -0.22268259947E+03 -0.82026251734E+03  0.56767482348E+03  0.10220931736E+04  0.12699999809E+01 0.  1.
</event>
<event>
 5   0  0.1635955E-05  0.2301460E+04  0.7818609E-02  0.8477346E-01
        2   -1    0    0  501    0  0.00000000000E+00  0.00000000000E+00  0.12623369218E+04  0.12623369218E+04  0.25500000920E-02 0.  1.
       -2   -1    0    0    0  501  0.00000000000E+00  0.00000000000E+00 -0.10489906570E+04  0.10489906570E+04  0.25500000920E-02 0. -1.
    10030    2    1    2    0    0  0.00000000000E+00  0.00000000000E+00  0.21334626479E+03  0.23113275788E+04  0.23014600904E+04 0.  0.
        2    1    3    3  502    0  0.91575640004E+03  0.47882069899E+03 -0.40175884449E+03  0.11087331578E+04  0.25500000920E-02 0.  1.
       -2    1    3    3    0  502 -0.91575640004E+03 -0.47882069899E+03  0.61510510928E+03  0.12025944210E+04  0.25500000920E-02 0. -1.
</event>
<event>
 5   0  0.7416556E-06  0.2254508E+04  0.7818609E-02  0.8496077E-01
       -1   -1    0    0    0  501  0.00000000000E+00  0.00000000000E+00  0.89672676424E+03  0.89672676426E+03  0.50400001928E-02 0. -1.
        1   -1    0    0  501    0  0.00000000000E+00  0.00000000000E+00 -0.14170442859E+04  0.14170442859E+04  0.50400001928E-02 0.  1.
    10030    2    1    2    0    0  0.00000000000E+00  0.00000000000E+00 -0.52031752162E+03  0.23137710501E+04  0.22545079616E+04 0.  0.
        4    1    3    3  502    0 -0.12312056353E+03 -0.61227634630E+03  0.70294367322E+03  0.94030442837E+03  0.12699999809E+01 0. -1.
       -4    1    3    3    0  502  0.12312056353E+03  0.61227634630E+03 -0.12232611948E+04  0.13734666218E+04  0.12699999809E+01 0.  1.
</event>
<event>
 5   0  0.1697855E-05  0.2296257E+04  0.7818609E-02  0.8479398E-01
       -2   -1    0    0    0  501  0.00000000000E+00  0.00000000000E+00  0.69792340950E+03  0.69792340951E+03  0.25500000920E-02 0.  1.
        2   -1    0    0  501    0  0.00000000000E+00  0.00000000000E+00 -0.18887444515E+04  0.18887444515E+04  0.25500000920E-02 0. -1.
    10030    2    1    2    0    0  0.00000000000E+00  0.00000000000E+00 -0.11908210420E+04  0.25866678610E+04  0.22962569257E+04 0.  0.
        5    1    3    3  502    0  0.39605853398E+03  0.89682995509E+03 -0.12684812605E+04  0.16031946635E+04  0.46999998093E+01 0.  1.
       -5    1    3    3    0  502 -0.39605853398E+03 -0.89682995509E+03  0.77660218547E+02  0.98347319752E+03  0.46999998093E+01 0. -1.
</event>
<event>
 5   0  0.7391007E-06  0.2279801E+04  0.7818609E-02  0.8485928E-01
       -1   -1    0    0    0  501  0.00000000000E+00  0.00000000000E+00  0.10333277364E+04  0.10333277364E+04  0.50400001928E-02 0.  1.
        1   -1    0    0  501    0  0.00000000000E+00  0.00000000000E+00 -0.12574646791E+04  0.12574646791E+04  0.50400001928E-02 0. -1.
    10030    2    1    2    0    0  0.00000000000E+00  0.00000000000E+00 -0.22413694272E+03  0.22907924155E+04  0.22798009829E+04 0.  0.
        1    1    3    3  502    0 -0.39974141567E+03  0.28855223035E+03  0.92065975175E+03  0.10443514579E+04  0.50400001928E-02 0.  1.
       -1    1    3    3    0  502  0.39974141567E+03 -0.28855223035E+03 -0.11447966945E+04  0.12464409576E+04  0.50400001928E-02 0. -1.
</event>
<event>
 5   0  0.1626636E-05  0.2305449E+04  0.7818609E-02  0.8475776E-01
       -2   -1    0    0    0  501  0.00000000000E+00  0.00000000000E+00  0.18859785479E+04  0.18859785479E+04  0.25500000920E-02 0.  1.
        2   -1    0    0  501    0  0.00000000000E+00  0.00000000000E+00 -0.70455380980E+03  0.70455380981E+03  0.25500000920E-02 0. -1.
    10030    2    1    2    0    0  0.00000000000E+00  0.00000000000E+00  0.11814247381E+04  0.25905323577E+04  0.23054486515E+04 0.  0.
        4    1    3    3  502    0  0.82017280577E+02  0.39076668033E+03  0.18057931320E+04  0.18494096034E+04  0.12699999809E+01 0.  1.
       -4    1    3    3    0  502 -0.82017280577E+02 -0.39076668033E+03 -0.62436839388E+03  0.74112275430E+03  0.12699999809E+01 0. -1.
</event>
<event>
 5   0  0.7202572E-06  0.2318979E+04  0.7818609E-02  0.8470475E-01
       -1   -1    0    0    0  501  0.00000000000E+00  0.00000000000E+00  0.51182394893E+03  0.51182394895E+03  0.50400001928E-02 0.  1.
        1   -1    0    0  501    0  0.00000000000E+00  0.00000000000E+00 -0.26267147451E+04  0.26267147451E+04  0.50400001928E-02 0. -1.
    10030    2    1    2    0    0  0.00000000000E+00  0.00000000000E+00 -0.21148907962E+04  0.31385386941E+04  0.23189786662E+04 0.  0.
        2    1    3    3  502    0 -0.19262918206E+03  0.84912916053E+03 -0.21142592633E+02  0.87096116002E+03  0.25500000920E-02 0.  1.
       -2    1    3    3    0  502  0.19262918206E+03 -0.84912916053E+03 -0.20937482035E+04  0.22675775340E+04  0.25500000920E-02 0. -1.
</event>
<event>
 5   0  0.7202572E-06  0.2329443E+04  0.7818609E-02  0.8466402E-01
       -1   -1    0    0    0  501  0.00000000000E+00  0.00000000000E+00  0.11808979934E+04  0.11808979934E+04  0.50400001928E-02 0. -1.
        1   -1    0    0  501    0  0.00000000000E+00  0.00000000000E+00 -0.11487661272E+04  0.11487661273E+04  0.50400001928E-02 0.  1.
    10030    2    1    2    0    0  0.00000000000E+00  0.00000000000E+00  0.32131866124E+02  0.23296641206E+04  0.23294425209E+04 0.  0.
        2    1    3    3  502    0 -0.29707373234E+03  0.10001798598E+04  0.53376666240E+03  0.11719724418E+04  0.25500000920E-02 0. -1.
       -2    1    3    3    0  502  0.29707373234E+03 -0.10001798598E+04 -0.50163479628E+03  0.11576916788E+04  0.25500000920E-02 0.  1.
</event>
<event>
 5   0  0.1635955E-05  0.2314026E+04  0.7818609E-02  0.8472411E-01
        2   -1    0    0  501    0  0.00000000000E+00  0.00000000000E+00  0.11032154677E+04  0.11032154677E+04  0.25500000920E-02 0.  1.
       -2   -1    0    0    0  501  0.00000000000E+00  0.00000000000E+00 -0.12134343747E+04  0.12134343747E+04  0.25500000920E-02 0. -1.
    10030    2    1    2    0    0  0.00000000000E+00  0.00000000000E+00 -0.11021890699E+03  0.23166498423E+04  0.23140264226E+04 0.  0.
        2    1    3    3  502    0  0.35289823778E+03  0.10781204319E+04 -0.28296084074E+03  0.11691653729E+04  0.25500000920E-02 0. -1.
       -2    1    3    3    0  502 -0.35289823778E+03 -0.10781204319E+04  0.17274193375E+03  0.11474844694E+04  0.25500000920E-02 0.  1.
</event>
<event>
 5   0  0.7278815E-06  0.2301137E+04  0.7818609E-02  0.8477473E-01
       -1   -1    0    0    0  501  0.00000000000E+00  0.00000000000E+00  0.94099841428E+03  0.94099841430E+03  0.50400001928E-02 0. -1.
        1   -1    0    0  501    0  0.00000000000E+00  0.00000000000E+00 -0.14068119818E+04  0.14068119818E+04  0.50400001928E-02 0.  1.
    10030    2    1    2    0    0  0.00000000000E+00  0.00000000000E+00 -0.46581356753E+03  0.23478103961E+04  0.23011369747E+04 0.  0.
        5    1    3    3  502    0  0.82799701032E+03  0.12009782134E+03  0.57291201361E+03  0.10140280081E+04  0.46999998093E+01 0. -1.
       -5    1    3    3    0  502 -0.82799701032E+03 -0.12009782134E+03 -0.10387255811E+04  0.13337823881E+04  0.46999998093E+01 0.  1.
</event>
<event>
 5   0  0.7416556E-06  0.2294714E+04  0.7818609E-02  0.8480008E-01
       -1   -1    0    0    0  501  0.00000000000E+00  0.00000000000E+00  0.14285752935E+04  0.14285752935E+04  0.50400001928E-02 0.  1.
        1   -1    0    0  501    0  0.00000000000E+00  0.00000000000E+00 -0.92149714108E+03  0.92149714110E+03  0.50400001928E-02 0. -1.
    10030    2    1    2    0    0  0.00000000000E+00  0.00000000000E+00  0.50707815245E+03  0.23500724346E+04  0.22947139681E+04 0.  0.
        4    1    3    3  502    0 -0.42098578905E+03  0.10372202640E+04 -0.42709299011E+01  0.11194082206E+04  0.12699999809E+01 0. -1.
       -4    1    3    3    0  502  0.42098578905E+03 -0.10372202640E+04  0.51134908236E+03  0.12306642140E+04  0.12699999809E+01 0.  1.
</event>
<event>
 5   0  0.7278815E-06  0.2291234E+04  0.7818609E-02  0.8481385E-01
        1   -1    0    0  501    0  0.00000000000E+00  0.00000000000E+00  0.13028077101E+04  0.13028077101E+04  0.50400001928E-02 0. -1.
       -1   -1    0    0    0  501  0.00000000000E+00  0.00000000000E+00 -0.10073925499E+04  0.10073925499E+04  0.50400001928E-02 0.  1.
    10030    2    1    2    0    0  0.00000000000E+00  0.00000000000E+00  0.29541516019E+03  0.23102002600E+04  0.22912344106E+04 0.  0.
        5    1    3    3  502    0  0.10865386623E+03  0.44731265232E+03  0.12054491007E+04  0.12903580495E+04  0.46999998093E+01 0. -1.
       -5    1    3    3    0  502 -0.10865386623E+03 -0.44731265232E+03 -0.91003394047E+03  0.10198422105E+04  0.46999998093E+01 0.  1.
</event>
<event>
 5   0  0.1635955E-05  0.2273010E+04  0.7818609E-02  0.8488640E-01
        2   -1    0    0  501    0  0.00000000000E+00  0.00000000000E+00  0.16367714501E+04  0.16367714501E+04  0.25500000920E-02 0.  1.
       -2   -1    0    0    0  501  0.00000000000E+00  0.00000000000E+00 -0.78914095404E+03  0.78914095405E+03  0.25500000920E-02 0. -1.
    10030    2    1    2    0    0  0.00000000000E+00  0.00000000000E+00  0.84763049608E+03  0.24259124042E+04  0.22730097965E+04 0.  0.
        2    1    3    3  502    0 -0.19930234157E+03  0.11188799587E+04  0.41800883909E+03  0.12109274028E+04  0.25500000920E-02 0.  1.
       -2    1    3    3    0  502  0.19930234157E+03 -0.11188799587E+04  0.42962165699E+03  0.12149850013E+04  0.25500000920E-02 0. -1.
</event>
<event>
 5   0  0.1635955E-05  0.2300498E+04  0.7818609E-02  0.8477725E-01
       -2   -1    0    0    0  501  0.00000000000E+00  0.00000000000E+00  0.10206468873E+04  0.10206468873E+04  0.25500000920E-02 0.  1.
        2   -1    0    0  501    0  0.00000000000E+00  0.00000000000E+00 -0.12963075764E+04  0.12963075764E+04  0.25500000920E-02 0. -1.
    10030    2    1    2    0    0  0.00000000000E+00  0.00000000000E+00 -0.27566068907E+03  0.23169544637E+04  0.23004975922E+04 0.  0.
        2    1    3    3  502    0  0.26399525997E+03 -0.65543048314E+03 -0.10519517701E+04  0.12672352355E+04  0.25500000920E-02 0. -1.
       -2    1    3    3    0  502 -0.26399525997E+03  0.65543048314E+03  0.77629108106E+03  0.10497192282E+04  0.25500000920E-02 0.  1.
</event>
<event>
 5   0  0.7391007E-06  0.2284596E+04  0.7818609E-02  0.8484020E-01
        1   -1    0    0  501    0  0.00000000000E+00  0.00000000000E+00  0.18304445616E+04  0.18304445616E+04  0.50400001928E-02 0.  1.
       -1   -1    0    0    0  501  0.00000000000E+00  0.00000000000E+00 -0.71285657979E+03  0.71285657981E+03  0.50400001928E-02 0. -1.
    10030    2    1    2    0    0  0.00000000000E+00  0.00000000000E+00  0.11175879818E+04  0.25433011414E+04  0.22845957627E+04 0.  0.
        1    1    3    3  502    0 -0.10046274119E+04  0.81238681095E+02  0.11572244127E+04  0.15346153594E+04  0.50400001928E-02 0.  1.
       -1    1    3    3    0  502  0.10046274119E+04 -0.81238681095E+02 -0.39636430873E+02  0.10086857820E+04  0.50400001928E-02 0. -1.
</event>
<event>
 5   0  0.1602809E-05  0.2307622E+04  0.7818609E-02  0.8474922E-01
       -2   -1    0    0    0  501  0.00000000000E+00  0.00000000000E+00  0.26447654678E+04  0.26447654678E+04  0.25500000920E-02 0. -1.
        2   -1    0    0  501    0  0.00000000000E+00  0.00000000000E+00 -0.50336381980E+03  0.50336381981E+03  0.25500000920E-02 0.  1.
    10030    2    1    2    0    0  0.00000000000E+00  0.00000000000E+00  0.21414016480E+04  0.31481292876E+04  0.23076215014E+04 0.  0.
        3    1    3    3  502    0  0.44528983069E+03 -0.43648081181E+03  0.23951162086E+04  0.24749505440E+04  0.10100000352E+00 0. -1.
       -3    1    3    3    0  502 -0.44528983069E+03  0.43648081181E+03 -0.25371456060E+03  0.67317874361E+03  0.10100000352E+00 0.  1.
</event>
<event>
 5   0  0.1602809E-05  0.2310213E+04  0.7818609E-02  0.8473905E-01
        2   -1    0    0  501    0  0.00000000000E+00  0.00000000000E+00  0.12056269426E+04  0.12056269426E+04  0.25500000920E-02 0. -1.
       -2   -1    0    0    0  501  0.00000000000E+00  0.00000000000E+00 -0.11067028259E+04  0.11067028259E+04  0.25500000920E-02 0.  1.
    10030    2    1    2    0    0  0.00000000000E+00  0.00000000000E+00  0.98924116702E+02  0.23123297686E+04  0.23102127559E+04 0.  0.
        3    1    3    3  502    0 -0.11082476017E+04 -0.32144531089E+03 -0.28438397342E+01  0.11539271780E+04  0.10100000352E+00 0. -1.
       -3    1    3    3    0  502  0.11082476017E+04  0.32144531089E+03  0.10176795644E+03  0.11584025905E+04  0.10100000352E+00 0.  1.
</event>
<event>
 5   0  0.1626636E-05  0.2297482E+04  0.7818609E-02  0.8478914E-01
       -2   -1    0    0    0  501  0.00000000000E+00  0.00000000000E+00  0.81697749055E+03  0.81697749056E+03  0.25500000920E-02 0.  1.
        2   -1    0    0  501    0  0.00000000000E+00  0.00000000000E+00 -0.16152297448E+04  0.16152297448E+04  0.25500000920E-02 0. -1.
    10030    2    1    2    0    0  0.00000000000E+00  0.00000000000E+00 -0.79825225427E+03  0.24322072354E+04  0.22974823991E+04 0.  0.
        4    1    3    3  502    0  0.51462454639E+03 -0.97624933880E+03 -0.61515267119E+02  0.11052994781E+04  0.12699999809E+01 0.  1.
       -4    1    3    3    0  502 -0.51462454639E+03  0.97624933880E+03 -0.73673698715E+03  0.13269077573E+04  0.12699999809E+01 0. -1.
</event>
<event>
 5   0  0.7416556E-06  0.2294791E+04  0.7818609E-02  0.8479978E-01
       -1   -1    0    0    0  501  0.00000000000E+00  0.00000000000E+00  0.17490802991E+04  0.17490802991E+04  0.50400001928E-02 0. -1.
        1   -1    0    0  501    0  0.00000000000E+00  0.00000000000E+00 -0.75269069060E+03  0.75269069062E+03  0.50400001928E-02 0.  1.
    10030    2    1    2    0    0  0.00000000000E+00  0.00000000000E+00  0.99638960853E+03  0.25017709898E+04  0.22947910217E+04 0.  0.
        4    1    3    3  502    0  0.28411703833E+03 -0.79553841490E+03 -0.34831308167E+03  0.91374366034E+03  0.12699999809E+01 0.  1.
       -4    1    3    3    0  502 -0.28411703833E+03  0.79553841490E+03  0.13447026902E+04  0.15880273294E+04  0.12699999809E+01 0. -1.
</event>
<event>
 5   0  0.7416556E-06  0.2303417E+04  0.7818609E-02  0.8476575E-01
       -1   -1    0    0    0  501  0.00000000000E+00  0.00000000000E+00  0.17741004406E+04  0.17741004406E+04  0.50400001928E-02 0.  1.
        1   -1    0    0  501    0  0.00000000000E+00  0.00000000000E+00 -0.74766482676E+03  0.74766482677E+03  0.50400001928E-02 0. -1.
    10030    2    1    2    0    0  0.00000000000E+00  0.00000000000E+00  0.10264356139E+04  0.25217652674E+04  0.23034170257E+04 0.  0.
        4    1    3    3  502    0 -0.11386637251E+04 -0.49760900523E+02  0.69443719926E+03  0.13346444705E+04  0.12699999809E+01 0. -1.
       -4    1    3    3    0  502  0.11386637251E+04  0.49760900523E+02  0.33199841462E+03  0.11871207969E+04  0.12699999809E+01 0.  1.
</event>
<event>
 5   0  0.1697855E-05  0.2313012E+04  0.7818609E-02  0.8472808E-01
        2   -1    0    0  501    0  0.00000000000E+00  0.00000000000E+00  0.18793683022E+04  0.18793683022E+04  0.25500000920E-02 0. -1.
       -2   -1    0    0    0  501  0.00000000000E+00  0.00000000000E+00 -0.71167876159E+03  0.71167876159E+03  0.25500000920E-02 0.  1.
    10030    2    1    2    0    0  0.00000000000E+00  0.00000000000E+00  0.11676895406E+04  0.25910470638E+04  0.23130123267E+04 0.  0.
        5    1    3    3  502    0  0.37149619300E+03 -0.50487805598E+03  0.16725621377E+04  0.17861683760E+04  0.46999998093E+01 0. -1.
       -5    1    3    3    0  502 -0.37149619300E+03  0.50487805598E+03 -0.50487259710E+03  0.80487868783E+03  0.46999998093E+01 0.  1.
</event>
<event>
 5   0  0.7416556E-06  0.2323833E+04  0.7818609E-02  0.8468583E-01
       -1   -1    0    0    0  501  0.00000000000E+00  0.00000000000E+00  0.71539600669E+03  0.71539600670E+03  0.50400001928E-02 0. -1.
        1   -1    0    0  501    0  0.00000000000E+00  0.00000000000E+00 -0.18871364624E+04  0.18871364624E+04  0.50400001928E-02 0.  1.
    10030    2    1    2    0    0  0.00000000000E+00  0.00000000000E+00 -0.11717404557E+04  0.26025324691E+04  0.23238329452E+04 0.  0.
        4    1    3    3  502    0 -0.56513500938E+03  0.96653191859E+03 -0.23799373229E+03  0.11446414976E+04  0.12699999809E+01 0. -1.
       -4    1    3    3    0  502  0.56513500938E+03 -0.96653191859E+03 -0.93374672344E+03  0.14578909715E+04  0.12699999809E+01 0.  1.
</event>
<event>
 5   0  0.1602809E-05  0.2300143E+04  0.7818609E-02  0.8477865E-01
       -2   -1    0    0    0  501  0.00000000000E+00  0.00000000000E+00  0.82527654045E+03  0.82527654045E+03  0.25500000920E-02 0. -1.
        2   -1    0    0  501    0  0.00000000000E+00  0.00000000000E+00 -0.16026926963E+04  0.16026926964E+04  0.25500000920E-02 0.  1.
    10030    2    1    2    0    0  0.00000000000E+00  0.00000000000E+00 -0.77741615590E+03  0.24279692368E+04  0.23001431989E+04 0.  0.
        3    1    3    3  502    0 -0.45595654870E+03  0.61020321798E+02 -0.15013466065E+04  0.15702424962E+04  0.10100000352E+00 0.  1.
       -3    1    3    3    0  502  0.45595654870E+03 -0.61020321798E+02  0.72393045059E+03  0.85772674056E+03  0.10100000352E+00 0. -1.
</event>
<event>
 5   0  0.1602809E-05  0.2300169E+04  0.7818609E-02  0.8477854E-01
        2   -1    0    0  501    0  0.00000000000E+00  0.00000000000E+00  0.11668423981E+04  0.11668423981E+04  0.25500000920E-02 0. -1.
       -2   -1    0    0    0  501  0.00000000000E+00  0.00000000000E+00 -0.11335673406E+04  0.11335673406E+04  0.25500000920E-02 0.  1.
    10030    2    1    2    0    0  0.00000000000E+00  0.00000000000E+00  0.33275057487E+02  0.23004097387E+04  0.23001690669E+04 0.  0.
        3    1    3    3  502    0  0.68179685685E+02 -0.87603057271E+02 -0.11281969078E+04  0.11336450230E+04  0.10100000352E+00 0.  1.
       -3    1    3    3    0  502 -0.68179685685E+02  0.87603057271E+02  0.11614719653E+04  0.11667647156E+04  0.10100000352E+00 0. -1.
</event>
<event>
 5   0  0.7416556E-06  0.2292538E+04  0.7818609E-02  0.8480869E-01
       -1   -1    0    0    0  501  0.00000000000E+00  0.00000000000E+00  0.61998950434E+03  0.61998950436E+03  0.50400001928E-02 0.  1.
        1   -1    0    0  501    0  0.00000000000E+00  0.00000000000E+00 -0.21192811635E+04  0.21192811635E+04  0.50400001928E-02 0. -1.
    10030    2    1    2    0    0  0.00000000000E+00  0.00000000000E+00 -0.14992916592E+04  0.27392706679E+04  0.22925375270E+04 0.  0.
        4    1    3    3  502    0 -0.36875575561E+03  0.54627729432E+03 -0.18702287889E+04  0.19829667232E+04  0.12699999809E+01 0. -1.
       -4    1    3    3    0  502  0.36875575561E+03 -0.54627729432E+03  0.37093712975E+03  0.75630394466E+03  0.12699999809E+01 0.  1.
</event>
<event>
 5   0  0.7183014E-06  0.2333213E+04  0.7818609E-02  0.8464940E-01
        1   -1    0    0  501    0  0.00000000000E+00  0.00000000000E+00  0.10502368388E+04  0.10502368388E+04  0.50400001928E-02 0.  1.
       -1   -1    0    0    0  501  0.00000000000E+00  0.00000000000E+00 -0.12958703522E+04  0.12958703522E+04  0.50400001928E-02 0. -1.
    10030    2    1    2    0    0  0.00000000000E+00  0.00000000000E+00 -0.24563351342E+03  0.23461071909E+04  0.23332130482E+04 0.  0.
        3    1    3    3  502    0 -0.51053283961E+03 -0.10473378972E+04 -0.64096078219E+02  0.11669056383E+04  0.10100000352E+00 0.  1.
       -3    1    3    3    0  502  0.51053283961E+03  0.10473378972E+04 -0.18153743520E+03  0.11792015527E+04  0.10100000352E+00 0. -1.
</event>
<event>
 5   0  0.7416556E-06  0.2270408E+04  0.7818609E-02  0.8489681E-01
       -1   -1    0    0    0  501  0.00000000000E+00  0.00000000000E+00  0.15335394625E+04  0.15335394625E+04  0.50400001928E-02 0. -1.
        1   -1    0    0  501    0  0.00000000000E+00  0.00000000000E+00 -0.84033610787E+03  0.84033610789E+03  0.50400001928E-02 0.  1.
    10030    2    1    2    0    0  0.00000000000E+00  0.00000000000E+00  0.69320335461E+03  0.23738755704E+04  0.22704084066E+04 0.  0.
        4    1    3    3  502    0 -0.94048376982E+03 -0.12000026309E+03  0.99937466228E+03  0.13775562104E+04  0.12699999809E+01 0. -1.
       -4    1    3    3    0  502  0.94048376982E+03  0.12000026309E+03 -0.30617130767E+03  0.99631935993E+03  0.12699999809E+01 0.  1.
</event>
<event>
 5   0  0.1697855E-05  0.2214603E+04  0.7818609E-02  0.8512374E-01
        2   -1    0    0  501    0  0.00000000000E+00  0.00000000000E+00  0.15420751405E+04  0.15420751405E+04  0.25500000920E-02 0. -1.
       -2   -1    0    0    0  501  0.00000000000E+00  0.00000000000E+00 -0.79510827163E+03  0.79510827163E+03  0.25500000920E-02 0.  1.
    10030    2    1    2    0    0  0.00000000000E+00  0.00000000000E+00  0.74696686887E+03  0.23371834121E+04  0.22146030793E+04 0.  0.
        5    1    3    3  502    0  0.60816487349E+02  0.34758755932E+03  0.14811388902E+04  0.15225998354E+04  0.46999998093E+01 0. -1.
       -5    1    3    3    0  502 -0.60816487349E+02 -0.34758755932E+03 -0.73417202138E+03  0.81458357674E+03  0.46999998093E+01 0.  1.
</event>
<event>
 5   0  0.7416556E-06  0.2300899E+04  0.7818609E-02  0.8477567E-01
        1   -1    0    0  501    0  0.00000000000E+00  0.00000000000E+00  0.24426804384E+04  0.24426804384E+04  0.50400001928E-02 0.  1.
       -1   -1    0    0    0  501  0.00000000000E+00  0.00000000000E+00 -0.54183655989E+03  0.54183655992E+03  0.50400001928E-02 0. -1.
    10030    2    1    2    0    0  0.00000000000E+00  0.00000000000E+00  0.19008438785E+04  0.29845169983E+04  0.23008985772E+04 0.  0.
        4    1    3    3  502    0 -0.84277509601E+02  0.11326263401E+04  0.11881393961E+04  0.16436611458E+04  0.12699999809E+01 0.  1.
       -4    1    3    3    0  502  0.84277509601E+02 -0.11326263401E+04  0.71270448243E+03  0.13408558525E+04  0.12699999809E+01 0. -1.
</event>
<event>
 5   0  0.7202572E-06  0.2302133E+04  0.7818609E-02  0.8477081E-01
        1   -1    0    0  501    0  0.00000000000E+00  0.00000000000E+00  0.75049450175E+03  0.75049450176E+03  0.50400001928E-02 0.  1.
       -1   -1    0    0    0  501  0.00000000000E+00  0.00000000000E+00 -0.17654410370E+04  0.17654410370E+04  0.50400001928E-02 0. -1.
    10030    2    1    2    0    0  0.00000000000E+00  0.00000000000E+00 -0.10149465353E+04  0.25159355388E+04  0.23021327429E+04 0.  0.
        2    1    3    3  502    0  0.11433257470E+04 -0.13092649644E+03 -0.48029875089E+03  0.12470053734E+04  0.25500000920E-02 0.  1.
       -2    1    3    3    0  502 -0.11433257470E+04  0.13092649644E+03 -0.53464778440E+03  0.12689301654E+04  0.25500000920E-02 0. -1.
</event>
<event>
 5   0  0.7278815E-06  0.2310141E+04  0.7818609E-02  0.8473933E-01
        1   -1    0    0  501    0  0.00000000000E+00  0.00000000000E+00  0.12828763517E+04  0.12828763517E+04  0.50400001928E-02 0.  1.
       -1   -1    0    0    0  501  0.00000000000E+00  0.00000000000E+00 -0.10399971989E+04  0.10399971989E+04  0.50400001928E-02 0. -1.
    10030    2    1    2    0    0  0.00000000000E+00  0.00000000000E+00  0.24287915278E+03  0.23228735506E+04  0.23101409587E+04 0.  0.
        5    1    3    3  502    0  0.42775896779E+03  0.17665749169E+02  0.12001412147E+04  0.12742255838E+04  0.46999998093E+01 0.  1.
       -5    1    3    3    0  502 -0.42775896779E+03 -0.17665749169E+02 -0.95726206188E+03  0.10486479668E+04  0.46999998093E+01 0. -1.
</event>
<event>
 5   0  0.1635955E-05  0.2307108E+04  0.7818609E-02  0.8475124E-01
        2   -1    0    0  501    0  0.00000000000E+00  0.00000000000E+00  0.12662925727E+04  0.12662925727E+04  0.25500000920E-02 0.  1.
       -2   -1    0    0    0  501  0.00000000000E+00  0.00000000000E+00 -0.10508525498E+04  0.10508525498E+04  0.25500000920E-02 0. -1.
    10030    2    1    2    0    0  0.00000000000E+00  0.00000000000E+00  0.21544002291E+03  0.23171451226E+04  0.23071079549E+04 0.  0.
        2    1    3    3  502    0 -0.53426751314E+03  0.10223435036E+04  0.11541912381E+03  0.11592883977E+04  0.25500000920E-02 0. -1.
       -2    1    3    3    0  502  0.53426751314E+03 -0.10223435036E+04  0.10002089910E+03  0.11578567248E+04  0.25500000920E-02 0.  1.
</event>
<event>
 5   0  0.1626636E-05  0.2265278E+04  0.7818609E-02  0.8491739E-01
       -2   -1    0    0    0  501  0.00000000000E+00  0.00000000000E+00  0.44976969580E+03  0.44976969581E+03  0.25500000920E-02 0. -1.
        2   -1    0    0  501    0  0.00000000000E+00  0.00000000000E+00 -0.28522832966E+04  0.28522832966E+04  0.25500000920E-02 0.  1.
    10030    2    1    2    0    0  0.00000000000E+00  0.00000000000E+00 -0.24025136008E+04  0.33020529924E+04  0.22652775465E+04 0.  0.
        4    1    3    3  502    0 -0.10750491144E+04  0.98336758402E+01 -0.17208168259E+04  0.20290489055E+04  0.12699999809E+01 0. -1.
       -4    1    3    3    0  502  0.10750491144E+04 -0.98336758402E+01 -0.68169677487E+03  0.12730040869E+04  0.12699999809E+01 0.  1.
</event>
<event>
 5   0  0.1602809E-05  0.2313882E+04  0.7818609E-02  0.8472468E-01
        2   -1    0    0  501    0  0.00000000000E+00  0.00000000000E+00  0.13699841188E+04  0.13699841188E+04  0.25500000920E-02 0. -1.
       -2   -1    0    0    0  501  0.00000000000E+00  0.00000000000E+00 -0.97702734017E+03  0.97702734018E+03  0.25500000920E-02 0.  1.
    10030    2    1    2    0    0  0.00000000000E+00  0.00000000000E+00  0.39295677867E+03  0.23470114590E+04  0.23138815352E+04 0.  0.
        3    1    3    3  502    0  0.17336754817E+03  0.71760846620E+03  0.11000151660E+04  0.13247836024E+04  0.10100000352E+00 0. -1.
       -3    1    3    3    0  502 -0.17336754817E+03 -0.71760846620E+03 -0.70705838735E+03  0.10222278566E+04  0.10100000352E+00 0.  1.
</event>
<event>
 5   0  0.7391007E-06  0.2315928E+04  0.7818609E-02  0.8471667E-01
        1   -1    0    0  501    0  0.00000000000E+00  0.00000000000E+00  0.11394762361E+04  0.11394762362E+04  0.50400001928E-02 0. -1.
       -1   -1    0    0    0  501  0.00000000000E+00  0.00000000000E+00 -0.11767512750E+04  0.11767512750E+04  0.50400001928E-02 0.  1.
    10030    2    1    2    0    0  0.00000000000E+00  0.00000000000E+00 -0.37275038835E+02  0.23162275111E+04  0.23159275582E+04 0.  0.
        1    1    3    3  502    0 -0.65507084141E+03  0.76606270811E+03  0.55144528350E+03  0.11489394156E+04  0.50400001928E-02 0. -1.
       -1    1    3    3    0  502  0.65507084141E+03 -0.76606270811E+03 -0.58872032234E+03  0.11672880955E+04  0.50400001928E-02 0.  1.
</event>
<event>
 5   0  0.7183014E-06  0.2303421E+04  0.7818609E-02  0.8476574E-01
        1   -1    0    0  501    0  0.00000000000E+00  0.00000000000E+00  0.94272955396E+03  0.94272955397E+03  0.50400001928E-02 0.  1.
       -1   -1    0    0    0  501  0.00000000000E+00  0.00000000000E+00 -0.14070175270E+04  0.14070175270E+04  0.50400001928E-02 0. -1.
    10030    2    1    2    0    0  0.00000000000E+00  0.00000000000E+00 -0.46428797300E+03  0.23497470809E+04  0.23034209391E+04 0.  0.
        3    1    3    3  502    0  0.66671402293E+03 -0.69019637344E+03 -0.88178658445E+03  0.13032368215E+04  0.10100000352E+00 0. -1.
       -3    1    3    3    0  502 -0.66671402293E+03  0.69019637344E+03  0.41749861145E+03  0.10465102594E+04  0.10100000352E+00 0.  1.
</event>
<event>
 5   0  0.7278815E-06  0.2301654E+04  0.7818609E-02  0.8477269E-01
        1   -1    0    0  501    0  0.00000000000E+00  0.00000000000E+00  0.11328323163E+04  0.11328323163E+04  0.50400001928E-02 0.  1.
       -1   -1    0    0    0  501  0.00000000000E+00  0.00000000000E+00 -0.11691070890E+04  0.11691070890E+04  0.50400001928E-02 0. -1.
    10030    2    1    2    0    0  0.00000000000E+00  0.00000000000E+00 -0.36274772714E+02  0.23019394052E+04  0.23016535722E+04 0.  0.
        5    1    3    3  502    0  0.19829922734E+03 -0.55622052035E+03 -0.10060233597E+04  0.11665371581E+04  0.46999998093E+01 0. -1.
       -5    1    3    3    0  502 -0.19829922734E+03  0.55622052035E+03  0.96974858703E+03  0.11354022472E+04  0.46999998093E+01 0.  1.
</event>
<event>
 5   0  0.7278815E-06  0.2303437E+04  0.7818609E-02  0.8476567E-01
       -1   -1    0    0    0  501  0.00000000000E+00  0.00000000000E+00  0.88433534769E+03  0.88433534770E+03  0.50400001928E-02 0.  1.
        1   -1    0    0  501    0  0.00000000000E+00  0.00000000000E+00 -0.14999460801E+04  0.14999460801E+04  0.50400001928E-02 0. -1.
    10030    2    1    2    0    0  0.00000000000E+00  0.00000000000E+00 -0.61561073243E+03  0.23842814278E+04  0.23034368568E+04 0.  0.
        5    1    3    3  502    0 -0.35886888315E+03 -0.10341445584E+04 -0.67840984069E+03  0.12878291210E+04  0.46999998093E+01 0. -1.
       -5    1    3    3    0  502  0.35886888315E+03  0.10341445584E+04  0.62799108262E+02  0.10964523068E+04  0.46999998093E+01 0.  1.
</event>
<event>
 5   0  0.1635955E-05  0.2362248E+04  0.7818609E-02  0.8453774E-01
       -2   -1    0    0    0  501  0.00000000000E+00  0.00000000000E+00  0.16975102873E+04  0.16975102873E+04  0.25500000920E-02 0.  1.
        2   -1    0    0  501    0  0.00000000000E+00  0.00000000000E+00 -0.82182367765E+03  0.82182367766E+03  0.25500000920E-02 0. -1.
    10030    2    1    2    0    0  0.00000000000E+00  0.00000000000E+00  0.87568660964E+03  0.25193339650E+04  0.23622482064E+04 0.  0.
        2    1    3    3  502    0  0.70894966832E+03 -0.41740166473E+03 -0.46599152174E+03  0.94550615031E+03  0.25500000920E-02 0. -1.
       -2    1    3    3    0  502 -0.70894966832E+03  0.41740166473E+03  0.13416781314E+04  0.15738278146E+04  0.25500000920E-02 0.  1.
</event>
<event>
 5   0  0.1635955E-05  0.2315651E+04  0.7818609E-02  0.8471776E-01
       -2   -1    0    0    0  501  0.00000000000E+00  0.00000000000E+00  0.62055559049E+03  0.62055559049E+03  0.25500000920E-02 0.  1.
        2   -1    0    0  501    0  0.00000000000E+00  0.00000000000E+00 -0.21602568051E+04  0.21602568051E+04  0.25500000920E-02 0. -1.
    10030    2    1    2    0    0  0.00000000000E+00  0.00000000000E+00 -0.15397012147E+04  0.27808123956E+04  0.23156506104E+04 0.  0.
        2    1    3    3  502    0  0.50119280967E+03  0.96950527048E+03 -0.30564550951E+03  0.11333816125E+04  0.25500000920E-02 0. -1.
       -2    1    3    3    0  502 -0.50119280967E+03 -0.96950527048E+03 -0.12340557051E+04  0.16474307832E+04  0.25500000920E-02 0.  1.
</event>
<event>
 5   0  0.7183014E-06  0.2331172E+04  0.7818609E-02  0.8465731E-01
        1   -1    0    0  501    0  0.00000000000E+00  0.00000000000E+00  0.11028258569E+04  0.11028258569E+04  0.50400001928E-02 0.  1.
       -1   -1    0    0    0  501  0.00000000000E+00  0.00000000000E+00 -0.12319172792E+04  0.12319172792E+04  0.50400001928E-02 0. -1.
    10030    2    1    2    0    0  0.00000000000E+00  0.00000000000E+00 -0.12909142228E+03  0.23347431361E+04  0.23311715759E+04 0.  0.
        3    1    3    3  502    0 -0.74226007807E+03  0.88075366104E+03  0.11437060024E+03  0.11574790190E+04  0.10100000352E+00 0.  1.
       -3    1    3    3    0  502  0.74226007807E+03 -0.88075366104E+03 -0.24346202252E+03  0.11772641172E+04  0.10100000352E+00 0. -1.
</event>
<event>
 5   0  0.7391007E-06  0.2296655E+04  0.7818609E-02  0.8479241E-01
        1   -1    0    0  501    0  0.00000000000E+00  0.00000000000E+00  0.16461440516E+04  0.16461440516E+04  0.50400001928E-02 0.  1.
       -1   -1    0    0    0  501  0.00000000000E+00  0.00000000000E+00 -0.80105736982E+03  0.80105736984E+03  0.50400001928E-02 0. -1.
    10030    2    1    2    0    0  0.00000000000E+00  0.00000000000E+00  0.84508668180E+03  0.24472014215E+04  0.22966548059E+04 0.  0.
        1    1    3    3  502    0 -0.27829865751E+03  0.87878344667E+03  0.11522278090E+04  0.14755810424E+04  0.50400001928E-02 0.  1.
       -1    1    3    3    0  502  0.27829865751E+03 -0.87878344667E+03 -0.30714112721E+03  0.97162037903E+03  0.50400001928E-02 0. -1.
</event>
<event>
 5   0  0.1588969E-05  0.2299054E+04  0.7818609E-02  0.8478294E-01
        2   -1    0    0  501    0  0.00000000000E+00  0.00000000000E+00  0.14995352461E+04  0.14995352461E+04  0.25500000920E-02 0.  1.
       -2   -1    0    0    0  501  0.00000000000E+00  0.00000000000E+00 -0.88121466919E+03  0.88121466920E+03  0.25500000920E-02 0. -1.
    10030    2    1    2    0    0  0.00000000000E+00  0.00000000000E+00  0.61832057692E+03  0.23807499153E+04  0.22990541149E+04 0.  0.
        1    1    3    3  502    0 -0.13893587819E+03 -0.11365203029E+04  0.41492116190E+03  0.12178428256E+04  0.50400001928E-02 0. -1.
       -1    1    3    3    0  502  0.13893587819E+03  0.11365203029E+04  0.20339941502E+03  0.11629070897E+04  0.50400001928E-02 0.  1.
</event>
<event>
 5   0  0.1697855E-05  0.2318875E+04  0.7818609E-02  0.8470516E-01
       -2   -1    0    0    0  501  0.00000000000E+00  0.00000000000E+00  0.42563861042E+03  0.42563861043E+03  0.25500000920E-02 0.  1.
        2   -1    0    0  501    0  0.00000000000E+00  0.00000000000E+00 -0.31583023510E+04  0.31583023510E+04  0.25500000920E-02 0. -1.
    10030    2    1    2    0    0  0.00000000000E+00  0.00000000000E+00 -0.27326637406E+04  0.35839409614E+04  0.23188750928E+04 0.  0.
        5    1    3    3  502    0  0.12072110333E+03  0.55147807088E+03  0.19885610363E+03  0.59855449827E+03  0.46999998093E+01 0.  1.
       -5    1    3    3    0  502 -0.12072110333E+03 -0.55147807088E+03 -0.29315198442E+04  0.29853864632E+04  0.46999998093E+01 0. -1.
</event>
<event>
 5   0  0.7202572E-06  0.2302404E+04  0.7818609E-02  0.8476974E-01
        1   -1    0    0  501    0  0.00000000000E+00  0.00000000000E+00  0.17448279641E+04  0.17448279641E+04  0.50400001928E-02 0.  1.
       -1   -1    0    0    0  501  0.00000000000E+00  0.00000000000E+00 -0.75953989493E+03  0.75953989494E+03  0.50400001928E-02 0. -1.
    10030    2    1    2    0    0  0.00000000000E+00  0.00000000000E+00  0.98528806914E+03  0.25043678590E+04  0.23024043507E+04 0.  0.
        2    1    3    3  502    0  0.86438763901E+03  0.39100917136E+03 -0.21663876213E+03  0.97313232185E+03  0.25500000920E-02 0. -1.
       -2    1    3    3    0  502 -0.86438763901E+03 -0.39100917136E+03  0.12019268313E+04  0.15312355372E+04  0.25500000920E-02 0.  1.
</event>
<event>
 5   0  0.7202572E-06  0.2305130E+04  0.7818609E-02  0.8475901E-01
        1   -1    0    0  501    0  0.00000000000E+00  0.00000000000E+00  0.22355907457E+04  0.22355907457E+04  0.50400001928E-02 0. -1.
       -1   -1    0    0    0  501  0.00000000000E+00  0.00000000000E+00 -0.59420824546E+03  0.59420824548E+03  0.50400001928E-02 0.  1.
    10030    2    1    2    0    0  0.00000000000E+00  0.00000000000E+00  0.16413825002E+04  0.28297989911E+04  0.23051303257E+04 0.  0.
        2    1    3    3  502    0 -0.10900623488E+04  0.37436304534E+03  0.81482429388E+03  0.14114964555E+04  0.25500000920E-02 0.  1.
       -2    1    3    3    0  502  0.10900623488E+04 -0.37436304534E+03  0.82655820631E+03  0.14183025356E+04  0.25500000920E-02 0. -1.
</event>
<event>
 5   0  0.7183014E-06  0.2317768E+04  0.7818609E-02  0.8470948E-01
        1   -1    0    0  501    0  0.00000000000E+00  0.00000000000E+00  0.25818799341E+04  0.25818799341E+04  0.50400001928E-02 0. -1.
       -1   -1    0    0    0  501  0.00000000000E+00  0.00000000000E+00 -0.52016813923E+03  0.52016813925E+03  0.50400001928E-02 0.  1.
    10030    2    1    2    0    0  0.00000000000E+00  0.00000000000E+00  0.20617117948E+04  0.31020480733E+04  0.23177676165E+04 0.  0.
        3    1    3    3  502    0 -0.99907618222E+02  0.28972010223E+03  0.25266641205E+04  0.25451818909E+04  0.10100000352E+00 0. -1.
       -3    1    3    3    0  502  0.99907618222E+02 -0.28972010223E+03 -0.46495232564E+03  0.55686618243E+03  0.10100000352E+00 0.  1.
</event>
<event>
 5   0  0.1602809E-05  0.2293649E+04  0.7818609E-02  0.8480429E-01
        2   -1    0    0  501    0  0.00000000000E+00  0.00000000000E+00  0.12072511046E+04  0.12072511046E+04  0.25500000920E-02 0. -1.
       -2   -1    0    0    0  501  0.00000000000E+00  0.00000000000E+00 -0.10894228807E+04  0.10894228807E+04  0.25500000920E-02 0.  1.
    10030    2    1    2    0    0  0.00000000000E+00  0.00000000000E+00  0.11782822387E+03  0.22966739852E+04  0.22936494728E+04 0.  0.
        3    1    3    3  502    0  0.23365043166E+03  0.47863953615E+03  0.10758904372E+04  0.12005117962E+04  0.10100000352E+00 0. -1.
       -3    1    3    3    0  502 -0.23365043166E+03 -0.47863953615E+03 -0.95806221335E+03  0.10961621890E+04  0.10100000352E+00 0.  1.
</event>
<event>
 5   0  0.7278815E-06  0.2316437E+04  0.7818609E-02  0.8471468E-01
       -1   -1    0    0    0  501  0.00000000000E+00  0.00000000000E+00  0.11851263686E+04  0.11851263686E+04  0.50400001928E-02 0.  1.
        1   -1    0    0  501    0  0.00000000000E+00  0.00000000000E+00 -0.11319212552E+04  0.11319212552E+04  0.50400001928E-02 0. -1.
    10030    2    1    2    0    0  0.00000000000E+00  0.00000000000E+00  0.53205113378E+02  0.23170476238E+04  0.23164366831E+04 0.  0.
        5    1    3    3  502    0  0.74639578991E+03  0.56163185639E+03 -0.65834853243E+03  0.11427956499E+04  0.46999998093E+01 0. -1.
       -5    1    3    3    0  502 -0.74639578991E+03 -0.56163185639E+03  0.71155364581E+03  0.11742519739E+04  0.46999998093E+01 0.  1.
</event>
<event>
 5   0  0.7202572E-06  0.2328194E+04  0.7818609E-02  0.8466887E-01
        1   -1    0    0  501    0  0.00000000000E+00  0.00000000000E+00  0.15344921141E+04  0.15344921141E+04  0.50400001928E-02 0.  1.
       -1   -1    0    0    0  501  0.00000000000E+00  0.00000000000E+00 -0.88310743026E+03  0.88310743027E+03  0.50400001928E-02 0. -1.
    10030    2    1    2    0    0  0.00000000000E+00  0.00000000000E+00  0.65138468381E+03  0.24175995443E+04  0.23281936239E+04 0.  0.
        2    1    3    3  502    0  0.73881948385E+03 -0.83207072290E+03  0.68076712611E+03  0.13044691632E+04  0.25500000920E-02 0.  1.
       -2    1    3    3    0  502 -0.73881948385E+03  0.83207072290E+03 -0.29382442299E+02  0.11131303812E+04  0.25500000920E-02 0. -1.
</event>
<event>
 5   0  0.1602809E-05  0.2306248E+04  0.7818609E-02  0.8475462E-01
        2   -1    0    0  501    0  0.00000000000E+00  0.00000000000E+00  0.13150984812E+04  0.13150984812E+04  0.25500000920E-02 0. -1.
       -2   -1    0    0    0  501  0.00000000000E+00  0.00000000000E+00 -0.10110992298E+04  0.10110992298E+04  0.25500000920E-02 0.  1.
    10030    2    1    2    0    0  0.00000000000E+00  0.00000000000E+00  0.30399925133E+03  0.23261977110E+04  0.23062480885E+04 0.  0.
        3    1    3    3  502    0  0.10181329356E+04  0.10834683165E+03 -0.38302381877E+03  0.10931792929E+04  0.10100000352E+00 0.  1.
       -3    1    3    3    0  502 -0.10181329356E+04 -0.10834683165E+03  0.68702307010E+03  0.12330184181E+04  0.10100000352E+00 0. -1.
</event>
<event>
 5   0  0.1697855E-05  0.2294454E+04  0.7818609E-02  0.8480111E-01
        2   -1    0    0  501    0  0.00000000000E+00  0.00000000000E+00  0.85378452722E+03  0.85378452722E+03  0.25500000920E-02 0. -1.
       -2   -1    0    0    0  501  0.00000000000E+00  0.00000000000E+00 -0.15415241196E+04  0.15415241196E+04  0.25500000920E-02 0.  1.
    10030    2    1    2    0    0  0.00000000000E+00  0.00000000000E+00 -0.68773959237E+03  0.23953086468E+04  0.22944536968E+04 0.  0.
        5    1    3    3  502    0 -0.33732009513E+03  0.10538492416E+04 -0.66004247765E+03  0.12884336354E+04  0.46999998093E+01 0.  1.
       -5    1    3    3    0  502  0.33732009513E+03 -0.10538492416E+04 -0.27697114722E+02  0.11068750114E+04  0.46999998093E+01 0. -1.
</event>
<event>
 5   0  0.1697855E-05  0.2301680E+04  0.7818609E-02  0.8477259E-01
       -2   -1    0    0    0  501  0.00000000000E+00  0.00000000000E+00  0.23318458759E+04  0.23318458759E+04  0.25500000920E-02 0. -1.
        2   -1    0    0  501    0  0.00000000000E+00  0.00000000000E+00 -0.56797600493E+03  0.56797600493E+03  0.25500000920E-02 0.  1.
    10030    2    1    2    0    0  0.00000000000E+00  0.00000000000E+00  0.17638698710E+04  0.28998218809E+04  0.23016798254E+04 0.  0.
        5    1    3    3  502    0 -0.10465358832E+04  0.47683086325E+03  0.82840315828E+03  0.14173492546E+04  0.46999998093E+01 0. -1.
       -5    1    3    3    0  502  0.10465358832E+04 -0.47683086325E+03  0.93546671271E+03  0.14824726262E+04  0.46999998093E+01 0.  1.
</event>
<event>
 5   0  0.1697855E-05  0.2310454E+04  0.7818609E-02  0.8473811E-01
        2   -1    0    0  501    0  0.00000000000E+00  0.00000000000E+00  0.19236691384E+04  0.19236691384E+04  0.25500000920E-02 0.  1.
       -2   -1    0    0    0  501  0.00000000000E+00  0.00000000000E+00 -0.69375177622E+03  0.69375177623E+03  0.25500000920E-02 0. -1.
    10030    2    1    2    0    0  0.00000000000E+00  0.00000000000E+00  0.12299173622E+04  0.26174209146E+04  0.23104535326E+04 0.  0.
        5    1    3    3  502    0  0.10411071387E+04  0.45936222781E+03  0.38949655193E+03  0.12027665544E+04  0.46999998093E+01 0. -1.
       -5    1    3    3    0  502 -0.10411071387E+04 -0.45936222781E+03  0.84042081023E+03  0.14146543602E+04  0.46999998093E+01 0.  1.
</event>
<event>
 5   0  0.1635955E-05  0.2299503E+04  0.7818609E-02  0.8478117E-01
       -2   -1    0    0    0  501  0.00000000000E+00  0.00000000000E+00  0.75478191095E+03  0.75478191096E+03  0.25500000920E-02 0. -1.
        2   -1    0    0  501    0  0.00000000000E+00  0.00000000000E+00 -0.17514048593E+04  0.17514048593E+04  0.25500000920E-02 0.  1.
    10030    2    1    2    0    0  0.00000000000E+00  0.00000000000E+00 -0.99662294834E+03  0.25061867703E+04  0.22995031694E+04 0.  0.
        2    1    3    3  502    0 -0.47579533268E+03 -0.66700451846E+03 -0.13774432251E+04  0.16026933782E+04  0.25500000920E-02 0.  1.
       -2    1    3    3    0  502  0.47579533268E+03  0.66700451846E+03  0.38082027676E+03  0.90349339203E+03  0.25500000920E-02 0. -1.
</event>
<event>
 5   0  0.1626636E-05  0.2293713E+04  0.7818609E-02  0.8480404E-01
       -2   -1    0    0    0  501  0.00000000000E+00  0.00000000000E+00  0.65905172647E+03  0.65905172648E+03  0.25500000920E-02 0. -1.
        2   -1    0    0  501    0  0.00000000000E+00  0.00000000000E+00 -0.19957152460E+04  0.19957152460E+04  0.25500000920E-02 0.  1.
    10030    2    1    2    0    0  0.00000000000E+00  0.00000000000E+00 -0.13366635195E+04  0.26547669725E+04  0.22937127792E+04 0.  0.
        4    1    3    3  502    0 -0.25276988243E+03 -0.24264727804E+02 -0.19627681494E+04  0.19791265274E+04  0.12699999809E+01 0.  1.
       -4    1    3    3    0  502  0.25276988243E+03  0.24264727804E+02  0.62610462988E+03  0.67564044501E+03  0.12699999809E+01 0. -1.
</event>
<event>
 5   0  0.1602809E-05  0.2299376E+04  0.7818609E-02  0.8478167E-01
       -2   -1    0    0    0  501  0.00000000000E+00  0.00000000000E+00  0.10601396561E+04  0.10601396561E+04  0.25500000920E-02 0.  1.
        2   -1    0    0  501    0  0.00000000000E+00  0.00000000000E+00 -0.12468005758E+04  0.12468005758E+04  0.25500000920E-02 0. -1.
    10030    2    1    2    0    0  0.00000000000E+00  0.00000000000E+00 -0.18666091972E+03  0.23069402320E+04  0.22993762056E+04 0.  0.
        3    1    3    3  502    0  0.18547789038E+03 -0.51011427597E+03 -0.11101554857E+04  0.12357442434E+04  0.10100000352E+00 0. -1.
       -3    1    3    3    0  502 -0.18547789038E+03  0.51011427597E+03  0.92349456600E+03  0.10711959886E+04  0.10100000352E+00 0.  1.
</event>
<event>
 5   0  0.1697855E-05  0.2296762E+04  0.7818609E-02  0.8479199E-01
       -2   -1    0    0    0  501  0.00000000000E+00  0.00000000000E+00  0.16019630607E+04  0.16019630607E+04  0.25500000920E-02 0.  1.
        2   -1    0    0  501    0  0.00000000000E+00  0.00000000000E+00 -0.82322646206E+03  0.82322646207E+03  0.25500000920E-02 0. -1.
    10030    2    1    2    0    0  0.00000000000E+00  0.00000000000E+00  0.77873659868E+03  0.24251895228E+04  0.22967615313E+04 0.  0.
        5    1    3    3  502    0 -0.48778275194E+03 -0.86184118870E+02  0.14833495553E+04  0.15638758610E+04  0.46999998093E+01 0.  1.
       -5    1    3    3    0  502  0.48778275194E+03  0.86184118870E+02 -0.70461295660E+03  0.86131366182E+03  0.46999998093E+01 0. -1.
</event>
<event>
 5   0  0.1588969E-05  0.2315325E+04  0.7818609E-02  0.8471903E-01
       -2   -1    0    0    0  501  0.00000000000E+00  0.00000000000E+00  0.77943957797E+03  0.77943957797E+03  0.25500000920E-02 0.  1.
        2   -1    0    0  501    0  0.00000000000E+00  0.00000000000E+00 -0.17194176501E+04  0.17194176501E+04  0.25500000920E-02 0. -1.
    10030    2    1    2    0    0  0.00000000000E+00  0.00000000000E+00 -0.93997807212E+03  0.24988572281E+04  0.23153247440E+04 0.  0.
        1    1    3    3  502    0 -0.26217697266E+03  0.93612439024E+03 -0.11483988613E+04  0.15046214088E+04  0.50400001928E-02 0. -1.
       -1    1    3    3    0  502  0.26217697266E+03 -0.93612439024E+03  0.20842078920E+03  0.99423581930E+03  0.50400001928E-02 0.  1.
</event>
<event>
 5   0  0.5704875E-06  0.2274583E+04  0.7818609E-02  0.8488010E-01
        3   -1    0    0  501    0  0.00000000000E+00  0.00000000000E+00  0.97588217061E+03  0.97588217584E+03  0.10100000352E+00 0.  1.
       -3   -1    0    0    0  501  0.00000000000E+00  0.00000000000E+00 -0.13253982416E+04  0.13253982454E+04  0.10100000352E+00 0. -1.
    10030    2    1    2    0    0  0.00000000000E+00  0.00000000000E+00 -0.34951607098E+03  0.23012804213E+04  0.22745834989E+04 0.  0.
        3    1    3    3  502    0  0.94864933155E+03 -0.32412560466E+03  0.36861122277E+03  0.10681138542E+04  0.10100000352E+00 0.  1.
       -3    1    3    3    0  502 -0.94864933155E+03  0.32412560466E+03 -0.71812729375E+03  0.12331665670E+04  0.10100000352E+00 0. -1.
</event>
<event>
 5   0  0.1588969E-05  0.2305966E+04  0.7818609E-02  0.8475572E-01
        2   -1    0    0  501    0  0.00000000000E+00  0.00000000000E+00  0.11105900577E+04  0.11105900577E+04  0.25500000920E-02 0.  1.
       -2   -1    0    0    0  501  0.00000000000E+00  0.00000000000E+00 -0.11969944756E+04  0.11969944756E+04  0.25500000920E-02 0. -1.
    10030    2    1    2    0    0  0.00000000000E+00  0.00000000000E+00 -0.86404417935E+02  0.23075845332E+04  0.23059663169E+04 0.  0.
        1    1    3    3  502    0 -0.91668619977E+03 -0.68369928199E+03 -0.19031512337E+03  0.11593007130E+04  0.50400001928E-02 0. -1.
       -1    1    3    3    0  502  0.91668619977E+03  0.68369928199E+03  0.10391070543E+03  0.11482838202E+04  0.50400001928E-02 0.  1.
</event>
<event>
 5   0  0.7202572E-06  0.2296536E+04  0.7818609E-02  0.8479288E-01
       -1   -1    0    0    0  501  0.00000000000E+00  0.00000000000E+00  0.12201215437E+04  0.12201215437E+04  0.50400001928E-02 0.  1.
        1   -1    0    0  501    0  0.00000000000E+00  0.00000000000E+00 -0.10806458253E+04  0.10806458253E+04  0.50400001928E-02 0. -1.
    10030    2    1    2    0    0  0.00000000000E+00  0.00000000000E+00  0.13947571837E+03  0.23007673690E+04  0.22965358717E+04 0.  0.
        2    1    3    3  502    0 -0.28990262267E+03  0.10055547580E+04 -0.40371659987E+03  0.11216822166E+04  0.25500000920E-02 0. -1.
       -2    1    3    3    0  502  0.28990262267E+03 -0.10055547580E+04  0.54319231824E+03  0.11790851524E+04  0.25500000920E-02 0.  1.
</event>
<event>
 5   0  0.1602809E-05  0.2299912E+04  0.7818609E-02  0.8477956E-01
       -2   -1    0    0    0  501  0.00000000000E+00  0.00000000000E+00  0.15579448863E+04  0.15579448863E+04  0.25500000920E-02 0. -1.
        2   -1    0    0  501    0  0.00000000000E+00  0.00000000000E+00 -0.84880990579E+03  0.84880990579E+03  0.25500000920E-02 0.  1.
    10030    2    1    2    0    0  0.00000000000E+00  0.00000000000E+00  0.70913498052E+03  0.24067547921E+04  0.22999122176E+04 0.  0.
        3    1    3    3  502    0 -0.18858827642E+03  0.75342740648E+03 -0.53287369700E+03  0.94189849878E+03  0.10100000352E+00 0.  1.
       -3    1    3    3    0  502  0.18858827642E+03 -0.75342740648E+03  0.12420086775E+04  0.14648562933E+04  0.10100000352E+00 0. -1.
</event>
<event>
 5   0  0.7416556E-06  0.2287743E+04  0.7818609E-02  0.8482769E-01
        1   -1    0    0  501    0  0.00000000000E+00  0.00000000000E+00  0.14108650367E+04  0.14108650367E+04  0.50400001928E-02 0.  1.
       -1   -1    0    0    0  501  0.00000000000E+00  0.00000000000E+00 -0.92740435011E+03  0.92740435013E+03  0.50400001928E-02 0. -1.
    10030    2    1    2    0    0  0.00000000000E+00  0.00000000000E+00  0.48346068655E+03  0.23382693868E+04  0.22877433182E+04 0.  0.
        4    1    3    3  502    0  0.71230531161E+03 -0.87668400127E+03  0.42595276358E+03  0.12072245295E+04  0.12699999809E+01 0.  1.
       -4    1    3    3    0  502 -0.71230531161E+03  0.87668400127E+03  0.57507922978E+02  0.11310448573E+04  0.12699999809E+01 0. -1.
</event>
<event>
 5   0  0.7391007E-06  0.2303161E+04  0.7818609E-02  0.8476676E-01
       -1   -1    0    0    0  501  0.00000000000E+00  0.00000000000E+00  0.70415737019E+03  0.70415737020E+03  0.50400001928E-02 0.  1.
        1   -1    0    0  501    0  0.00000000000E+00  0.00000000000E+00 -0.18832976909E+04  0.18832976909E+04  0.50400001928E-02 0. -1.
    10030    2    1    2    0    0  0.00000000000E+00  0.00000000000E+00 -0.11791403207E+04  0.25874550611E+04  0.23031612617E+04 0.  0.
        1    1    3    3  502    0  0.11287940264E+04  0.16445170152E+03 -0.41223213783E+03  0.12129120544E+04  0.50400001928E-02 0.  1.
       -1    1    3    3    0  502 -0.11287940264E+04 -0.16445170152E+03 -0.76690818292E+03  0.13745430067E+04  0.50400001928E-02 0. -1.
</event>
<event>
 5   0  0.7278815E-06  0.2299574E+04  0.7818609E-02  0.8478089E-01
       -1   -1    0    0    0  501  0.00000000000E+00  0.00000000000E+00  0.10440978401E+04  0.10440978402E+04  0.50400001928E-02 0.  1.
        1   -1    0    0  501    0  0.00000000000E+00  0.00000000000E+00 -0.12661750096E+04  0.12661750096E+04  0.50400001928E-02 0. -1.
    10030    2    1    2    0    0  0.00000000000E+00  0.00000000000E+00 -0.22207716948E+03  0.23102728498E+04  0.22995743891E+04 0.  0.
        5    1    3    3  502    0 -0.66266472041E+03  0.59254971463E+03 -0.84364222649E+03  0.12255586450E+04  0.46999998093E+01 0. -1.
       -5    1    3    3    0  502  0.66266472041E+03 -0.59254971463E+03  0.62156505701E+03  0.10847142048E+04  0.46999998093E+01 0.  1.
</event>
<event>
 5   0  0.1626636E-05  0.2299185E+04  0.7818609E-02  0.8478243E-01
       -2   -1    0    0    0  501  0.00000000000E+00  0.00000000000E+00  0.91987963120E+03  0.91987963120E+03  0.25500000920E-02 0. -1.
        2   -1    0    0  501    0  0.00000000000E+00  0.00000000000E+00 -0.14366688438E+04  0.14366688439E+04  0.25500000920E-02 0.  1.
    10030    2    1    2    0    0  0.00000000000E+00  0.00000000000E+00 -0.51678921265E+03  0.23565484750E+04  0.22991845565E+04 0.  0.
        4    1    3    3  502    0 -0.17517826876E+03 -0.49217971453E+03  0.79118213967E+03  0.94810288908E+03  0.12699999809E+01 0. -1.
       -4    1    3    3    0  502  0.17517826876E+03  0.49217971453E+03 -0.13079713523E+04  0.14084455860E+04  0.12699999809E+01 0.  1.
</event>
<event>
 5   0  0.7202572E-06  0.2296894E+04  0.7818609E-02  0.8479147E-01
        1   -1    0    0  501    0  0.00000000000E+00  0.00000000000E+00  0.11459815057E+04  0.11459815057E+04  0.50400001928E-02 0. -1.
       -1   -1    0    0    0  501  0.00000000000E+00  0.00000000000E+00 -0.11509177628E+04  0.11509177628E+04  0.50400001928E-02 0.  1.
    10030    2    1    2    0    0  0.00000000000E+00  0.00000000000E+00 -0.49362570835E+01  0.22968992685E+04  0.22968939642E+04 0.  0.
        2    1    3    3  502    0  0.54389537087E+03 -0.73511859890E+03 -0.69724231581E+03  0.11499427707E+04  0.25500000920E-02 0.  1.
       -2    1    3    3    0  502 -0.54389537087E+03  0.73511859890E+03  0.69230605873E+03  0.11469564978E+04  0.25500000920E-02 0. -1.
</event>
<event>
 5   0  0.1635955E-05  0.2303316E+04  0.7818609E-02  0.8476615E-01
       -2   -1    0    0    0  501  0.00000000000E+00  0.00000000000E+00  0.73390072476E+03  0.73390072476E+03  0.25500000920E-02 0. -1.
        2   -1    0    0  501    0  0.00000000000E+00  0.00000000000E+00 -0.18072143991E+04  0.18072143991E+04  0.25500000920E-02 0.  1.
    10030    2    1    2    0    0  0.00000000000E+00  0.00000000000E+00 -0.10733136744E+04  0.25411151239E+04  0.23033158336E+04 0.  0.
        2    1    3    3  502    0 -0.14679001448E+03 -0.39183654232E+03  0.64707252456E+03  0.77057513345E+03  0.25500000920E-02 0. -1.
       -2    1    3    3    0  502  0.14679001448E+03  0.39183654232E+03 -0.17203861989E+04  0.17705399904E+04  0.25500000920E-02 0.  1.
</event>
<event>
 5   0  0.1588969E-05  0.2296127E+04  0.7818609E-02  0.8479450E-01
       -2   -1    0    0    0  501  0.00000000000E+00  0.00000000000E+00  0.10415434984E+04  0.10415434984E+04  0.25500000920E-02 0.  1.
        2   -1    0    0  501    0  0.00000000000E+00  0.00000000000E+00 -0.12654769640E+04  0.12654769640E+04  0.25500000920E-02 0. -1.
    10030    2    1    2    0    0  0.00000000000E+00  0.00000000000E+00 -0.22393346556E+03  0.23070204624E+04  0.22961265682E+04 0.  0.
        1    1    3    3  502    0  0.74423005734E+03  0.63152164575E+03 -0.71927748924E+03  0.12124595143E+04  0.50400001928E-02 0.  1.
       -1    1    3    3    0  502 -0.74423005734E+03 -0.63152164575E+03  0.49534402368E+03  0.10945609481E+04  0.50400001928E-02 0. -1.
</event>
<event>
 5   0  0.1697855E-05  0.2267382E+04  0.7818609E-02  0.8490894E-01
       -2   -1    0    0    0  501  0.00000000000E+00  0.00000000000E+00  0.62578720429E+03  0.62578720430E+03  0.25500000920E-02 0. -1.
        2   -1    0    0  501    0  0.00000000000E+00  0.00000000000E+00 -0.20538221240E+04  0.20538221240E+04  0.25500000920E-02 0.  1.
    10030    2    1    2    0    0  0.00000000000E+00  0.00000000000E+00 -0.14280349197E+04  0.26796093283E+04  0.22673822837E+04 0.  0.
        5    1    3    3  502    0 -0.25282797447E+03  0.10994784224E+04 -0.58210567287E+03  0.12695053723E+04  0.46999998093E+01 0. -1.
       -5    1    3    3    0  502  0.25282797447E+03 -0.10994784224E+04 -0.84592924686E+03  0.14101039560E+04  0.46999998093E+01 0.  1.
</event>
<event>
 5   0  0.7202572E-06  0.2280988E+04  0.7818609E-02  0.8485455E-01
       -1   -1    0    0    0  501  0.00000000000E+00  0.00000000000E+00  0.10296836872E+04  0.10296836873E+04  0.50400001928E-02 0. -1.
        1   -1    0    0  501    0  0.00000000000E+00  0.00000000000E+00 -0.12632292351E+04  0.12632292351E+04  0.50400001928E-02 0.  1.
    10030    2    1    2    0    0  0.00000000000E+00  0.00000000000E+00 -0.23354554789E+03  0.22929129224E+04  0.22809879760E+04 0.  0.
        2    1    3    3  502    0 -0.18840665686E+03 -0.84312685939E+03  0.63167772366E+03  0.10702227413E+04  0.25500000920E-02 0. -1.
       -2    1    3    3    0  502  0.18840665686E+03  0.84312685939E+03 -0.86522327155E+03  0.12226901811E+04  0.25500000920E-02 0.  1.
</event>
<event>
 5   0  0.7416556E-06  0.2301902E+04  0.7818609E-02  0.8477172E-01
        1   -1    0    0  501    0  0.00000000000E+00  0.00000000000E+00  0.14043852196E+04  0.14043852196E+04  0.50400001928E-02 0. -1.
       -1   -1    0    0    0  501  0.00000000000E+00  0.00000000000E+00 -0.94325099630E+03  0.94325099632E+03  0.50400001928E-02 0.  1.
    10030    2    1    2    0    0  0.00000000000E+00  0.00000000000E+00  0.46113422326E+03  0.23476362159E+04  0.23019016118E+04 0.  0.
        4    1    3    3  502    0 -0.30677624170E+03  0.52428312577E+03  0.12275902096E+04  0.13696582763E+04  0.12699999809E+01 0. -1.
       -4    1    3    3    0  502  0.30677624170E+03 -0.52428312577E+03 -0.76645598629E+03  0.97797793956E+03  0.12699999809E+01 0.  1.
</event>
<event>
 5   0  0.1626636E-05  0.2297451E+04  0.7818609E-02  0.8478927E-01
        2   -1    0    0  501    0  0.00000000000E+00  0.00000000000E+00  0.22825937746E+04  0.22825937746E+04  0.25500000920E-02 0.  1.
       -2   -1    0    0    0  501  0.00000000000E+00  0.00000000000E+00 -0.57810123741E+03  0.57810123741E+03  0.25500000920E-02 0. -1.
    10030    2    1    2    0    0  0.00000000000E+00  0.00000000000E+00  0.17044925372E+04  0.28606950120E+04  0.22974510098E+04 0.  0.
        4    1    3    3  502    0  0.78165886506E+02  0.29003429980E+03 -0.52833223371E+03  0.60775518340E+03  0.12699999809E+01 0. -1.
       -4    1    3    3    0  502 -0.78165886506E+02 -0.29003429980E+03  0.22328247709E+04  0.22529398286E+04  0.12699999809E+01 0.  1.
</event>
<event>
 5   0  0.1602809E-05  0.2311025E+04  0.7818609E-02  0.8473587E-01
       -2   -1    0    0    0  501  0.00000000000E+00  0.00000000000E+00  0.27027392743E+04  0.27027392743E+04  0.25500000920E-02 0.  1.
        2   -1    0    0  501    0  0.00000000000E+00  0.00000000000E+00 -0.49402050685E+03  0.49402050686E+03  0.25500000920E-02 0. -1.
    10030    2    1    2    0    0  0.00000000000E+00  0.00000000000E+00  0.22087187675E+04  0.31967597812E+04  0.23110245574E+04 0.  0.
        3    1    3    3  502    0  0.30009549219E+03  0.79684279643E+03  0.21848948006E+04  0.23449479838E+04  0.10100000352E+00 0.  1.
       -3    1    3    3    0  502 -0.30009549219E+03 -0.79684279643E+03  0.23823966887E+02  0.85181179744E+03  0.10100000352E+00 0. -1.
</event>
<event>
 5   0  0.7391007E-06  0.2305329E+04  0.7818609E-02  0.8475823E-01
        1   -1    0    0  501    0  0.00000000000E+00  0.00000000000E+00  0.14553611783E+04  0.14553611783E+04  0.50400001928E-02 0.  1.
       -1   -1    0    0    0  501  0.00000000000E+00  0.00000000000E+00 -0.91292512784E+03  0.91292512785E+03  0.50400001928E-02 0. -1.
    10030    2    1    2    0    0  0.00000000000E+00  0.00000000000E+00  0.54243605042E+03  0.23682863061E+04  0.23053292951E+04 0.  0.
        1    1    3    3  502    0 -0.10358483442E+04 -0.99385712620E+02  0.78051534725E+03  0.13007934192E+04  0.50400001928E-02 0. -1.
       -1    1    3    3    0  502  0.10358483442E+04  0.99385712620E+02 -0.23807929682E+03  0.10674928869E+04  0.50400001928E-02 0.  1.
</event>
<event>
 5   0  0.7183014E-06  0.2328540E+04  0.7818609E-02  0.8466753E-01
        1   -1    0    0  501    0  0.00000000000E+00  0.00000000000E+00  0.14535985032E+04  0.14535985032E+04  0.50400001928E-02 0.  1.
       -1   -1    0    0    0  501  0.00000000000E+00  0.00000000000E+00 -0.93253020856E+03  0.93253020858E+03  0.50400001928E-02 0. -1.
    10030    2    1    2    0    0  0.00000000000E+00  0.00000000000E+00  0.52106829462E+03  0.23861287118E+04  0.23285398991E+04 0.  0.
        3    1    3    3  502    0  0.82777088777E+03  0.79036450918E+03  0.41606250942E+02  0.11452562117E+04  0.10100000352E+00 0. -1.
       -3    1    3    3    0  502 -0.82777088777E+03 -0.79036450918E+03  0.47946204367E+03  0.12408725001E+04  0.10100000352E+00 0.  1.
</event>
<event>
 5   0  0.7202572E-06  0.2292123E+04  0.7818609E-02  0.8481033E-01
        1   -1    0    0  501    0  0.00000000000E+00  0.00000000000E+00  0.12190815748E+04  0.12190815748E+04  0.50400001928E-02 0.  1.
       -1   -1    0    0    0  501  0.00000000000E+00  0.00000000000E+00 -0.10774153147E+04  0.10774153147E+04  0.50400001928E-02 0. -1.
    10030    2    1    2    0    0  0.00000000000E+00  0.00000000000E+00  0.14166626009E+03  0.22964968895E+04  0.22921231717E+04 0.  0.
        2    1    3    3  502    0  0.86406966323E+03  0.67927710255E+03 -0.25447611507E+03  0.11281807737E+04  0.25500000920E-02 0. -1.
       -2    1    3    3    0  502 -0.86406966323E+03 -0.67927710255E+03  0.39614237516E+03  0.11683161158E+04  0.25500000920E-02 0.  1.
</event>
<event>
 5   0  0.7202572E-06  0.2297552E+04  0.7818609E-02  0.8478887E-01
        1   -1    0    0  501    0  0.00000000000E+00  0.00000000000E+00  0.18632553575E+04  0.18632553575E+04  0.50400001928E-02 0. -1.
       -1   -1    0    0    0  501  0.00000000000E+00  0.00000000000E+00 -0.70826945755E+03  0.70826945757E+03  0.50400001928E-02 0.  1.
    10030    2    1    2    0    0  0.00000000000E+00  0.00000000000E+00  0.11549859000E+04  0.25715248151E+04  0.22975524903E+04 0.  0.
        2    1    3    3  502    0 -0.42996772878E+01 -0.13251972431E+03 -0.69967672187E+03  0.71212883644E+03  0.25500000920E-02 0.  1.
       -2    1    3    3    0  502  0.42996772878E+01  0.13251972431E+03  0.18546626218E+04  0.18593959787E+04  0.25500000920E-02 0. -1.
</event>
<event>
 5   0  0.1697855E-05  0.2298557E+04  0.7818609E-02  0.8478490E-01
       -2   -1    0    0    0  501  0.00000000000E+00  0.00000000000E+00  0.69059640780E+03  0.69059640780E+03  0.25500000920E-02 0.  1.
        2   -1    0    0  501    0  0.00000000000E+00  0.00000000000E+00 -0.19126088210E+04  0.19126088210E+04  0.25500000920E-02 0. -1.
    10030    2    1    2    0    0  0.00000000000E+00  0.00000000000E+00 -0.12220124132E+04  0.26032052288E+04  0.22985567483E+04 0.  0.
        5    1    3    3  502    0  0.73301207855E+03  0.53202084276E+03  0.19019276449E+03  0.92549892603E+03  0.46999998093E+01 0.  1.
       -5    1    3    3    0  502 -0.73301207855E+03 -0.53202084276E+03 -0.14122051777E+04  0.16777063028E+04  0.46999998093E+01 0. -1.
</event>
<event>
 5   0  0.7278815E-06  0.2295669E+04  0.7818609E-02  0.8479631E-01
        1   -1    0    0  501    0  0.00000000000E+00  0.00000000000E+00  0.10556498739E+04  0.10556498739E+04  0.50400001928E-02 0.  1.
       -1   -1    0    0    0  501  0.00000000000E+00  0.00000000000E+00 -0.12480692999E+04  0.12480692999E+04  0.50400001928E-02 0. -1.
    10030    2    1    2    0    0  0.00000000000E+00  0.00000000000E+00 -0.19241942603E+03  0.23037191738E+04  0.22956691391E+04 0.  0.
        5    1    3    3  502    0 -0.61235847253E+03 -0.23796825019E+03  0.84830824509E+03  0.10729681988E+04  0.46999998093E+01 0.  1.
       -5    1    3    3    0  502  0.61235847253E+03  0.23796825019E+03 -0.10407276711E+04  0.12307509750E+04  0.46999998093E+01 0. -1.
</event>
<event>
 5   0  0.7183014E-06  0.2308268E+04  0.7818609E-02  0.8474668E-01
       -1   -1    0    0    0  501  0.00000000000E+00  0.00000000000E+00  0.11568223119E+04  0.11568223119E+04  0.50400001928E-02 0. -1.
        1   -1    0    0  501    0  0.00000000000E+00  0.00000000000E+00 -0.11514514514E+04  0.11514514514E+04  0.50400001928E-02 0.  1.
    10030    2    1    2    0    0  0.00000000000E+00  0.00000000000E+00  0.53708605176E+01  0.23082737634E+04  0.23082675149E+04 0.  0.
        3    1    3    3  502    0  0.10971604912E+04 -0.10036380660E+03  0.34647507901E+03  0.11549368068E+04  0.10100000352E+00 0. -1.
       -3    1    3    3    0  502 -0.10971604912E+04  0.10036380660E+03 -0.34110421849E+03  0.11533369565E+04  0.10100000352E+00 0.  1.
</event>
<event>
 5   0  0.7278815E-06  0.2305083E+04  0.7818609E-02  0.8475920E-01
       -1   -1    0    0    0  501  0.00000000000E+00  0.00000000000E+00  0.13996702372E+04  0.13996702372E+04  0.50400001928E-02 0.  1.
        1   -1    0    0  501    0  0.00000000000E+00  0.00000000000E+00 -0.94904605328E+03  0.94904605329E+03  0.50400001928E-02 0. -1.
    10030    2    1    2    0    0  0.00000000000E+00  0.00000000000E+00  0.45062418387E+03  0.23487162904E+04  0.23050826575E+04 0.  0.
        5    1    3    3  502    0  0.12464758809E+03  0.10560154344E+04  0.67827609041E+03  0.12612637170E+04  0.46999998093E+01 0.  1.
       -5    1    3    3    0  502 -0.12464758809E+03 -0.10560154344E+04 -0.22765190654E+03  0.10874525735E+04  0.46999998093E+01 0. -1.
</event>
<event>
 5   0  0.7391007E-06  0.2302628E+04  0.7818609E-02  0.8476886E-01
        1   -1    0    0  501    0  0.00000000000E+00  0.00000000000E+00  0.12811129032E+04  0.12811129032E+04  0.50400001928E-02 0.  1.
       -1   -1    0    0    0  501  0.00000000000E+00  0.00000000000E+00 -0.10346658907E+04  0.10346658907E+04  0.50400001928E-02 0. -1.
    10030    2    1    2    0    0  0.00000000000E+00  0.00000000000E+00  0.24644701248E+03  0.23157787939E+04  0.23026279101E+04 0.  0.
        1    1    3    3  502    0 -0.92340841931E+03  0.18412257696E+03 -0.54308550305E+03  0.10869802647E+04  0.50400001928E-02 0. -1.
       -1    1    3    3    0  502  0.92340841931E+03 -0.18412257696E+03  0.78953251553E+03  0.12287985292E+04  0.50400001928E-02 0.  1.
</event>
<event>
 5   0  0.1635955E-05  0.2305987E+04  0.7818609E-02  0.8475564E-01
        2   -1    0    0  501    0  0.00000000000E+00  0.00000000000E+00  0.11361618148E+04  0.11361618148E+04  0.25500000920E-02 0. -1.
       -2   -1    0    0    0  501  0.00000000000E+00  0.00000000000E+00 -0.11700741374E+04  0.11700741374E+04  0.25500000920E-02 0.  1.
    10030    2    1    2    0    0  0.00000000000E+00  0.00000000000E+00 -0.33912322591E+02  0.23062359522E+04  0.23059866048E+04 0.  0.
        2    1    3    3  502    0  0.50750509562E+03 -0.71862968295E+02  0.10159516459E+04  0.11379294596E+04  0.25500000920E-02 0. -1.
       -2    1    3    3    0  502 -0.50750509562E+03  0.71862968295E+02 -0.10498639685E+04  0.11683064926E+04  0.25500000920E-02 0.  1.
</event>
<event>
 5   0  0.1588969E-05  0.2290249E+04  0.7818609E-02  0.8481776E-01
       -2   -1    0    0    0  501  0.00000000000E+00  0.00000000000E+00  0.10022698527E+04  0.10022698527E+04  0.25500000920E-02 0. -1.
        2   -1    0    0  501    0  0.00000000000E+00  0.00000000000E+00 -0.13083399975E+04  0.13083399975E+04  0.25500000920E-02 0.  1.
    10030    2    1    2    0    0  0.00000000000E+00  0.00000000000E+00 -0.30607014479E+03  0.23106098502E+04  0.22902486647E+04 0.  0.
        1    1    3    3  502    0 -0.55009971972E+03  0.51185602634E+03 -0.10248374694E+04  0.12707864227E+04  0.50400001928E-02 0.  1.
       -1    1    3    3    0  502  0.55009971972E+03 -0.51185602634E+03  0.71876732465E+03  0.10398234275E+04  0.50400001928E-02 0. -1.
</event>
<event>
 5   0  0.7278815E-06  0.2299038E+04  0.7818609E-02  0.8478300E-01
        1   -1    0    0  501    0  0.00000000000E+00  0.00000000000E+00  0.11966119914E+04  0.11966119914E+04  0.50400001928E-02 0. -1.
       -1   -1    0    0    0  501  0.00000000000E+00  0.00000000000E+00 -0.11042796172E+04  0.11042796173E+04  0.50400001928E-02 0.  1.
    10030    2    1    2    0    0  0.00000000000E+00  0.00000000000E+00  0.92332374175E+02  0.23008916087E+04  0.22990382615E+04 0.  0.
        5    1    3    3  502    0 -0.95244888330E+03  0.64047350917E+03 -0.17185321194E+02  0.11479035746E+04  0.46999998093E+01 0.  1.
       -5    1    3    3    0  502  0.95244888330E+03 -0.64047350917E+03  0.10951769537E+03  0.11529880341E+04  0.46999998093E+01 0. -1.
</event>
<event>
 5   0  0.7202572E-06  0.2299351E+04  0.7818609E-02  0.8478177E-01
        1   -1    0    0  501    0  0.00000000000E+00  0.00000000000E+00  0.16135751959E+04  0.16135751960E+04  0.50400001928E-02 0.  1.
       -1   -1    0    0    0  501  0.00000000000E+00  0.00000000000E+00 -0.81914612198E+03  0.81914612200E+03  0.50400001928E-02 0. -1.
    10030    2    1    2    0    0  0.00000000000E+00  0.00000000000E+00  0.79442907396E+03  0.24327213180E+04  0.22993510948E+04 0.  0.
        2    1    3    3  502    0  0.13668401217E+03 -0.82532348128E+03  0.12315711501E+04  0.14888280175E+04  0.25500000920E-02 0.  1.
       -2    1    3    3    0  502 -0.13668401217E+03  0.82532348128E+03 -0.43714207613E+03  0.94389330046E+03  0.25500000920E-02 0. -1.
</event>
<event>
 5   0  0.7183014E-06  0.2289637E+04  0.7818609E-02  0.8482018E-01
        1   -1    0    0  501    0  0.00000000000E+00  0.00000000000E+00  0.14058955974E+04  0.14058955974E+04  0.50400001928E-02 0. -1.
       -1   -1    0    0    0  501  0.00000000000E+00  0.00000000000E+00 -0.93222359060E+03  0.93222359061E+03  0.50400001928E-02 0.  1.
    10030    2    1    2    0    0  0.00000000000E+00  0.00000000000E+00  0.47367200677E+03  0.23381191880E+04  0.22896366889E+04 0.  0.
        3    1    3    3  502    0 -0.49454250540E+03 -0.10320995093E+04  0.20782053291E+03  0.11631814436E+04  0.10100000352E+00 0. -1.
       -3    1    3    3    0  502  0.49454250540E+03  0.10320995093E+04  0.26585147387E+03  0.11749377443E+04  0.10100000352E+00 0.  1.
</event>
<event>
 5   0  0.1635955E-05  0.2303938E+04  0.7818609E-02  0.8476370E-01
       -2   -1    0    0    0  501  0.00000000000E+00  0.00000000000E+00  0.75705201505E+03  0.75705201506E+03  0.25500000920E-02 0. -1.
        2   -1    0    0  501    0  0.00000000000E+00  0.00000000000E+00 -0.17528944757E+04  0.17528944757E+04  0.25500000920E-02 0.  1.
    10030    2    1    2    0    0  0.00000000000E+00  0.00000000000E+00 -0.99584246069E+03  0.25099464908E+04  0.23039377553E+04 0.  0.
        2    1    3    3  502    0  0.69464092635E+02  0.18636036349E+03  0.73820674588E+03  0.76452903471E+03  0.25500000920E-02 0. -1.
       -2    1    3    3    0  502 -0.69464092635E+02 -0.18636036349E+03 -0.17340492066E+04  0.17454174561E+04  0.25500000920E-02 0.  1.
</event>
<event>
 5   0  0.1588969E-05  0.2317576E+04  0.7818609E-02  0.8471023E-01
       -2   -1    0    0    0  501  0.00000000000E+00  0.00000000000E+00  0.81857938164E+03  0.81857938165E+03  0.25500000920E-02 0.  1.
        2   -1    0    0  501    0  0.00000000000E+00  0.00000000000E+00 -0.16403904746E+04  0.16403904746E+04  0.25500000920E-02 0. -1.
    10030    2    1    2    0    0  0.00000000000E+00  0.00000000000E+00 -0.82181109301E+03  0.24589698563E+04  0.23175761652E+04 0.  0.
        1    1    3    3  502    0  0.51112755701E+03  0.78198969384E+03  0.31650942709E+03  0.98637593151E+03  0.50400001928E-02 0.  1.
       -1    1    3    3    0  502 -0.51112755701E+03 -0.78198969384E+03 -0.11383205201E+04  0.14725939248E+04  0.50400001928E-02 0. -1.
</event>
<event>
 5   0  0.7391007E-06  0.2299056E+04  0.7818609E-02  0.8478293E-01
        1   -1    0    0  501    0  0.00000000000E+00  0.00000000000E+00  0.14109662244E+04  0.14109662244E+04  0.50400001928E-02 0.  1.
       -1   -1    0    0    0  501  0.00000000000E+00  0.00000000000E+00 -0.93653194183E+03  0.93653194185E+03  0.50400001928E-02 0. -1.
    10030    2    1    2    0    0  0.00000000000E+00  0.00000000000E+00  0.47443428259E+03  0.23474981663E+04  0.22990562743E+04 0.  0.
        1    1    3    3  502    0 -0.85816546162E+03 -0.25824725510E+02 -0.54328415058E+03  0.10160081418E+04  0.50400001928E-02 0. -1.
       -1    1    3    3    0  502  0.85816546162E+03  0.25824725510E+02  0.10177184332E+04  0.13314900244E+04  0.50400001928E-02 0.  1.
</event>
<event>
 5   0  0.1635955E-05  0.2261287E+04  0.7818609E-02  0.8493343E-01
       -2   -1    0    0    0  501  0.00000000000E+00  0.00000000000E+00  0.12681499080E+04  0.12681499080E+04  0.25500000920E-02 0.  1.
        2   -1    0    0  501    0  0.00000000000E+00  0.00000000000E+00 -0.10080471670E+04  0.10080471670E+04  0.25500000920E-02 0. -1.
    10030    2    1    2    0    0  0.00000000000E+00  0.00000000000E+00  0.26010274107E+03  0.22761970750E+04  0.22612871751E+04 0.  0.
        2    1    3    3  502    0 -0.12142033517E+03 -0.78786321520E+03 -0.67703554668E+03  0.10458721122E+04  0.25500000920E-02 0. -1.
       -2    1    3    3    0  502  0.12142033517E+03  0.78786321520E+03  0.93713828775E+03  0.12303249628E+04  0.25500000920E-02 0.  1.
</event>
<event>
 5   0  0.7416556E-06  0.2302206E+04  0.7818609E-02  0.8477052E-01
       -1   -1    0    0    0  501  0.00000000000E+00  0.00000000000E+00  0.11604000724E+04  0.11604000725E+04  0.50400001928E-02 0. -1.
        1   -1    0    0  501    0  0.00000000000E+00  0.00000000000E+00 -0.11418800931E+04  0.11418800931E+04  0.50400001928E-02 0.  1.
    10030    2    1    2    0    0  0.00000000000E+00  0.00000000000E+00  0.18519979313E+02  0.23022801656E+04  0.23022056753E+04 0.  0.
        4    1    3    3  502    0 -0.71720522975E+03  0.14142532932E+03 -0.87995473704E+03  0.11439870705E+04  0.12699999809E+01 0.  1.
       -4    1    3    3    0  502  0.71720522975E+03 -0.14142532932E+03  0.89847471635E+03  0.11582930951E+04  0.12699999809E+01 0. -1.
</event>
<event>
 5   0  0.7183014E-06  0.2305574E+04  0.7818609E-02  0.8475727E-01
        1   -1    0    0  501    0  0.00000000000E+00  0.00000000000E+00  0.10939501006E+04  0.10939501006E+04  0.50400001928E-02 0. -1.
       -1   -1    0    0    0  501  0.00000000000E+00  0.00000000000E+00 -0.12147881413E+04  0.12147881413E+04  0.50400001928E-02 0.  1.
    10030    2    1    2    0    0  0.00000000000E+00  0.00000000000E+00 -0.12083804074E+03  0.23087382419E+04  0.23055737762E+04 0.  0.
        3    1    3    3  502    0  0.39598574952E+03  0.21093657059E+02 -0.11443408097E+04  0.12111009682E+04  0.10100000352E+00 0.  1.
       -3    1    3    3    0  502 -0.39598574952E+03 -0.21093657059E+02  0.10235027690E+04  0.10976372737E+04  0.10100000352E+00 0. -1.
</event>
<event>
 5   0  0.1697855E-05  0.2354303E+04  0.7818609E-02  0.8456813E-01
       -2   -1    0    0    0  501  0.00000000000E+00  0.00000000000E+00  0.72847856383E+03  0.72847856384E+03  0.25500000920E-02 0.  1.
        2   -1    0    0  501    0  0.00000000000E+00  0.00000000000E+00 -0.19021639278E+04  0.19021639278E+04  0.25500000920E-02 0. -1.
    10030    2    1    2    0    0  0.00000000000E+00  0.00000000000E+00 -0.11736853639E+04  0.26306424916E+04  0.23543029935E+04 0.  0.
        5    1    3    3  502    0 -0.10901651017E+03  0.10979169380E+04 -0.12836782690E+03  0.11107684687E+04  0.46999998093E+01 0.  1.
       -5    1    3    3    0  502  0.10901651017E+03 -0.10979169380E+04 -0.10453175370E+04  0.15198740229E+04  0.46999998093E+01 0. -1.
</event>
<event>
 5   0  0.1635955E-05  0.2304711E+04  0.7818609E-02  0.8476066E-01
       -2   -1    0    0    0  501  0.00000000000E+00  0.00000000000E+00  0.70455506287E+03  0.70455506288E+03  0.25500000920E-02 0.  1.
        2   -1    0    0  501    0  0.00000000000E+00  0.00000000000E+00 -0.18847688700E+04  0.18847688700E+04  0.25500000920E-02 0. -1.
    10030    2    1    2    0    0  0.00000000000E+00  0.00000000000E+00 -0.11802138071E+04  0.25893239329E+04  0.23047112181E+04 0.  0.
        2    1    3    3  502    0  0.17389076338E+03  0.87181728637E+03 -0.14138800049E+04  0.16701377328E+04  0.25500000920E-02 0. -1.
       -2    1    3    3    0  502 -0.17389076338E+03 -0.87181728637E+03  0.23366619775E+03  0.91918620006E+03  0.25500000920E-02 0.  1.
</event>
<event>
 5   0  0.5704875E-06  0.2312284E+04  0.7818609E-02  0.8473093E-01
       -3   -1    0    0    0  501  0.00000000000E+00  0.00000000000E+00  0.67273524373E+03  0.67273525131E+03  0.10100000352E+00 0.  1.
        3   -1    0    0  501    0  0.00000000000E+00  0.00000000000E+00 -0.19869099812E+04  0.19869099838E+04  0.10100000352E+00 0. -1.
    10030    2    1    2    0    0  0.00000000000E+00  0.00000000000E+00 -0.13141747375E+04  0.26596452351E+04  0.23122840517E+04 0.  0.
        1    1    3    3  502    0  0.44212224686E+03  0.10173153720E+04 -0.10320353171E+04  0.15150906056E+04  0.50400001928E-02 0. -1.
       -1    1    3    3    0  502 -0.44212224686E+03 -0.10173153720E+04 -0.28213942037E+03  0.11445546295E+04  0.50400001928E-02 0.  1.
</event>
<event>
 5   0  0.7278815E-06  0.2296500E+04  0.7818609E-02  0.8479302E-01
        1   -1    0    0  501    0  0.00000000000E+00  0.00000000000E+00  0.15312220050E+04  0.15312220050E+04  0.50400001928E-02 0. -1.
       -1   -1    0    0    0  501  0.00000000000E+00  0.00000000000E+00 -0.86106243117E+03  0.86106243119E+03  0.50400001928E-02 0.  1.
    10030    2    1    2    0    0  0.00000000000E+00  0.00000000000E+00  0.67015957379E+03  0.23922844362E+04  0.22964997211E+04 0.  0.
        5    1    3    3  502    0 -0.56040100584E+03 -0.85096075766E+03  0.88656820139E+03  0.13506327273E+04  0.46999998093E+01 0. -1.
       -5    1    3    3    0  502  0.56040100584E+03  0.85096075766E+03 -0.21640862761E+03  0.10416517088E+04  0.46999998093E+01 0.  1.
</event>
<event>
 5   0  0.7202572E-06  0.2303709E+04  0.7818609E-02  0.8476460E-01
        1   -1    0    0  501    0  0.00000000000E+00  0.00000000000E+00  0.57476675298E+03  0.57476675300E+03  0.50400001928E-02 0.  1.
       -1   -1    0    0    0  501  0.00000000000E+00  0.00000000000E+00 -0.23083594621E+04  0.23083594621E+04  0.50400001928E-02 0. -1.
    10030    2    1    2    0    0  0.00000000000E+00  0.00000000000E+00 -0.17335927091E+04  0.28831262151E+04  0.23037085517E+04 0.  0.
        2    1    3    3  502    0 -0.10396934078E+04  0.41253453477E+03 -0.12109542631E+04  0.16485015475E+04  0.25500000920E-02 0. -1.
       -2    1    3    3    0  502  0.10396934078E+04 -0.41253453477E+03 -0.52263844604E+03  0.12346246677E+04  0.25500000920E-02 0.  1.
</event>
<event>
 5   0  0.7391007E-06  0.2302478E+04  0.7818609E-02  0.8476945E-01
       -1   -1    0    0    0  501  0.00000000000E+00  0.00000000000E+00  0.14111338486E+04  0.14111338486E+04  0.50400001928E-02 0.  1.
        1   -1    0    0  501    0  0.00000000000E+00  0.00000000000E+00 -0.93921038192E+03  0.93921038193E+03  0.50400001928E-02 0. -1.
    10030    2    1    2    0    0  0.00000000000E+00  0.00000000000E+00  0.47192346668E+03  0.23503442305E+04  0.23024782830E+04 0.  0.
        1    1    3    3  502    0  0.22794377416E+03 -0.74128177573E+03  0.11044692412E+04  0.13495589428E+04  0.50400001928E-02 0.  1.
       -1    1    3    3    0  502 -0.22794377416E+03  0.74128177573E+03 -0.63254577456E+03  0.10007852877E+04  0.50400001928E-02 0. -1.
</event>
<event>
 5   0  0.1635955E-05  0.2304661E+04  0.7818609E-02  0.8476086E-01
       -2   -1    0    0    0  501  0.00000000000E+00  0.00000000000E+00  0.95188677542E+03  0.95188677543E+03  0.25500000920E-02 0. -1.
        2   -1    0    0  501    0  0.00000000000E+00  0.00000000000E+00 -0.13949821017E+04  0.13949821017E+04  0.25500000920E-02 0.  1.
    10030    2    1    2    0    0  0.00000000000E+00  0.00000000000E+00 -0.44309532628E+03  0.23468688771E+04  0.23046605083E+04 0.  0.
        2    1    3    3  502    0 -0.29775315007E+03  0.78255262775E+03 -0.10277667979E+04  0.13256508381E+04  0.25500000920E-02 0.  1.
       -2    1    3    3    0  502  0.29775315007E+03 -0.78255262775E+03  0.58467147163E+03  0.10212180391E+04  0.25500000920E-02 0. -1.
</event>
<event>
 5   0  0.7391007E-06  0.2303663E+04  0.7818609E-02  0.8476478E-01
       -1   -1    0    0    0  501  0.00000000000E+00  0.00000000000E+00  0.13665945334E+04  0.13665945334E+04  0.50400001928E-02 0. -1.
        1   -1    0    0  501    0  0.00000000000E+00  0.00000000000E+00 -0.97081880503E+03  0.97081880505E+03  0.50400001928E-02 0.  1.
    10030    2    1    2    0    0  0.00000000000E+00  0.00000000000E+00  0.39577572836E+03  0.23374133385E+04  0.23036628850E+04 0.  0.
        1    1    3    3  502    0  0.11094448413E+04 -0.20798108053E+03 -0.34800753789E+02  0.11293073444E+04  0.50400001928E-02 0.  1.
       -1    1    3    3    0  502 -0.11094448413E+04  0.20798108053E+03  0.43057648215E+03  0.12081059940E+04  0.50400001928E-02 0. -1.
</event>
<event>
 5   0  0.1697855E-05  0.2301548E+04  0.7818609E-02  0.8477311E-01
       -2   -1    0    0    0  501  0.00000000000E+00  0.00000000000E+00  0.90267909463E+03  0.90267909463E+03  0.25500000920E-02 0. -1.
        2   -1    0    0  501    0  0.00000000000E+00  0.00000000000E+00 -0.14670565825E+04  0.14670565825E+04  0.25500000920E-02 0.  1.
    10030    2    1    2    0    0  0.00000000000E+00  0.00000000000E+00 -0.56437748789E+03  0.23697356772E+04  0.23015484420E+04 0.  0.
        5    1    3    3  502    0  0.93932634301E+03  0.70360387230E+02  0.39843627771E+03  0.10227698276E+04  0.46999998093E+01 0. -1.
       -5    1    3    3    0  502 -0.93932634301E+03 -0.70360387230E+02 -0.96281376560E+03  0.13469658496E+04  0.46999998093E+01 0.  1.
</event>
<event>
 5   0  0.7183014E-06  0.2309026E+04  0.7818609E-02  0.8474371E-01
        1   -1    0    0  501    0  0.00000000000E+00  0.00000000000E+00  0.10162077748E+04  0.10162077748E+04  0.50400001928E-02 0. -1.
       -1   -1    0    0    0  501  0.00000000000E+00  0.00000000000E+00 -0.13116410355E+04  0.13116410356E+04  0.50400001928E-02 0.  1.
    10030    2    1    2    0    0  0.00000000000E+00  0.00000000000E+00 -0.29543326076E+03  0.23278488103E+04  0.23090256110E+04 0.  0.
        3    1    3    3  502    0 -0.87052701611E+02 -0.90084403891E+03 -0.87035957789E+03  0.12556368744E+04  0.10100000352E+00 0.  1.
       -3    1    3    3    0  502  0.87052701611E+02  0.90084403891E+03  0.57492631713E+03  0.10722119360E+04  0.10100000352E+00 0. -1.
</event>
<event>
 5   0  0.5704875E-06  0.2287533E+04  0.7818609E-02  0.8482853E-01
       -3   -1    0    0    0  501  0.00000000000E+00  0.00000000000E+00  0.93177370196E+03  0.93177370744E+03  0.10100000352E+00 0.  1.
        3   -1    0    0  501    0  0.00000000000E+00  0.00000000000E+00 -0.14039913601E+04  0.14039913637E+04  0.10100000352E+00 0. -1.
    10030    2    1    2    0    0  0.00000000000E+00  0.00000000000E+00 -0.47221765809E+03  0.23357650711E+04  0.22875333770E+04 0.  0.
        4    1    3    3  502    0  0.56834421654E+03  0.98108286613E+03 -0.82396130645E+02  0.11368067003E+04  0.12699999809E+01 0.  1.
       -4    1    3    3    0  502 -0.56834421654E+03 -0.98108286613E+03 -0.38982152744E+03  0.11989583708E+04  0.12699999809E+01 0. -1.
</event>
<event>
 5   0  0.7278815E-06  0.2300543E+04  0.7818609E-02  0.8477707E-01
       -1   -1    0    0    0  501  0.00000000000E+00  0.00000000000E+00  0.13054900664E+04  0.13054900664E+04  0.50400001928E-02 0.  1.
        1   -1    0    0  501    0  0.00000000000E+00  0.00000000000E+00 -0.10135079588E+04  0.10135079588E+04  0.50400001928E-02 0. -1.
    10030    2    1    2    0    0  0.00000000000E+00  0.00000000000E+00  0.29198210758E+03  0.23189980252E+04  0.23005430423E+04 0.  0.
        5    1    3    3  502    0 -0.23039966850E+03  0.37404012389E+03 -0.92560436290E+03  0.10245757894E+04  0.46999998093E+01 0. -1.
       -5    1    3    3    0  502  0.23039966850E+03 -0.37404012389E+03  0.12175864705E+04  0.12944222358E+04  0.46999998093E+01 0.  1.
</event>
<event>
 5   0  0.1635955E-05  0.2294656E+04  0.7818609E-02  0.8480031E-01
       -2   -1    0    0    0  501  0.00000000000E+00  0.00000000000E+00  0.14080756653E+04  0.14080756653E+04  0.25500000920E-02 0. -1.
        2   -1    0    0  501    0  0.00000000000E+00  0.00000000000E+00 -0.93486597972E+03  0.93486597972E+03  0.25500000920E-02 0.  1.
    10030    2    1    2    0    0  0.00000000000E+00  0.00000000000E+00  0.47320968554E+03  0.23429416450E+04  0.22946564330E+04 0.  0.
        2    1    3    3  502    0  0.45267053820E+03 -0.62455787153E+03 -0.63060762895E+03  0.99631778702E+03  0.25500000920E-02 0.  1.
       -2    1    3    3    0  502 -0.45267053820E+03  0.62455787153E+03  0.11038173145E+04  0.13466238580E+04  0.25500000920E-02 0. -1.
</event>
<event>
 5   0  0.5704875E-06  0.2297991E+04  0.7818609E-02  0.8478714E-01
        3   -1    0    0  501    0  0.00000000000E+00  0.00000000000E+00  0.12193524912E+04  0.12193524954E+04  0.10100000352E+00 0.  1.
       -3   -1    0    0    0  501  0.00000000000E+00  0.00000000000E+00 -0.10826983289E+04  0.10826983336E+04  0.10100000352E+00 0. -1.
    10030    2    1    2    0    0  0.00000000000E+00  0.00000000000E+00  0.13665416233E+03  0.23020508289E+04  0.22979912226E+04 0.  0.
        1    1    3    3  502    0  0.74667867477E+03  0.55546503287E+03  0.74340216917E+03  0.11910991694E+04  0.50400001928E-02 0.  1.
       -1    1    3    3    0  502 -0.74667867477E+03 -0.55546503287E+03 -0.60674800684E+03  0.11109516596E+04  0.50400001928E-02 0. -1.
</event>
<event>
 5   0  0.7391007E-06  0.2301524E+04  0.7818609E-02  0.8477320E-01
       -1   -1    0    0    0  501  0.00000000000E+00  0.00000000000E+00  0.13018152494E+04  0.13018152495E+04  0.50400001928E-02 0.  1.
        1   -1    0    0  501    0  0.00000000000E+00  0.00000000000E+00 -0.10172359427E+04  0.10172359427E+04  0.50400001928E-02 0. -1.
    10030    2    1    2    0    0  0.00000000000E+00  0.00000000000E+00  0.28457930679E+03  0.23190511921E+04  0.23015240711E+04 0.  0.
        1    1    3    3  502    0 -0.73252361813E+03  0.82883459293E+03 -0.17745266783E+03  0.11202888390E+04  0.50400001928E-02 0.  1.
       -1    1    3    3    0  502  0.73252361813E+03 -0.82883459293E+03  0.46203197462E+03  0.11987623531E+04  0.50400001928E-02 0. -1.
</event>
<event>
 5   0  0.1635955E-05  0.2301092E+04  0.7818609E-02  0.8477490E-01
        2   -1    0    0  501    0  0.00000000000E+00  0.00000000000E+00  0.83441441919E+03  0.83441441919E+03  0.25500000920E-02 0. -1.
       -2   -1    0    0    0  501  0.00000000000E+00  0.00000000000E+00 -0.15864498361E+04  0.15864498361E+04  0.25500000920E-02 0.  1.
    10030    2    1    2    0    0  0.00000000000E+00  0.00000000000E+00 -0.75203541690E+03  0.24208642553E+04  0.23010924523E+04 0.  0.
        2    1    3    3  502    0  0.53857622488E+03  0.34897939352E+03  0.62862427627E+03  0.89834261161E+03  0.25500000920E-02 0. -1.
       -2    1    3    3    0  502 -0.53857622488E+03 -0.34897939352E+03 -0.13806596932E+04  0.15225216437E+04  0.25500000920E-02 0.  1.
</event>
<event>
 5   0  0.7202572E-06  0.2301433E+04  0.7818609E-02  0.8477356E-01
       -1   -1    0    0    0  501  0.00000000000E+00  0.00000000000E+00  0.57046911531E+03  0.57046911533E+03  0.50400001928E-02 0. -1.
        1   -1    0    0  501    0  0.00000000000E+00  0.00000000000E+00 -0.23211562686E+04  0.23211562686E+04  0.50400001928E-02 0.  1.
    10030    2    1    2    0    0  0.00000000000E+00  0.00000000000E+00 -0.17506871533E+04  0.28916253839E+04  0.23014325652E+04 0.  0.
        2    1    3    3  502    0  0.55257966026E+03  0.40968539118E+03  0.28369728260E+03  0.74409041712E+03  0.25500000920E-02 0. -1.
       -2    1    3    3    0  502 -0.55257966026E+03 -0.40968539118E+03 -0.20343844359E+04  0.21475349668E+04  0.25500000920E-02 0.  1.
</event>
<event>
 5   0  0.7202572E-06  0.2297193E+04  0.7818609E-02  0.8479029E-01
       -1   -1    0    0    0  501  0.00000000000E+00  0.00000000000E+00  0.82002259345E+03  0.82002259347E+03  0.50400001928E-02 0.  1.
        1   -1    0    0  501    0  0.00000000000E+00  0.00000000000E+00 -0.16088262234E+04  0.16088262234E+04  0.50400001928E-02 0. -1.
    10030    2    1    2    0    0  0.00000000000E+00  0.00000000000E+00 -0.78880362995E+03  0.24288488169E+04  0.22971929411E+04 0.  0.
        2    1    3    3  502    0  0.38645477159E+03 -0.54881582201E+03 -0.13798751067E+04  0.15344710513E+04  0.25500000920E-02 0. -1.
       -2    1    3    3    0  502 -0.38645477159E+03  0.54881582201E+03  0.59107147678E+03  0.89437776562E+03  0.25500000920E-02 0.  1.
</event>
<event>
 5   0  0.7416556E-06  0.2286827E+04  0.7818609E-02  0.8483133E-01
       -1   -1    0    0    0  501  0.00000000000E+00  0.00000000000E+00  0.12929679689E+04  0.12929679689E+04  0.50400001928E-02 0. -1.
        1   -1    0    0  501    0  0.00000000000E+00  0.00000000000E+00 -0.10111576834E+04  0.10111576834E+04  0.50400001928E-02 0.  1.
    10030    2    1    2    0    0  0.00000000000E+00  0.00000000000E+00  0.28181028550E+03  0.23041256524E+04  0.22868270562E+04 0.  0.
        4    1    3    3  502    0 -0.14485772317E+02  0.94018203351E+03 -0.51458564902E+03  0.10718918307E+04  0.12699999809E+01 0.  1.
       -4    1    3    3    0  502  0.14485772317E+02 -0.94018203351E+03  0.79639593452E+03  0.12322338216E+04  0.12699999809E+01 0. -1.
</event>
<event>
 5   0  0.7416556E-06  0.2283978E+04  0.7818609E-02  0.8484265E-01
       -1   -1    0    0    0  501  0.00000000000E+00  0.00000000000E+00  0.10613302596E+04  0.10613302596E+04  0.50400001928E-02 0. -1.
        1   -1    0    0  501    0  0.00000000000E+00  0.00000000000E+00 -0.12287777242E+04  0.12287777242E+04  0.50400001928E-02 0.  1.
    10030    2    1    2    0    0  0.00000000000E+00  0.00000000000E+00 -0.16744746458E+03  0.22901079838E+04  0.22839780919E+04 0.  0.
        4    1    3    3  502    0  0.37672963295E+03 -0.10763171282E+04 -0.22292741468E+02  0.11405622982E+04  0.12699999809E+01 0. -1.
       -4    1    3    3    0  502 -0.37672963295E+03  0.10763171282E+04 -0.14515472311E+03  0.11495456856E+04  0.12699999809E+01 0.  1.
</event>
<event>
 5   0  0.7278815E-06  0.2182514E+04  0.7818609E-02  0.8525742E-01
        1   -1    0    0  501    0  0.00000000000E+00  0.00000000000E+00  0.91424444821E+03  0.91424444823E+03  0.50400001928E-02 0.  1.
       -1   -1    0    0    0  501  0.00000000000E+00  0.00000000000E+00 -0.13025418670E+04  0.13025418670E+04  0.50400001928E-02 0. -1.
    10030    2    1    2    0    0  0.00000000000E+00  0.00000000000E+00 -0.38829741875E+03  0.22167863152E+04  0.21825138446E+04 0.  0.
        5    1    3    3  502    0  0.48465823821E+03 -0.94722669072E+03 -0.44020806626E+03  0.11514934837E+04  0.46999998093E+01 0. -1.
       -5    1    3    3    0  502 -0.48465823821E+03  0.94722669072E+03  0.51910647512E+02  0.10652928315E+04  0.46999998093E+01 0.  1.
</event>
<event>
 5   0  0.7183014E-06  0.2302999E+04  0.7818609E-02  0.8476740E-01
       -1   -1    0    0    0  501  0.00000000000E+00  0.00000000000E+00  0.90347594998E+03  0.90347594999E+03  0.50400001928E-02 0.  1.
        1   -1    0    0  501    0  0.00000000000E+00  0.00000000000E+00 -0.14676111137E+04  0.14676111137E+04  0.50400001928E-02 0. -1.
    10030    2    1    2    0    0  0.00000000000E+00  0.00000000000E+00 -0.56413516368E+03  0.23710870637E+04  0.23029992142E+04 0.  0.
        3    1    3    3  502    0 -0.27510739067E+03 -0.61240730883E+03 -0.12452608886E+04  0.14147089733E+04  0.10100000352E+00 0. -1.
       -3    1    3    3    0  502  0.27510739067E+03  0.61240730883E+03  0.68112572493E+03  0.95637809033E+03  0.10100000352E+00 0.  1.
</event>
<event>
 5   0  0.1697855E-05  0.2300270E+04  0.7818609E-02  0.8477815E-01
        2   -1    0    0  501    0  0.00000000000E+00  0.00000000000E+00  0.15366438004E+04  0.15366438004E+04  0.25500000920E-02 0.  1.
       -2   -1    0    0    0  501  0.00000000000E+00  0.00000000000E+00 -0.86084402797E+03  0.86084402798E+03  0.25500000920E-02 0. -1.
    10030    2    1    2    0    0  0.00000000000E+00  0.00000000000E+00  0.67579977241E+03  0.23974878284E+04  0.23002701047E+04 0.  0.
        5    1    3    3  502    0  0.10639639261E+04 -0.18297190891E+03  0.75126036455E+03  0.13152612595E+04  0.46999998093E+01 0.  1.
       -5    1    3    3    0  502 -0.10639639261E+04  0.18297190891E+03 -0.75460592139E+02  0.10822265689E+04  0.46999998093E+01 0. -1.
</event>
<event>
 5   0  0.7278815E-06  0.2309102E+04  0.7818609E-02  0.8474341E-01
        1   -1    0    0  501    0  0.00000000000E+00  0.00000000000E+00  0.13089427720E+04  0.13089427721E+04  0.50400001928E-02 0. -1.
       -1   -1    0    0    0  501  0.00000000000E+00  0.00000000000E+00 -0.10183702516E+04  0.10183702516E+04  0.50400001928E-02 0.  1.
    10030    2    1    2    0    0  0.00000000000E+00  0.00000000000E+00  0.29057252049E+03  0.23273130236E+04  0.23091023191E+04 0.  0.
        5    1    3    3  502    0 -0.76832271640E+03  0.59092336448E+03 -0.48692139120E+03  0.10847233520E+04  0.46999998093E+01 0. -1.
       -5    1    3    3    0  502  0.76832271640E+03 -0.59092336448E+03  0.77749391169E+03  0.12425896716E+04  0.46999998093E+01 0.  1.
</event>
<event>
 5   0  0.1588969E-05  0.2426027E+04  0.7818609E-02  0.8429823E-01
       -2   -1    0    0    0  501  0.00000000000E+00  0.00000000000E+00  0.11157721626E+04  0.11157721626E+04  0.25500000920E-02 0.  1.
        2   -1    0    0  501    0  0.00000000000E+00  0.00000000000E+00 -0.13187290488E+04  0.13187290488E+04  0.25500000920E-02 0. -1.
    10030    2    1    2    0    0  0.00000000000E+00  0.00000000000E+00 -0.20295688617E+03  0.24345012114E+04  0.24260265148E+04 0.  0.
        1    1    3    3  502    0 -0.84867228928E+03 -0.79348293981E+03  0.24836718270E+03  0.11880850508E+04  0.50400001928E-02 0.  1.
       -1    1    3    3    0  502  0.84867228928E+03  0.79348293981E+03 -0.45132406887E+03  0.12464161607E+04  0.50400001928E-02 0. -1.
</event>
<event>
 5   0  0.7183014E-06  0.2269738E+04  0.7818609E-02  0.8489949E-01
       -1   -1    0    0    0  501  0.00000000000E+00  0.00000000000E+00  0.11171566037E+04  0.11171566037E+04  0.50400001928E-02 0.  1.
        1   -1    0    0  501    0  0.00000000000E+00  0.00000000000E+00 -0.11528626984E+04  0.11528626984E+04  0.50400001928E-02 0. -1.
    10030    2    1    2    0    0  0.00000000000E+00  0.00000000000E+00 -0.35706094758E+02  0.22700193021E+04  0.22697384666E+04 0.  0.
        3    1    3    3  502    0 -0.11311664115E+04 -0.68719677193E+02  0.42721119987E+02  0.11340568543E+04  0.10100000352E+00 0.  1.
       -3    1    3    3    0  502  0.11311664115E+04  0.68719677193E+02 -0.78427214746E+02  0.11359624478E+04  0.10100000352E+00 0. -1.
</event>
<event>
 5   0  0.7202572E-06  0.2300916E+04  0.7818609E-02  0.8477560E-01
        1   -1    0    0  501    0  0.00000000000E+00  0.00000000000E+00  0.12070499970E+04  0.12070499970E+04  0.50400001928E-02 0. -1.
       -1   -1    0    0    0  501  0.00000000000E+00  0.00000000000E+00 -0.10965188946E+04  0.10965188946E+04  0.50400001928E-02 0.  1.
    10030    2    1    2    0    0  0.00000000000E+00  0.00000000000E+00  0.11053110244E+03  0.23035688916E+04  0.23009155816E+04 0.  0.
        2    1    3    3  502    0  0.73797271449E+03  0.88079382942E+03  0.11146967870E+03  0.11544812630E+04  0.25500000920E-02 0. -1.
       -2    1    3    3    0  502 -0.73797271449E+03 -0.88079382942E+03 -0.93857625074E+00  0.11490876286E+04  0.25500000920E-02 0.  1.
</event>
<event>
 5   0  0.1588969E-05  0.2294576E+04  0.7818609E-02  0.8480063E-01
       -2   -1    0    0    0  501  0.00000000000E+00  0.00000000000E+00  0.99504798649E+03  0.99504798649E+03  0.25500000920E-02 0. -1.
        2   -1    0    0  501    0  0.00000000000E+00  0.00000000000E+00 -0.13228205614E+04  0.13228205614E+04  0.25500000920E-02 0.  1.
    10030    2    1    2    0    0  0.00000000000E+00  0.00000000000E+00 -0.32777257495E+03  0.23178685479E+04  0.22945761579E+04 0.  0.
        1    1    3    3  502    0  0.28889190999E+03  0.10134037648E+04  0.29439756385E+03  0.10941278042E+04  0.50400001928E-02 0.  1.
       -1    1    3    3    0  502 -0.28889190999E+03 -0.10134037648E+04 -0.62217013879E+03  0.12237407437E+04  0.50400001928E-02 0. -1.
</event>
<event>
 5   0  0.1602809E-05  0.2294391E+04  0.7818609E-02  0.8480136E-01
       -2   -1    0    0    0  501  0.00000000000E+00  0.00000000000E+00  0.50719568486E+03  0.50719568487E+03  0.25500000920E-02 0.  1.
        2   -1    0    0  501    0  0.00000000000E+00  0.00000000000E+00 -0.25947726765E+04  0.25947726765E+04  0.25500000920E-02 0. -1.
    10030    2    1    2    0    0  0.00000000000E+00  0.00000000000E+00 -0.20875769916E+04  0.31019683613E+04  0.22943909908E+04 0.  0.
        3    1    3    3  502    0  0.92327580690E+03  0.52600626248E+03 -0.16283325002E+04  0.19443733040E+04  0.10100000352E+00 0. -1.
       -3    1    3    3    0  502 -0.92327580690E+03 -0.52600626248E+03 -0.45924449143E+03  0.11575950574E+04  0.10100000352E+00 0.  1.
</event>
<event>
 5   0  0.1588969E-05  0.2306709E+04  0.7818609E-02  0.8475280E-01
       -2   -1    0    0    0  501  0.00000000000E+00  0.00000000000E+00  0.12131968945E+04  0.12131968945E+04  0.25500000920E-02 0. -1.
        2   -1    0    0  501    0  0.00000000000E+00  0.00000000000E+00 -0.10964641836E+04  0.10964641836E+04  0.25500000920E-02 0.  1.
    10030    2    1    2    0    0  0.00000000000E+00  0.00000000000E+00  0.11673271094E+03  0.23096610781E+04  0.23067092947E+04 0.  0.
        1    1    3    3  502    0 -0.90435384014E+03 -0.32086841861E+03 -0.58230752281E+03  0.11224502044E+04  0.50400001928E-02 0.  1.
       -1    1    3    3    0  502  0.90435384014E+03  0.32086841861E+03  0.69904023375E+03  0.11872108737E+04  0.50400001928E-02 0. -1.
</event>
<event>
 5   0  0.1602809E-05  0.2302075E+04  0.7818609E-02  0.8477103E-01
       -2   -1    0    0    0  501  0.00000000000E+00  0.00000000000E+00  0.88565761850E+03  0.88565761851E+03  0.25500000920E-02 0.  1.
        2   -1    0    0  501    0  0.00000000000E+00  0.00000000000E+00 -0.14959360933E+04  0.14959360933E+04  0.25500000920E-02 0. -1.
    10030    2    1    2    0    0  0.00000000000E+00  0.00000000000E+00 -0.61027847480E+03  0.23815937118E+04  0.23020748883E+04 0.  0.
        3    1    3    3  502    0  0.11013141723E+04 -0.76542762673E+02 -0.64217697912E+03  0.12771620818E+04  0.10100000352E+00 0.  1.
       -3    1    3    3    0  502 -0.11013141723E+04  0.76542762673E+02  0.31898504313E+02  0.11044316300E+04  0.10100000352E+00 0. -1.
</event>
<event>
 5   0  0.1635955E-05  0.2307360E+04  0.7818609E-02  0.8475025E-01
        2   -1    0    0  501    0  0.00000000000E+00  0.00000000000E+00  0.10434917895E+04  0.10434917895E+04  0.25500000920E-02 0.  1.
       -2   -1    0    0    0  501  0.00000000000E+00  0.00000000000E+00 -0.12755040818E+04  0.12755040818E+04  0.25500000920E-02 0. -1.
    10030    2    1    2    0    0  0.00000000000E+00  0.00000000000E+00 -0.23201229232E+03  0.23189958713E+04  0.23073604286E+04 0.  0.
        2    1    3    3  502    0 -0.36900178832E+03  0.10716812240E+04 -0.33230075933E+03  0.11811379091E+04  0.25500000920E-02 0.  1.
       -2    1    3    3    0  502  0.36900178832E+03 -0.10716812240E+04  0.10028846701E+03  0.11378579622E+04  0.25500000920E-02 0. -1.
</event>
<event>
 5   0  0.1588969E-05  0.2296857E+04  0.7818609E-02  0.8479161E-01
        2   -1    0    0  501    0  0.00000000000E+00  0.00000000000E+00  0.15410281692E+04  0.15410281692E+04  0.25500000920E-02 0. -1.
       -2   -1    0    0    0  501  0.00000000000E+00  0.00000000000E+00 -0.85584959365E+03  0.85584959365E+03  0.25500000920E-02 0.  1.
    10030    2    1    2    0    0  0.00000000000E+00  0.00000000000E+00  0.68517857553E+03  0.23968777628E+04  0.22968572724E+04 0.  0.
        1    1    3    3  502    0  0.11889785967E+03 -0.66738069785E+03 -0.62479290639E+03  0.92190014253E+03  0.50400001928E-02 0.  1.
       -1    1    3    3    0  502 -0.11889785967E+03  0.66738069785E+03  0.13099714819E+04  0.14749776203E+04  0.50400001928E-02 0. -1.
</event>
<event>
 5   0  0.7278815E-06  0.2296536E+04  0.7818609E-02  0.8479288E-01
       -1   -1    0    0    0  501  0.00000000000E+00  0.00000000000E+00  0.92342710958E+03  0.92342710959E+03  0.50400001928E-02 0.  1.
        1   -1    0    0  501    0  0.00000000000E+00  0.00000000000E+00 -0.14278538065E+04  0.14278538065E+04  0.50400001928E-02 0. -1.
    10030    2    1    2    0    0  0.00000000000E+00  0.00000000000E+00 -0.50442669695E+03  0.23512809161E+04  0.22965355765E+04 0.  0.
        5    1    3    3  502    0  0.82755869270E+03  0.18541440326E+02 -0.10669851028E+04  0.13504356610E+04  0.46999998093E+01 0. -1.
       -5    1    3    3    0  502 -0.82755869270E+03 -0.18541440326E+02  0.56255840581E+03  0.10008452552E+04  0.46999998093E+01 0.  1.
</event>
<event>
 5   0  0.7278815E-06  0.2341603E+04  0.7818609E-02  0.8461696E-01
       -1   -1    0    0    0  501  0.00000000000E+00  0.00000000000E+00  0.97711918064E+03  0.97711918065E+03  0.50400001928E-02 0.  1.
        1   -1    0    0  501    0  0.00000000000E+00  0.00000000000E+00 -0.14028753759E+04  0.14028753759E+04  0.50400001928E-02 0. -1.
    10030    2    1    2    0    0  0.00000000000E+00  0.00000000000E+00 -0.42575619522E+03  0.23799945565E+04  0.23416032438E+04 0.  0.
        5    1    3    3  502    0 -0.61443122548E+02 -0.24118252371E+03  0.94991104618E+03  0.98198643204E+03  0.46999998093E+01 0.  1.
       -5    1    3    3    0  502  0.61443122548E+02  0.24118252371E+03 -0.13756672414E+04  0.13980081245E+04  0.46999998093E+01 0. -1.
</event>
<event>
 5   0  0.1635955E-05  0.2298318E+04  0.7818609E-02  0.8478585E-01
        2   -1    0    0  501    0  0.00000000000E+00  0.00000000000E+00  0.25080925056E+04  0.25080925056E+04  0.25500000920E-02 0.  1.
       -2   -1    0    0    0  501  0.00000000000E+00  0.00000000000E+00 -0.52652210395E+03  0.52652210396E+03  0.25500000920E-02 0. -1.
    10030    2    1    2    0    0  0.00000000000E+00  0.00000000000E+00  0.19815704017E+04  0.30346146096E+04  0.22983177700E+04 0.  0.
        2    1    3    3  502    0  0.10042038675E+04 -0.60704381778E+02  0.25747136541E+03  0.10384613298E+04  0.25500000920E-02 0. -1.
       -2    1    3    3    0  502 -0.10042038675E+04  0.60704381778E+02  0.17240990363E+04  0.19961532798E+04  0.25500000920E-02 0.  1.
</event>
<event>
 5   0  0.7183014E-06  0.2183982E+04  0.7818609E-02  0.8525125E-01
       -1   -1    0    0    0  501  0.00000000000E+00  0.00000000000E+00  0.36243805301E+03  0.36243805305E+03  0.50400001928E-02 0. -1.
        1   -1    0    0  501    0  0.00000000000E+00  0.00000000000E+00 -0.32900637474E+04  0.32900637475E+04  0.50400001928E-02 0.  1.
    10030    2    1    2    0    0  0.00000000000E+00  0.00000000000E+00 -0.29276256944E+04  0.36525018005E+04  0.21839819587E+04 0.  0.
        3    1    3    3  502    0  0.88583944694E+03  0.16207919882E+03 -0.43089053904E+03  0.99832252267E+03  0.10100000352E+00 0. -1.
       -3    1    3    3    0  502 -0.88583944694E+03 -0.16207919882E+03 -0.24967351554E+04  0.26541792778E+04  0.10100000352E+00 0.  1.
</event>
<event>
 5   0  0.7278815E-06  0.2290293E+04  0.7818609E-02  0.8481758E-01
       -1   -1    0    0    0  501  0.00000000000E+00  0.00000000000E+00  0.79611971262E+03  0.79611971264E+03  0.50400001928E-02 0.  1.
        1   -1    0    0  501    0  0.00000000000E+00  0.00000000000E+00 -0.16471900164E+04  0.16471900164E+04  0.50400001928E-02 0. -1.
    10030    2    1    2    0    0  0.00000000000E+00  0.00000000000E+00 -0.85107030378E+03  0.24433097291E+04  0.22902929442E+04 0.  0.
        5    1    3    3  502    0  0.71523149856E+03  0.27752674704E+03  0.48141807953E+03  0.90573873117E+03  0.46999998093E+01 0.  1.
       -5    1    3    3    0  502 -0.71523149856E+03 -0.27752674704E+03 -0.13324883833E+04  0.15375709979E+04  0.46999998093E+01 0. -1.
</event>
<event>
 5   0  0.1697855E-05  0.2303693E+04  0.7818609E-02  0.8476467E-01
        2   -1    0    0  501    0  0.00000000000E+00  0.00000000000E+00  0.20211594536E+04  0.20211594536E+04  0.25500000920E-02 0. -1.
       -2   -1    0    0    0  501  0.00000000000E+00  0.00000000000E+00 -0.65643015635E+03  0.65643015636E+03  0.25500000920E-02 0.  1.
    10030    2    1    2    0    0  0.00000000000E+00  0.00000000000E+00  0.13647292972E+04  0.26775896099E+04  0.23036927018E+04 0.  0.
        5    1    3    3  502    0 -0.10984292777E+03  0.11169001852E+04  0.98366010293E+03  0.14923608078E+04  0.46999998093E+01 0. -1.
       -5    1    3    3    0  502  0.10984292777E+03 -0.11169001852E+04  0.38106919428E+03  0.11852288021E+04  0.46999998093E+01 0.  1.
</event>
<event>
 5   0  0.1602809E-05  0.2291915E+04  0.7818609E-02  0.8481116E-01
        2   -1    0    0  501    0  0.00000000000E+00  0.00000000000E+00  0.93229122018E+03  0.93229122018E+03  0.25500000920E-02 0. -1.
       -2   -1    0    0    0  501  0.00000000000E+00  0.00000000000E+00 -0.14085922853E+04  0.14085922853E+04  0.25500000920E-02 0.  1.
    10030    2    1    2    0    0  0.00000000000E+00  0.00000000000E+00 -0.47630106512E+03  0.23408835055E+04  0.22919146759E+04 0.  0.
        3    1    3    3  502    0 -0.61377998765E+03  0.81926365098E+03 -0.76422775151E+03  0.12774830212E+04  0.10100000352E+00 0.  1.
       -3    1    3    3    0  502  0.61377998765E+03 -0.81926365098E+03  0.28792668640E+03  0.10634004843E+04  0.10100000352E+00 0. -1.
</event>
<event>
 5   0  0.7278815E-06  0.2251859E+04  0.7818609E-02  0.8497148E-01
        1   -1    0    0  501    0  0.00000000000E+00  0.00000000000E+00  0.61940759760E+03  0.61940759762E+03  0.50400001928E-02 0. -1.
       -1   -1    0    0    0  501  0.00000000000E+00  0.00000000000E+00 -0.20466600162E+04  0.20466600162E+04  0.50400001928E-02 0.  1.
    10030    2    1    2    0    0  0.00000000000E+00  0.00000000000E+00 -0.14272524186E+04  0.26660676138E+04  0.22518585779E+04 0.  0.
        5    1    3    3  502    0 -0.70816961255E+03 -0.74989600751E+03 -0.17908446693E+03  0.10468722742E+04  0.46999998093E+01 0. -1.
       -5    1    3    3    0  502  0.70816961255E+03  0.74989600751E+03 -0.12481679517E+04  0.16191953396E+04  0.46999998093E+01 0.  1.
</event>
<event>
 5   0  0.1635955E-05  0.2295458E+04  0.7818609E-02  0.8479714E-01
        2   -1    0    0  501    0  0.00000000000E+00  0.00000000000E+00  0.72330834412E+03  0.72330834412E+03  0.25500000920E-02 0.  1.
       -2   -1    0    0    0  501  0.00000000000E+00  0.00000000000E+00 -0.18211897063E+04  0.18211897063E+04  0.25500000920E-02 0. -1.
    10030    2    1    2    0    0  0.00000000000E+00  0.00000000000E+00 -0.10978813621E+04  0.25444980504E+04  0.22954578722E+04 0.  0.
        2    1    3    3  502    0 -0.94743625683E+03  0.15238856218E+03  0.14899074240E+03  0.97111069193E+03  0.25500000920E-02 0.  1.
       -2    1    3    3    0  502  0.94743625683E+03 -0.15238856218E+03 -0.12468721045E+04  0.15733873585E+04  0.25500000920E-02 0. -1.
</event>
<event>
 5   0  0.7391007E-06  0.2293819E+04  0.7818609E-02  0.8480362E-01
        1   -1    0    0  501    0  0.00000000000E+00  0.00000000000E+00  0.12508705276E+04  0.12508705276E+04  0.50400001928E-02 0.  1.
       -1   -1    0    0    0  501  0.00000000000E+00  0.00000000000E+00 -0.10515885439E+04  0.10515885439E+04  0.50400001928E-02 0. -1.
    10030    2    1    2    0    0  0.00000000000E+00  0.00000000000E+00  0.19928198369E+03  0.23024590715E+04  0.22938187519E+04 0.  0.
        1    1    3    3  502    0 -0.18902480268E+03  0.50135657919E+03 -0.91823609901E+03  0.10631304384E+04  0.50400001928E-02 0. -1.
       -1    1    3    3    0  502  0.18902480268E+03 -0.50135657919E+03  0.11175180827E+04  0.12393286331E+04  0.50400001928E-02 0.  1.
</event>
<event>
 5   0  0.1588969E-05  0.2298525E+04  0.7818609E-02  0.8478503E-01
       -2   -1    0    0    0  501  0.00000000000E+00  0.00000000000E+00  0.90486688241E+03  0.90486688241E+03  0.25500000920E-02 0.  1.
        2   -1    0    0  501    0  0.00000000000E+00  0.00000000000E+00 -0.14596664283E+04  0.14596664284E+04  0.25500000920E-02 0. -1.
    10030    2    1    2    0    0  0.00000000000E+00  0.00000000000E+00 -0.55479954594E+03  0.23645333108E+04  0.22985245793E+04 0.  0.
        1    1    3    3  502    0  0.22873132493E+03  0.33679858624E+03 -0.13829975257E+04  0.14416773088E+04  0.50400001928E-02 0. -1.
       -1    1    3    3    0  502 -0.22873132493E+03 -0.33679858624E+03  0.82819797973E+03  0.92285600196E+03  0.50400001928E-02 0.  1.
</event>
<event>
 5   0  0.7202572E-06  0.2295132E+04  0.7818609E-02  0.8479843E-01
        1   -1    0    0  501    0  0.00000000000E+00  0.00000000000E+00  0.14213537408E+04  0.14213537408E+04  0.50400001928E-02 0. -1.
       -1   -1    0    0    0  501  0.00000000000E+00  0.00000000000E+00 -0.92651690337E+03  0.92651690338E+03  0.50400001928E-02 0.  1.
    10030    2    1    2    0    0  0.00000000000E+00  0.00000000000E+00  0.49483683739E+03  0.23478706442E+04  0.22951324724E+04 0.  0.
        2    1    3    3  502    0  0.88341938891E+03  0.53698377504E+03 -0.26215094713E+03  0.10665385649E+04  0.25500000920E-02 0.  1.
       -2    1    3    3    0  502 -0.88341938891E+03 -0.53698377504E+03  0.75698778452E+03  0.12813320792E+04  0.25500000920E-02 0. -1.
</event>
<event>
 5   0  0.7183014E-06  0.2307891E+04  0.7818609E-02  0.8474816E-01
        1   -1    0    0  501    0  0.00000000000E+00  0.00000000000E+00  0.14703320113E+04  0.14703320113E+04  0.50400001928E-02 0.  1.
       -1   -1    0    0    0  501  0.00000000000E+00  0.00000000000E+00 -0.90563894427E+03  0.90563894428E+03  0.50400001928E-02 0. -1.
    10030    2    1    2    0    0  0.00000000000E+00  0.00000000000E+00  0.56469306699E+03  0.23759709555E+04  0.23078907517E+04 0.  0.
        3    1    3    3  502    0 -0.11001341883E+04 -0.16732418209E+03 -0.32109862252E+02  0.11132491490E+04  0.10100000352E+00 0. -1.
       -3    1    3    3    0  502  0.11001341883E+04  0.16732418209E+03  0.59680292924E+03  0.12627218066E+04  0.10100000352E+00 0.  1.
</event>
<event>
 5   0  0.7278815E-06  0.2299591E+04  0.7818609E-02  0.8478082E-01
       -1   -1    0    0    0  501  0.00000000000E+00  0.00000000000E+00  0.91092340474E+03  0.91092340476E+03  0.50400001928E-02 0.  1.
        1   -1    0    0  501    0  0.00000000000E+00  0.00000000000E+00 -0.14513073264E+04  0.14513073264E+04  0.50400001928E-02 0. -1.
    10030    2    1    2    0    0  0.00000000000E+00  0.00000000000E+00 -0.54038392161E+03  0.23622307311E+04  0.22995911037E+04 0.  0.
        5    1    3    3  502    0  0.95153697451E+02 -0.39382520398E+03  0.83515550823E+03  0.92825606939E+03  0.46999998093E+01 0.  1.
       -5    1    3    3    0  502 -0.95153697451E+02  0.39382520398E+03 -0.13755394298E+04  0.14339746617E+04  0.46999998093E+01 0. -1.
</event>
<event>
 5   0  0.7202572E-06  0.2282561E+04  0.7818609E-02  0.8484829E-01
        1   -1    0    0  501    0  0.00000000000E+00  0.00000000000E+00  0.16334820959E+04  0.16334820959E+04  0.50400001928E-02 0. -1.
       -1   -1    0    0    0  501  0.00000000000E+00  0.00000000000E+00 -0.79738949906E+03  0.79738949908E+03  0.50400001928E-02 0.  1.
    10030    2    1    2    0    0  0.00000000000E+00  0.00000000000E+00  0.83609259680E+03  0.24308715949E+04  0.22825612545E+04 0.  0.
        2    1    3    3  502    0 -0.79857387529E+03  0.81346297417E+03  0.47714260337E+03  0.12357618333E+04  0.25500000920E-02 0.  1.
       -2    1    3    3    0  502  0.79857387529E+03 -0.81346297417E+03  0.35894999343E+03  0.11951097617E+04  0.25500000920E-02 0. -1.
</event>
<event>
 5   0  0.1626636E-05  0.2299667E+04  0.7818609E-02  0.8478052E-01
        2   -1    0    0  501    0  0.00000000000E+00  0.00000000000E+00  0.27771322619E+04  0.27771322619E+04  0.25500000920E-02 0. -1.
       -2   -1    0    0    0  501  0.00000000000E+00  0.00000000000E+00 -0.47607293829E+03  0.47607293829E+03  0.25500000920E-02 0.  1.
    10030    2    1    2    0    0  0.00000000000E+00  0.00000000000E+00  0.23010593236E+04  0.32532052002E+04  0.22996673811E+04 0.  0.
        4    1    3    3  502    0  0.52872153705E+02 -0.45966665448E+03 -0.33856259500E+03  0.57333684821E+03  0.12699999809E+01 0.  1.
       -4    1    3    3    0  502 -0.52872153705E+02  0.45966665448E+03  0.26396219186E+04  0.26798683520E+04  0.12699999809E+01 0. -1.
</event>
<event>
 5   0  0.7416556E-06  0.2297657E+04  0.7818609E-02  0.8478846E-01
       -1   -1    0    0    0  501  0.00000000000E+00  0.00000000000E+00  0.11566576017E+04  0.11566576017E+04  0.50400001928E-02 0. -1.
        1   -1    0    0  501    0  0.00000000000E+00  0.00000000000E+00 -0.11410519924E+04  0.11410519924E+04  0.50400001928E-02 0.  1.
    10030    2    1    2    0    0  0.00000000000E+00  0.00000000000E+00  0.15605609360E+02  0.22977095941E+04  0.22976565983E+04 0.  0.
        4    1    3    3  502    0 -0.80223176613E+03 -0.31157631259E+03  0.76883891390E+03  0.11540236105E+04  0.12699999809E+01 0. -1.
       -4    1    3    3    0  502  0.80223176613E+03  0.31157631259E+03 -0.75323330454E+03  0.11436859836E+04  0.12699999809E+01 0.  1.
</event>
<event>
 5   0  0.7278815E-06  0.2302961E+04  0.7818609E-02  0.8476755E-01
       -1   -1    0    0    0  501  0.00000000000E+00  0.00000000000E+00  0.77969520675E+03  0.77969520677E+03  0.50400001928E-02 0. -1.
        1   -1    0    0  501    0  0.00000000000E+00  0.00000000000E+00 -0.17005450250E+04  0.17005450250E+04  0.50400001928E-02 0.  1.
    10030    2    1    2    0    0  0.00000000000E+00  0.00000000000E+00 -0.92084981825E+03  0.24802402318E+04  0.23029605337E+04 0.  0.
        5    1    3    3  502    0 -0.17701418678E+03  0.69299579835E+03  0.51143009257E+03  0.87929518845E+03  0.46999998093E+01 0. -1.
       -5    1    3    3    0  502  0.17701418678E+03 -0.69299579835E+03 -0.14322799108E+04  0.16009450433E+04  0.46999998093E+01 0.  1.
</event>
<event>
 5   0  0.5704875E-06  0.2303068E+04  0.7818609E-02  0.8476712E-01
       -4   -1    0    0    0  501  0.00000000000E+00  0.00000000000E+00  0.11546694388E+04  0.11546701373E+04  0.12699999809E+01 0. -1.
        4   -1    0    0  501    0  0.00000000000E+00  0.00000000000E+00 -0.11484060830E+04  0.11484067852E+04  0.12699999809E+01 0.  1.
    10030    2    1    2    0    0  0.00000000000E+00  0.00000000000E+00  0.62633558555E+01  0.23030769225E+04  0.23030684057E+04 0.  0.
        5    1    3    3  502    0 -0.95265276976E+03 -0.99958009368E+01  0.64994294001E+03  0.11532975033E+04  0.46999998093E+01 0. -1.
       -5    1    3    3    0  502  0.95265276976E+03  0.99958009368E+01 -0.64367958415E+03  0.11497794192E+04  0.46999998093E+01 0.  1.
</event>
<event>
 5   0  0.1588969E-05  0.2297083E+04  0.7818609E-02  0.8479072E-01
       -2   -1    0    0    0  501  0.00000000000E+00  0.00000000000E+00  0.10697493776E+04  0.10697493777E+04  0.25500000920E-02 0. -1.
        2   -1    0    0  501    0  0.00000000000E+00  0.00000000000E+00 -0.12331374023E+04  0.12331374023E+04  0.25500000920E-02 0.  1.
    10030    2    1    2    0    0  0.00000000000E+00  0.00000000000E+00 -0.16338802466E+03  0.23028867800E+04  0.22970833408E+04 0.  0.
        1    1    3    3  502    0  0.42245805449E+03  0.86535322219E+03 -0.70924750546E+03  0.11959678219E+04  0.50400001928E-02 0.  1.
       -1    1    3    3    0  502 -0.42245805449E+03 -0.86535322219E+03  0.54585948080E+03  0.11069189581E+04  0.50400001928E-02 0. -1.
</event>
<event>
 5   0  0.1602809E-05  0.2289581E+04  0.7818609E-02  0.8482041E-01
        2   -1    0    0  501    0  0.00000000000E+00  0.00000000000E+00  0.14677370879E+04  0.14677370879E+04  0.25500000920E-02 0. -1.
       -2   -1    0    0    0  501  0.00000000000E+00  0.00000000000E+00 -0.89290188221E+03  0.89290188222E+03  0.25500000920E-02 0.  1.
    10030    2    1    2    0    0  0.00000000000E+00  0.00000000000E+00  0.57483520573E+03  0.23606389702E+04  0.22895809297E+04 0.  0.
        3    1    3    3  502    0 -0.14085977947E+03 -0.71305002968E+03  0.11993236006E+04  0.14023761733E+04  0.10100000352E+00 0. -1.
       -3    1    3    3    0  502  0.14085977947E+03  0.71305002968E+03 -0.62448839487E+03  0.95826279686E+03  0.10100000352E+00 0.  1.
</event>
<event>
 5   0  0.1602809E-05  0.2318846E+04  0.7818609E-02  0.8470527E-01
       -2   -1    0    0    0  501  0.00000000000E+00  0.00000000000E+00  0.11789193619E+04  0.11789193619E+04  0.25500000920E-02 0.  1.
        2   -1    0    0  501    0  0.00000000000E+00  0.00000000000E+00 -0.11402494046E+04  0.11402494046E+04  0.25500000920E-02 0. -1.
    10030    2    1    2    0    0  0.00000000000E+00  0.00000000000E+00  0.38669957326E+02  0.23191687665E+04  0.23188463515E+04 0.  0.
        3    1    3    3  502    0  0.53103367323E+03 -0.23663727256E+03 -0.98393366642E+03  0.11428558225E+04  0.10100000352E+00 0. -1.
       -3    1    3    3    0  502 -0.53103367323E+03  0.23663727256E+03  0.10226036237E+04  0.11763129441E+04  0.10100000352E+00 0.  1.
</event>
<event>
 5   0  0.7416556E-06  0.2296490E+04  0.7818609E-02  0.8479306E-01
        1   -1    0    0  501    0  0.00000000000E+00  0.00000000000E+00  0.10760814278E+04  0.10760814278E+04  0.50400001928E-02 0. -1.
       -1   -1    0    0    0  501  0.00000000000E+00  0.00000000000E+00 -0.12252481880E+04  0.12252481881E+04  0.50400001928E-02 0.  1.
    10030    2    1    2    0    0  0.00000000000E+00  0.00000000000E+00 -0.14916676028E+03  0.23013296158E+04  0.22964902086E+04 0.  0.
        4    1    3    3  502    0  0.87549304787E+03  0.24351408646E+03 -0.77797278431E+03  0.11962568508E+04  0.12699999809E+01 0.  1.
       -4    1    3    3    0  502 -0.87549304787E+03 -0.24351408646E+03  0.62880602403E+03  0.11050727650E+04  0.12699999809E+01 0. -1.
</event>
<event>
 5   0  0.1588969E-05  0.2301006E+04  0.7818609E-02  0.8477525E-01
       -2   -1    0    0    0  501  0.00000000000E+00  0.00000000000E+00  0.95561701921E+03  0.95561701922E+03  0.25500000920E-02 0.  1.
        2   -1    0    0  501    0  0.00000000000E+00  0.00000000000E+00 -0.13851336571E+04  0.13851336571E+04  0.25500000920E-02 0. -1.
    10030    2    1    2    0    0  0.00000000000E+00  0.00000000000E+00 -0.42951663786E+03  0.23407506763E+04  0.23010061248E+04 0.  0.
        1    1    3    3  502    0  0.65441324465E+03 -0.25230047571E+02 -0.11770165735E+04  0.13469451601E+04  0.50400001928E-02 0. -1.
       -1    1    3    3    0  502 -0.65441324465E+03  0.25230047571E+02  0.74749993566E+03  0.99380551614E+03  0.50400001928E-02 0.  1.
</event>
<event>
 5   0  0.7202572E-06  0.2279073E+04  0.7818609E-02  0.8486218E-01
        1   -1    0    0  501    0  0.00000000000E+00  0.00000000000E+00  0.17039382855E+04  0.17039382855E+04  0.50400001928E-02 0.  1.
       -1   -1    0    0    0  501  0.00000000000E+00  0.00000000000E+00 -0.76208339865E+03  0.76208339867E+03  0.50400001928E-02 0. -1.
    10030    2    1    2    0    0  0.00000000000E+00  0.00000000000E+00  0.94185488681E+03  0.24660216841E+04  0.22790726884E+04 0.  0.
        2    1    3    3  502    0 -0.52484617729E+03  0.23172703210E+03 -0.59440762727E+03  0.82612429729E+03  0.25500000920E-02 0. -1.
       -2    1    3    3    0  502  0.52484617729E+03 -0.23172703210E+03  0.15362625141E+04  0.16398973868E+04  0.25500000920E-02 0.  1.
</event>
<event>
 5   0  0.7391007E-06  0.2296956E+04  0.7818609E-02  0.8479122E-01
       -1   -1    0    0    0  501  0.00000000000E+00  0.00000000000E+00  0.59133813233E+03  0.59133813235E+03  0.50400001928E-02 0.  1.
        1   -1    0    0  501    0  0.00000000000E+00  0.00000000000E+00 -0.22305363156E+04  0.22305363156E+04  0.50400001928E-02 0. -1.
    10030    2    1    2    0    0  0.00000000000E+00  0.00000000000E+00 -0.16391981833E+04  0.28218744479E+04  0.22969555320E+04 0.  0.
        1    1    3    3  502    0 -0.98910940674E+03  0.48042211200E+03 -0.12267933493E+04  0.16474722292E+04  0.50400001928E-02 0. -1.
       -1    1    3    3    0  502  0.98910940674E+03 -0.48042211200E+03 -0.41240483397E+03  0.11744022187E+04  0.50400001928E-02 0.  1.
</event>
<event>
 5   0  0.7278815E-06  0.2300683E+04  0.7818609E-02  0.8477652E-01
        1   -1    0    0  501    0  0.00000000000E+00  0.00000000000E+00  0.24794293098E+04  0.24794293098E+04  0.50400001928E-02 0. -1.
       -1   -1    0    0    0  501  0.00000000000E+00  0.00000000000E+00 -0.53370560755E+03  0.53370560757E+03  0.50400001928E-02 0.  1.
    10030    2    1    2    0    0  0.00000000000E+00  0.00000000000E+00  0.19457237022E+04  0.30131349173E+04  0.23006827910E+04 0.  0.
        5    1    3    3  502    0  0.74309085470E+03  0.53228423625E+03  0.58197654196E+02  0.91592553379E+03  0.46999998093E+01 0.  1.
       -5    1    3    3    0  502 -0.74309085470E+03 -0.53228423625E+03  0.18875260480E+04  0.20972093836E+04  0.46999998093E+01 0. -1.
</event>
<event>
 5   0  0.1635955E-05  0.2289174E+04  0.7818609E-02  0.8482202E-01
        2   -1    0    0  501    0  0.00000000000E+00  0.00000000000E+00  0.85214976559E+03  0.85214976559E+03  0.25500000920E-02 0.  1.
       -2   -1    0    0    0  501  0.00000000000E+00  0.00000000000E+00 -0.15373811851E+04  0.15373811851E+04  0.25500000920E-02 0. -1.
    10030    2    1    2    0    0  0.00000000000E+00  0.00000000000E+00 -0.68523141952E+03  0.23895309507E+04  0.22891736645E+04 0.  0.
        2    1    3    3  502    0 -0.17194261192E+03 -0.70150988879E+03  0.58422873197E+03  0.92897986906E+03  0.25500000920E-02 0.  1.
       -2    1    3    3    0  502  0.17194261192E+03  0.70150988879E+03 -0.12694601515E+04  0.14605510816E+04  0.25500000920E-02 0. -1.
</event>
<event>
 5   0  0.1588969E-05  0.2299446E+04  0.7818609E-02  0.8478140E-01
       -2   -1    0    0    0  501  0.00000000000E+00  0.00000000000E+00  0.69757792104E+03  0.69757792105E+03  0.25500000920E-02 0.  1.
        2   -1    0    0  501    0  0.00000000000E+00  0.00000000000E+00 -0.18949320829E+04  0.18949320829E+04  0.25500000920E-02 0. -1.
    10030    2    1    2    0    0  0.00000000000E+00  0.00000000000E+00 -0.11973541619E+04  0.25925100040E+04  0.22994458315E+04 0.  0.
        1    1    3    3  502    0 -0.18352570680E+03 -0.68700059759E+03  0.41991091334E+03  0.82581879448E+03  0.50400001928E-02 0.  1.
       -1    1    3    3    0  502  0.18352570680E+03  0.68700059759E+03 -0.16172650752E+04  0.17666912095E+04  0.50400001928E-02 0. -1.
</event>
<event>
 5   0  0.1602809E-05  0.2299014E+04  0.7818609E-02  0.8478310E-01
        2   -1    0    0  501    0  0.00000000000E+00  0.00000000000E+00  0.12808286733E+04  0.12808286733E+04  0.25500000920E-02 0.  1.
       -2   -1    0    0    0  501  0.00000000000E+00  0.00000000000E+00 -0.10316494596E+04  0.10316494596E+04  0.25500000920E-02 0. -1.
    10030    2    1    2    0    0  0.00000000000E+00  0.00000000000E+00  0.24917921376E+03  0.23124781329E+04  0.22990138831E+04 0.  0.
        3    1    3    3  502    0 -0.14984678111E+03 -0.40508984083E+03  0.11961050940E+04  0.12716993525E+04  0.10100000352E+00 0.  1.
       -3    1    3    3    0  502  0.14984678111E+03  0.40508984083E+03 -0.94692588024E+03  0.10407787804E+04  0.10100000352E+00 0. -1.
</event>
<event>
 5   0  0.5704875E-06  0.2292947E+04  0.7818609E-02  0.8480707E-01
        3   -1    0    0  501    0  0.00000000000E+00  0.00000000000E+00  0.21439353793E+04  0.21439353817E+04  0.10100000352E+00 0. -1.
       -3   -1    0    0    0  501  0.00000000000E+00  0.00000000000E+00 -0.61307890147E+03  0.61307890979E+03  0.10100000352E+00 0.  1.
    10030    2    1    2    0    0  0.00000000000E+00  0.00000000000E+00  0.15308564779E+04  0.27570142915E+04  0.22929470660E+04 0.  0.
        3    1    3    3  502    0  0.30558391542E+03 -0.36749839031E+03  0.20184334979E+04  0.20742493562E+04  0.10100000352E+00 0. -1.
       -3    1    3    3    0  502 -0.30558391542E+03  0.36749839031E+03 -0.48757701999E+03  0.68276493530E+03  0.10100000352E+00 0.  1.
</event>
<event>
 5   0  0.5704875E-06  0.2293198E+04  0.7818609E-02  0.8480608E-01
        4   -1    0    0  501    0  0.00000000000E+00  0.00000000000E+00  0.10337007219E+04  0.10337015021E+04  0.12699999809E+01 0.  1.
       -4   -1    0    0    0  501  0.00000000000E+00  0.00000000000E+00 -0.12718265993E+04  0.12718272334E+04  0.12699999809E+01 0. -1.
    10030    2    1    2    0    0  0.00000000000E+00  0.00000000000E+00 -0.23812587736E+03  0.23055287355E+04  0.22931983815E+04 0.  0.
        3    1    3    3  502    0 -0.72766041291E+03 -0.85070904882E+03  0.13025053506E+03  0.11270140968E+04  0.10100000352E+00 0.  1.
       -3    1    3    3    0  502  0.72766041291E+03  0.85070904882E+03 -0.36837641242E+03  0.11785146387E+04  0.10100000352E+00 0. -1.
</event>
<event>
 5   0  0.1626636E-05  0.2298900E+04  0.7818609E-02  0.8478355E-01
       -2   -1    0    0    0  501  0.00000000000E+00  0.00000000000E+00  0.45721133982E+03  0.45721133983E+03  0.25500000920E-02 0.  1.
        2   -1    0    0  501    0  0.00000000000E+00  0.00000000000E+00 -0.28897694200E+04  0.28897694200E+04  0.25500000920E-02 0. -1.
    10030    2    1    2    0    0  0.00000000000E+00  0.00000000000E+00 -0.24325580802E+04  0.33469807599E+04  0.22989000399E+04 0.  0.
        4    1    3    3  502    0 -0.48858383290E+03  0.64503228102E+03 -0.24048301690E+04  0.25373195620E+04  0.12699999809E+01 0. -1.
       -4    1    3    3    0  502  0.48858383290E+03 -0.64503228102E+03 -0.27727911256E+02  0.80966119785E+03  0.12699999809E+01 0.  1.
</event>
<event>
 5   0  0.1588969E-05  0.2275171E+04  0.7818609E-02  0.8487776E-01
       -2   -1    0    0    0  501  0.00000000000E+00  0.00000000000E+00  0.15098120582E+04  0.15098120582E+04  0.25500000920E-02 0.  1.
        2   -1    0    0  501    0  0.00000000000E+00  0.00000000000E+00 -0.85712695806E+03  0.85712695806E+03  0.25500000920E-02 0. -1.
    10030    2    1    2    0    0  0.00000000000E+00  0.00000000000E+00  0.65268510016E+03  0.23669390163E+04  0.22751708654E+04 0.  0.
        1    1    3    3  502    0 -0.31159186977E+03  0.41793208010E+03 -0.72555042752E+03  0.89340927899E+03  0.50400001928E-02 0. -1.
       -1    1    3    3    0  502  0.31159186977E+03 -0.41793208010E+03  0.13782355277E+04  0.14735297373E+04  0.50400001928E-02 0.  1.
</event>
<event>
 5   0  0.7391007E-06  0.2290953E+04  0.7818609E-02  0.8481497E-01
       -1   -1    0    0    0  501  0.00000000000E+00  0.00000000000E+00  0.94974308108E+03  0.94974308110E+03  0.50400001928E-02 0. -1.
        1   -1    0    0  501    0  0.00000000000E+00  0.00000000000E+00 -0.13815492815E+04  0.13815492815E+04  0.50400001928E-02 0.  1.
    10030    2    1    2    0    0  0.00000000000E+00  0.00000000000E+00 -0.43180620043E+03  0.23312923626E+04  0.22909534009E+04 0.  0.
        1    1    3    3  502    0 -0.14524838010E+02 -0.83823406716E+03  0.57839810556E+03  0.10185242711E+04  0.50400001928E-02 0. -1.
       -1    1    3    3    0  502  0.14524838010E+02  0.83823406716E+03 -0.10102043060E+04  0.13127680915E+04  0.50400001928E-02 0.  1.
</event>
<event>
 5   0  0.7278815E-06  0.2291916E+04  0.7818609E-02  0.8481115E-01
        1   -1    0    0  501    0  0.00000000000E+00  0.00000000000E+00  0.11071815280E+04  0.11071815280E+04  0.50400001928E-02 0. -1.
       -1   -1    0    0    0  501  0.00000000000E+00  0.00000000000E+00 -0.11860925675E+04  0.11860925675E+04  0.50400001928E-02 0.  1.
    10030    2    1    2    0    0  0.00000000000E+00  0.00000000000E+00 -0.78911039545E+02  0.22932740955E+04  0.22919160380E+04 0.  0.
        5    1    3    3  502    0 -0.65545047982E+03 -0.44828271110E+03  0.78724525979E+03  0.11181904621E+04  0.46999998093E+01 0. -1.
       -5    1    3    3    0  502  0.65545047982E+03  0.44828271110E+03 -0.86615629933E+03  0.11750836334E+04  0.46999998093E+01 0.  1.
</event>
<event>
 5   0  0.1697855E-05  0.2300433E+04  0.7818609E-02  0.8477750E-01
        2   -1    0    0  501    0  0.00000000000E+00  0.00000000000E+00  0.27673574125E+04  0.27673574125E+04  0.25500000920E-02 0. -1.
       -2   -1    0    0    0  501  0.00000000000E+00  0.00000000000E+00 -0.47807286440E+03  0.47807286441E+03  0.25500000920E-02 0.  1.
    10030    2    1    2    0    0  0.00000000000E+00  0.00000000000E+00  0.22892845481E+04  0.32454302769E+04  0.23004334244E+04 0.  0.
        5    1    3    3  502    0  0.18582835129E+03  0.16917847685E+03 -0.43885513425E+03  0.50573654410E+03  0.46999998093E+01 0.  1.
       -5    1    3    3    0  502 -0.18582835129E+03 -0.16917847685E+03  0.27281396823E+04  0.27396937328E+04  0.46999998093E+01 0. -1.
</event>
<event>
 5   0  0.1697855E-05  0.2291881E+04  0.7818609E-02  0.8481129E-01
        2   -1    0    0  501    0  0.00000000000E+00  0.00000000000E+00  0.22557859694E+04  0.22557859694E+04  0.25500000920E-02 0.  1.
       -2   -1    0    0    0  501  0.00000000000E+00  0.00000000000E+00 -0.58213838684E+03  0.58213838684E+03  0.25500000920E-02 0. -1.
    10030    2    1    2    0    0  0.00000000000E+00  0.00000000000E+00  0.16736475826E+04  0.28379243563E+04  0.22918809789E+04 0.  0.
        5    1    3    3  502    0 -0.33062845408E+03 -0.88969801156E+03  0.41754869899E+02  0.95007541047E+03  0.46999998093E+01 0. -1.
       -5    1    3    3    0  502  0.33062845408E+03  0.88969801156E+03  0.16318927127E+04  0.18878489458E+04  0.46999998093E+01 0.  1.
</event>
<event>
 5   0  0.1697855E-05  0.2309792E+04  0.7818609E-02  0.8474070E-01
        2   -1    0    0  501    0  0.00000000000E+00  0.00000000000E+00  0.16758315553E+04  0.16758315553E+04  0.25500000920E-02 0.  1.
       -2   -1    0    0    0  501  0.00000000000E+00  0.00000000000E+00 -0.79589408448E+03  0.79589408449E+03  0.25500000920E-02 0. -1.
    10030    2    1    2    0    0  0.00000000000E+00  0.00000000000E+00  0.87993747082E+03  0.24717256398E+04  0.23097916975E+04 0.  0.
        5    1    3    3  502    0 -0.87782518413E+03 -0.37037152840E+03 -0.25848468715E+03  0.98721251331E+03  0.46999998093E+01 0.  1.
       -5    1    3    3    0  502  0.87782518413E+03  0.37037152840E+03  0.11384221580E+04  0.14845131265E+04  0.46999998093E+01 0. -1.
</event>
<event>
 5   0  0.1626636E-05  0.2376199E+04  0.7818609E-02  0.8448468E-01
        2   -1    0    0  501    0  0.00000000000E+00  0.00000000000E+00  0.10902860757E+04  0.10902860758E+04  0.25500000920E-02 0.  1.
       -2   -1    0    0    0  501  0.00000000000E+00  0.00000000000E+00 -0.12946882667E+04  0.12946882667E+04  0.25500000920E-02 0. -1.
    10030    2    1    2    0    0  0.00000000000E+00  0.00000000000E+00 -0.20440219093E+03  0.23849743424E+04  0.23761991412E+04 0.  0.
        4    1    3    3  502    0 -0.66075644573E+03 -0.99471005329E+01  0.88880578321E+03  0.11075537723E+04  0.12699999809E+01 0.  1.
       -4    1    3    3    0  502  0.66075644573E+03  0.99471005329E+01 -0.10932079741E+04  0.12774205701E+04  0.12699999809E+01 0. -1.
</event>
<event>
 5   0  0.1626636E-05  0.2267055E+04  0.7818609E-02  0.8491025E-01
        2   -1    0    0  501    0  0.00000000000E+00  0.00000000000E+00  0.15713582564E+04  0.15713582564E+04  0.25500000920E-02 0.  1.
       -2   -1    0    0    0  501  0.00000000000E+00  0.00000000000E+00 -0.81769050399E+03  0.81769050400E+03  0.25500000920E-02 0. -1.
    10030    2    1    2    0    0  0.00000000000E+00  0.00000000000E+00  0.75366775237E+03  0.23890487604E+04  0.22670551159E+04 0.  0.
        4    1    3    3  502    0  0.12306576561E+03 -0.65053966201E+03 -0.59275063860E+03  0.88865176924E+03  0.12699999809E+01 0. -1.
       -4    1    3    3    0  502 -0.12306576561E+03  0.65053966201E+03  0.13464183910E+04  0.15003969911E+04  0.12699999809E+01 0.  1.
</event>
<event>
 5   0  0.7278815E-06  0.2307585E+04  0.7818609E-02  0.8474937E-01
        1   -1    0    0  501    0  0.00000000000E+00  0.00000000000E+00  0.18996997633E+04  0.18996997633E+04  0.50400001928E-02 0.  1.
       -1   -1    0    0    0  501  0.00000000000E+00  0.00000000000E+00 -0.70076175077E+03  0.70076175079E+03  0.50400001928E-02 0. -1.
    10030    2    1    2    0    0  0.00000000000E+00  0.00000000000E+00  0.11989380125E+04  0.26004615141E+04  0.23075848258E+04 0.  0.
        5    1    3    3  502    0  0.84702650775E+03 -0.67260353840E+03  0.14678204142E+03  0.10915202620E+04  0.46999998093E+01 0.  1.
       -5    1    3    3    0  502 -0.84702650775E+03  0.67260353840E+03  0.10521559711E+04  0.15089412521E+04  0.46999998093E+01 0. -1.
</event>
<event>
 5   0  0.1602809E-05  0.2304376E+04  0.7818609E-02  0.8476198E-01
       -2   -1    0    0    0  501  0.00000000000E+00  0.00000000000E+00  0.71634783763E+03  0.71634783763E+03  0.25500000920E-02 0. -1.
        2   -1    0    0  501    0  0.00000000000E+00  0.00000000000E+00 -0.18532022229E+04  0.18532022229E+04  0.25500000920E-02 0.  1.
    10030    2    1    2    0    0  0.00000000000E+00  0.00000000000E+00 -0.11368543852E+04  0.25695500605E+04  0.23043761889E+04 0.  0.
        3    1    3    3  502    0 -0.10271527716E+04 -0.51300097056E+03 -0.67610306747E+03  0.13324144175E+04  0.10100000352E+00 0. -1.
       -3    1    3    3    0  502  0.10271527716E+04  0.51300097056E+03 -0.46075131777E+03  0.12371356430E+04  0.10100000352E+00 0.  1.
</event>
<event>
 5   0  0.1635955E-05  0.2296240E+04  0.7818609E-02  0.8479405E-01
       -2   -1    0    0    0  501  0.00000000000E+00  0.00000000000E+00  0.10738600099E+04  0.10738600099E+04  0.25500000920E-02 0. -1.
        2   -1    0    0  501    0  0.00000000000E+00  0.00000000000E+00 -0.12275153279E+04  0.12275153279E+04  0.25500000920E-02 0.  1.
    10030    2    1    2    0    0  0.00000000000E+00  0.00000000000E+00 -0.15365531802E+03  0.23013753379E+04  0.22962400765E+04 0.  0.
        2    1    3    3  502    0  0.10620953076E+04 -0.24307648266E+03  0.28598606749E+03  0.11264637809E+04  0.25500000920E-02 0. -1.
       -2    1    3    3    0  502 -0.10620953076E+04  0.24307648266E+03 -0.43964138551E+03  0.11749115570E+04  0.25500000920E-02 0.  1.
</event>
<event>
 5   0  0.7183014E-06  0.2294844E+04  0.7818609E-02  0.8479957E-01
        1   -1    0    0  501    0  0.00000000000E+00  0.00000000000E+00  0.29900294817E+04  0.29900294817E+04  0.50400001928E-02 0. -1.
       -1   -1    0    0    0  501  0.00000000000E+00  0.00000000000E+00 -0.44032238878E+03  0.44032238881E+03  0.50400001928E-02 0.  1.
    10030    2    1    2    0    0  0.00000000000E+00  0.00000000000E+00  0.25497070929E+04  0.34303518705E+04  0.22948437192E+04 0.  0.
        3    1    3    3  502    0  0.68808546717E+03 -0.77048464076E+03  0.20214632092E+04  0.22701149108E+04  0.10100000352E+00 0. -1.
       -3    1    3    3    0  502 -0.68808546717E+03  0.77048464076E+03  0.52824388368E+03  0.11602369597E+04  0.10100000352E+00 0.  1.
</event>
<event>
 5   0  0.1697855E-05  0.2295865E+04  0.7818609E-02  0.8479553E-01
       -2   -1    0    0    0  501  0.00000000000E+00  0.00000000000E+00  0.13376013572E+04  0.13376013572E+04  0.25500000920E-02 0. -1.
        2   -1    0    0  501    0  0.00000000000E+00  0.00000000000E+00 -0.98515861356E+03  0.98515861356E+03  0.25500000920E-02 0.  1.
    10030    2    1    2    0    0  0.00000000000E+00  0.00000000000E+00  0.35244274364E+03  0.23227599708E+04  0.22958654129E+04 0.  0.
        5    1    3    3  502    0 -0.47650993712E+03 -0.25762251016E+03  0.12001524292E+04  0.13167456175E+04  0.46999998093E+01 0. -1.
       -5    1    3    3    0  502  0.47650993712E+03  0.25762251016E+03 -0.84770968557E+03  0.10060143532E+04  0.46999998093E+01 0.  1.
</event>
<event>
 5   0  0.1635955E-05  0.2295181E+04  0.7818609E-02  0.8479824E-01
       -2   -1    0    0    0  501  0.00000000000E+00  0.00000000000E+00  0.78924324588E+03  0.78924324589E+03  0.25500000920E-02 0. -1.
        2   -1    0    0  501    0  0.00000000000E+00  0.00000000000E+00 -0.16686409130E+04  0.16686409130E+04  0.25500000920E-02 0.  1.
    10030    2    1    2    0    0  0.00000000000E+00  0.00000000000E+00 -0.87939766715E+03  0.24578841589E+04  0.22951806643E+04 0.  0.
        2    1    3    3  502    0 -0.11904845272E+03  0.81522336514E+03 -0.12952058600E+04  0.15350309082E+04  0.25500000920E-02 0.  1.
       -2    1    3    3    0  502  0.11904845272E+03 -0.81522336514E+03  0.41580819287E+03  0.92285325076E+03  0.25500000920E-02 0. -1.
</event>
<event>
 5   0  0.7391007E-06  0.2300140E+04  0.7818609E-02  0.8477866E-01
        1   -1    0    0  501    0  0.00000000000E+00  0.00000000000E+00  0.12392517007E+04  0.12392517007E+04  0.50400001928E-02 0. -1.
       -1   -1    0    0    0  501  0.00000000000E+00  0.00000000000E+00 -0.10673058818E+04  0.10673058818E+04  0.50400001928E-02 0.  1.
    10030    2    1    2    0    0  0.00000000000E+00  0.00000000000E+00  0.17194581891E+03  0.23065575826E+04  0.23001396734E+04 0.  0.
        1    1    3    3  502    0  0.81313260812E+03 -0.80547970994E+03  0.19888560929E+03  0.11616960390E+04  0.50400001928E-02 0. -1.
       -1    1    3    3    0  502 -0.81313260812E+03  0.80547970994E+03 -0.26939790381E+02  0.11448615435E+04  0.50400001928E-02 0.  1.
</event>
<event>
 5   0  0.1697855E-05  0.2305297E+04  0.7818609E-02  0.8475836E-01
       -2   -1    0    0    0  501  0.00000000000E+00  0.00000000000E+00  0.66712317285E+03  0.66712317285E+03  0.25500000920E-02 0. -1.
        2   -1    0    0  501    0  0.00000000000E+00  0.00000000000E+00 -0.19915334584E+04  0.19915334584E+04  0.25500000920E-02 0.  1.
    10030    2    1    2    0    0  0.00000000000E+00  0.00000000000E+00 -0.13244102855E+04  0.26586566312E+04  0.23052966140E+04 0.  0.
        5    1    3    3  502    0 -0.97155982677E+03  0.38339338675E+03 -0.12244309595E+04  0.16094012087E+04  0.46999998093E+01 0.  1.
       -5    1    3    3    0  502  0.97155982677E+03 -0.38339338675E+03 -0.99979325983E+02  0.10492554225E+04  0.46999998093E+01 0. -1.
</event>
<event>
 5   0  0.1697855E-05  0.2300148E+04  0.7818609E-02  0.8477863E-01
       -2   -1    0    0    0  501  0.00000000000E+00  0.00000000000E+00  0.67557326398E+03  0.67557326399E+03  0.25500000920E-02 0. -1.
        2   -1    0    0  501    0  0.00000000000E+00  0.00000000000E+00 -0.19578482288E+04  0.19578482288E+04  0.25500000920E-02 0.  1.
    10030    2    1    2    0    0  0.00000000000E+00  0.00000000000E+00 -0.12822749648E+04  0.26334214927E+04  0.23001477503E+04 0.  0.
        5    1    3    3  502    0  0.36766438324E+03 -0.24358443092E+03 -0.18571712412E+04  0.19088262317E+04  0.46999998093E+01 0.  1.
       -5    1    3    3    0  502 -0.36766438324E+03  0.24358443092E+03  0.57489627642E+03  0.72459526105E+03  0.46999998093E+01 0. -1.
</event>
<event>
 5   0  0.1602809E-05  0.2315807E+04  0.7818609E-02  0.8471714E-01
       -2   -1    0    0    0  501  0.00000000000E+00  0.00000000000E+00  0.68960626781E+03  0.68960626781E+03  0.25500000920E-02 0.  1.
        2   -1    0    0  501    0  0.00000000000E+00  0.00000000000E+00 -0.19442123972E+04  0.19442123972E+04  0.25500000920E-02 0. -1.
    10030    2    1    2    0    0  0.00000000000E+00  0.00000000000E+00 -0.12546061294E+04  0.26338186650E+04  0.23158074661E+04 0.  0.
        3    1    3    3  502    0 -0.12972552894E+03 -0.33831537754E+03  0.62346932306E+03  0.72111026517E+03  0.10100000352E+00 0.  1.
       -3    1    3    3    0  502  0.12972552894E+03  0.33831537754E+03 -0.18780754524E+04  0.19127083998E+04  0.10100000352E+00 0. -1.
</event>
<event>
 5   0  0.7202572E-06  0.2302957E+04  0.7818609E-02  0.8476756E-01
        1   -1    0    0  501    0  0.00000000000E+00  0.00000000000E+00  0.26256871071E+04  0.26256871072E+04  0.50400001928E-02 0. -1.
       -1   -1    0    0    0  501  0.00000000000E+00  0.00000000000E+00 -0.50497379002E+03  0.50497379005E+03  0.50400001928E-02 0.  1.
    10030    2    1    2    0    0  0.00000000000E+00  0.00000000000E+00  0.21207133171E+04  0.31306608972E+04  0.23029573769E+04 0.  0.
        2    1    3    3  502    0  0.33267175226E+03 -0.10202763409E+04  0.16278490303E+04  0.19497504384E+04  0.25500000920E-02 0.  1.
       -2    1    3    3    0  502 -0.33267175226E+03  0.10202763409E+04  0.49286428682E+03  0.11809104588E+04  0.25500000920E-02 0. -1.
</event>
<event>
 5   0  0.7278815E-06  0.2299816E+04  0.7818609E-02  0.8477994E-01
       -1   -1    0    0    0  501  0.00000000000E+00  0.00000000000E+00  0.12348746991E+04  0.12348746991E+04  0.50400001928E-02 0. -1.
        1   -1    0    0  501    0  0.00000000000E+00  0.00000000000E+00 -0.10707875407E+04  0.10707875407E+04  0.50400001928E-02 0.  1.
    10030    2    1    2    0    0  0.00000000000E+00  0.00000000000E+00  0.16408715841E+03  0.23056622398E+04  0.22998160292E+04 0.  0.
        5    1    3    3  502    0  0.54930810151E+03  0.98398483900E+03 -0.14723144576E+03  0.11365142948E+04  0.46999998093E+01 0.  1.
       -5    1    3    3    0  502 -0.54930810151E+03 -0.98398483900E+03  0.31131860417E+03  0.11691479449E+04  0.46999998093E+01 0. -1.
</event>
<event>
 5   0  0.1635955E-05  0.2251237E+04  0.7818609E-02  0.8497400E-01
       -2   -1    0    0    0  501  0.00000000000E+00  0.00000000000E+00  0.11704686517E+04  0.11704686517E+04  0.25500000920E-02 0. -1.
        2   -1    0    0  501    0  0.00000000000E+00  0.00000000000E+00 -0.10824867874E+04  0.10824867874E+04  0.25500000920E-02 0.  1.
    10030    2    1    2    0    0  0.00000000000E+00  0.00000000000E+00  0.87981864394E+02  0.22529554391E+04  0.22512368605E+04 0.  0.
        2    1    3    3  502    0  0.50736869281E+03  0.12999803976E+03 -0.95311015607E+03  0.10875391719E+04  0.25500000920E-02 0.  1.
       -2    1    3    3    0  502 -0.50736869281E+03 -0.12999803976E+03  0.10410920205E+04  0.11654162672E+04  0.25500000920E-02 0. -1.
</event>
<event>
 5   0  0.1588969E-05  0.2302382E+04  0.7818609E-02  0.8476983E-01
        2   -1    0    0  501    0  0.00000000000E+00  0.00000000000E+00  0.22421206386E+04  0.22421206386E+04  0.25500000920E-02 0.  1.
       -2   -1    0    0    0  501  0.00000000000E+00  0.00000000000E+00 -0.59106557396E+03  0.59106557396E+03  0.25500000920E-02 0. -1.
    10030    2    1    2    0    0  0.00000000000E+00  0.00000000000E+00  0.16510550646E+04  0.28331862125E+04  0.23023816557E+04 0.  0.
        1    1    3    3  502    0  0.29554587139E+03 -0.18429832630E+03 -0.52467182260E+03  0.62975690281E+03  0.50400001928E-02 0. -1.
       -1    1    3    3    0  502 -0.29554587139E+03  0.18429832630E+03  0.21757268872E+04  0.22034293097E+04  0.50400001928E-02 0.  1.
</event>
<event>
 5   0  0.7202572E-06  0.2333997E+04  0.7818609E-02  0.8464636E-01
       -1   -1    0    0    0  501  0.00000000000E+00  0.00000000000E+00  0.17899849578E+04  0.17899849578E+04  0.50400001928E-02 0. -1.
        1   -1    0    0  501    0  0.00000000000E+00  0.00000000000E+00 -0.76083640705E+03  0.76083640706E+03  0.50400001928E-02 0.  1.
    10030    2    1    2    0    0  0.00000000000E+00  0.00000000000E+00  0.10291485508E+04  0.25508213649E+04  0.23339971928E+04 0.  0.
        2    1    3    3  502    0 -0.90672643625E+03 -0.13516888017E+03 -0.27463314672E+03  0.95699886188E+03  0.25500000920E-02 0.  1.
       -2    1    3    3    0  502  0.90672643625E+03  0.13516888017E+03  0.13037816975E+04  0.15938225030E+04  0.25500000920E-02 0. -1.
</event>
<event>
 5   0  0.7183014E-06  0.2292462E+04  0.7818609E-02  0.8480899E-01
       -1   -1    0    0    0  501  0.00000000000E+00  0.00000000000E+00  0.12098102293E+04  0.12098102293E+04  0.50400001928E-02 0.  1.
        1   -1    0    0  501    0  0.00000000000E+00  0.00000000000E+00 -0.10859931982E+04  0.10859931983E+04  0.50400001928E-02 0. -1.
    10030    2    1    2    0    0  0.00000000000E+00  0.00000000000E+00  0.12381703107E+03  0.22958034276E+04  0.22924621526E+04 0.  0.
        3    1    3    3  502    0  0.56903469543E+03 -0.41002391324E+03 -0.84601397195E+03  0.10989357329E+04  0.10100000352E+00 0. -1.
       -3    1    3    3    0  502 -0.56903469543E+03  0.41002391324E+03  0.96983100302E+03  0.11968676947E+04  0.10100000352E+00 0.  1.
</event>
<event>
 5   0  0.1635955E-05  0.2298363E+04  0.7818609E-02  0.8478567E-01
        2   -1    0    0  501    0  0.00000000000E+00  0.00000000000E+00  0.14603976467E+04  0.14603976467E+04  0.25500000920E-02 0. -1.
       -2   -1    0    0    0  501  0.00000000000E+00  0.00000000000E+00 -0.90428696940E+03  0.90428696941E+03  0.25500000920E-02 0.  1.
    10030    2    1    2    0    0  0.00000000000E+00  0.00000000000E+00  0.55611067730E+03  0.23646846161E+04  0.22983633847E+04 0.  0.
        2    1    3    3  502    0 -0.30618267993E+03  0.93947159432E+03  0.88172624210E+03  0.13243095847E+04  0.25500000920E-02 0. -1.
       -2    1    3    3    0  502  0.30618267993E+03 -0.93947159432E+03 -0.32561556480E+03  0.10403750314E+04  0.25500000920E-02 0.  1.
</event>
<event>
 5   0  0.7391007E-06  0.2315003E+04  0.7818609E-02  0.8472029E-01
        1   -1    0    0  501    0  0.00000000000E+00  0.00000000000E+00  0.95553283129E+03  0.95553283130E+03  0.50400001928E-02 0.  1.
       -1   -1    0    0    0  501  0.00000000000E+00  0.00000000000E+00 -0.14021593917E+04  0.14021593917E+04  0.50400001928E-02 0. -1.
    10030    2    1    2    0    0  0.00000000000E+00  0.00000000000E+00 -0.44662656037E+03  0.23576922230E+04  0.23150026639E+04 0.  0.
        1    1    3    3  502    0 -0.78679745155E+03 -0.77285790222E+03 -0.58114657928E+03  0.12466318275E+04  0.50400001928E-02 0. -1.
       -1    1    3    3    0  502  0.78679745155E+03  0.77285790222E+03  0.13452001891E+03  0.11110603954E+04  0.50400001928E-02 0.  1.
</event>
<event>
 5   0  0.7391007E-06  0.2298160E+04  0.7818609E-02  0.8478647E-01
        1   -1    0    0  501    0  0.00000000000E+00  0.00000000000E+00  0.13838691566E+04  0.13838691566E+04  0.50400001928E-02 0.  1.
       -1   -1    0    0    0  501  0.00000000000E+00  0.00000000000E+00 -0.95412548607E+03  0.95412548608E+03  0.50400001928E-02 0. -1.
    10030    2    1    2    0    0  0.00000000000E+00  0.00000000000E+00  0.42974367050E+03  0.23379946427E+04  0.22981599872E+04 0.  0.
        1    1    3    3  502    0  0.96159182332E+03  0.72230938013E+02  0.85061046756E+03  0.12858515897E+04  0.50400001928E-02 0.  1.
       -1    1    3    3    0  502 -0.96159182332E+03 -0.72230938013E+02 -0.42086679706E+03  0.10521430530E+04  0.50400001928E-02 0. -1.
</event>
<event>
 5   0  0.7202572E-06  0.2332309E+04  0.7818609E-02  0.8465290E-01
       -1   -1    0    0    0  501  0.00000000000E+00  0.00000000000E+00  0.11174374199E+04  0.11174374199E+04  0.50400001928E-02 0.  1.
        1   -1    0    0  501    0  0.00000000000E+00  0.00000000000E+00 -0.12169954090E+04  0.12169954090E+04  0.50400001928E-02 0. -1.
    10030    2    1    2    0    0  0.00000000000E+00  0.00000000000E+00 -0.99557989143E+02  0.23344328289E+04  0.23323089074E+04 0.  0.
        2    1    3    3  502    0  0.68201028053E+03 -0.22908609891E+03  0.86882457878E+03  0.11280401642E+04  0.25500000920E-02 0.  1.
       -2    1    3    3    0  502 -0.68201028053E+03  0.22908609891E+03 -0.96838256792E+03  0.12063926647E+04  0.25500000920E-02 0. -1.
</event>
<event>
 5   0  0.1626636E-05  0.2305708E+04  0.7818609E-02  0.8475674E-01
        2   -1    0    0  501    0  0.00000000000E+00  0.00000000000E+00  0.18038708610E+04  0.18038708610E+04  0.25500000920E-02 0.  1.
       -2   -1    0    0    0  501  0.00000000000E+00  0.00000000000E+00 -0.73678882374E+03  0.73678882374E+03  0.25500000920E-02 0. -1.
    10030    2    1    2    0    0  0.00000000000E+00  0.00000000000E+00  0.10670820372E+04  0.25406596847E+04  0.23057076049E+04 0.  0.
        4    1    3    3  502    0 -0.12473600374E+03  0.50482036591E+03  0.16673034868E+04  0.17465122967E+04  0.12699999809E+01 0.  1.
       -4    1    3    3    0  502  0.12473600374E+03 -0.50482036591E+03 -0.60022144958E+03  0.79414738802E+03  0.12699999809E+01 0. -1.
</event>
<event>
 5   0  0.1697855E-05  0.2262684E+04  0.7818609E-02  0.8492781E-01
       -2   -1    0    0    0  501  0.00000000000E+00  0.00000000000E+00  0.82156439991E+03  0.82156439991E+03  0.25500000920E-02 0. -1.
        2   -1    0    0  501    0  0.00000000000E+00  0.00000000000E+00 -0.15579238332E+04  0.15579238332E+04  0.25500000920E-02 0.  1.
    10030    2    1    2    0    0  0.00000000000E+00  0.00000000000E+00 -0.73635943324E+03  0.23794882331E+04  0.22626840337E+04 0.  0.
        5    1    3    3  502    0 -0.10027128157E+04  0.15105303339E+03  0.15937685831E+03  0.10264857927E+04  0.46999998093E+01 0. -1.
       -5    1    3    3    0  502  0.10027128157E+04 -0.15105303339E+03 -0.89573629156E+03  0.13530024404E+04  0.46999998093E+01 0.  1.
</event>
<event>
 5   0  0.1626636E-05  0.2317245E+04  0.7818609E-02  0.8471152E-01
       -2   -1    0    0    0  501  0.00000000000E+00  0.00000000000E+00  0.11730689001E+04  0.11730689001E+04  0.25500000920E-02 0.  1.
        2   -1    0    0  501    0  0.00000000000E+00  0.00000000000E+00 -0.11443544807E+04  0.11443544807E+04  0.25500000920E-02 0. -1.
    10030    2    1    2    0    0  0.00000000000E+00  0.00000000000E+00  0.28714419405E+02  0.23174233809E+04  0.23172454786E+04 0.  0.
        4    1    3    3  502    0 -0.65990033099E+03 -0.94332728029E+03 -0.11630592879E+03  0.11570926871E+04  0.12699999809E+01 0. -1.
       -4    1    3    3    0  502  0.65990033099E+03  0.94332728029E+03  0.14502034820E+03  0.11603306938E+04  0.12699999809E+01 0.  1.
</event>
<event>
 5   0  0.1588969E-05  0.2297155E+04  0.7818609E-02  0.8479044E-01
       -2   -1    0    0    0  501  0.00000000000E+00  0.00000000000E+00  0.13113403969E+04  0.13113403969E+04  0.25500000920E-02 0. -1.
        2   -1    0    0  501    0  0.00000000000E+00  0.00000000000E+00 -0.10060168155E+04  0.10060168155E+04  0.25500000920E-02 0.  1.
    10030    2    1    2    0    0  0.00000000000E+00  0.00000000000E+00  0.30532358141E+03  0.23173572124E+04  0.22971551886E+04 0.  0.
        1    1    3    3  502    0  0.43005159193E+03  0.65307673621E+03 -0.69603163653E+03  0.10468589371E+04  0.50400001928E-02 0.  1.
       -1    1    3    3    0  502 -0.43005159193E+03 -0.65307673621E+03  0.10013552179E+04  0.12704982753E+04  0.50400001928E-02 0. -1.
</event>
<event>
 5   0  0.1697855E-05  0.2304878E+04  0.7818609E-02  0.8476000E-01
        2   -1    0    0  501    0  0.00000000000E+00  0.00000000000E+00  0.18157716126E+04  0.18157716126E+04  0.25500000920E-02 0.  1.
       -2   -1    0    0    0  501  0.00000000000E+00  0.00000000000E+00 -0.73143338350E+03  0.73143338350E+03  0.25500000920E-02 0. -1.
    10030    2    1    2    0    0  0.00000000000E+00  0.00000000000E+00  0.10843382291E+04  0.25472049961E+04  0.23048782825E+04 0.  0.
        5    1    3    3  502    0 -0.64306070285E+03 -0.73237165436E+03  0.12218042881E+04  0.15629213403E+04  0.46999998093E+01 0.  1.
       -5    1    3    3    0  502  0.64306070285E+03  0.73237165436E+03 -0.13746605898E+03  0.98428365578E+03  0.46999998093E+01 0. -1.
</event>
<event>
 5   0  0.1602809E-05  0.2188912E+04  0.7818609E-02  0.8523058E-01
        2   -1    0    0  501    0  0.00000000000E+00  0.00000000000E+00  0.59453561067E+03  0.59453561067E+03  0.25500000920E-02 0. -1.
       -2   -1    0    0    0  501  0.00000000000E+00  0.00000000000E+00 -0.20147381262E+04  0.20147381262E+04  0.25500000920E-02 0.  1.
    10030    2    1    2    0    0  0.00000000000E+00  0.00000000000E+00 -0.14202025155E+04  0.26092737369E+04  0.21889116585E+04 0.  0.
        3    1    3    3  502    0 -0.49011306934E+03 -0.55942601702E+02  0.45450151048E+03  0.67075482008E+03  0.10100000352E+00 0. -1.
       -3    1    3    3    0  502  0.49011306934E+03  0.55942601702E+02 -0.18747040260E+04  0.19385189168E+04  0.10100000352E+00 0.  1.
</event>
<event>
 5   0  0.1626636E-05  0.2318877E+04  0.7818609E-02  0.8470515E-01
       -2   -1    0    0    0  501  0.00000000000E+00  0.00000000000E+00  0.69232402755E+03  0.69232402755E+03  0.25500000920E-02 0.  1.
        2   -1    0    0  501    0  0.00000000000E+00  0.00000000000E+00 -0.19417166894E+04  0.19417166894E+04  0.25500000920E-02 0. -1.
    10030    2    1    2    0    0  0.00000000000E+00  0.00000000000E+00 -0.12493926619E+04  0.26340407170E+04  0.23188765545E+04 0.  0.
        4    1    3    3  502    0  0.24853851675E+03 -0.16681662024E+03 -0.18970685194E+04  0.19205389242E+04  0.12699999809E+01 0. -1.
       -4    1    3    3    0  502 -0.24853851675E+03  0.16681662024E+03  0.64767585749E+03  0.71350179283E+03  0.12699999809E+01 0.  1.
</event>
<event>
 5   0  0.7183014E-06  0.2281683E+04  0.7818609E-02  0.8485178E-01
        1   -1    0    0  501    0  0.00000000000E+00  0.00000000000E+00  0.12344569505E+04  0.12344569505E+04  0.50400001928E-02 0. -1.
       -1   -1    0    0    0  501  0.00000000000E+00  0.00000000000E+00 -0.10543254639E+04  0.10543254639E+04  0.50400001928E-02 0.  1.
    10030    2    1    2    0    0  0.00000000000E+00  0.00000000000E+00  0.18013148665E+03  0.22887824144E+04  0.22816830604E+04 0.  0.
        3    1    3    3  502    0  0.10003020305E+04 -0.40095569945E+03  0.46559637832E+03  0.11739461754E+04  0.10100000352E+00 0. -1.
       -3    1    3    3    0  502 -0.10003020305E+04  0.40095569945E+03 -0.28546489166E+03  0.11148362390E+04  0.10100000352E+00 0.  1.
</event>
<event>
 5   0  0.7202572E-06  0.2288233E+04  0.7818609E-02  0.8482575E-01
        1   -1    0    0  501    0  0.00000000000E+00  0.00000000000E+00  0.12395934655E+04  0.12395934655E+04  0.50400001928E-02 0.  1.
       -1   -1    0    0    0  501  0.00000000000E+00  0.00000000000E+00 -0.10559935008E+04  0.10559935008E+04  0.50400001928E-02 0. -1.
    10030    2    1    2    0    0  0.00000000000E+00  0.00000000000E+00  0.18359996472E+03  0.22955869664E+04  0.22882330679E+04 0.  0.
        2    1    3    3  502    0  0.34865133123E+03 -0.36144224775E+03  0.11231137087E+04  0.12302774694E+04  0.25500000920E-02 0.  1.
       -2    1    3    3    0  502 -0.34865133123E+03  0.36144224775E+03 -0.93951374393E+03  0.10653094969E+04  0.25500000920E-02 0. -1.
</event>
<event>
 5   0  0.7278815E-06  0.2351625E+04  0.7818609E-02  0.8457840E-01
        1   -1    0    0  501    0  0.00000000000E+00  0.00000000000E+00  0.14892429485E+04  0.14892429485E+04  0.50400001928E-02 0.  1.
       -1   -1    0    0    0  501  0.00000000000E+00  0.00000000000E+00 -0.92834790656E+03  0.92834790657E+03  0.50400001928E-02 0. -1.
    10030    2    1    2    0    0  0.00000000000E+00  0.00000000000E+00  0.56089504191E+03  0.24175908550E+04  0.23516254579E+04 0.  0.
        5    1    3    3  502    0 -0.11511714509E+04  0.11198956877E+03  0.49798687512E+03  0.12592658142E+04  0.46999998093E+01 0.  1.
       -5    1    3    3    0  502  0.11511714509E+04 -0.11198956877E+03  0.62908166789E+02  0.11583250409E+04  0.46999998093E+01 0. -1.
</event>
<event>
 5   0  0.1626636E-05  0.2300686E+04  0.7818609E-02  0.8477651E-01
       -2   -1    0    0    0  501  0.00000000000E+00  0.00000000000E+00  0.87719230856E+03  0.87719230856E+03  0.25500000920E-02 0.  1.
        2   -1    0    0  501    0  0.00000000000E+00  0.00000000000E+00 -0.15085506314E+04  0.15085506314E+04  0.25500000920E-02 0. -1.
    10030    2    1    2    0    0  0.00000000000E+00  0.00000000000E+00 -0.63135832284E+03  0.23857429400E+04  0.23006859942E+04 0.  0.
        4    1    3    3  502    0 -0.58394993473E+03  0.60594542229E+03 -0.11289706525E+04  0.14080993318E+04  0.12699999809E+01 0. -1.
       -4    1    3    3    0  502  0.58394993473E+03 -0.60594542229E+03  0.49761232967E+03  0.97764360817E+03  0.12699999809E+01 0.  1.
</event>
<event>
 5   0  0.7391007E-06  0.2305568E+04  0.7818609E-02  0.8475729E-01
        1   -1    0    0  501    0  0.00000000000E+00  0.00000000000E+00  0.63519267681E+03  0.63519267683E+03  0.50400001928E-02 0. -1.
       -1   -1    0    0    0  501  0.00000000000E+00  0.00000000000E+00 -0.20921391007E+04  0.20921391007E+04  0.50400001928E-02 0.  1.
    10030    2    1    2    0    0  0.00000000000E+00  0.00000000000E+00 -0.14569464239E+04  0.27273317775E+04  0.23055684207E+04 0.  0.
        1    1    3    3  502    0 -0.28123408222E+03  0.93976864829E+03 -0.14447617508E+04  0.17463087464E+04  0.50400001928E-02 0.  1.
       -1    1    3    3    0  502  0.28123408222E+03 -0.93976864829E+03 -0.12184673137E+02  0.98102303113E+03  0.50400001928E-02 0. -1.
</event>
<event>
 5   0  0.7278815E-06  0.2320356E+04  0.7818609E-02  0.8469938E-01
       -1   -1    0    0    0  501  0.00000000000E+00  0.00000000000E+00  0.11475647490E+04  0.11475647490E+04  0.50400001928E-02 0.  1.
        1   -1    0    0  501    0  0.00000000000E+00  0.00000000000E+00 -0.11729294743E+04  0.11729294743E+04  0.50400001928E-02 0. -1.
    10030    2    1    2    0    0  0.00000000000E+00  0.00000000000E+00 -0.25364725287E+02  0.23204942234E+04  0.23203555916E+04 0.  0.
        5    1    3    3  502    0 -0.48916240511E+03 -0.19836554146E+03 -0.10458760648E+04  0.11715406862E+04  0.46999998093E+01 0. -1.
       -5    1    3    3    0  502  0.48916240511E+03  0.19836554146E+03  0.10205113395E+04  0.11489535372E+04  0.46999998093E+01 0.  1.
</event>
<event>
 5   0  0.7391007E-06  0.2293139E+04  0.7818609E-02  0.8480631E-01
        1   -1    0    0  501    0  0.00000000000E+00  0.00000000000E+00  0.20645762998E+04  0.20645762998E+04  0.50400001928E-02 0. -1.
       -1   -1    0    0    0  501  0.00000000000E+00  0.00000000000E+00 -0.63675123944E+03  0.63675123946E+03  0.50400001928E-02 0.  1.
    10030    2    1    2    0    0  0.00000000000E+00  0.00000000000E+00  0.14278250604E+04  0.27013275393E+04  0.22931389124E+04 0.  0.
        1    1    3    3  502    0 -0.69714917445E+03 -0.67050189359E+03 -0.11332366577E+02  0.96732527275E+03  0.50400001928E-02 0.  1.
       -1    1    3    3    0  502  0.69714917445E+03  0.67050189359E+03  0.14391574269E+04  0.17340022665E+04  0.50400001928E-02 0. -1.
</event>
<event>
 5   0  0.7202572E-06  0.2329638E+04  0.7818609E-02  0.8466326E-01
       -1   -1    0    0    0  501  0.00000000000E+00  0.00000000000E+00  0.11833515956E+04  0.11833515956E+04  0.50400001928E-02 0. -1.
        1   -1    0    0  501    0  0.00000000000E+00  0.00000000000E+00 -0.11465762004E+04  0.11465762004E+04  0.50400001928E-02 0.  1.
    10030    2    1    2    0    0  0.00000000000E+00  0.00000000000E+00  0.36775395227E+02  0.23299277960E+04  0.23296375479E+04 0.  0.
        2    1    3    3  502    0  0.71480592180E+03  0.63323034877E+03  0.68545999947E+03  0.11754929142E+04  0.25500000920E-02 0. -1.
       -2    1    3    3    0  502 -0.71480592180E+03 -0.63323034877E+03 -0.64868460424E+03  0.11544348818E+04  0.25500000920E-02 0.  1.
</event>
<event>
 5   0  0.1697855E-05  0.2293559E+04  0.7818609E-02  0.8480465E-01
       -2   -1    0    0    0  501  0.00000000000E+00  0.00000000000E+00  0.18289355391E+04  0.18289355391E+04  0.25500000920E-02 0.  1.
        2   -1    0    0  501    0  0.00000000000E+00  0.00000000000E+00 -0.71905363847E+03  0.71905363847E+03  0.25500000920E-02 0. -1.
    10030    2    1    2    0    0  0.00000000000E+00  0.00000000000E+00  0.11098819006E+04  0.25479891775E+04  0.22935585921E+04 0.  0.
        5    1    3    3  502    0 -0.27088072935E+03  0.54356389514E+03  0.16356007216E+04  0.17447205759E+04  0.46999998093E+01 0.  1.
       -5    1    3    3    0  502  0.27088072935E+03 -0.54356389514E+03 -0.52571882097E+03  0.80326860162E+03  0.46999998093E+01 0. -1.
</event>
<event>
 5   0  0.1626636E-05  0.2292611E+04  0.7818609E-02  0.8480840E-01
        2   -1    0    0  501    0  0.00000000000E+00  0.00000000000E+00  0.10445136426E+04  0.10445136426E+04  0.25500000920E-02 0.  1.
       -2   -1    0    0    0  501  0.00000000000E+00  0.00000000000E+00 -0.12580169445E+04  0.12580169445E+04  0.25500000920E-02 0. -1.
    10030    2    1    2    0    0  0.00000000000E+00  0.00000000000E+00 -0.21350330191E+03  0.23025305870E+04  0.22926106177E+04 0.  0.
        4    1    3    3  502    0  0.11074060828E+04  0.19715683529E+03 -0.32860380631E+03  0.11718366457E+04  0.12699999809E+01 0. -1.
       -4    1    3    3    0  502 -0.11074060828E+04 -0.19715683529E+03  0.11510050440E+03  0.11306939413E+04  0.12699999809E+01 0.  1.
</event>
<event>
 5   0  0.7183014E-06  0.2287617E+04  0.7818609E-02  0.8482820E-01
        1   -1    0    0  501    0  0.00000000000E+00  0.00000000000E+00  0.18726227377E+04  0.18726227377E+04  0.50400001928E-02 0. -1.
       -1   -1    0    0    0  501  0.00000000000E+00  0.00000000000E+00 -0.69864448936E+03  0.69864448938E+03  0.50400001928E-02 0.  1.
    10030    2    1    2    0    0  0.00000000000E+00  0.00000000000E+00  0.11739782483E+04  0.25712672271E+04  0.22876167130E+04 0.  0.
        3    1    3    3  502    0 -0.92466061703E+03 -0.37171051141E+03 -0.43982633573E+02  0.99754721354E+03  0.10100000352E+00 0.  1.
       -3    1    3    3    0  502  0.92466061703E+03  0.37171051141E+03  0.12179608819E+04  0.15737200136E+04  0.10100000352E+00 0. -1.
</event>
<event>
 5   0  0.7202572E-06  0.2294725E+04  0.7818609E-02  0.8480004E-01
       -1   -1    0    0    0  501  0.00000000000E+00  0.00000000000E+00  0.87645657533E+03  0.87645657535E+03  0.50400001928E-02 0.  1.
        1   -1    0    0  501    0  0.00000000000E+00  0.00000000000E+00 -0.15020036597E+04  0.15020036597E+04  0.50400001928E-02 0. -1.
    10030    2    1    2    0    0  0.00000000000E+00  0.00000000000E+00 -0.62554708434E+03  0.23784602350E+04  0.22947252417E+04 0.  0.
        2    1    3    3  502    0  0.15710883830E+03 -0.77542486537E+03  0.54849560601E+03  0.96271197080E+03  0.25500000920E-02 0.  1.
       -2    1    3    3    0  502 -0.15710883830E+03  0.77542486537E+03 -0.11740426903E+04  0.14157482642E+04  0.25500000920E-02 0. -1.
</event>
<event>
 5   0  0.1626636E-05  0.2308790E+04  0.7818609E-02  0.8474464E-01
        2   -1    0    0  501    0  0.00000000000E+00  0.00000000000E+00  0.17498391229E+04  0.17498391229E+04  0.25500000920E-02 0.  1.
       -2   -1    0    0    0  501  0.00000000000E+00  0.00000000000E+00 -0.76157138337E+03  0.76157138338E+03  0.25500000920E-02 0. -1.
    10030    2    1    2    0    0  0.00000000000E+00  0.00000000000E+00  0.98826773951E+03  0.25114105063E+04  0.23087896409E+04 0.  0.
        4    1    3    3  502    0 -0.16599304300E+02  0.37221097432E+03  0.16826383139E+04  0.17233948632E+04  0.12699999809E+01 0.  1.
       -4    1    3    3    0  502  0.16599304300E+02 -0.37221097432E+03 -0.69437057435E+03  0.78801564307E+03  0.12699999809E+01 0. -1.
</event>
<event>
 5   0  0.7391007E-06  0.2297324E+04  0.7818609E-02  0.8478977E-01
        1   -1    0    0  501    0  0.00000000000E+00  0.00000000000E+00  0.15143044798E+04  0.15143044798E+04  0.50400001928E-02 0.  1.
       -1   -1    0    0    0  501  0.00000000000E+00  0.00000000000E+00 -0.87130718697E+03  0.87130718698E+03  0.50400001928E-02 0. -1.
    10030    2    1    2    0    0  0.00000000000E+00  0.00000000000E+00  0.64299729285E+03  0.23856116668E+04  0.22973239881E+04 0.  0.
        1    1    3    3  502    0  0.49670023316E+03  0.95881069147E+03 -0.85210132950E+02  0.10831850398E+04  0.50400001928E-02 0. -1.
       -1    1    3    3    0  502 -0.49670023316E+03 -0.95881069147E+03  0.72820742580E+03  0.13024266270E+04  0.50400001928E-02 0.  1.
</event>
<event>
 5   0  0.1588969E-05  0.2298536E+04  0.7818609E-02  0.8478498E-01
        2   -1    0    0  501    0  0.00000000000E+00  0.00000000000E+00  0.13378987329E+04  0.13378987329E+04  0.25500000920E-02 0. -1.
       -2   -1    0    0    0  501  0.00000000000E+00  0.00000000000E+00 -0.98723253291E+03  0.98723253291E+03  0.25500000920E-02 0.  1.
    10030    2    1    2    0    0  0.00000000000E+00  0.00000000000E+00  0.35066619998E+03  0.23251312658E+04  0.22985361906E+04 0.  0.
        1    1    3    3  502    0 -0.89155880259E+03 -0.28916227569E+03 -0.49743747475E+03  0.10611012965E+04  0.50400001928E-02 0.  1.
       -1    1    3    3    0  502  0.89155880259E+03  0.28916227569E+03  0.84810367472E+03  0.12640299693E+04  0.50400001928E-02 0. -1.
</event>
<event>
 5   0  0.7391007E-06  0.2224860E+04  0.7818609E-02  0.8508152E-01
       -1   -1    0    0    0  501  0.00000000000E+00  0.00000000000E+00  0.10376837479E+04  0.10376837479E+04  0.50400001928E-02 0.  1.
        1   -1    0    0  501    0  0.00000000000E+00  0.00000000000E+00 -0.11925600261E+04  0.11925600261E+04  0.50400001928E-02 0. -1.
    10030    2    1    2    0    0  0.00000000000E+00  0.00000000000E+00 -0.15487627823E+03  0.22302437741E+04  0.22248596877E+04 0.  0.
        1    1    3    3  502    0 -0.68626205966E+03  0.14236176416E+03 -0.94340232756E+03  0.11752576050E+04  0.50400001928E-02 0. -1.
       -1    1    3    3    0  502  0.68626205966E+03 -0.14236176416E+03  0.78852604932E+03  0.10549861691E+04  0.50400001928E-02 0.  1.
</event>
<event>
 5   0  0.7391007E-06  0.2284005E+04  0.7818609E-02  0.8484255E-01
       -1   -1    0    0    0  501  0.00000000000E+00  0.00000000000E+00  0.12582424587E+04  0.12582424587E+04  0.50400001928E-02 0.  1.
        1   -1    0    0  501    0  0.00000000000E+00  0.00000000000E+00 -0.10365011351E+04  0.10365011351E+04  0.50400001928E-02 0. -1.
    10030    2    1    2    0    0  0.00000000000E+00  0.00000000000E+00  0.22174132362E+03  0.22947435939E+04  0.22840050234E+04 0.  0.
        1    1    3    3  502    0 -0.96255778618E+02  0.39416002572E+02 -0.10317321882E+04  0.10369619590E+04  0.50400001928E-02 0. -1.
       -1    1    3    3    0  502  0.96255778618E+02 -0.39416002572E+02  0.12534735118E+04  0.12577816349E+04  0.50400001928E-02 0.  1.
</event>
<event>
 5   0  0.1602809E-05  0.2292446E+04  0.7818609E-02  0.8480905E-01
       -2   -1    0    0    0  501  0.00000000000E+00  0.00000000000E+00  0.11379719862E+04  0.11379719862E+04  0.25500000920E-02 0. -1.
        2   -1    0    0  501    0  0.00000000000E+00  0.00000000000E+00 -0.11545339625E+04  0.11545339625E+04  0.25500000920E-02 0.  1.
    10030    2    1    2    0    0  0.00000000000E+00  0.00000000000E+00 -0.16561976282E+02  0.22925059487E+04  0.22924461228E+04 0.  0.
        3    1    3    3  502    0 -0.64013358526E+03  0.63101320448E+03  0.70298902335E+03  0.11411144764E+04  0.10100000352E+00 0. -1.
       -3    1    3    3    0  502  0.64013358526E+03 -0.63101320448E+03 -0.71955099963E+03  0.11513914723E+04  0.10100000352E+00 0.  1.
</event>
<event>
 5   0  0.7278815E-06  0.2225333E+04  0.7818609E-02  0.8507957E-01
       -1   -1    0    0    0  501  0.00000000000E+00  0.00000000000E+00  0.13100082436E+04  0.13100082436E+04  0.50400001928E-02 0.  1.
        1   -1    0    0  501    0  0.00000000000E+00  0.00000000000E+00 -0.94505262670E+03  0.94505262672E+03  0.50400001928E-02 0. -1.
    10030    2    1    2    0    0  0.00000000000E+00  0.00000000000E+00  0.36495561685E+03  0.22550608703E+04  0.22253329923E+04 0.  0.
        5    1    3    3  502    0  0.89372774875E+03  0.49840788487E+03 -0.26021613397E+03  0.10558855217E+04  0.46999998093E+01 0. -1.
       -5    1    3    3    0  502 -0.89372774875E+03 -0.49840788487E+03  0.62517175082E+03  0.11991753486E+04  0.46999998093E+01 0.  1.
</event>
<event>
 5   0  0.1602809E-05  0.2288508E+04  0.7818609E-02  0.8482466E-01
        2   -1    0    0  501    0  0.00000000000E+00  0.00000000000E+00  0.16875998716E+04  0.16875998716E+04  0.25500000920E-02 0.  1.
       -2   -1    0    0    0  501  0.00000000000E+00  0.00000000000E+00 -0.77584563213E+03  0.77584563213E+03  0.25500000920E-02 0. -1.
    10030    2    1    2    0    0  0.00000000000E+00  0.00000000000E+00  0.91175423944E+03  0.24634455037E+04  0.22885078013E+04 0.  0.
        3    1    3    3  502    0  0.28573478483E+03 -0.89098363982E+03  0.11648762951E+04  0.14941328612E+04  0.10100000352E+00 0.  1.
       -3    1    3    3    0  502 -0.28573478483E+03  0.89098363982E+03 -0.25312205568E+03  0.96931264253E+03  0.10100000352E+00 0. -1.
</event>
<event>
 5   0  0.1626636E-05  0.2296578E+04  0.7818609E-02  0.8479272E-01
        2   -1    0    0  501    0  0.00000000000E+00  0.00000000000E+00  0.17240352880E+04  0.17240352880E+04  0.25500000920E-02 0. -1.
       -2   -1    0    0    0  501  0.00000000000E+00  0.00000000000E+00 -0.76481452033E+03  0.76481452033E+03  0.25500000920E-02 0.  1.
    10030    2    1    2    0    0  0.00000000000E+00  0.00000000000E+00  0.95922076769E+03  0.24888498083E+04  0.22965776467E+04 0.  0.
        4    1    3    3  502    0 -0.27578069882E+03 -0.90736170032E+03 -0.22205648336E+03  0.97399740439E+03  0.12699999809E+01 0.  1.
       -4    1    3    3    0  502  0.27578069882E+03  0.90736170032E+03  0.11812772510E+04  0.15148524040E+04  0.12699999809E+01 0. -1.
</event>
<event>
 5   0  0.1602809E-05  0.2296878E+04  0.7818609E-02  0.8479153E-01
       -2   -1    0    0    0  501  0.00000000000E+00  0.00000000000E+00  0.12329161989E+04  0.12329161989E+04  0.25500000920E-02 0. -1.
        2   -1    0    0  501    0  0.00000000000E+00  0.00000000000E+00 -0.10697501120E+04  0.10697501120E+04  0.25500000920E-02 0.  1.
    10030    2    1    2    0    0  0.00000000000E+00  0.00000000000E+00  0.16316608690E+03  0.23026663109E+04  0.22968780916E+04 0.  0.
        3    1    3    3  502    0  0.14206357078E+03  0.11389303261E+04  0.12127936694E+03  0.11541460223E+04  0.10100000352E+00 0.  1.
       -3    1    3    3    0  502 -0.14206357078E+03 -0.11389303261E+04  0.41886719959E+02  0.11485202886E+04  0.10100000352E+00 0. -1.
</event>
<event>
 5   0  0.1588969E-05  0.2297739E+04  0.7818609E-02  0.8478813E-01
       -2   -1    0    0    0  501  0.00000000000E+00  0.00000000000E+00  0.91243875556E+03  0.91243875557E+03  0.25500000920E-02 0.  1.
        2   -1    0    0  501    0  0.00000000000E+00  0.00000000000E+00 -0.14465634624E+04  0.14465634624E+04  0.25500000920E-02 0. -1.
    10030    2    1    2    0    0  0.00000000000E+00  0.00000000000E+00 -0.53412470688E+03  0.23590022180E+04  0.22977385104E+04 0.  0.
        1    1    3    3  502    0 -0.38849047706E+03 -0.80160837475E+03  0.47781637847E+03  0.10108458482E+04  0.50400001928E-02 0.  1.
       -1    1    3    3    0  502  0.38849047706E+03  0.80160837475E+03 -0.10119410853E+04  0.13481563698E+04  0.50400001928E-02 0. -1.
</event>
<event>
 5   0  0.7202572E-06  0.2305447E+04  0.7818609E-02  0.8475776E-01
       -1   -1    0    0    0  501  0.00000000000E+00  0.00000000000E+00  0.83076890427E+03  0.83076890429E+03  0.50400001928E-02 0. -1.
        1   -1    0    0  501    0  0.00000000000E+00  0.00000000000E+00 -0.15994483238E+04  0.15994483238E+04  0.50400001928E-02 0.  1.
    10030    2    1    2    0    0  0.00000000000E+00  0.00000000000E+00 -0.76867941954E+03  0.24302172281E+04  0.23054474025E+04 0.  0.
        2    1    3    3  502    0  0.93244960275E+03  0.67540403786E+03 -0.32528026388E+03  0.11964280698E+04  0.25500000920E-02 0.  1.
       -2    1    3    3    0  502 -0.93244960275E+03 -0.67540403786E+03 -0.44339915565E+03  0.12337891583E+04  0.25500000920E-02 0. -1.
</event>
<event>
 5   0  0.7416556E-06  0.2298974E+04  0.7818609E-02  0.8478326E-01
        1   -1    0    0  501    0  0.00000000000E+00  0.00000000000E+00  0.15311872178E+04  0.15311872178E+04  0.50400001928E-02 0.  1.
       -1   -1    0    0    0  501  0.00000000000E+00  0.00000000000E+00 -0.86293833812E+03  0.86293833813E+03  0.50400001928E-02 0. -1.
    10030    2    1    2    0    0  0.00000000000E+00  0.00000000000E+00  0.66824887972E+03  0.23941255560E+04  0.22989738173E+04 0.  0.
        4    1    3    3  502    0 -0.59568027166E+03  0.92828881990E+03 -0.29437224233E+01  0.11029802345E+04  0.12699999809E+01 0. -1.
       -4    1    3    3    0  502  0.59568027166E+03 -0.92828881990E+03  0.67119260214E+03  0.12911453215E+04  0.12699999809E+01 0.  1.
</event>
<event>
 5   0  0.1697855E-05  0.2298831E+04  0.7818609E-02  0.8478382E-01
       -2   -1    0    0    0  501  0.00000000000E+00  0.00000000000E+00  0.71024939103E+03  0.71024939103E+03  0.25500000920E-02 0.  1.
        2   -1    0    0  501    0  0.00000000000E+00  0.00000000000E+00 -0.18601300522E+04  0.18601300522E+04  0.25500000920E-02 0. -1.
    10030    2    1    2    0    0  0.00000000000E+00  0.00000000000E+00 -0.11498806612E+04  0.25703794432E+04  0.22988312133E+04 0.  0.
        5    1    3    3  502    0 -0.17617954030E+02  0.34734251635E+03  0.64999395703E+03  0.73720516150E+03  0.46999998093E+01 0.  1.
       -5    1    3    3    0  502  0.17617954030E+02 -0.34734251635E+03 -0.17998746182E+04  0.18331742817E+04  0.46999998093E+01 0. -1.
</event>
<event>
 5   0  0.7391007E-06  0.2288640E+04  0.7818609E-02  0.8482414E-01
       -1   -1    0    0    0  501  0.00000000000E+00  0.00000000000E+00  0.54706815840E+03  0.54706815842E+03  0.50400001928E-02 0.  1.
        1   -1    0    0  501    0  0.00000000000E+00  0.00000000000E+00 -0.23936110086E+04  0.23936110086E+04  0.50400001928E-02 0. -1.
    10030    2    1    2    0    0  0.00000000000E+00  0.00000000000E+00 -0.18465428502E+04  0.29406791670E+04  0.22886400909E+04 0.  0.
        1    1    3    3  502    0  0.33878782300E+03 -0.47429499459E+03  0.34203809689E+03  0.67581283700E+03  0.50400001928E-02 0.  1.
       -1    1    3    3    0  502 -0.33878782300E+03  0.47429499459E+03 -0.21885809471E+04  0.22648663300E+04  0.50400001928E-02 0. -1.
</event>
<event>
 5   0  0.7416556E-06  0.2305532E+04  0.7818609E-02  0.8475743E-01
        1   -1    0    0  501    0  0.00000000000E+00  0.00000000000E+00  0.19970063849E+04  0.19970063849E+04  0.50400001928E-02 0.  1.
       -1   -1    0    0    0  501  0.00000000000E+00  0.00000000000E+00 -0.66543097412E+03  0.66543097414E+03  0.50400001928E-02 0. -1.
    10030    2    1    2    0    0  0.00000000000E+00  0.00000000000E+00  0.13315754108E+04  0.26624373591E+04  0.23055323933E+04 0.  0.
        4    1    3    3  502    0 -0.11354621758E+04  0.18664048688E+03  0.58612075077E+03  0.12913745279E+04  0.12699999809E+01 0.  1.
       -4    1    3    3    0  502  0.11354621758E+04 -0.18664048688E+03  0.74545466005E+03  0.13710628312E+04  0.12699999809E+01 0. -1.
</event>
<event>
 5   0  0.7278815E-06  0.2284912E+04  0.7818609E-02  0.8483894E-01
        1   -1    0    0  501    0  0.00000000000E+00  0.00000000000E+00  0.11604236413E+04  0.11604236413E+04  0.50400001928E-02 0.  1.
       -1   -1    0    0    0  501  0.00000000000E+00  0.00000000000E+00 -0.11247669518E+04  0.11247669518E+04  0.50400001928E-02 0. -1.
    10030    2    1    2    0    0  0.00000000000E+00  0.00000000000E+00  0.35656689579E+02  0.22851905931E+04  0.22849123938E+04 0.  0.
        5    1    3    3  502    0 -0.75795872589E+03 -0.47921877494E+03 -0.69009398222E+03  0.11315493178E+04  0.46999998093E+01 0.  1.
       -5    1    3    3    0  502  0.75795872589E+03  0.47921877494E+03  0.72575067180E+03  0.11536412753E+04  0.46999998093E+01 0. -1.
</event>
<event>
 5   0  0.1626636E-05  0.2216855E+04  0.7818609E-02  0.8511445E-01
       -2   -1    0    0    0  501  0.00000000000E+00  0.00000000000E+00  0.74056688036E+03  0.74056688037E+03  0.25500000920E-02 0.  1.
        2   -1    0    0  501    0  0.00000000000E+00  0.00000000000E+00 -0.16590153487E+04  0.16590153487E+04  0.25500000920E-02 0. -1.
    10030    2    1    2    0    0  0.00000000000E+00  0.00000000000E+00 -0.91844846836E+03  0.23995822291E+04  0.22168552693E+04 0.  0.
        4    1    3    3  502    0  0.53058742044E+03  0.57488680877E+03  0.39073356682E+03  0.87446680141E+03  0.12699999809E+01 0.  1.
       -4    1    3    3    0  502 -0.53058742044E+03 -0.57488680877E+03 -0.13091820352E+04  0.15251154277E+04  0.12699999809E+01 0. -1.
</event>
<event>
 5   0  0.7391007E-06  0.2300011E+04  0.7818609E-02  0.8477917E-01
        1   -1    0    0  501    0  0.00000000000E+00  0.00000000000E+00  0.16103769596E+04  0.16103769596E+04  0.50400001928E-02 0. -1.
       -1   -1    0    0    0  501  0.00000000000E+00  0.00000000000E+00 -0.82124393569E+03  0.82124393570E+03  0.50400001928E-02 0.  1.
    10030    2    1    2    0    0  0.00000000000E+00  0.00000000000E+00  0.78913302392E+03  0.24316208953E+04  0.23000107063E+04 0.  0.
        1    1    3    3  502    0  0.72262682862E+03 -0.24010700953E+03  0.13056629731E+04  0.15114882430E+04  0.50400001928E-02 0. -1.
       -1    1    3    3    0  502 -0.72262682862E+03  0.24010700953E+03 -0.51652994915E+03  0.92013265232E+03  0.50400001928E-02 0.  1.
</event>
<event>
 5   0  0.1635955E-05  0.2240936E+04  0.7818609E-02  0.8501580E-01
       -2   -1    0    0    0  501  0.00000000000E+00  0.00000000000E+00  0.70582413217E+03  0.70582413217E+03  0.25500000920E-02 0.  1.
        2   -1    0    0  501    0  0.00000000000E+00  0.00000000000E+00 -0.17786986572E+04  0.17786986572E+04  0.25500000920E-02 0. -1.
    10030    2    1    2    0    0  0.00000000000E+00  0.00000000000E+00 -0.10728745251E+04  0.24845227894E+04  0.22409359082E+04 0.  0.
        2    1    3    3  502    0 -0.55359849965E+03  0.12550754667E+03 -0.16074798248E+04  0.17047623970E+04  0.25500000920E-02 0. -1.
       -2    1    3    3    0  502  0.55359849965E+03 -0.12550754667E+03  0.53460529972E+03  0.77976039242E+03  0.25500000920E-02 0.  1.
</event>
<event>
 5   0  0.1697855E-05  0.2282582E+04  0.7818609E-02  0.8484820E-01
        2   -1    0    0  501    0  0.00000000000E+00  0.00000000000E+00  0.13160442716E+04  0.13160442716E+04  0.25500000920E-02 0.  1.
       -2   -1    0    0    0  501  0.00000000000E+00  0.00000000000E+00 -0.98974296159E+03  0.98974296160E+03  0.25500000920E-02 0. -1.
    10030    2    1    2    0    0  0.00000000000E+00  0.00000000000E+00  0.32630131005E+03  0.23057872332E+04  0.22825823578E+04 0.  0.
        5    1    3    3  502    0 -0.74144001000E+03 -0.73574913876E+03  0.62767701154E+03  0.12186306267E+04  0.46999998093E+01 0.  1.
       -5    1    3    3    0  502  0.74144001000E+03  0.73574913876E+03 -0.30137570150E+03  0.10871566065E+04  0.46999998093E+01 0. -1.
</event>
<event>
 5   0  0.7183014E-06  0.2296741E+04  0.7818609E-02  0.8479207E-01
       -1   -1    0    0    0  501  0.00000000000E+00  0.00000000000E+00  0.93888500625E+03  0.93888500626E+03  0.50400001928E-02 0. -1.
        1   -1    0    0  501    0  0.00000000000E+00  0.00000000000E+00 -0.14045967120E+04  0.14045967120E+04  0.50400001928E-02 0.  1.
    10030    2    1    2    0    0  0.00000000000E+00  0.00000000000E+00 -0.46571170578E+03  0.23434817183E+04  0.22967409891E+04 0.  0.
        3    1    3    3  502    0  0.37520636008E+03  0.91914115484E+03 -0.82179767471E+03  0.12887791523E+04  0.10100000352E+00 0.  1.
       -3    1    3    3    0  502 -0.37520636008E+03 -0.91914115484E+03  0.35608596893E+03  0.10547025660E+04  0.10100000352E+00 0. -1.
</event>
<event>
 5   0  0.7278815E-06  0.2299478E+04  0.7818609E-02  0.8478127E-01
       -1   -1    0    0    0  501  0.00000000000E+00  0.00000000000E+00  0.80736861482E+03  0.80736861483E+03  0.50400001928E-02 0. -1.
        1   -1    0    0  501    0  0.00000000000E+00  0.00000000000E+00 -0.16372940453E+04  0.16372940453E+04  0.50400001928E-02 0.  1.
    10030    2    1    2    0    0  0.00000000000E+00  0.00000000000E+00 -0.82992543045E+03  0.24446626601E+04  0.22994780498E+04 0.  0.
        5    1    3    3  502    0 -0.77756973442E+03 -0.79868419119E+03 -0.71447081787E+03  0.13240097314E+04  0.46999998093E+01 0.  1.
       -5    1    3    3    0  502  0.77756973442E+03  0.79868419119E+03 -0.11545461258E+03  0.11206529287E+04  0.46999998093E+01 0. -1.
</event>
<event>
 5   0  0.1635955E-05  0.2146767E+04  0.7818609E-02  0.8540917E-01
        2   -1    0    0  501    0  0.00000000000E+00  0.00000000000E+00  0.93298953779E+03  0.93298953779E+03  0.25500000920E-02 0.  1.
       -2   -1    0    0    0  501  0.00000000000E+00  0.00000000000E+00 -0.12349036082E+04  0.12349036082E+04  0.25500000920E-02 0. -1.
    10030    2    1    2    0    0  0.00000000000E+00  0.00000000000E+00 -0.30191407040E+03  0.21678931460E+04  0.21467670080E+04 0.  0.
        2    1    3    3  502    0  0.20498383123E+02  0.92306972338E+03 -0.70376930350E+03  0.11609345935E+04  0.25500000920E-02 0. -1.
       -2    1    3    3    0  502 -0.20498383123E+02 -0.92306972338E+03  0.40185523311E+03  0.10069585524E+04  0.25500000920E-02 0.  1.
</event>
<event>
 5   0  0.7416556E-06  0.2294059E+04  0.7818609E-02  0.8480267E-01
       -1   -1    0    0    0  501  0.00000000000E+00  0.00000000000E+00  0.16299791419E+04  0.16299791419E+04  0.50400001928E-02 0.  1.
        1   -1    0    0  501    0  0.00000000000E+00  0.00000000000E+00 -0.80717374095E+03  0.80717374096E+03  0.50400001928E-02 0. -1.
    10030    2    1    2    0    0  0.00000000000E+00  0.00000000000E+00  0.82280540093E+03  0.24371528828E+04  0.22940587278E+04 0.  0.
        4    1    3    3  502    0 -0.87209033683E+03 -0.51703485564E+03 -0.15853815065E+03  0.10261591278E+04  0.12699999809E+01 0. -1.
       -4    1    3    3    0  502  0.87209033683E+03  0.51703485564E+03  0.98134355158E+03  0.14109937550E+04  0.12699999809E+01 0.  1.
</event>
<event>
 5   0  0.1602809E-05  0.2301753E+04  0.7818609E-02  0.8477230E-01
        2   -1    0    0  501    0  0.00000000000E+00  0.00000000000E+00  0.14181800763E+04  0.14181800763E+04  0.25500000920E-02 0.  1.
       -2   -1    0    0    0  501  0.00000000000E+00  0.00000000000E+00 -0.93395561910E+03  0.93395561911E+03  0.25500000920E-02 0. -1.
    10030    2    1    2    0    0  0.00000000000E+00  0.00000000000E+00  0.48422445719E+03  0.23521356954E+04  0.23017534631E+04 0.  0.
        3    1    3    3  502    0 -0.47672806613E+03  0.10070749060E+04  0.53660011780E+03  0.12366928527E+04  0.10100000352E+00 0.  1.
       -3    1    3    3    0  502  0.47672806613E+03 -0.10070749060E+04 -0.52375660609E+02  0.11154428427E+04  0.10100000352E+00 0. -1.
</event>
<event>
 5   0  0.1697855E-05  0.2308321E+04  0.7818609E-02  0.8474647E-01
        2   -1    0    0  501    0  0.00000000000E+00  0.00000000000E+00  0.10778012730E+04  0.10778012730E+04  0.25500000920E-02 0.  1.
       -2   -1    0    0    0  501  0.00000000000E+00  0.00000000000E+00 -0.12359298773E+04  0.12359298773E+04  0.25500000920E-02 0. -1.
    10030    2    1    2    0    0  0.00000000000E+00  0.00000000000E+00 -0.15812860426E+03  0.23137311503E+04  0.23083212905E+04 0.  0.
        5    1    3    3  502    0  0.64551195035E+03 -0.37702138565E+03  0.80233373681E+03  0.10966277028E+04  0.46999998093E+01 0.  1.
       -5    1    3    3    0  502 -0.64551195035E+03  0.37702138565E+03 -0.96046234107E+03  0.12171034475E+04  0.46999998093E+01 0. -1.
</event>
<event>
 5   0  0.1588969E-05  0.2301375E+04  0.7818609E-02  0.8477379E-01
        2   -1    0    0  501    0  0.00000000000E+00  0.00000000000E+00  0.11972672740E+04  0.11972672741E+04  0.25500000920E-02 0.  1.
       -2   -1    0    0    0  501  0.00000000000E+00  0.00000000000E+00 -0.11059194802E+04  0.11059194802E+04  0.25500000920E-02 0. -1.
    10030    2    1    2    0    0  0.00000000000E+00  0.00000000000E+00  0.91347793851E+02  0.23031867543E+04  0.23013745470E+04 0.  0.
        1    1    3    3  502    0  0.71352123184E+03 -0.30887925633E+03  0.89461201983E+03  0.11852635189E+04  0.50400001928E-02 0.  1.
       -1    1    3    3    0  502 -0.71352123184E+03  0.30887925633E+03 -0.80326422598E+03  0.11179232353E+04  0.50400001928E-02 0. -1.
</event>
<event>
 5   0  0.7416556E-06  0.2270802E+04  0.7818609E-02  0.8489523E-01
       -1   -1    0    0    0  501  0.00000000000E+00  0.00000000000E+00  0.10341581056E+04  0.10341581056E+04  0.50400001928E-02 0. -1.
        1   -1    0    0  501    0  0.00000000000E+00  0.00000000000E+00 -0.12465553634E+04  0.12465553634E+04  0.50400001928E-02 0.  1.
    10030    2    1    2    0    0  0.00000000000E+00  0.00000000000E+00 -0.21239725784E+03  0.22807134690E+04  0.22708019140E+04 0.  0.
        4    1    3    3  502    0  0.73779194012E+03 -0.79491343560E+03 -0.44368522738E+03  0.11717860346E+04  0.12699999809E+01 0. -1.
       -4    1    3    3    0  502 -0.73779194012E+03  0.79491343560E+03  0.23128796954E+03  0.11089274344E+04  0.12699999809E+01 0.  1.
</event>
<event>
 5   0  0.1588969E-05  0.2276596E+04  0.7818609E-02  0.8487206E-01
        2   -1    0    0  501    0  0.00000000000E+00  0.00000000000E+00  0.82653587063E+03  0.82653587064E+03  0.25500000920E-02 0.  1.
       -2   -1    0    0    0  501  0.00000000000E+00  0.00000000000E+00 -0.15676546298E+04  0.15676546298E+04  0.25500000920E-02 0. -1.
    10030    2    1    2    0    0  0.00000000000E+00  0.00000000000E+00 -0.74111875916E+03  0.23941905004E+04  0.22765963931E+04 0.  0.
        1    1    3    3  502    0 -0.29080334090E+03 -0.18152812361E+03 -0.15120776282E+04  0.15504508365E+04  0.50400001928E-02 0. -1.
       -1    1    3    3    0  502  0.29080334090E+03  0.18152812361E+03  0.77095886902E+03  0.84373966393E+03  0.50400001928E-02 0.  1.
</event>
<event>
 5   0  0.7391007E-06  0.2297999E+04  0.7818609E-02  0.8478710E-01
        1   -1    0    0  501    0  0.00000000000E+00  0.00000000000E+00  0.11979940032E+04  0.11979940033E+04  0.50400001928E-02 0.  1.
       -1   -1    0    0    0  501  0.00000000000E+00  0.00000000000E+00 -0.11020089297E+04  0.11020089297E+04  0.50400001928E-02 0. -1.
    10030    2    1    2    0    0  0.00000000000E+00  0.00000000000E+00  0.95985073535E+02  0.23000029330E+04  0.22979992074E+04 0.  0.
        1    1    3    3  502    0  0.15033509102E+03 -0.10626506593E+04 -0.36269807365E+03  0.11328622847E+04  0.50400001928E-02 0. -1.
       -1    1    3    3    0  502 -0.15033509102E+03  0.10626506593E+04  0.45868314718E+03  0.11671406483E+04  0.50400001928E-02 0.  1.
</event>
<event>
 5   0  0.1626636E-05  0.2304850E+04  0.7818609E-02  0.8476011E-01
        2   -1    0    0  501    0  0.00000000000E+00  0.00000000000E+00  0.79262543584E+03  0.79262543584E+03  0.25500000920E-02 0.  1.
       -2   -1    0    0    0  501  0.00000000000E+00  0.00000000000E+00 -0.16755492414E+04  0.16755492414E+04  0.25500000920E-02 0. -1.
    10030    2    1    2    0    0  0.00000000000E+00  0.00000000000E+00 -0.88292380558E+03  0.24681746773E+04  0.23048496244E+04 0.  0.
        4    1    3    3  502    0  0.91115831449E+03  0.61526502740E+03 -0.71555893185E+02  0.11017633080E+04  0.12699999809E+01 0.  1.
       -4    1    3    3    0  502 -0.91115831449E+03 -0.61526502740E+03 -0.81136791239E+03  0.13664113693E+04  0.12699999809E+01 0. -1.
</event>
<event>
 5   0  0.7391007E-06  0.2299763E+04  0.7818609E-02  0.8478015E-01
        1   -1    0    0  501    0  0.00000000000E+00  0.00000000000E+00  0.19857651312E+04  0.19857651312E+04  0.50400001928E-02 0.  1.
       -1   -1    0    0    0  501  0.00000000000E+00  0.00000000000E+00 -0.66585276991E+03  0.66585276993E+03  0.50400001928E-02 0. -1.
    10030    2    1    2    0    0  0.00000000000E+00  0.00000000000E+00  0.13199123613E+04  0.26516179011E+04  0.22997627817E+04 0.  0.
        1    1    3    3  502    0 -0.91092503076E+03  0.59543446158E+03  0.23179135735E+03  0.11126786792E+04  0.50400001928E-02 0. -1.
       -1    1    3    3    0  502  0.91092503076E+03 -0.59543446158E+03  0.10881210039E+04  0.15389392220E+04  0.50400001928E-02 0.  1.
</event>
<event>
 5   0  0.1697855E-05  0.2303462E+04  0.7818609E-02  0.8476557E-01
       -2   -1    0    0    0  501  0.00000000000E+00  0.00000000000E+00  0.88477990900E+03  0.88477990901E+03  0.25500000920E-02 0. -1.
        2   -1    0    0  501    0  0.00000000000E+00  0.00000000000E+00 -0.14992256363E+04  0.14992256363E+04  0.25500000920E-02 0.  1.
    10030    2    1    2    0    0  0.00000000000E+00  0.00000000000E+00 -0.61444572726E+03  0.23840055453E+04  0.23034623696E+04 0.  0.
        5    1    3    3  502    0 -0.25916166575E+03  0.10793091835E+04  0.10748563591E+02  0.11100498656E+04  0.46999998093E+01 0. -1.
       -5    1    3    3    0  502  0.25916166575E+03 -0.10793091835E+04 -0.62519429085E+03  0.12739556797E+04  0.46999998093E+01 0.  1.
</event>
<event>
 5   0  0.1697855E-05  0.2300907E+04  0.7818609E-02  0.8477563E-01
       -2   -1    0    0    0  501  0.00000000000E+00  0.00000000000E+00  0.12270024764E+04  0.12270024764E+04  0.25500000920E-02 0. -1.
        2   -1    0    0  501    0  0.00000000000E+00  0.00000000000E+00 -0.10786805581E+04  0.10786805581E+04  0.25500000920E-02 0.  1.
    10030    2    1    2    0    0  0.00000000000E+00  0.00000000000E+00  0.14832191827E+03  0.23056830345E+04  0.23009074001E+04 0.  0.
        5    1    3    3  502    0 -0.37422035348E+02 -0.17150692949E+03  0.12134933504E+04  0.12261334500E+04  0.46999998093E+01 0. -1.
       -5    1    3    3    0  502  0.37422035348E+02  0.17150692949E+03 -0.10651714321E+04  0.10795495845E+04  0.46999998093E+01 0.  1.
</event>
<event>
 5   0  0.1635955E-05  0.2305492E+04  0.7818609E-02  0.8475759E-01
        2   -1    0    0  501    0  0.00000000000E+00  0.00000000000E+00  0.20960627350E+04  0.20960627350E+04  0.25500000920E-02 0. -1.
       -2   -1    0    0    0  501  0.00000000000E+00  0.00000000000E+00 -0.63396171816E+03  0.63396171817E+03  0.25500000920E-02 0.  1.
    10030    2    1    2    0    0  0.00000000000E+00  0.00000000000E+00  0.14621010168E+04  0.27300244531E+04  0.23054921668E+04 0.  0.
        2    1    3    3  502    0  0.82665248511E+03  0.42605901380E+03 -0.75506670661E+02  0.93304976914E+03  0.25500000920E-02 0.  1.
       -2    1    3    3    0  502 -0.82665248511E+03 -0.42605901380E+03  0.15376076875E+04  0.17969746840E+04  0.25500000920E-02 0. -1.
</event>
<event>
 5   0  0.1635955E-05  0.2288249E+04  0.7818609E-02  0.8482569E-01
       -2   -1    0    0    0  501  0.00000000000E+00  0.00000000000E+00  0.83969142282E+03  0.83969142283E+03  0.25500000920E-02 0.  1.
        2   -1    0    0  501    0  0.00000000000E+00  0.00000000000E+00 -0.15589306043E+04  0.15589306043E+04  0.25500000920E-02 0. -1.
    10030    2    1    2    0    0  0.00000000000E+00  0.00000000000E+00 -0.71923918147E+03  0.23986220271E+04  0.22882488127E+04 0.  0.
        2    1    3    3  502    0 -0.10260090719E+04 -0.30276055368E+03  0.65739169962E+02  0.10717649961E+04  0.25500000920E-02 0.  1.
       -2    1    3    3    0  502  0.10260090719E+04  0.30276055368E+03 -0.78497835143E+03  0.13268570310E+04  0.25500000920E-02 0. -1.
</event>
<event>
 5   0  0.1588969E-05  0.2301247E+04  0.7818609E-02  0.8477429E-01
       -2   -1    0    0    0  501  0.00000000000E+00  0.00000000000E+00  0.59351271254E+03  0.59351271255E+03  0.25500000920E-02 0. -1.
        2   -1    0    0  501    0  0.00000000000E+00  0.00000000000E+00 -0.22306763684E+04  0.22306763684E+04  0.25500000920E-02 0.  1.
    10030    2    1    2    0    0  0.00000000000E+00  0.00000000000E+00 -0.16371636559E+04  0.28241890810E+04  0.23012472985E+04 0.  0.
        1    1    3    3  502    0  0.20167785108E+03 -0.58250588715E+03 -0.20109337287E+04  0.21032930194E+04  0.50400001928E-02 0.  1.
       -1    1    3    3    0  502 -0.20167785108E+03  0.58250588715E+03  0.37377007285E+03  0.72089606155E+03  0.50400001928E-02 0. -1.
</event>
<event>
 5   0  0.7278815E-06  0.2304469E+04  0.7818609E-02  0.8476161E-01
        1   -1    0    0  501    0  0.00000000000E+00  0.00000000000E+00  0.23503876905E+04  0.23503876905E+04  0.50400001928E-02 0.  1.
       -1   -1    0    0    0  501  0.00000000000E+00  0.00000000000E+00 -0.56486165475E+03  0.56486165477E+03  0.50400001928E-02 0. -1.
    10030    2    1    2    0    0  0.00000000000E+00  0.00000000000E+00  0.17855260358E+04  0.29152493453E+04  0.23044685984E+04 0.  0.
        5    1    3    3  502    0 -0.56962226801E+03  0.34013383495E+03  0.20844977813E+04  0.21875359755E+04  0.46999998093E+01 0.  1.
       -5    1    3    3    0  502  0.56962226801E+03 -0.34013383495E+03 -0.29897174556E+03  0.72771336976E+03  0.46999998093E+01 0. -1.
</event>
<event>
 5   0  0.7183014E-06  0.2299051E+04  0.7818609E-02  0.8478295E-01
        1   -1    0    0  501    0  0.00000000000E+00  0.00000000000E+00  0.19173581203E+04  0.19173581203E+04  0.50400001928E-02 0. -1.
       -1   -1    0    0    0  501  0.00000000000E+00  0.00000000000E+00 -0.68918232201E+03  0.68918232203E+03  0.50400001928E-02 0.  1.
    10030    2    1    2    0    0  0.00000000000E+00  0.00000000000E+00  0.12281757983E+04  0.26065404423E+04  0.22990513883E+04 0.  0.
        3    1    3    3  502    0 -0.32782802266E+03  0.10749040387E+04  0.33982583176E+03  0.11740406769E+04  0.10100000352E+00 0.  1.
       -3    1    3    3    0  502  0.32782802266E+03 -0.10749040387E+04  0.88834996651E+03  0.14324997654E+04  0.10100000352E+00 0. -1.
</event>
<event>
 5   0  0.1602809E-05  0.2263856E+04  0.7818609E-02  0.8492310E-01
        2   -1    0    0  501    0  0.00000000000E+00  0.00000000000E+00  0.12290723862E+04  0.12290723862E+04  0.25500000920E-02 0. -1.
       -2   -1    0    0    0  501  0.00000000000E+00  0.00000000000E+00 -0.10424616704E+04  0.10424616704E+04  0.25500000920E-02 0.  1.
    10030    2    1    2    0    0  0.00000000000E+00  0.00000000000E+00  0.18661071582E+03  0.22715340567E+04  0.22638558725E+04 0.  0.
        3    1    3    3  502    0  0.68580418699E+03  0.32115811416E+03  0.93746186673E+03  0.12051160438E+04  0.10100000352E+00 0. -1.
       -3    1    3    3    0  502 -0.68580418699E+03 -0.32115811416E+03 -0.75085115092E+03  0.10664180129E+04  0.10100000352E+00 0.  1.
</event>
<event>
 5   0  0.7391007E-06  0.2281420E+04  0.7818609E-02  0.8485283E-01
       -1   -1    0    0    0  501  0.00000000000E+00  0.00000000000E+00  0.26385110206E+04  0.26385110206E+04  0.50400001928E-02 0. -1.
        1   -1    0    0  501    0  0.00000000000E+00  0.00000000000E+00 -0.49316439515E+03  0.49316439518E+03  0.50400001928E-02 0.  1.
    10030    2    1    2    0    0  0.00000000000E+00  0.00000000000E+00  0.21453466254E+04  0.31316754157E+04  0.22814203397E+04 0.  0.
        1    1    3    3  502    0  0.78551600571E+01 -0.91040458035E+03  0.20160611786E+04  0.22121032705E+04  0.50400001928E-02 0. -1.
       -1    1    3    3    0  502 -0.78551600571E+01  0.91040458035E+03  0.12928544676E+03  0.91957214520E+03  0.50400001928E-02 0.  1.
</event>
<event>
 5   0  0.1635955E-05  0.2301755E+04  0.7818609E-02  0.8477229E-01
        2   -1    0    0  501    0  0.00000000000E+00  0.00000000000E+00  0.24008743239E+04  0.24008743239E+04  0.25500000920E-02 0.  1.
       -2   -1    0    0    0  501  0.00000000000E+00  0.00000000000E+00 -0.55168207053E+03  0.55168207054E+03  0.25500000920E-02 0. -1.
    10030    2    1    2    0    0  0.00000000000E+00  0.00000000000E+00  0.18491922533E+04  0.29525563944E+04  0.23017552590E+04 0.  0.
        2    1    3    3  502    0  0.22450943215E+02  0.11469563872E+04  0.10429029775E+04  0.15503740256E+04  0.25500000920E-02 0.  1.
       -2    1    3    3    0  502 -0.22450943215E+02 -0.11469563872E+04  0.80628927588E+03  0.14021823688E+04  0.25500000920E-02 0. -1.
</event>
<event>
 5   0  0.7416556E-06  0.2299382E+04  0.7818609E-02  0.8478165E-01
       -1   -1    0    0    0  501  0.00000000000E+00  0.00000000000E+00  0.12119136472E+04  0.12119136472E+04  0.50400001928E-02 0. -1.
        1   -1    0    0  501    0  0.00000000000E+00  0.00000000000E+00 -0.10906627118E+04  0.10906627118E+04  0.50400001928E-02 0.  1.
    10030    2    1    2    0    0  0.00000000000E+00  0.00000000000E+00  0.12125093542E+03  0.23025763590E+04  0.22993816777E+04 0.  0.
        4    1    3    3  502    0 -0.20381845708E+03 -0.94862519505E+03  0.67821216455E+03  0.11838095612E+04  0.12699999809E+01 0. -1.
       -4    1    3    3    0  502  0.20381845708E+03  0.94862519505E+03 -0.55696122913E+03  0.11187667978E+04  0.12699999809E+01 0.  1.
</event>
<event>
 5   0  0.7391007E-06  0.2213173E+04  0.7818609E-02  0.8512965E-01
        1   -1    0    0  501    0  0.00000000000E+00  0.00000000000E+00  0.15779743555E+04  0.15779743555E+04  0.50400001928E-02 0.  1.
       -1   -1    0    0    0  501  0.00000000000E+00  0.00000000000E+00 -0.77601596178E+03  0.77601596180E+03  0.50400001928E-02 0. -1.
    10030    2    1    2    0    0  0.00000000000E+00  0.00000000000E+00  0.80195839376E+03  0.23539903173E+04  0.22131726433E+04 0.  0.
        1    1    3    3  502    0  0.38987293590E+03 -0.29477490006E+03  0.14569418768E+04  0.15367409607E+04  0.50400001928E-02 0.  1.
       -1    1    3    3    0  502 -0.38987293590E+03  0.29477490006E+03 -0.65498348305E+03  0.81724935665E+03  0.50400001928E-02 0. -1.
</event>
<event>
 5   0  0.7202572E-06  0.2297655E+04  0.7818609E-02  0.8478846E-01
        1   -1    0    0  501    0  0.00000000000E+00  0.00000000000E+00  0.97028919282E+03  0.97028919283E+03  0.50400001928E-02 0. -1.
       -1   -1    0    0    0  501  0.00000000000E+00  0.00000000000E+00 -0.13602178554E+04  0.13602178554E+04  0.50400001928E-02 0.  1.
    10030    2    1    2    0    0  0.00000000000E+00  0.00000000000E+00 -0.38992866256E+03  0.23305070482E+04  0.22976550524E+04 0.  0.
        2    1    3    3  502    0  0.20559554296E+03 -0.16676949631E+03 -0.13288584160E+04  0.13549709525E+04  0.25500000920E-02 0.  1.
       -2    1    3    3    0  502 -0.20559554296E+03  0.16676949631E+03  0.93892975346E+03  0.97553609576E+03  0.25500000920E-02 0. -1.
</event>
<event>
 5   0  0.7183014E-06  0.2257178E+04  0.7818609E-02  0.8494999E-01
       -1   -1    0    0    0  501  0.00000000000E+00  0.00000000000E+00  0.18049599407E+04  0.18049599407E+04  0.50400001928E-02 0.  1.
        1   -1    0    0  501    0  0.00000000000E+00  0.00000000000E+00 -0.70567381274E+03  0.70567381276E+03  0.50400001928E-02 0. -1.
    10030    2    1    2    0    0  0.00000000000E+00  0.00000000000E+00  0.10992861280E+04  0.25106337535E+04  0.22571778514E+04 0.  0.
        3    1    3    3  502    0  0.86055934092E+03  0.54331176977E+03  0.10922335879E+04  0.14928912483E+04  0.10100000352E+00 0.  1.
       -3    1    3    3    0  502 -0.86055934092E+03 -0.54331176977E+03  0.70525400736E+01  0.10177425052E+04  0.10100000352E+00 0. -1.
</event>
<event>
 5   0  0.1626636E-05  0.2297304E+04  0.7818609E-02  0.8478985E-01
        2   -1    0    0  501    0  0.00000000000E+00  0.00000000000E+00  0.12519382644E+04  0.12519382644E+04  0.25500000920E-02 0.  1.
       -2   -1    0    0    0  501  0.00000000000E+00  0.00000000000E+00 -0.10538868437E+04  0.10538868437E+04  0.25500000920E-02 0. -1.
    10030    2    1    2    0    0  0.00000000000E+00  0.00000000000E+00  0.19805142069E+03  0.23058251081E+04  0.22973038685E+04 0.  0.
        4    1    3    3  502    0  0.45325987876E+03 -0.94602446388E+03 -0.37067680612E+03  0.11125689693E+04  0.12699999809E+01 0. -1.
       -4    1    3    3    0  502 -0.45325987876E+03  0.94602446388E+03  0.56872822681E+03  0.11932561388E+04  0.12699999809E+01 0.  1.
</event>
<event>
 5   0  0.1626636E-05  0.2323129E+04  0.7818609E-02  0.8468857E-01
        2   -1    0    0  501    0  0.00000000000E+00  0.00000000000E+00  0.10441042642E+04  0.10441042642E+04  0.25500000920E-02 0. -1.
       -2   -1    0    0    0  501  0.00000000000E+00  0.00000000000E+00 -0.12922391846E+04  0.12922391846E+04  0.25500000920E-02 0.  1.
    10030    2    1    2    0    0  0.00000000000E+00  0.00000000000E+00 -0.24813492034E+03  0.23363434488E+04  0.23231293059E+04 0.  0.
        4    1    3    3  502    0  0.15036305092E+03  0.11504111180E+04 -0.67390511283E+02  0.11621522626E+04  0.12699999809E+01 0.  1.
       -4    1    3    3    0  502 -0.15036305092E+03 -0.11504111180E+04 -0.18074440906E+03  0.11741911862E+04  0.12699999809E+01 0. -1.
</event>
<event>
 5   0  0.7202572E-06  0.2302582E+04  0.7818609E-02  0.8476904E-01
       -1   -1    0    0    0  501  0.00000000000E+00  0.00000000000E+00  0.61844053468E+03  0.61844053470E+03  0.50400001928E-02 0. -1.
        1   -1    0    0  501    0  0.00000000000E+00  0.00000000000E+00 -0.21432479312E+04  0.21432479312E+04  0.50400001928E-02 0.  1.
    10030    2    1    2    0    0  0.00000000000E+00  0.00000000000E+00 -0.15248073965E+04  0.27616884659E+04  0.23025823734E+04 0.  0.
        2    1    3    3  502    0 -0.49025278457E+03  0.75300216046E+03 -0.16257222302E+04  0.18575071511E+04  0.25500000920E-02 0.  1.
       -2    1    3    3    0  502  0.49025278457E+03 -0.75300216046E+03  0.10091483370E+03  0.90418131484E+03  0.25500000920E-02 0. -1.
</event>
<event>
 5   0  0.1626636E-05  0.2301259E+04  0.7818609E-02  0.8477425E-01
       -2   -1    0    0    0  501  0.00000000000E+00  0.00000000000E+00  0.12663178218E+04  0.12663178218E+04  0.25500000920E-02 0. -1.
        2   -1    0    0  501    0  0.00000000000E+00  0.00000000000E+00 -0.10455106477E+04  0.10455106477E+04  0.25500000920E-02 0.  1.
    10030    2    1    2    0    0  0.00000000000E+00  0.00000000000E+00  0.22080717412E+03  0.23118284696E+04  0.23012594518E+04 0.  0.
        4    1    3    3  502    0  0.88546600679E+02  0.46913607606E+03  0.11621205163E+04  0.12563657372E+04  0.12699999809E+01 0. -1.
       -4    1    3    3    0  502 -0.88546600679E+02 -0.46913607606E+03 -0.94131334218E+03  0.10554627324E+04  0.12699999809E+01 0.  1.
</event>
<event>
 5   0  0.1588969E-05  0.2301777E+04  0.7818609E-02  0.8477221E-01
       -2   -1    0    0    0  501  0.00000000000E+00  0.00000000000E+00  0.63528605509E+03  0.63528605509E+03  0.25500000920E-02 0. -1.
        2   -1    0    0  501    0  0.00000000000E+00  0.00000000000E+00 -0.20849568746E+04  0.20849568746E+04  0.25500000920E-02 0.  1.
    10030    2    1    2    0    0  0.00000000000E+00  0.00000000000E+00 -0.14496708195E+04  0.27202429297E+04  0.23017767293E+04 0.  0.
        1    1    3    3  502    0 -0.47291014714E+03  0.39360170802E+03 -0.18742718151E+04  0.19726786734E+04  0.50400001928E-02 0.  1.
       -1    1    3    3    0  502  0.47291014714E+03 -0.39360170802E+03  0.42460099554E+03  0.74756425628E+03  0.50400001928E-02 0. -1.
</event>
<event>
 5   0  0.1626636E-05  0.2280246E+04  0.7818609E-02  0.8485751E-01
       -2   -1    0    0    0  501  0.00000000000E+00  0.00000000000E+00  0.61453240675E+03  0.61453240676E+03  0.25500000920E-02 0.  1.
        2   -1    0    0  501    0  0.00000000000E+00  0.00000000000E+00 -0.21152359229E+04  0.21152359229E+04  0.25500000920E-02 0. -1.
    10030    2    1    2    0    0  0.00000000000E+00  0.00000000000E+00 -0.15007035161E+04  0.27297683296E+04  0.22802464977E+04 0.  0.
        4    1    3    3  502    0  0.33170842349E+03 -0.42198262344E+03  0.45381588221E+03  0.70288710370E+03  0.12699999809E+01 0.  1.
       -4    1    3    3    0  502 -0.33170842349E+03  0.42198262344E+03 -0.19545193983E+04  0.20268812259E+04  0.12699999809E+01 0. -1.
</event>
<event>
 5   0  0.7278815E-06  0.2292663E+04  0.7818609E-02  0.8480820E-01
       -1   -1    0    0    0  501  0.00000000000E+00  0.00000000000E+00  0.13339420948E+04  0.13339420948E+04  0.50400001928E-02 0.  1.
        1   -1    0    0  501    0  0.00000000000E+00  0.00000000000E+00 -0.98510734955E+03  0.98510734956E+03  0.50400001928E-02 0. -1.
    10030    2    1    2    0    0  0.00000000000E+00  0.00000000000E+00  0.34883474526E+03  0.23190494444E+04  0.22926632212E+04 0.  0.
        5    1    3    3  502    0  0.77384284955E+03 -0.79983696708E+03 -0.10348474209E+03  0.11177222873E+04  0.46999998093E+01 0. -1.
       -5    1    3    3    0  502 -0.77384284955E+03  0.79983696708E+03  0.45231948734E+03  0.12013271571E+04  0.46999998093E+01 0.  1.
</event>
<event>
 5   0  0.1697855E-05  0.2288120E+04  0.7818609E-02  0.8482620E-01
       -2   -1    0    0    0  501  0.00000000000E+00  0.00000000000E+00  0.46663083310E+03  0.46663083311E+03  0.25500000920E-02 0.  1.
        2   -1    0    0  501    0  0.00000000000E+00  0.00000000000E+00 -0.28049444291E+04  0.28049444291E+04  0.25500000920E-02 0. -1.
    10030    2    1    2    0    0  0.00000000000E+00  0.00000000000E+00 -0.23383135960E+04  0.32715752622E+04  0.22881202379E+04 0.  0.
        5    1    3    3  502    0  0.53581182712E+03  0.10055468121E+04 -0.10217216315E+04  0.15304103658E+04  0.46999998093E+01 0. -1.
       -5    1    3    3    0  502 -0.53581182712E+03 -0.10055468121E+04 -0.13165919645E+04  0.17411648964E+04  0.46999998093E+01 0.  1.
</event>
<event>
 5   0  0.7278815E-06  0.2294679E+04  0.7818609E-02  0.8480022E-01
       -1   -1    0    0    0  501  0.00000000000E+00  0.00000000000E+00  0.11543585897E+04  0.11543585897E+04  0.50400001928E-02 0. -1.
        1   -1    0    0  501    0  0.00000000000E+00  0.00000000000E+00 -0.11403628817E+04  0.11403628817E+04  0.50400001928E-02 0.  1.
    10030    2    1    2    0    0  0.00000000000E+00  0.00000000000E+00  0.13995708060E+02  0.22947214714E+04  0.22946787905E+04 0.  0.
        5    1    3    3  502    0  0.15983854900E+03 -0.85351257664E+03 -0.74290509745E+03  0.11427870117E+04  0.46999998093E+01 0.  1.
       -5    1    3    3    0  502 -0.15983854900E+03  0.85351257664E+03  0.75690080551E+03  0.11519344598E+04  0.46999998093E+01 0. -1.
</event>
<event>
 5   0  0.7183014E-06  0.2295653E+04  0.7818609E-02  0.8479637E-01
        1   -1    0    0  501    0  0.00000000000E+00  0.00000000000E+00  0.84807483666E+03  0.84807483667E+03  0.50400001928E-02 0.  1.
       -1   -1    0    0    0  501  0.00000000000E+00  0.00000000000E+00 -0.15535259062E+04  0.15535259062E+04  0.50400001928E-02 0. -1.
    10030    2    1    2    0    0  0.00000000000E+00  0.00000000000E+00 -0.70545106949E+03  0.24016007428E+04  0.22956534835E+04 0.  0.
        3    1    3    3  502    0 -0.22829891151E+03  0.17636899956E+03  0.80952909819E+03  0.85939734001E+03  0.10100000352E+00 0.  1.
       -3    1    3    3    0  502  0.22829891151E+03 -0.17636899956E+03 -0.15149801677E+04  0.15422034028E+04  0.10100000352E+00 0. -1.
</event>
<event>
 5   0  0.1602809E-05  0.2296040E+04  0.7818609E-02  0.8479484E-01
        2   -1    0    0  501    0  0.00000000000E+00  0.00000000000E+00  0.10673907092E+04  0.10673907092E+04  0.25500000920E-02 0.  1.
       -2   -1    0    0    0  501  0.00000000000E+00  0.00000000000E+00 -0.12347398841E+04  0.12347398841E+04  0.25500000920E-02 0. -1.
    10030    2    1    2    0    0  0.00000000000E+00  0.00000000000E+00 -0.16734917489E+03  0.23021305933E+04  0.22960399653E+04 0.  0.
        3    1    3    3  502    0 -0.67169002112E+03  0.58793360334E+03  0.64012429839E+03  0.10984500599E+04  0.10100000352E+00 0.  1.
       -3    1    3    3    0  502  0.67169002112E+03 -0.58793360334E+03 -0.80747347328E+03  0.12036805335E+04  0.10100000352E+00 0. -1.
</event>
<event>
 5   0  0.7391007E-06  0.2298405E+04  0.7818609E-02  0.8478550E-01
       -1   -1    0    0    0  501  0.00000000000E+00  0.00000000000E+00  0.10322512731E+04  0.10322512732E+04  0.50400001928E-02 0. -1.
        1   -1    0    0  501    0  0.00000000000E+00  0.00000000000E+00 -0.12794038115E+04  0.12794038116E+04  0.50400001928E-02 0.  1.
    10030    2    1    2    0    0  0.00000000000E+00  0.00000000000E+00 -0.24715253840E+03  0.23116550847E+04  0.22984048498E+04 0.  0.
        1    1    3    3  502    0  0.29575087721E+03 -0.20242389408E+03  0.97460771939E+03  0.10384142820E+04  0.50400001928E-02 0. -1.
       -1    1    3    3    0  502 -0.29575087721E+03  0.20242389408E+03 -0.12217602578E+04  0.12732408028E+04  0.50400001928E-02 0.  1.
</event>
<event>
 5   0  0.7416556E-06  0.2185969E+04  0.7818609E-02  0.8524291E-01
        1   -1    0    0  501    0  0.00000000000E+00  0.00000000000E+00  0.86604164714E+03  0.86604164715E+03  0.50400001928E-02 0.  1.
       -1   -1    0    0    0  501  0.00000000000E+00  0.00000000000E+00 -0.13793973575E+04  0.13793973575E+04  0.50400001928E-02 0. -1.
    10030    2    1    2    0    0  0.00000000000E+00  0.00000000000E+00 -0.51335571038E+03  0.22454390047E+04  0.21859694047E+04 0.  0.
        4    1    3    3  502    0 -0.10159380175E+04 -0.31762598976E+03 -0.17371657683E+01  0.10644345708E+04  0.12699999809E+01 0.  1.
       -4    1    3    3    0  502  0.10159380175E+04  0.31762598976E+03 -0.51161854461E+03  0.11810044339E+04  0.12699999809E+01 0. -1.
</event>
<event>
 5   0  0.7278815E-06  0.2300174E+04  0.7818609E-02  0.8477853E-01
       -1   -1    0    0    0  501  0.00000000000E+00  0.00000000000E+00  0.15111742083E+04  0.15111742083E+04  0.50400001928E-02 0.  1.
        1   -1    0    0  501    0  0.00000000000E+00  0.00000000000E+00 -0.87527956664E+03  0.87527956666E+03  0.50400001928E-02 0. -1.
    10030    2    1    2    0    0  0.00000000000E+00  0.00000000000E+00  0.63589464162E+03  0.23864537749E+04  0.23001738249E+04 0.  0.
        5    1    3    3  502    0  0.49792647574E+02 -0.38479882105E+03  0.14412064564E+04  0.14925305962E+04  0.46999998093E+01 0.  1.
       -5    1    3    3    0  502 -0.49792647574E+02  0.38479882105E+03 -0.80531181482E+03  0.89392317876E+03  0.46999998093E+01 0. -1.
</event>
<event>
 5   0  0.7416556E-06  0.2304777E+04  0.7818609E-02  0.8476040E-01
        1   -1    0    0  501    0  0.00000000000E+00  0.00000000000E+00  0.14197606508E+04  0.14197606508E+04  0.50400001928E-02 0.  1.
       -1   -1    0    0    0  501  0.00000000000E+00  0.00000000000E+00 -0.93536803760E+03  0.93536803762E+03  0.50400001928E-02 0. -1.
    10030    2    1    2    0    0  0.00000000000E+00  0.00000000000E+00  0.48439261321E+03  0.23551286884E+04  0.23047765478E+04 0.  0.
        4    1    3    3  502    0 -0.34769801600E+03  0.19219678811E+03 -0.86317734899E+03  0.95021590409E+03  0.12699999809E+01 0. -1.
       -4    1    3    3    0  502  0.34769801600E+03 -0.19219678811E+03  0.13475699622E+04  0.14049127843E+04  0.12699999809E+01 0.  1.
</event>
<event>
 5   0  0.7391007E-06  0.2306308E+04  0.7818609E-02  0.8475438E-01
       -1   -1    0    0    0  501  0.00000000000E+00  0.00000000000E+00  0.10795347953E+04  0.10795347953E+04  0.50400001928E-02 0.  1.
        1   -1    0    0  501    0  0.00000000000E+00  0.00000000000E+00 -0.12317932503E+04  0.12317932504E+04  0.50400001928E-02 0. -1.
    10030    2    1    2    0    0  0.00000000000E+00  0.00000000000E+00 -0.15225845505E+03  0.23113280457E+04  0.23063075895E+04 0.  0.
        1    1    3    3  502    0 -0.52548086787E+01 -0.37829999851E+03 -0.11678237704E+04  0.12275792686E+04  0.50400001928E-02 0. -1.
       -1    1    3    3    0  502  0.52548086787E+01  0.37829999851E+03  0.10155653154E+04  0.10837487770E+04  0.50400001928E-02 0.  1.
</event>
<event>
 5   0  0.1626636E-05  0.2298489E+04  0.7818609E-02  0.8478517E-01
       -2   -1    0    0    0  501  0.00000000000E+00  0.00000000000E+00  0.70849387749E+03  0.70849387749E+03  0.25500000920E-02 0.  1.
        2   -1    0    0  501    0  0.00000000000E+00  0.00000000000E+00 -0.18641845209E+04  0.18641845209E+04  0.25500000920E-02 0. -1.
    10030    2    1    2    0    0  0.00000000000E+00  0.00000000000E+00 -0.11556906434E+04  0.25726783984E+04  0.22984893470E+04 0.  0.
        4    1    3    3  502    0  0.57168443836E+03 -0.28848178890E+03 -0.16460013474E+04  0.17661729496E+04  0.12699999809E+01 0. -1.
       -4    1    3    3    0  502 -0.57168443836E+03  0.28848178890E+03  0.49031070395E+03  0.80650544877E+03  0.12699999809E+01 0.  1.
</event>
<event>
 5   0  0.7416556E-06  0.2288128E+04  0.7818609E-02  0.8482617E-01
       -1   -1    0    0    0  501  0.00000000000E+00  0.00000000000E+00  0.96672751406E+03  0.96672751407E+03  0.50400001928E-02 0. -1.
        1   -1    0    0  501    0  0.00000000000E+00  0.00000000000E+00 -0.13539313526E+04  0.13539313526E+04  0.50400001928E-02 0.  1.
    10030    2    1    2    0    0  0.00000000000E+00  0.00000000000E+00 -0.38720383857E+03  0.23206588667E+04  0.22881282226E+04 0.  0.
        4    1    3    3  502    0 -0.23359006242E+03 -0.11199609324E+04 -0.19150599473E+03  0.11599797266E+04  0.12699999809E+01 0. -1.
       -4    1    3    3    0  502  0.23359006242E+03  0.11199609324E+04 -0.19569784384E+03  0.11606791401E+04  0.12699999809E+01 0.  1.
</event>
<event>
 5   0  0.7391007E-06  0.2289246E+04  0.7818609E-02  0.8482173E-01
       -1   -1    0    0    0  501  0.00000000000E+00  0.00000000000E+00  0.19209478082E+04  0.19209478082E+04  0.50400001928E-02 0.  1.
        1   -1    0    0  501    0  0.00000000000E+00  0.00000000000E+00 -0.68203909560E+03  0.68203909562E+03  0.50400001928E-02 0. -1.
    10030    2    1    2    0    0  0.00000000000E+00  0.00000000000E+00  0.12389087126E+04  0.26029869038E+04  0.22892457324E+04 0.  0.
        1    1    3    3  502    0  0.69375205440E+03 -0.30000805436E+03  0.15968312028E+04  0.17666823812E+04  0.50400001928E-02 0.  1.
       -1    1    3    3    0  502 -0.69375205440E+03  0.30000805436E+03 -0.35792249018E+03  0.83630452269E+03  0.50400001928E-02 0. -1.
</event>
<event>
 5   0  0.7183014E-06  0.2309971E+04  0.7818609E-02  0.8474000E-01
       -1   -1    0    0    0  501  0.00000000000E+00  0.00000000000E+00  0.81380948905E+03  0.81380948907E+03  0.50400001928E-02 0. -1.
        1   -1    0    0  501    0  0.00000000000E+00  0.00000000000E+00 -0.16391942885E+04  0.16391942885E+04  0.50400001928E-02 0.  1.
    10030    2    1    2    0    0  0.00000000000E+00  0.00000000000E+00 -0.82538479942E+03  0.24530037775E+04  0.23099713127E+04 0.  0.
        3    1    3    3  502    0 -0.31155918164E+03  0.75669435126E+03  0.45284462864E+03  0.93526666399E+03  0.10100000352E+00 0. -1.
       -3    1    3    3    0  502  0.31155918164E+03 -0.75669435126E+03 -0.12782294281E+04  0.15177371135E+04  0.10100000352E+00 0.  1.
</event>
<event>
 5   0  0.7183014E-06  0.2305429E+04  0.7818609E-02  0.8475784E-01
       -1   -1    0    0    0  501  0.00000000000E+00  0.00000000000E+00  0.49875361887E+03  0.49875361889E+03  0.50400001928E-02 0. -1.
        1   -1    0    0  501    0  0.00000000000E+00  0.00000000000E+00 -0.26641422557E+04  0.26641422557E+04  0.50400001928E-02 0.  1.
    10030    2    1    2    0    0  0.00000000000E+00  0.00000000000E+00 -0.21653886368E+04  0.31628958746E+04  0.23054288896E+04 0.  0.
        3    1    3    3  502    0 -0.10804961614E+04 -0.34052899940E+03 -0.79063468573E+03  0.13814974378E+04  0.10100000352E+00 0. -1.
       -3    1    3    3    0  502  0.10804961614E+04  0.34052899940E+03 -0.13747539511E+04  0.17813984367E+04  0.10100000352E+00 0.  1.
</event>
<event>
 5   0  0.1626636E-05  0.2290156E+04  0.7818609E-02  0.8481813E-01
       -2   -1    0    0    0  501  0.00000000000E+00  0.00000000000E+00  0.10487735385E+04  0.10487735385E+04  0.25500000920E-02 0. -1.
        2   -1    0    0  501    0  0.00000000000E+00  0.00000000000E+00 -0.12502253252E+04  0.12502253252E+04  0.25500000920E-02 0.  1.
    10030    2    1    2    0    0  0.00000000000E+00  0.00000000000E+00 -0.20145178677E+03  0.22989988637E+04  0.22901556613E+04 0.  0.
        4    1    3    3  502    0  0.86138748437E+03  0.21596531563E+03  0.62495704005E+03  0.10859108299E+04  0.12699999809E+01 0. -1.
       -4    1    3    3    0  502 -0.86138748437E+03 -0.21596531563E+03 -0.82640882682E+03  0.12130880338E+04  0.12699999809E+01 0.  1.
</event>
<event>
 5   0  0.7202572E-06  0.2284444E+04  0.7818609E-02  0.8484080E-01
        1   -1    0    0  501    0  0.00000000000E+00  0.00000000000E+00  0.11524315748E+04  0.11524315748E+04  0.50400001928E-02 0. -1.
       -1   -1    0    0    0  501  0.00000000000E+00  0.00000000000E+00 -0.11321032138E+04  0.11321032138E+04  0.50400001928E-02 0.  1.
    10030    2    1    2    0    0  0.00000000000E+00  0.00000000000E+00  0.20328361027E+02  0.22845347886E+04  0.22844443434E+04 0.  0.
        2    1    3    3  502    0 -0.34049077413E+03  0.71421580063E+03  0.83398882816E+03  0.11495979918E+04  0.25500000920E-02 0. -1.
       -2    1    3    3    0  502  0.34049077413E+03 -0.71421580063E+03 -0.81366046713E+03  0.11349367969E+04  0.25500000920E-02 0.  1.
</event>
<event>
 5   0  0.7416556E-06  0.2301529E+04  0.7818609E-02  0.8477319E-01
        1   -1    0    0  501    0  0.00000000000E+00  0.00000000000E+00  0.18529462997E+04  0.18529462998E+04  0.50400001928E-02 0.  1.
       -1   -1    0    0    0  501  0.00000000000E+00  0.00000000000E+00 -0.71467741422E+03  0.71467741423E+03  0.50400001928E-02 0. -1.
    10030    2    1    2    0    0  0.00000000000E+00  0.00000000000E+00  0.11382688855E+04  0.25676237140E+04  0.23015289442E+04 0.  0.
        4    1    3    3  502    0 -0.52794402571E+03  0.75306603945E+03  0.13407862401E+04  0.16258975086E+04  0.12699999809E+01 0.  1.
       -4    1    3    3    0  502  0.52794402571E+03 -0.75306603945E+03 -0.20251735456E+03  0.94172620536E+03  0.12699999809E+01 0. -1.
</event>
<event>
 5   0  0.1626636E-05  0.2301763E+04  0.7818609E-02  0.8477226E-01
       -2   -1    0    0    0  501  0.00000000000E+00  0.00000000000E+00  0.93951997153E+03  0.93951997154E+03  0.25500000920E-02 0.  1.
        2   -1    0    0  501    0  0.00000000000E+00  0.00000000000E+00 -0.14097923124E+04  0.14097923124E+04  0.25500000920E-02 0. -1.
    10030    2    1    2    0    0  0.00000000000E+00  0.00000000000E+00 -0.47027234087E+03  0.23493122839E+04  0.23017628316E+04 0.  0.
        4    1    3    3  502    0  0.12807203774E+03 -0.10035089772E+04 -0.79519160435E+03  0.12867649415E+04  0.12699999809E+01 0. -1.
       -4    1    3    3    0  502 -0.12807203774E+03  0.10035089772E+04  0.32491926348E+03  0.10625473424E+04  0.12699999809E+01 0.  1.
</event>
<event>
 5   0  0.1697855E-05  0.2331571E+04  0.7818609E-02  0.8465576E-01
        2   -1    0    0  501    0  0.00000000000E+00  0.00000000000E+00  0.18161923778E+04  0.18161923778E+04  0.25500000920E-02 0. -1.
       -2   -1    0    0    0  501  0.00000000000E+00  0.00000000000E+00 -0.74829976486E+03  0.74829976487E+03  0.25500000920E-02 0.  1.
    10030    2    1    2    0    0  0.00000000000E+00  0.00000000000E+00  0.10678926129E+04  0.25644921427E+04  0.23315714265E+04 0.  0.
        5    1    3    3  502    0 -0.60774642123E+03  0.34251702449E+03  0.15612543140E+04  0.17100323820E+04  0.46999998093E+01 0. -1.
       -5    1    3    3    0  502  0.60774642123E+03 -0.34251702449E+03 -0.49336170103E+03  0.85445976068E+03  0.46999998093E+01 0.  1.
</event>
<event>
 5   0  0.7416556E-06  0.2445521E+04  0.7818609E-02  0.8422655E-01
        1   -1    0    0  501    0  0.00000000000E+00  0.00000000000E+00  0.17920638813E+04  0.17920638813E+04  0.50400001928E-02 0. -1.
       -1   -1    0    0    0  501  0.00000000000E+00  0.00000000000E+00 -0.83431392145E+03  0.83431392146E+03  0.50400001928E-02 0.  1.
    10030    2    1    2    0    0  0.00000000000E+00  0.00000000000E+00  0.95774995981E+03  0.26263778027E+04  0.24455214939E+04 0.  0.
        4    1    3    3  502    0  0.48476262223E+03 -0.92237588942E+03  0.11660127182E+04  0.15637644814E+04  0.12699999809E+01 0. -1.
       -4    1    3    3    0  502 -0.48476262223E+03  0.92237588942E+03 -0.20826275840E+03  0.10626133214E+04  0.12699999809E+01 0.  1.
</event>
<event>
 5   0  0.1626636E-05  0.2300242E+04  0.7818609E-02  0.8477826E-01
        2   -1    0    0  501    0  0.00000000000E+00  0.00000000000E+00  0.14588656887E+04  0.14588656887E+04  0.25500000920E-02 0.  1.
       -2   -1    0    0    0  501  0.00000000000E+00  0.00000000000E+00 -0.90671704280E+03  0.90671704280E+03  0.25500000920E-02 0. -1.
    10030    2    1    2    0    0  0.00000000000E+00  0.00000000000E+00  0.55214864594E+03  0.23655827315E+04  0.23002420596E+04 0.  0.
        4    1    3    3  502    0  0.79340004481E+03  0.13327819022E+03  0.11213277527E+04  0.13800812472E+04  0.12699999809E+01 0.  1.
       -4    1    3    3    0  502 -0.79340004481E+03 -0.13327819022E+03 -0.56917910676E+03  0.98550148430E+03  0.12699999809E+01 0. -1.
</event>
<event>
 5   0  0.1602809E-05  0.2302609E+04  0.7818609E-02  0.8476893E-01
       -2   -1    0    0    0  501  0.00000000000E+00  0.00000000000E+00  0.16590478002E+04  0.16590478002E+04  0.25500000920E-02 0.  1.
        2   -1    0    0  501    0  0.00000000000E+00  0.00000000000E+00 -0.79895380463E+03  0.79895380464E+03  0.25500000920E-02 0. -1.
    10030    2    1    2    0    0  0.00000000000E+00  0.00000000000E+00  0.86009399558E+03  0.24580016049E+04  0.23026094346E+04 0.  0.
        3    1    3    3  502    0 -0.68844465567E+03  0.13319177709E+03 -0.54470583746E+03  0.88791922660E+03  0.10100000352E+00 0. -1.
       -3    1    3    3    0  502  0.68844465567E+03 -0.13319177709E+03  0.14047998330E+04  0.15700823783E+04  0.10100000352E+00 0.  1.
</event>
<event>
 5   0  0.7278815E-06  0.2360001E+04  0.7818609E-02  0.8454632E-01
        1   -1    0    0  501    0  0.00000000000E+00  0.00000000000E+00  0.82465016556E+03  0.82465016558E+03  0.50400001928E-02 0. -1.
       -1   -1    0    0    0  501  0.00000000000E+00  0.00000000000E+00 -0.16884744177E+04  0.16884744178E+04  0.50400001928E-02 0.  1.
    10030    2    1    2    0    0  0.00000000000E+00  0.00000000000E+00 -0.86382425219E+03  0.25131245833E+04  0.23600006001E+04 0.  0.
        5    1    3    3  502    0  0.44504489829E+03 -0.82153606090E+03 -0.11993612574E+04  0.15203538985E+04  0.46999998093E+01 0.  1.
       -5    1    3    3    0  502 -0.44504489829E+03  0.82153606090E+03  0.33553700521E+03  0.99277068486E+03  0.46999998093E+01 0. -1.
</event>
<event>
 5   0  0.1635955E-05  0.2303634E+04  0.7818609E-02  0.8476489E-01
        2   -1    0    0  501    0  0.00000000000E+00  0.00000000000E+00  0.24462471920E+04  0.24462471920E+04  0.25500000920E-02 0.  1.
       -2   -1    0    0    0  501  0.00000000000E+00  0.00000000000E+00 -0.54233397853E+03  0.54233397853E+03  0.25500000920E-02 0. -1.
    10030    2    1    2    0    0  0.00000000000E+00  0.00000000000E+00  0.19039132135E+04  0.29885811706E+04  0.23036344954E+04 0.  0.
        2    1    3    3  502    0  0.95683798238E+02 -0.90207209404E+03  0.31130187073E+02  0.90766653604E+03  0.25500000920E-02 0. -1.
       -2    1    3    3    0  502 -0.95683798238E+02  0.90207209404E+03  0.18727830264E+04  0.20809146345E+04  0.25500000920E-02 0.  1.
</event>
<event>
 5   0  0.5704875E-06  0.2316101E+04  0.7818609E-02  0.8471600E-01
       -3   -1    0    0    0  501  0.00000000000E+00  0.00000000000E+00  0.12964069243E+04  0.12964069282E+04  0.10100000352E+00 0. -1.
        3   -1    0    0  501    0  0.00000000000E+00  0.00000000000E+00 -0.10344596187E+04  0.10344596236E+04  0.10100000352E+00 0.  1.
    10030    2    1    2    0    0  0.00000000000E+00  0.00000000000E+00  0.26194730565E+03  0.23308665518E+04  0.23161007084E+04 0.  0.
        2    1    3    3  502    0 -0.54028376209E+03  0.86385623651E+03  0.68487011458E+03  0.12276812350E+04  0.25500000920E-02 0. -1.
       -2    1    3    3    0  502  0.54028376209E+03 -0.86385623651E+03 -0.42292280893E+03  0.11031853168E+04  0.25500000920E-02 0.  1.
</event>
<event>
 5   0  0.1635955E-05  0.2304511E+04  0.7818609E-02  0.8476145E-01
        2   -1    0    0  501    0  0.00000000000E+00  0.00000000000E+00  0.44404480811E+03  0.44404480812E+03  0.25500000920E-02 0.  1.
       -2   -1    0    0    0  501  0.00000000000E+00  0.00000000000E+00 -0.29899959496E+04  0.29899959496E+04  0.25500000920E-02 0. -1.
    10030    2    1    2    0    0  0.00000000000E+00  0.00000000000E+00 -0.25459511415E+04  0.34340407577E+04  0.23045105144E+04 0.  0.
        2    1    3    3  502    0 -0.40717986716E+03  0.72212369406E+03 -0.80460224076E+02  0.83290570979E+03  0.25500000920E-02 0.  1.
       -2    1    3    3    0  502  0.40717986716E+03 -0.72212369406E+03 -0.24654909174E+04  0.26011350480E+04  0.25500000920E-02 0. -1.
</event>
<event>
 5   0  0.7183014E-06  0.2281222E+04  0.7818609E-02  0.8485362E-01
        1   -1    0    0  501    0  0.00000000000E+00  0.00000000000E+00  0.10089564734E+04  0.10089564734E+04  0.50400001928E-02 0. -1.
       -1   -1    0    0    0  501  0.00000000000E+00  0.00000000000E+00 -0.12894449988E+04  0.12894449988E+04  0.50400001928E-02 0.  1.
    10030    2    1    2    0    0  0.00000000000E+00  0.00000000000E+00 -0.28048852539E+03  0.22984014722E+04  0.22812223729E+04 0.  0.
        3    1    3    3  502    0 -0.11382410475E+04 -0.13771952688E+02 -0.21297876264E+03  0.11580769890E+04  0.10100000352E+00 0. -1.
       -3    1    3    3    0  502  0.11382410475E+04  0.13771952688E+02 -0.67509762752E+02  0.11403244832E+04  0.10100000352E+00 0.  1.
</event>
<event>
 5   0  0.1602809E-05  0.2300994E+04  0.7818609E-02  0.8477529E-01
       -2   -1    0    0    0  501  0.00000000000E+00  0.00000000000E+00  0.74116416832E+03  0.74116416833E+03  0.25500000920E-02 0. -1.
        2   -1    0    0  501    0  0.00000000000E+00  0.00000000000E+00 -0.17858975136E+04  0.17858975136E+04  0.25500000920E-02 0.  1.
    10030    2    1    2    0    0  0.00000000000E+00  0.00000000000E+00 -0.10447333452E+04  0.25270616819E+04  0.23009939116E+04 0.  0.
        3    1    3    3  502    0 -0.16593539953E+03 -0.54724793198E+03 -0.16187615502E+04  0.17168004609E+04  0.10100000352E+00 0.  1.
       -3    1    3    3    0  502  0.16593539953E+03  0.54724793198E+03  0.57402820500E+03  0.81026122097E+03  0.10100000352E+00 0. -1.
</event>
<event>
 5   0  0.7416556E-06  0.2332440E+04  0.7818609E-02  0.8465239E-01
        1   -1    0    0  501    0  0.00000000000E+00  0.00000000000E+00  0.75359525147E+03  0.75359525148E+03  0.50400001928E-02 0.  1.
       -1   -1    0    0    0  501  0.00000000000E+00  0.00000000000E+00 -0.18047738455E+04  0.18047738455E+04  0.50400001928E-02 0. -1.
    10030    2    1    2    0    0  0.00000000000E+00  0.00000000000E+00 -0.10511785940E+04  0.25583690970E+04  0.23324399242E+04 0.  0.
        4    1    3    3  502    0 -0.25690856869E+03 -0.98202679600E+03  0.10421380515E+03  0.10204120593E+04  0.12699999809E+01 0.  1.
       -4    1    3    3    0  502  0.25690856869E+03  0.98202679600E+03 -0.11553923992E+04  0.15379570377E+04  0.12699999809E+01 0. -1.
</event>
<event>
 5   0  0.7391007E-06  0.2291750E+04  0.7818609E-02  0.8481181E-01
       -1   -1    0    0    0  501  0.00000000000E+00  0.00000000000E+00  0.56496909089E+03  0.56496909091E+03  0.50400001928E-02 0.  1.
        1   -1    0    0  501    0  0.00000000000E+00  0.00000000000E+00 -0.23240738732E+04  0.23240738732E+04  0.50400001928E-02 0. -1.
    10030    2    1    2    0    0  0.00000000000E+00  0.00000000000E+00 -0.17591047823E+04  0.28890429641E+04  0.22917503383E+04 0.  0.
        1    1    3    3  502    0  0.38781630870E+03 -0.27878237304E+03  0.43350380304E+03  0.64501678124E+03  0.50400001928E-02 0.  1.
       -1    1    3    3    0  502 -0.38781630870E+03  0.27878237304E+03 -0.21926085853E+04  0.22440261828E+04  0.50400001928E-02 0. -1.
</event>
<event>
 5   0  0.1635955E-05  0.2298790E+04  0.7818609E-02  0.8478398E-01
        2   -1    0    0  501    0  0.00000000000E+00  0.00000000000E+00  0.12080297391E+04  0.12080297391E+04  0.25500000920E-02 0. -1.
       -2   -1    0    0    0  501  0.00000000000E+00  0.00000000000E+00 -0.10936066918E+04  0.10936066918E+04  0.25500000920E-02 0.  1.
    10030    2    1    2    0    0  0.00000000000E+00  0.00000000000E+00  0.11442304732E+03  0.23016364309E+04  0.22987904703E+04 0.  0.
        2    1    3    3  502    0 -0.33158520179E+03  0.42388523964E+03 -0.95966484372E+03  0.11002654474E+04  0.25500000920E-02 0.  1.
       -2    1    3    3    0  502  0.33158520179E+03 -0.42388523964E+03  0.10740878910E+04  0.12013709835E+04  0.25500000920E-02 0. -1.
</event>
<event>
 5   0  0.7183014E-06  0.2338469E+04  0.7818609E-02  0.8462906E-01
        1   -1    0    0  501    0  0.00000000000E+00  0.00000000000E+00  0.15513974060E+04  0.15513974060E+04  0.50400001928E-02 0. -1.
       -1   -1    0    0    0  501  0.00000000000E+00  0.00000000000E+00 -0.88121178497E+03  0.88121178499E+03  0.50400001928E-02 0.  1.
    10030    2    1    2    0    0  0.00000000000E+00  0.00000000000E+00  0.67018562103E+03  0.24326091910E+04  0.23384693091E+04 0.  0.
        3    1    3    3  502    0  0.52428673559E+03 -0.52523827473E+03 -0.60480568192E+03  0.95736186964E+03  0.10100000352E+00 0.  1.
       -3    1    3    3    0  502 -0.52428673559E+03  0.52523827473E+03  0.12749913030E+04  0.14752473214E+04  0.10100000352E+00 0. -1.
</event>
<event>
 5   0  0.1626636E-05  0.2183021E+04  0.7818609E-02  0.8525528E-01
       -2   -1    0    0    0  501  0.00000000000E+00  0.00000000000E+00  0.99572365637E+03  0.99572365638E+03  0.25500000920E-02 0. -1.
        2   -1    0    0  501    0  0.00000000000E+00  0.00000000000E+00 -0.11965122065E+04  0.11965122065E+04  0.25500000920E-02 0.  1.
    10030    2    1    2    0    0  0.00000000000E+00  0.00000000000E+00 -0.20078855017E+03  0.21922358629E+04  0.21830213093E+04 0.  0.
        4    1    3    3  502    0  0.21235104997E+03 -0.74146416270E+03 -0.87600911805E+03  0.11671570849E+04  0.12699999809E+01 0.  1.
       -4    1    3    3    0  502 -0.21235104997E+03  0.74146416270E+03  0.67522056788E+03  0.10250787780E+04  0.12699999809E+01 0. -1.
</event>
<event>
 5   0  0.1602809E-05  0.2282799E+04  0.7818609E-02  0.8484734E-01
       -2   -1    0    0    0  501  0.00000000000E+00  0.00000000000E+00  0.15257866844E+04  0.15257866844E+04  0.25500000920E-02 0.  1.
        2   -1    0    0  501    0  0.00000000000E+00  0.00000000000E+00 -0.85384954808E+03  0.85384954808E+03  0.25500000920E-02 0. -1.
    10030    2    1    2    0    0  0.00000000000E+00  0.00000000000E+00  0.67193713629E+03  0.23796362324E+04  0.22827985202E+04 0.  0.
        3    1    3    3  502    0  0.84492106011E+03 -0.54799095468E+03 -0.22404184439E+03  0.10316881518E+04  0.10100000352E+00 0. -1.
       -3    1    3    3    0  502 -0.84492106011E+03  0.54799095468E+03  0.89597898068E+03  0.13479480807E+04  0.10100000352E+00 0.  1.
</event>
<event>
 5   0  0.1697855E-05  0.2296746E+04  0.7818609E-02  0.8479205E-01
       -2   -1    0    0    0  501  0.00000000000E+00  0.00000000000E+00  0.98796687959E+03  0.98796687959E+03  0.25500000920E-02 0.  1.
        2   -1    0    0  501    0  0.00000000000E+00  0.00000000000E+00 -0.13348228577E+04  0.13348228577E+04  0.25500000920E-02 0. -1.
    10030    2    1    2    0    0  0.00000000000E+00  0.00000000000E+00 -0.34685597813E+03  0.23227897373E+04  0.22967461972E+04 0.  0.
        5    1    3    3  502    0  0.73826215025E+03 -0.53833251406E+03  0.53009339027E+03  0.10563399030E+04  0.46999998093E+01 0.  1.
       -5    1    3    3    0  502 -0.73826215025E+03  0.53833251406E+03 -0.87694936840E+03  0.12664498343E+04  0.46999998093E+01 0. -1.
</event>
<event>
 5   0  0.7416556E-06  0.2304328E+04  0.7818609E-02  0.8476217E-01
        1   -1    0    0  501    0  0.00000000000E+00  0.00000000000E+00  0.18072147483E+04  0.18072147483E+04  0.50400001928E-02 0. -1.
       -1   -1    0    0    0  501  0.00000000000E+00  0.00000000000E+00 -0.73454561075E+03  0.73454561077E+03  0.50400001928E-02 0.  1.
    10030    2    1    2    0    0  0.00000000000E+00  0.00000000000E+00  0.10726691375E+04  0.25417603590E+04  0.23043278075E+04 0.  0.
        4    1    3    3  502    0 -0.90522082205E+03  0.58290683695E+02  0.13199242544E+04  0.16015692900E+04  0.12699999809E+01 0. -1.
       -4    1    3    3    0  502  0.90522082205E+03 -0.58290683695E+02 -0.24725511692E+03  0.94019106900E+03  0.12699999809E+01 0.  1.
</event>
<event>
 5   0  0.7183014E-06  0.2229376E+04  0.7818609E-02  0.8506300E-01
       -1   -1    0    0    0  501  0.00000000000E+00  0.00000000000E+00  0.87349457824E+03  0.87349457825E+03  0.50400001928E-02 0.  1.
        1   -1    0    0  501    0  0.00000000000E+00  0.00000000000E+00 -0.14224814337E+04  0.14224814337E+04  0.50400001928E-02 0. -1.
    10030    2    1    2    0    0  0.00000000000E+00  0.00000000000E+00 -0.54898685547E+03  0.22959760120E+04  0.22293764330E+04 0.  0.
        3    1    3    3  502    0  0.58922475564E+03 -0.20241262360E+02 -0.12487638418E+04  0.13809441206E+04  0.10100000352E+00 0. -1.
       -3    1    3    3    0  502 -0.58922475564E+03  0.20241262360E+02  0.69977698637E+03  0.91503189136E+03  0.10100000352E+00 0.  1.
</event>
<event>
 5   0  0.7278815E-06  0.2305430E+04  0.7818609E-02  0.8475783E-01
        1   -1    0    0  501    0  0.00000000000E+00  0.00000000000E+00  0.15853511226E+04  0.15853511226E+04  0.50400001928E-02 0.  1.
       -1   -1    0    0    0  501  0.00000000000E+00  0.00000000000E+00 -0.83814344855E+03  0.83814344856E+03  0.50400001928E-02 0. -1.
    10030    2    1    2    0    0  0.00000000000E+00  0.00000000000E+00  0.74720767403E+03  0.24234945712E+04  0.23054298142E+04 0.  0.
        5    1    3    3  502    0  0.54992191927E+03  0.99604300678E+03  0.17916157478E+03  0.11517971820E+04  0.46999998093E+01 0.  1.
       -5    1    3    3    0  502 -0.54992191927E+03 -0.99604300678E+03  0.56804609925E+03  0.12716973891E+04  0.46999998093E+01 0. -1.
</event>
<event>
 5   0  0.1626636E-05  0.2302884E+04  0.7818609E-02  0.8476785E-01
       -2   -1    0    0    0  501  0.00000000000E+00  0.00000000000E+00  0.75017881170E+03  0.75017881171E+03  0.25500000920E-02 0. -1.
        2   -1    0    0  501    0  0.00000000000E+00  0.00000000000E+00 -0.17673375625E+04  0.17673375626E+04  0.25500000920E-02 0.  1.
    10030    2    1    2    0    0  0.00000000000E+00  0.00000000000E+00 -0.10171587508E+04  0.25175163743E+04  0.23028844457E+04 0.  0.
        4    1    3    3  502    0  0.76462992222E+03  0.84822179200E+03 -0.34762073168E+03  0.11937256437E+04  0.12699999809E+01 0. -1.
       -4    1    3    3    0  502 -0.76462992222E+03 -0.84822179200E+03 -0.66953801916E+03  0.13237907306E+04  0.12699999809E+01 0.  1.
</event>
<event>
 5   0  0.1588969E-05  0.2293317E+04  0.7818609E-02  0.8480561E-01
       -2   -1    0    0    0  501  0.00000000000E+00  0.00000000000E+00  0.95943892999E+03  0.95943892999E+03  0.25500000920E-02 0.  1.
        2   -1    0    0  501    0  0.00000000000E+00  0.00000000000E+00 -0.13704108062E+04  0.13704108062E+04  0.25500000920E-02 0. -1.
    10030    2    1    2    0    0  0.00000000000E+00  0.00000000000E+00 -0.41097187622E+03  0.23298497362E+04  0.22933167924E+04 0.  0.
        1    1    3    3  502    0 -0.71123050337E+03 -0.75119808795E+03  0.29704336845E+03  0.10762816356E+04  0.50400001928E-02 0.  1.
       -1    1    3    3    0  502  0.71123050337E+03  0.75119808795E+03 -0.70801524468E+03  0.12535681007E+04  0.50400001928E-02 0. -1.
</event>
<event>
 5   0  0.1697855E-05  0.2293963E+04  0.7818609E-02  0.8480305E-01
        2   -1    0    0  501    0  0.00000000000E+00  0.00000000000E+00  0.96408372990E+03  0.96408372990E+03  0.25500000920E-02 0. -1.
       -2   -1    0    0    0  501  0.00000000000E+00  0.00000000000E+00 -0.13645770307E+04  0.13645770307E+04  0.25500000920E-02 0.  1.
    10030    2    1    2    0    0  0.00000000000E+00  0.00000000000E+00 -0.40049330084E+03  0.23286607606E+04  0.22939629583E+04 0.  0.
        5    1    3    3  502    0  0.60476764850E+03 -0.28709826589E+03  0.74517011529E+03  0.10017334544E+04  0.46999998093E+01 0. -1.
       -5    1    3    3    0  502 -0.60476764850E+03  0.28709826589E+03 -0.11456634161E+04  0.13269273062E+04  0.46999998093E+01 0.  1.
</event>
<event>
 5   0  0.1626636E-05  0.2297352E+04  0.7818609E-02  0.8478966E-01
        2   -1    0    0  501    0  0.00000000000E+00  0.00000000000E+00  0.12955764448E+04  0.12955764448E+04  0.25500000920E-02 0. -1.
       -2   -1    0    0    0  501  0.00000000000E+00  0.00000000000E+00 -0.10184320752E+04  0.10184320752E+04  0.25500000920E-02 0.  1.
    10030    2    1    2    0    0  0.00000000000E+00  0.00000000000E+00  0.27714436953E+03  0.23140085200E+04  0.22973520473E+04 0.  0.
        4    1    3    3  502    0  0.10968268748E+04 -0.12324439940E+03  0.45905608573E+03  0.11953880032E+04  0.12699999809E+01 0.  1.
       -4    1    3    3    0  502 -0.10968268748E+04  0.12324439940E+03 -0.18191171620E+03  0.11186205169E+04  0.12699999809E+01 0. -1.
</event>
<event>
 5   0  0.1635955E-05  0.2284085E+04  0.7818609E-02  0.8484223E-01
        2   -1    0    0  501    0  0.00000000000E+00  0.00000000000E+00  0.19123425375E+04  0.19123425375E+04  0.25500000920E-02 0.  1.
       -2   -1    0    0    0  501  0.00000000000E+00  0.00000000000E+00 -0.68202245088E+03  0.68202245089E+03  0.25500000920E-02 0. -1.
    10030    2    1    2    0    0  0.00000000000E+00  0.00000000000E+00  0.12303200866E+04  0.25943649884E+04  0.22840845381E+04 0.  0.
        2    1    3    3  502    0  0.25621213448E+03 -0.69375869353E+03  0.16036155199E+04  0.17659355929E+04  0.25500000920E-02 0.  1.
       -2    1    3    3    0  502 -0.25621213448E+03  0.69375869353E+03 -0.37329543329E+03  0.82842939544E+03  0.25500000920E-02 0. -1.
</event>
<event>
 5   0  0.1697855E-05  0.2306711E+04  0.7818609E-02  0.8475280E-01
        2   -1    0    0  501    0  0.00000000000E+00  0.00000000000E+00  0.11031890497E+04  0.11031890497E+04  0.25500000920E-02 0.  1.
       -2   -1    0    0    0  501  0.00000000000E+00  0.00000000000E+00 -0.12058031928E+04  0.12058031928E+04  0.25500000920E-02 0. -1.
    10030    2    1    2    0    0  0.00000000000E+00  0.00000000000E+00 -0.10261414306E+03  0.23089922426E+04  0.23067109732E+04 0.  0.
        5    1    3    3  502    0 -0.34727919912E+03  0.10779565453E+04 -0.26972835346E+03  0.11642030022E+04  0.46999998093E+01 0.  1.
       -5    1    3    3    0  502  0.34727919912E+03 -0.10779565453E+04  0.16711421040E+03  0.11447892404E+04  0.46999998093E+01 0. -1.
</event>
<event>
 5   0  0.1697855E-05  0.2287985E+04  0.7818609E-02  0.8482673E-01
        2   -1    0    0  501    0  0.00000000000E+00  0.00000000000E+00  0.13126372494E+04  0.13126372494E+04  0.25500000920E-02 0.  1.
       -2   -1    0    0    0  501  0.00000000000E+00  0.00000000000E+00 -0.99701510511E+03  0.99701510511E+03  0.25500000920E-02 0. -1.
    10030    2    1    2    0    0  0.00000000000E+00  0.00000000000E+00  0.31562214429E+03  0.23096523545E+04  0.22879852842E+04 0.  0.
        5    1    3    3  502    0  0.24043579317E+03  0.85036071224E+03 -0.57554946085E+03  0.10546098726E+04  0.46999998093E+01 0. -1.
       -5    1    3    3    0  502 -0.24043579317E+03 -0.85036071224E+03  0.89117160514E+03  0.12550424819E+04  0.46999998093E+01 0.  1.
</event>
<event>
 5   0  0.7202572E-06  0.2258528E+04  0.7818609E-02  0.8494455E-01
       -1   -1    0    0    0  501  0.00000000000E+00  0.00000000000E+00  0.14211458989E+04  0.14211458989E+04  0.50400001928E-02 0. -1.
        1   -1    0    0  501    0  0.00000000000E+00  0.00000000000E+00 -0.89732990270E+03  0.89732990271E+03  0.50400001928E-02 0.  1.
    10030    2    1    2    0    0  0.00000000000E+00  0.00000000000E+00  0.52381599617E+03  0.23184758016E+04  0.22585275833E+04 0.  0.
        2    1    3    3  502    0 -0.60158078755E+03 -0.67826152079E+03  0.95305327759E+03  0.13153891761E+04  0.25500000920E-02 0. -1.
       -2    1    3    3    0  502  0.60158078755E+03  0.67826152079E+03 -0.42923728143E+03  0.10030866255E+04  0.25500000920E-02 0.  1.
</event>
<event>
 5   0  0.7202572E-06  0.2286421E+04  0.7818609E-02  0.8483295E-01
        1   -1    0    0  501    0  0.00000000000E+00  0.00000000000E+00  0.13245887818E+04  0.13245887818E+04  0.50400001928E-02 0.  1.
       -1   -1    0    0    0  501  0.00000000000E+00  0.00000000000E+00 -0.98666831697E+03  0.98666831699E+03  0.50400001928E-02 0. -1.
    10030    2    1    2    0    0  0.00000000000E+00  0.00000000000E+00  0.33792046481E+03  0.23112570988E+04  0.22864205948E+04 0.  0.
        2    1    3    3  502    0  0.10957080455E+04 -0.62329827870E+02  0.49254469025E+03  0.12029386520E+04  0.25500000920E-02 0.  1.
       -2    1    3    3    0  502 -0.10957080455E+04  0.62329827870E+02 -0.15462422545E+03  0.11083184468E+04  0.25500000920E-02 0. -1.
</event>
<event>
 5   0  0.5704875E-06  0.2299876E+04  0.7818609E-02  0.8477970E-01
        4   -1    0    0  501    0  0.00000000000E+00  0.00000000000E+00  0.12569467453E+04  0.12569473869E+04  0.12699999809E+01 0. -1.
       -4   -1    0    0    0  501  0.00000000000E+00  0.00000000000E+00 -0.10520381461E+04  0.10520389127E+04  0.12699999809E+01 0.  1.
    10030    2    1    2    0    0  0.00000000000E+00  0.00000000000E+00  0.20490859916E+03  0.23089862996E+04  0.22998761266E+04 0.  0.
        5    1    3    3  502    0  0.23857665487E+03 -0.44326794708E+03  0.11404404948E+04  0.12466081603E+04  0.46999998093E+01 0. -1.
       -5    1    3    3    0  502 -0.23857665487E+03  0.44326794708E+03 -0.93553189561E+03  0.10623781393E+04  0.46999998093E+01 0.  1.
</event>
<event>
 5   0  0.7278815E-06  0.2300601E+04  0.7818609E-02  0.8477684E-01
       -1   -1    0    0    0  501  0.00000000000E+00  0.00000000000E+00  0.10007953827E+04  0.10007953827E+04  0.50400001928E-02 0. -1.
        1   -1    0    0  501    0  0.00000000000E+00  0.00000000000E+00 -0.13221398502E+04  0.13221398502E+04  0.50400001928E-02 0.  1.
    10030    2    1    2    0    0  0.00000000000E+00  0.00000000000E+00 -0.32134446748E+03  0.23229352329E+04  0.23006011887E+04 0.  0.
        5    1    3    3  502    0 -0.10417186587E+04  0.35661910152E+03  0.17544741436E+03  0.11149703281E+04  0.46999998093E+01 0. -1.
       -5    1    3    3    0  502  0.10417186587E+04 -0.35661910152E+03 -0.49679188185E+03  0.12079649048E+04  0.46999998093E+01 0.  1.
</event>
<event>
 5   0  0.1602809E-05  0.2294224E+04  0.7818609E-02  0.8480202E-01
        2   -1    0    0  501    0  0.00000000000E+00  0.00000000000E+00  0.10280691267E+04  0.10280691267E+04  0.25500000920E-02 0.  1.
       -2   -1    0    0    0  501  0.00000000000E+00  0.00000000000E+00 -0.12799389417E+04  0.12799389417E+04  0.25500000920E-02 0. -1.
    10030    2    1    2    0    0  0.00000000000E+00  0.00000000000E+00 -0.25186981500E+03  0.23080080684E+04  0.22942237991E+04 0.  0.
        3    1    3    3  502    0 -0.91831283189E+03 -0.23004020260E+03 -0.77763008597E+03  0.12251226522E+04  0.10100000352E+00 0. -1.
       -3    1    3    3    0  502  0.91831283189E+03  0.23004020260E+03  0.52576027097E+03  0.10828854163E+04  0.10100000352E+00 0.  1.
</event>
<event>
 5   0  0.7391007E-06  0.2283457E+04  0.7818609E-02  0.8484473E-01
       -1   -1    0    0    0  501  0.00000000000E+00  0.00000000000E+00  0.65362022665E+03  0.65362022667E+03  0.50400001928E-02 0.  1.
        1   -1    0    0  501    0  0.00000000000E+00  0.00000000000E+00 -0.19943438969E+04  0.19943438969E+04  0.50400001928E-02 0. -1.
    10030    2    1    2    0    0  0.00000000000E+00  0.00000000000E+00 -0.13407236703E+04  0.26479641236E+04  0.22834565991E+04 0.  0.
        1    1    3    3  502    0  0.26659721597E+03 -0.37767189635E+03 -0.18809582588E+04  0.19369342033E+04  0.50400001928E-02 0. -1.
       -1    1    3    3    0  502 -0.26659721597E+03  0.37767189635E+03  0.54023458850E+03  0.71102992025E+03  0.50400001928E-02 0.  1.
</event>
<event>
 5   0  0.7202572E-06  0.2301682E+04  0.7818609E-02  0.8477258E-01
       -1   -1    0    0    0  501  0.00000000000E+00  0.00000000000E+00  0.20333248133E+04  0.20333248133E+04  0.50400001928E-02 0.  1.
        1   -1    0    0  501    0  0.00000000000E+00  0.00000000000E+00 -0.65136446026E+03  0.65136446028E+03  0.50400001928E-02 0. -1.
    10030    2    1    2    0    0  0.00000000000E+00  0.00000000000E+00  0.13819603531E+04  0.26846892736E+04  0.23016824452E+04 0.  0.
        2    1    3    3  502    0 -0.63779130814E+03 -0.60075832261E+03 -0.17933718041E+03  0.89434341235E+03  0.25500000920E-02 0. -1.
       -2    1    3    3    0  502  0.63779130814E+03  0.60075832261E+03  0.15612975335E+04  0.17903458613E+04  0.25500000920E-02 0.  1.
</event>
<event>
 5   0  0.7278815E-06  0.2302794E+04  0.7818609E-02  0.8476820E-01
       -1   -1    0    0    0  501  0.00000000000E+00  0.00000000000E+00  0.81793141698E+03  0.81793141700E+03  0.50400001928E-02 0. -1.
        1   -1    0    0  501    0  0.00000000000E+00  0.00000000000E+00 -0.16208149258E+04  0.16208149258E+04  0.50400001928E-02 0.  1.
    10030    2    1    2    0    0  0.00000000000E+00  0.00000000000E+00 -0.80288350883E+03  0.24387463428E+04  0.23027943451E+04 0.  0.
        5    1    3    3  502    0 -0.25811461057E+03  0.77309579039E+03  0.45983218924E+03  0.93582476221E+03  0.46999998093E+01 0. -1.
       -5    1    3    3    0  502  0.25811461057E+03 -0.77309579039E+03 -0.12627156981E+04  0.15029215806E+04  0.46999998093E+01 0.  1.
</event>
<event>
 5   0  0.1635955E-05  0.2296580E+04  0.7818609E-02  0.8479271E-01
       -2   -1    0    0    0  501  0.00000000000E+00  0.00000000000E+00  0.90857573178E+03  0.90857573179E+03  0.25500000920E-02 0.  1.
        2   -1    0    0  501    0  0.00000000000E+00  0.00000000000E+00 -0.14512499189E+04  0.14512499189E+04  0.25500000920E-02 0. -1.
    10030    2    1    2    0    0  0.00000000000E+00  0.00000000000E+00 -0.54267418716E+03  0.23598256507E+04  0.22965804642E+04 0.  0.
        2    1    3    3  502    0 -0.12598005622E+03 -0.84010405721E+03 -0.10652228500E+04  0.13624777142E+04  0.25500000920E-02 0. -1.
       -2    1    3    3    0  502  0.12598005622E+03  0.84010405721E+03  0.52254866283E+03  0.99734793655E+03  0.25500000920E-02 0.  1.
</event>
<event>
 5   0  0.1626636E-05  0.2307706E+04  0.7818609E-02  0.8474889E-01
       -2   -1    0    0    0  501  0.00000000000E+00  0.00000000000E+00  0.11449764116E+04  0.11449764117E+04  0.25500000920E-02 0.  1.
        2   -1    0    0  501    0  0.00000000000E+00  0.00000000000E+00 -0.11627981004E+04  0.11627981004E+04  0.25500000920E-02 0. -1.
    10030    2    1    2    0    0  0.00000000000E+00  0.00000000000E+00 -0.17821688781E+02  0.23077745121E+04  0.23077056974E+04 0.  0.
        4    1    3    3  502    0 -0.87998496642E+03  0.43175442944E+03 -0.61768950454E+03  0.11585885229E+04  0.12699999809E+01 0. -1.
       -4    1    3    3    0  502  0.87998496642E+03 -0.43175442944E+03  0.59986781576E+03  0.11491859892E+04  0.12699999809E+01 0.  1.
</event>
<event>
 5   0  0.7183014E-06  0.2292357E+04  0.7818609E-02  0.8480941E-01
       -1   -1    0    0    0  501  0.00000000000E+00  0.00000000000E+00  0.75125600431E+03  0.75125600432E+03  0.50400001928E-02 0.  1.
        1   -1    0    0  501    0  0.00000000000E+00  0.00000000000E+00 -0.17487043429E+04  0.17487043429E+04  0.50400001928E-02 0. -1.
    10030    2    1    2    0    0  0.00000000000E+00  0.00000000000E+00 -0.99744833863E+03  0.24999603473E+04  0.22923565494E+04 0.  0.
        3    1    3    3  502    0 -0.93249045884E+02 -0.10413243441E+03 -0.17393740756E+04  0.17449817000E+04  0.10100000352E+00 0. -1.
       -3    1    3    3    0  502  0.93249045884E+02  0.10413243441E+03  0.74192573694E+03  0.75497864724E+03  0.10100000352E+00 0.  1.
</event>
<event>
 5   0  0.1635955E-05  0.2319323E+04  0.7818609E-02  0.8470341E-01
       -2   -1    0    0    0  501  0.00000000000E+00  0.00000000000E+00  0.81288850938E+03  0.81288850938E+03  0.25500000920E-02 0. -1.
        2   -1    0    0  501    0  0.00000000000E+00  0.00000000000E+00 -0.16543662351E+04  0.16543662351E+04  0.25500000920E-02 0.  1.
    10030    2    1    2    0    0  0.00000000000E+00  0.00000000000E+00 -0.84147772569E+03  0.24672547445E+04  0.23193234383E+04 0.  0.
        2    1    3    3  502    0  0.38743207556E+03 -0.91081140119E+03  0.22206574387E+03  0.10143935214E+04  0.25500000920E-02 0. -1.
       -2    1    3    3    0  502 -0.38743207556E+03  0.91081140119E+03 -0.10635434696E+04  0.14528612230E+04  0.25500000920E-02 0.  1.
</event>
<event>
 5   0  0.7278815E-06  0.2273931E+04  0.7818609E-02  0.8488271E-01
        1   -1    0    0  501    0  0.00000000000E+00  0.00000000000E+00  0.95142521381E+03  0.95142521383E+03  0.50400001928E-02 0.  1.
       -1   -1    0    0    0  501  0.00000000000E+00  0.00000000000E+00 -0.13586887125E+04  0.13586887125E+04  0.50400001928E-02 0. -1.
    10030    2    1    2    0    0  0.00000000000E+00  0.00000000000E+00 -0.40726349864E+03  0.23101139263E+04  0.22739311324E+04 0.  0.
        5    1    3    3  502    0  0.83043398280E+03  0.77161790563E+03 -0.29250992240E+03  0.11707258162E+04  0.46999998093E+01 0. -1.
       -5    1    3    3    0  502 -0.83043398280E+03 -0.77161790563E+03 -0.11475357624E+03  0.11393881101E+04  0.46999998093E+01 0.  1.
</event>
<event>
 5   0  0.7416556E-06  0.2332414E+04  0.7818609E-02  0.8465249E-01
        1   -1    0    0  501    0  0.00000000000E+00  0.00000000000E+00  0.25815770983E+04  0.25815770983E+04  0.50400001928E-02 0.  1.
       -1   -1    0    0    0  501  0.00000000000E+00  0.00000000000E+00 -0.52682470809E+03  0.52682470812E+03  0.50400001928E-02 0. -1.
    10030    2    1    2    0    0  0.00000000000E+00  0.00000000000E+00  0.20547523902E+04  0.31084018064E+04  0.23324138580E+04 0.  0.
        4    1    3    3  502    0 -0.62051673349E+03 -0.97066095394E+03  0.78596556460E+03  0.13946208036E+04  0.12699999809E+01 0.  1.
       -4    1    3    3    0  502  0.62051673349E+03  0.97066095394E+03  0.12687868256E+04  0.17137810028E+04  0.12699999809E+01 0. -1.
</event>
<event>
 5   0  0.7202572E-06  0.2295185E+04  0.7818609E-02  0.8479822E-01
        1   -1    0    0  501    0  0.00000000000E+00  0.00000000000E+00  0.14086958706E+04  0.14086958706E+04  0.50400001928E-02 0. -1.
       -1   -1    0    0    0  501  0.00000000000E+00  0.00000000000E+00 -0.93488520048E+03  0.93488520049E+03  0.50400001928E-02 0.  1.
    10030    2    1    2    0    0  0.00000000000E+00  0.00000000000E+00  0.47381067009E+03  0.23435810711E+04  0.22951853271E+04 0.  0.
        2    1    3    3  502    0  0.52554261584E+03 -0.99922520586E+03  0.26842235558E+02  0.11293212823E+04  0.25500000920E-02 0.  1.
       -2    1    3    3    0  502 -0.52554261584E+03  0.99922520586E+03  0.44696843454E+03  0.12142597887E+04  0.25500000920E-02 0. -1.
</event>
<event>
 5   0  0.7278815E-06  0.2300121E+04  0.7818609E-02  0.8477873E-01
       -1   -1    0    0    0  501  0.00000000000E+00  0.00000000000E+00  0.11552222081E+04  0.11552222081E+04  0.50400001928E-02 0. -1.
        1   -1    0    0  501    0  0.00000000000E+00  0.00000000000E+00 -0.11449216767E+04  0.11449216767E+04  0.50400001928E-02 0.  1.
    10030    2    1    2    0    0  0.00000000000E+00  0.00000000000E+00  0.10300531430E+02  0.23001438849E+04  0.23001208208E+04 0.  0.
        5    1    3    3  502    0 -0.90209365194E+03 -0.48919824048E+03 -0.51401674739E+03  0.11477470026E+04  0.46999998093E+01 0. -1.
       -5    1    3    3    0  502  0.90209365194E+03  0.48919824048E+03  0.52431727882E+03  0.11523968823E+04  0.46999998093E+01 0.  1.
</event>
<event>
 5   0  0.7391007E-06  0.2286601E+04  0.7818609E-02  0.8483223E-01
       -1   -1    0    0    0  501  0.00000000000E+00  0.00000000000E+00  0.79902889325E+03  0.79902889327E+03  0.50400001928E-02 0.  1.
        1   -1    0    0  501    0  0.00000000000E+00  0.00000000000E+00 -0.16359056463E+04  0.16359056463E+04  0.50400001928E-02 0. -1.
    10030    2    1    2    0    0  0.00000000000E+00  0.00000000000E+00 -0.83687675307E+03  0.24349345396E+04  0.22866008642E+04 0.  0.
        1    1    3    3  502    0  0.13396976100E+02 -0.13859793655E+03  0.78996575698E+03  0.80214385506E+03  0.50400001928E-02 0.  1.
       -1    1    3    3    0  502 -0.13396976100E+02  0.13859793655E+03 -0.16268425100E+04  0.16327906845E+04  0.50400001928E-02 0. -1.
</event>
<event>
 5   0  0.1602809E-05  0.2304710E+04  0.7818609E-02  0.8476066E-01
       -2   -1    0    0    0  501  0.00000000000E+00  0.00000000000E+00  0.52621261614E+03  0.52621261614E+03  0.25500000920E-02 0. -1.
        2   -1    0    0  501    0  0.00000000000E+00  0.00000000000E+00 -0.25235470356E+04  0.25235470356E+04  0.25500000920E-02 0.  1.
    10030    2    1    2    0    0  0.00000000000E+00  0.00000000000E+00 -0.19973344195E+04  0.30497596518E+04  0.23047102096E+04 0.  0.
        3    1    3    3  502    0 -0.84570993264E+03 -0.21470017755E+03 -0.26017316885E+01  0.87254125152E+03  0.10100000352E+00 0. -1.
       -3    1    3    3    0  502  0.84570993264E+03  0.21470017755E+03 -0.19947326878E+04  0.21772184003E+04  0.10100000352E+00 0.  1.
</event>
<event>
 5   0  0.1602809E-05  0.2316847E+04  0.7818609E-02  0.8471308E-01
        2   -1    0    0  501    0  0.00000000000E+00  0.00000000000E+00  0.29829573431E+04  0.29829573431E+04  0.25500000920E-02 0.  1.
       -2   -1    0    0    0  501  0.00000000000E+00  0.00000000000E+00 -0.44987081095E+03  0.44987081096E+03  0.25500000920E-02 0. -1.
    10030    2    1    2    0    0  0.00000000000E+00  0.00000000000E+00  0.25330865322E+04  0.34328281541E+04  0.23168473743E+04 0.  0.
        3    1    3    3  502    0 -0.36857028209E+03 -0.17486614863E+03  0.28730044704E+04  0.29018230339E+04  0.10100000352E+00 0.  1.
       -3    1    3    3    0  502  0.36857028209E+03  0.17486614863E+03 -0.33991793821E+03  0.53100512022E+03  0.10100000352E+00 0. -1.
</event>
<event>
 5   0  0.7278815E-06  0.2303716E+04  0.7818609E-02  0.8476458E-01
        1   -1    0    0  501    0  0.00000000000E+00  0.00000000000E+00  0.18024283615E+04  0.18024283615E+04  0.50400001928E-02 0. -1.
       -1   -1    0    0    0  501  0.00000000000E+00  0.00000000000E+00 -0.73610488129E+03  0.73610488131E+03  0.50400001928E-02 0.  1.
    10030    2    1    2    0    0  0.00000000000E+00  0.00000000000E+00  0.10663234802E+04  0.25385332428E+04  0.23037155337E+04 0.  0.
        5    1    3    3  502    0 -0.11057792444E+04  0.11888485568E+03  0.86350719113E+03  0.14080298667E+04  0.46999998093E+01 0. -1.
       -5    1    3    3    0  502  0.11057792444E+04 -0.11888485568E+03  0.20281628906E+03  0.11305033761E+04  0.46999998093E+01 0.  1.
</event>
<event>
 5   0  0.7183014E-06  0.2297771E+04  0.7818609E-02  0.8478801E-01
       -1   -1    0    0    0  501  0.00000000000E+00  0.00000000000E+00  0.57576199918E+03  0.57576199920E+03  0.50400001928E-02 0.  1.
        1   -1    0    0  501    0  0.00000000000E+00  0.00000000000E+00 -0.22925057287E+04  0.22925057288E+04  0.50400001928E-02 0. -1.
    10030    2    1    2    0    0  0.00000000000E+00  0.00000000000E+00 -0.17167437296E+04  0.28682677280E+04  0.22977708167E+04 0.  0.
        3    1    3    3  502    0  0.59540420961E+03 -0.95582018791E+03 -0.57415986997E+03  0.12640245136E+04  0.10100000352E+00 0.  1.
       -3    1    3    3    0  502 -0.59540420961E+03  0.95582018791E+03 -0.11425838596E+04  0.16042432144E+04  0.10100000352E+00 0. -1.
</event>
<event>
 5   0  0.7183014E-06  0.2299360E+04  0.7818609E-02  0.8478173E-01
       -1   -1    0    0    0  501  0.00000000000E+00  0.00000000000E+00  0.12789330504E+04  0.12789330504E+04  0.50400001928E-02 0. -1.
        1   -1    0    0  501    0  0.00000000000E+00  0.00000000000E+00 -0.10334897468E+04  0.10334897468E+04  0.50400001928E-02 0.  1.
    10030    2    1    2    0    0  0.00000000000E+00  0.00000000000E+00  0.24544330355E+03  0.23124227972E+04  0.22993600801E+04 0.  0.
        3    1    3    3  502    0 -0.26421024439E+02 -0.84202686532E+03  0.90950678349E+03  0.12397217074E+04  0.10100000352E+00 0. -1.
       -3    1    3    3    0  502  0.26421024439E+02  0.84202686532E+03 -0.66406347994E+03  0.10727010898E+04  0.10100000352E+00 0.  1.
</event>
<event>
 5   0  0.1635955E-05  0.2259324E+04  0.7818609E-02  0.8494134E-01
       -2   -1    0    0    0  501  0.00000000000E+00  0.00000000000E+00  0.16612534928E+04  0.16612534928E+04  0.25500000920E-02 0.  1.
        2   -1    0    0  501    0  0.00000000000E+00  0.00000000000E+00 -0.76817697133E+03  0.76817697133E+03  0.25500000920E-02 0. -1.
    10030    2    1    2    0    0  0.00000000000E+00  0.00000000000E+00  0.89307652146E+03  0.24294304641E+04  0.22593243917E+04 0.  0.
        2    1    3    3  502    0  0.42519421681E+03  0.93033350131E+03  0.96203459949E+03  0.14042154807E+04  0.25500000920E-02 0.  1.
       -2    1    3    3    0  502 -0.42519421681E+03 -0.93033350131E+03 -0.68958078027E+02  0.10252149834E+04  0.25500000920E-02 0. -1.
</event>
<event>
 5   0  0.1635955E-05  0.2301409E+04  0.7818609E-02  0.8477366E-01
        2   -1    0    0  501    0  0.00000000000E+00  0.00000000000E+00  0.12784814748E+04  0.12784814748E+04  0.25500000920E-02 0.  1.
       -2   -1    0    0    0  501  0.00000000000E+00  0.00000000000E+00 -0.10356980178E+04  0.10356980178E+04  0.25500000920E-02 0. -1.
    10030    2    1    2    0    0  0.00000000000E+00  0.00000000000E+00  0.24278345698E+03  0.23141794926E+04  0.23014088983E+04 0.  0.
        2    1    3    3  502    0 -0.70335447167E+03 -0.86158408240E+03 -0.17534932710E+03  0.11259582720E+04  0.25500000920E-02 0.  1.
       -2    1    3    3    0  502  0.70335447167E+03  0.86158408240E+03  0.41813278408E+03  0.11882212206E+04  0.25500000920E-02 0. -1.
</event>
<event>
 5   0  0.7416556E-06  0.2292426E+04  0.7818609E-02  0.8480913E-01
       -1   -1    0    0    0  501  0.00000000000E+00  0.00000000000E+00  0.64806630026E+03  0.64806630028E+03  0.50400001928E-02 0. -1.
        1   -1    0    0  501    0  0.00000000000E+00  0.00000000000E+00 -0.20272683703E+04  0.20272683703E+04  0.50400001928E-02 0.  1.
    10030    2    1    2    0    0  0.00000000000E+00  0.00000000000E+00 -0.13792020701E+04  0.26753346706E+04  0.22924260620E+04 0.  0.
        4    1    3    3  502    0 -0.15339370128E+03 -0.26456361445E+03 -0.19787775307E+04  0.20022701272E+04  0.12699999809E+01 0.  1.
       -4    1    3    3    0  502  0.15339370128E+03  0.26456361445E+03  0.59957546061E+03  0.67306454337E+03  0.12699999809E+01 0. -1.
</event>
<event>
 5   0  0.1588969E-05  0.2282528E+04  0.7818609E-02  0.8484842E-01
        2   -1    0    0  501    0  0.00000000000E+00  0.00000000000E+00  0.22180490285E+04  0.22180490285E+04  0.25500000920E-02 0.  1.
       -2   -1    0    0    0  501  0.00000000000E+00  0.00000000000E+00 -0.58722051278E+03  0.58722051279E+03  0.25500000920E-02 0. -1.
    10030    2    1    2    0    0  0.00000000000E+00  0.00000000000E+00  0.16308285157E+04  0.28052695412E+04  0.22825283244E+04 0.  0.
        1    1    3    3  502    0  0.25027511535E+03 -0.17563475456E+02  0.21837362423E+04  0.21981014729E+04  0.50400001928E-02 0.  1.
       -1    1    3    3    0  502 -0.25027511535E+03  0.17563475456E+02 -0.55290772664E+03  0.60716806836E+03  0.50400001928E-02 0. -1.
</event>
<event>
 5   0  0.1697855E-05  0.2333533E+04  0.7818609E-02  0.8464815E-01
       -2   -1    0    0    0  501  0.00000000000E+00  0.00000000000E+00  0.87696922696E+03  0.87696922696E+03  0.25500000920E-02 0. -1.
        2   -1    0    0  501    0  0.00000000000E+00  0.00000000000E+00 -0.15523288391E+04  0.15523288391E+04  0.25500000920E-02 0.  1.
    10030    2    1    2    0    0  0.00000000000E+00  0.00000000000E+00 -0.67535961212E+03  0.24292980660E+04  0.23335334769E+04 0.  0.
        5    1    3    3  502    0  0.87498342229E+03 -0.69322753643E+02 -0.11379404211E+04  0.14371263429E+04  0.46999998093E+01 0.  1.
       -5    1    3    3    0  502 -0.87498342229E+03  0.69322753643E+02  0.46258080896E+03  0.99217172317E+03  0.46999998093E+01 0. -1.
</event>
<event>
 5   0  0.1697855E-05  0.2295293E+04  0.7818609E-02  0.8479779E-01
       -2   -1    0    0    0  501  0.00000000000E+00  0.00000000000E+00  0.44075590675E+03  0.44075590676E+03  0.25500000920E-02 0. -1.
        2   -1    0    0  501    0  0.00000000000E+00  0.00000000000E+00 -0.29882588247E+04  0.29882588247E+04  0.25500000920E-02 0.  1.
    10030    2    1    2    0    0  0.00000000000E+00  0.00000000000E+00 -0.25475029179E+04  0.34290147314E+04  0.22952932082E+04 0.  0.
        5    1    3    3  502    0  0.10280471034E+04 -0.30966576899E+03 -0.18792956847E+04  0.21643816891E+04  0.46999998093E+01 0.  1.
       -5    1    3    3    0  502 -0.10280471034E+04  0.30966576899E+03 -0.66820723316E+03  0.12646330423E+04  0.46999998093E+01 0. -1.
</event>
<event>
 5   0  0.1635955E-05  0.2302942E+04  0.7818609E-02  0.8476762E-01
       -2   -1    0    0    0  501  0.00000000000E+00  0.00000000000E+00  0.12376093382E+04  0.12376093382E+04  0.25500000920E-02 0.  1.
        2   -1    0    0  501    0  0.00000000000E+00  0.00000000000E+00 -0.10713283384E+04  0.10713283384E+04  0.25500000920E-02 0. -1.
    10030    2    1    2    0    0  0.00000000000E+00  0.00000000000E+00  0.16628099981E+03  0.23089376766E+04  0.23029424273E+04 0.  0.
        2    1    3    3  502    0 -0.17900294485E+02 -0.48528657910E+03  0.11299190713E+04  0.12298538906E+04  0.25500000920E-02 0.  1.
       -2    1    3    3    0  502  0.17900294485E+02  0.48528657910E+03 -0.96363807152E+03  0.10790837860E+04  0.25500000920E-02 0. -1.
</event>
<event>
 5   0  0.7278815E-06  0.2300656E+04  0.7818609E-02  0.8477663E-01
       -1   -1    0    0    0  501  0.00000000000E+00  0.00000000000E+00  0.76069344696E+03  0.76069344698E+03  0.50400001928E-02 0. -1.
        1   -1    0    0  501    0  0.00000000000E+00  0.00000000000E+00 -0.17395371491E+04  0.17395371491E+04  0.50400001928E-02 0.  1.
    10030    2    1    2    0    0  0.00000000000E+00  0.00000000000E+00 -0.97884370215E+03  0.25002305961E+04  0.23006560022E+04 0.  0.
        5    1    3    3  502    0 -0.10569207992E+04 -0.34055249902E+03 -0.81576242128E+03  0.13778780782E+04  0.46999998093E+01 0.  1.
       -5    1    3    3    0  502  0.10569207992E+04  0.34055249902E+03 -0.16308128087E+03  0.11223525179E+04  0.46999998093E+01 0. -1.
</event>
<event>
 5   0  0.1602809E-05  0.2304066E+04  0.7818609E-02  0.8476320E-01
        2   -1    0    0  501    0  0.00000000000E+00  0.00000000000E+00  0.16448922946E+04  0.16448922946E+04  0.25500000920E-02 0.  1.
       -2   -1    0    0    0  501  0.00000000000E+00  0.00000000000E+00 -0.80684906062E+03  0.80684906063E+03  0.25500000920E-02 0. -1.
    10030    2    1    2    0    0  0.00000000000E+00  0.00000000000E+00  0.83804323399E+03  0.24517413552E+04  0.23040658001E+04 0.  0.
        3    1    3    3  502    0 -0.19605136832E+03 -0.64899668650E+03  0.14101416852E+04  0.15646508942E+04  0.10100000352E+00 0.  1.
       -3    1    3    3    0  502  0.19605136832E+03  0.64899668650E+03 -0.57209845118E+03  0.88709046109E+03  0.10100000352E+00 0. -1.
</event>
<event>
 5   0  0.7183014E-06  0.2297890E+04  0.7818609E-02  0.8478753E-01
       -1   -1    0    0    0  501  0.00000000000E+00  0.00000000000E+00  0.87701412185E+03  0.87701412186E+03  0.50400001928E-02 0.  1.
        1   -1    0    0  501    0  0.00000000000E+00  0.00000000000E+00 -0.15051922809E+04  0.15051922809E+04  0.50400001928E-02 0. -1.
    10030    2    1    2    0    0  0.00000000000E+00  0.00000000000E+00 -0.62817815901E+03  0.23822064027E+04  0.22978902380E+04 0.  0.
        3    1    3    3  502    0 -0.92806573894E+03 -0.50078894375E+02  0.38616680117E+03  0.10064485680E+04  0.10100000352E+00 0.  1.
       -3    1    3    3    0  502  0.92806573894E+03  0.50078894375E+02 -0.10143449602E+04  0.13757578348E+04  0.10100000352E+00 0. -1.
</event>
<event>
 5   0  0.1626636E-05  0.2302228E+04  0.7818609E-02  0.8477043E-01
        2   -1    0    0  501    0  0.00000000000E+00  0.00000000000E+00  0.23124038049E+04  0.23124038050E+04  0.25500000920E-02 0.  1.
       -2   -1    0    0    0  501  0.00000000000E+00  0.00000000000E+00 -0.57302402027E+03  0.57302402027E+03  0.25500000920E-02 0. -1.
    10030    2    1    2    0    0  0.00000000000E+00  0.00000000000E+00  0.17393797847E+04  0.28854278252E+04  0.23022275516E+04 0.  0.
        4    1    3    3  502    0  0.65623087499E+03  0.87866029718E+03  0.43124560874E+03  0.11784130291E+04  0.12699999809E+01 0. -1.
       -4    1    3    3    0  502 -0.65623087499E+03 -0.87866029718E+03  0.13081341759E+04  0.17070147962E+04  0.12699999809E+01 0.  1.
</event>
<event>
 5   0  0.7202572E-06  0.2300809E+04  0.7818609E-02  0.8477602E-01
       -1   -1    0    0    0  501  0.00000000000E+00  0.00000000000E+00  0.85694079873E+03  0.85694079875E+03  0.50400001928E-02 0.  1.
        1   -1    0    0  501    0  0.00000000000E+00  0.00000000000E+00 -0.15443664382E+04  0.15443664382E+04  0.50400001928E-02 0. -1.
    10030    2    1    2    0    0  0.00000000000E+00  0.00000000000E+00 -0.68742563946E+03  0.24013072369E+04  0.23008090830E+04 0.  0.
        2    1    3    3  502    0 -0.10883762492E+04 -0.36502735596E+03 -0.42197332455E+03  0.12230573645E+04  0.25500000920E-02 0. -1.
       -2    1    3    3    0  502  0.10883762492E+04  0.36502735596E+03 -0.26545231491E+03  0.11782498724E+04  0.25500000920E-02 0.  1.
</event>
<event>
 5   0  0.7391007E-06  0.2304273E+04  0.7818609E-02  0.8476238E-01
       -1   -1    0    0    0  501  0.00000000000E+00  0.00000000000E+00  0.15533332301E+04  0.15533332302E+04  0.50400001928E-02 0.  1.
        1   -1    0    0  501    0  0.00000000000E+00  0.00000000000E+00 -0.85456146987E+03  0.85456146988E+03  0.50400001928E-02 0. -1.
    10030    2    1    2    0    0  0.00000000000E+00  0.00000000000E+00  0.69877176028E+03  0.24078947000E+04  0.23042731855E+04 0.  0.
        1    1    3    3  502    0  0.79344739396E+01 -0.53232405785E+03  0.14170903063E+04  0.15137954930E+04  0.50400001928E-02 0.  1.
       -1    1    3    3    0  502 -0.79344739396E+01  0.53232405785E+03 -0.71831854601E+03  0.89409920703E+03  0.50400001928E-02 0. -1.
</event>
<event>
 5   0  0.1697855E-05  0.2303752E+04  0.7818609E-02  0.8476443E-01
       -2   -1    0    0    0  501  0.00000000000E+00  0.00000000000E+00  0.47884931295E+03  0.47884931295E+03  0.25500000920E-02 0. -1.
        2   -1    0    0  501    0  0.00000000000E+00  0.00000000000E+00 -0.27708468626E+04  0.27708468626E+04  0.25500000920E-02 0.  1.
    10030    2    1    2    0    0  0.00000000000E+00  0.00000000000E+00 -0.22919975497E+04  0.32496961756E+04  0.23037518238E+04 0.  0.
        5    1    3    3  502    0 -0.43703639595E+03  0.10653692506E+04 -0.11065123916E+04  0.15969985016E+04  0.46999998093E+01 0. -1.
       -5    1    3    3    0  502  0.43703639595E+03 -0.10653692506E+04 -0.11854851580E+04  0.16526976739E+04  0.46999998093E+01 0.  1.
</event>
<event>
 5   0  0.7278815E-06  0.2313550E+04  0.7818609E-02  0.8472597E-01
        1   -1    0    0  501    0  0.00000000000E+00  0.00000000000E+00  0.20784764135E+04  0.20784764136E+04  0.50400001928E-02 0.  1.
       -1   -1    0    0    0  501  0.00000000000E+00  0.00000000000E+00 -0.64380279799E+03  0.64380279801E+03  0.50400001928E-02 0. -1.
    10030    2    1    2    0    0  0.00000000000E+00  0.00000000000E+00  0.14346736156E+04  0.27222792116E+04  0.23135504582E+04 0.  0.
        5    1    3    3  502    0  0.98272684964E+03 -0.57470882984E+03  0.47600655621E+03  0.12339556846E+04  0.46999998093E+01 0. -1.
       -5    1    3    3    0  502 -0.98272684964E+03  0.57470882984E+03  0.95866705935E+03  0.14883235269E+04  0.46999998093E+01 0.  1.
</event>
<event>
 5   0  0.1602809E-05  0.2302236E+04  0.7818609E-02  0.8477040E-01
        2   -1    0    0  501    0  0.00000000000E+00  0.00000000000E+00  0.11294227408E+04  0.11294227408E+04  0.25500000920E-02 0.  1.
       -2   -1    0    0    0  501  0.00000000000E+00  0.00000000000E+00 -0.11732300141E+04  0.11732300141E+04  0.25500000920E-02 0. -1.
    10030    2    1    2    0    0  0.00000000000E+00  0.00000000000E+00 -0.43807273374E+02  0.23026527549E+04  0.23022360071E+04 0.  0.
        3    1    3    3  502    0 -0.42708754825E+03 -0.93030152330E+03 -0.54850435690E+03  0.11613447971E+04  0.10100000352E+00 0.  1.
       -3    1    3    3    0  502  0.42708754825E+03  0.93030152330E+03  0.50469708352E+03  0.11413079578E+04  0.10100000352E+00 0. -1.
</event>
<event>
 5   0  0.1588969E-05  0.2301982E+04  0.7818609E-02  0.8477140E-01
       -2   -1    0    0    0  501  0.00000000000E+00  0.00000000000E+00  0.76739657493E+03  0.76739657493E+03  0.25500000920E-02 0. -1.
        2   -1    0    0  501    0  0.00000000000E+00  0.00000000000E+00 -0.17263303665E+04  0.17263303665E+04  0.25500000920E-02 0.  1.
    10030    2    1    2    0    0  0.00000000000E+00  0.00000000000E+00 -0.95893379156E+03  0.24937269414E+04  0.23019817640E+04 0.  0.
        1    1    3    3  502    0 -0.47030079907E+03 -0.70606207692E+03 -0.13221243933E+04  0.15708976445E+04  0.50400001928E-02 0.  1.
       -1    1    3    3    0  502  0.47030079907E+03  0.70606207692E+03  0.36319060174E+03  0.92282929694E+03  0.50400001928E-02 0. -1.
</event>
<event>
 5   0  0.7202572E-06  0.2303650E+04  0.7818609E-02  0.8476484E-01
       -1   -1    0    0    0  501  0.00000000000E+00  0.00000000000E+00  0.95577917221E+03  0.95577917222E+03  0.50400001928E-02 0. -1.
        1   -1    0    0  501    0  0.00000000000E+00  0.00000000000E+00 -0.13880825408E+04  0.13880825409E+04  0.50400001928E-02 0.  1.
    10030    2    1    2    0    0  0.00000000000E+00  0.00000000000E+00 -0.43230336863E+03  0.23438617131E+04  0.23036496104E+04 0.  0.
        2    1    3    3  502    0 -0.11741487304E+03  0.11450639612E+04 -0.25862548905E+03  0.11797647525E+04  0.25500000920E-02 0. -1.
       -2    1    3    3    0  502  0.11741487304E+03 -0.11450639612E+04 -0.17367787959E+03  0.11640969606E+04  0.25500000920E-02 0.  1.
</event>
<event>
 5   0  0.7202572E-06  0.2300756E+04  0.7818609E-02  0.8477623E-01
       -1   -1    0    0    0  501  0.00000000000E+00  0.00000000000E+00  0.10253122180E+04  0.10253122180E+04  0.50400001928E-02 0. -1.
        1   -1    0    0  501    0  0.00000000000E+00  0.00000000000E+00 -0.12906987241E+04  0.12906987241E+04  0.50400001928E-02 0.  1.
    10030    2    1    2    0    0  0.00000000000E+00  0.00000000000E+00 -0.26538650605E+03  0.23160109421E+04  0.23007556772E+04 0.  0.
        2    1    3    3  502    0 -0.78854531572E+02  0.75716442183E+03 -0.10008811244E+04  0.12574891745E+04  0.25500000920E-02 0.  1.
       -2    1    3    3    0  502  0.78854531572E+02 -0.75716442183E+03  0.73549461833E+03  0.10585217676E+04  0.25500000920E-02 0. -1.
</event>
<event>
 5   0  0.1602809E-05  0.2305740E+04  0.7818609E-02  0.8475661E-01
       -2   -1    0    0    0  501  0.00000000000E+00  0.00000000000E+00  0.53448531100E+03  0.53448531101E+03  0.25500000920E-02 0.  1.
        2   -1    0    0  501    0  0.00000000000E+00  0.00000000000E+00 -0.24867089436E+04  0.24867089436E+04  0.25500000920E-02 0. -1.
    10030    2    1    2    0    0  0.00000000000E+00  0.00000000000E+00 -0.19522236326E+04  0.30211942546E+04  0.23057401442E+04 0.  0.
        3    1    3    3  502    0  0.90898308120E+03 -0.41287121338E+03 -0.17315458005E+04  0.19987405410E+04  0.10100000352E+00 0.  1.
       -3    1    3    3    0  502 -0.90898308120E+03  0.41287121338E+03 -0.22067783210E+03  0.10224537136E+04  0.10100000352E+00 0. -1.
</event>
<event>
 5   0  0.1602809E-05  0.2298688E+04  0.7818609E-02  0.8478439E-01
        2   -1    0    0  501    0  0.00000000000E+00  0.00000000000E+00  0.10983425202E+04  0.10983425202E+04  0.25500000920E-02 0. -1.
       -2   -1    0    0    0  501  0.00000000000E+00  0.00000000000E+00 -0.12027138767E+04  0.12027138767E+04  0.25500000920E-02 0.  1.
    10030    2    1    2    0    0  0.00000000000E+00  0.00000000000E+00 -0.10437135647E+03  0.23010563969E+04  0.22986881392E+04 0.  0.
        3    1    3    3  502    0 -0.50965758140E+03 -0.29405176700E+03  0.93613819312E+03  0.11056997869E+04  0.10100000352E+00 0.  1.
       -3    1    3    3    0  502  0.50965758140E+03  0.29405176700E+03 -0.10405095496E+04  0.11953566099E+04  0.10100000352E+00 0. -1.
</event>
<event>
 5   0  0.7416556E-06  0.2306538E+04  0.7818609E-02  0.8475348E-01
        1   -1    0    0  501    0  0.00000000000E+00  0.00000000000E+00  0.15904524896E+04  0.15904524896E+04  0.50400001928E-02 0.  1.
       -1   -1    0    0    0  501  0.00000000000E+00  0.00000000000E+00 -0.83625824959E+03  0.83625824961E+03  0.50400001928E-02 0. -1.
    10030    2    1    2    0    0  0.00000000000E+00  0.00000000000E+00  0.75419424001E+03  0.24267107392E+04  0.23065376780E+04 0.  0.
        4    1    3    3  502    0 -0.42349000026E+03 -0.10467027347E+04  0.62405418940E+03  0.12901068325E+04  0.12699999809E+01 0.  1.
       -4    1    3    3    0  502  0.42349000026E+03  0.10467027347E+04  0.13014005061E+03  0.11366039067E+04  0.12699999809E+01 0. -1.
</event>
<event>
 5   0  0.7416556E-06  0.2320213E+04  0.7818609E-02  0.8469994E-01
        1   -1    0    0  501    0  0.00000000000E+00  0.00000000000E+00  0.11591676552E+04  0.11591676552E+04  0.50400001928E-02 0.  1.
       -1   -1    0    0    0  501  0.00000000000E+00  0.00000000000E+00 -0.11610465421E+04  0.11610465421E+04  0.50400001928E-02 0. -1.
    10030    2    1    2    0    0  0.00000000000E+00  0.00000000000E+00 -0.18788869113E+01  0.23202141973E+04  0.23202134365E+04 0.  0.
        4    1    3    3  502    0  0.55156390307E+03  0.37886098490E+03  0.94673570592E+03  0.11593396805E+04  0.12699999809E+01 0.  1.
       -4    1    3    3    0  502 -0.55156390307E+03 -0.37886098490E+03 -0.94861459283E+03  0.11608745168E+04  0.12699999809E+01 0. -1.
</event>
<event>
 5   0  0.7391007E-06  0.2277521E+04  0.7818609E-02  0.8486837E-01
       -1   -1    0    0    0  501  0.00000000000E+00  0.00000000000E+00  0.14501914700E+04  0.14501914700E+04  0.50400001928E-02 0.  1.
        1   -1    0    0  501    0  0.00000000000E+00  0.00000000000E+00 -0.89421022085E+03  0.89421022087E+03  0.50400001928E-02 0. -1.
    10030    2    1    2    0    0  0.00000000000E+00  0.00000000000E+00  0.55598124910E+03  0.23444016908E+04  0.22775214903E+04 0.  0.
        1    1    3    3  502    0  0.38100272664E+02  0.19282358186E+03  0.14325987947E+04  0.14460193191E+04  0.50400001928E-02 0.  1.
       -1    1    3    3    0  502 -0.38100272664E+02 -0.19282358186E+03 -0.87661754564E+03  0.89838237173E+03  0.50400001928E-02 0. -1.
</event>
<event>
 5   0  0.7391007E-06  0.2267039E+04  0.7818609E-02  0.8491032E-01
       -1   -1    0    0    0  501  0.00000000000E+00  0.00000000000E+00  0.52673979928E+03  0.52673979930E+03  0.50400001928E-02 0. -1.
        1   -1    0    0  501    0  0.00000000000E+00  0.00000000000E+00 -0.24392808270E+04  0.24392808270E+04  0.50400001928E-02 0.  1.
    10030    2    1    2    0    0  0.00000000000E+00  0.00000000000E+00 -0.19125410277E+04  0.29660206263E+04  0.22670388556E+04 0.  0.
        1    1    3    3  502    0 -0.69857586660E+03  0.85703437395E+03 -0.62958197564E+03  0.12723559343E+04  0.50400001928E-02 0. -1.
       -1    1    3    3    0  502  0.69857586660E+03 -0.85703437395E+03 -0.12829590521E+04  0.16936646920E+04  0.50400001928E-02 0.  1.
</event>
<event>
 5   0  0.7202572E-06  0.2301174E+04  0.7818609E-02  0.8477459E-01
        1   -1    0    0  501    0  0.00000000000E+00  0.00000000000E+00  0.10839678713E+04  0.10839678713E+04  0.50400001928E-02 0.  1.
       -1   -1    0    0    0  501  0.00000000000E+00  0.00000000000E+00 -0.12212999601E+04  0.12212999601E+04  0.50400001928E-02 0. -1.
    10030    2    1    2    0    0  0.00000000000E+00  0.00000000000E+00 -0.13733208886E+03  0.23052678314E+04  0.23011735423E+04 0.  0.
        2    1    3    3  502    0 -0.96790407840E+03 -0.52507183893E+03 -0.40289294788E+03  0.11725448684E+04  0.25500000920E-02 0.  1.
       -2    1    3    3    0  502  0.96790407840E+03  0.52507183893E+03  0.26556085902E+03  0.11327229630E+04  0.25500000920E-02 0. -1.
</event>
<event>
 5   0  0.7278815E-06  0.2297266E+04  0.7818609E-02  0.8479000E-01
       -1   -1    0    0    0  501  0.00000000000E+00  0.00000000000E+00  0.12366479289E+04  0.12366479289E+04  0.50400001928E-02 0. -1.
        1   -1    0    0  501    0  0.00000000000E+00  0.00000000000E+00 -0.10668818489E+04  0.10668818489E+04  0.50400001928E-02 0.  1.
    10030    2    1    2    0    0  0.00000000000E+00  0.00000000000E+00  0.16976607993E+03  0.23035297778E+04  0.22972655300E+04 0.  0.
        5    1    3    3  502    0 -0.57560252570E+02 -0.49787589686E+03 -0.95144449811E+03  0.10753893780E+04  0.46999998093E+01 0.  1.
       -5    1    3    3    0  502  0.57560252570E+02  0.49787589686E+03  0.11212105780E+04  0.12281403998E+04  0.46999998093E+01 0. -1.
</event>
<event>
 5   0  0.7202572E-06  0.2285573E+04  0.7818609E-02  0.8483631E-01
        1   -1    0    0  501    0  0.00000000000E+00  0.00000000000E+00  0.26211551149E+04  0.26211551149E+04  0.50400001928E-02 0.  1.
       -1   -1    0    0    0  501  0.00000000000E+00  0.00000000000E+00 -0.49823854501E+03  0.49823854503E+03  0.50400001928E-02 0. -1.
    10030    2    1    2    0    0  0.00000000000E+00  0.00000000000E+00  0.21229165699E+04  0.31193936599E+04  0.22855725854E+04 0.  0.
        2    1    3    3  502    0 -0.22869662765E+03 -0.11956349390E+03 -0.45794974987E+03  0.52565725524E+03  0.25500000920E-02 0. -1.
       -2    1    3    3    0  502  0.22869662765E+03  0.11956349390E+03  0.25808663198E+04  0.25937364047E+04  0.25500000920E-02 0.  1.
</event>
<event>
 5   0  0.1588969E-05  0.2294202E+04  0.7818609E-02  0.8480211E-01
       -2   -1    0    0    0  501  0.00000000000E+00  0.00000000000E+00  0.65716473606E+03  0.65716473607E+03  0.25500000920E-02 0. -1.
        2   -1    0    0  501    0  0.00000000000E+00  0.00000000000E+00 -0.20023002807E+04  0.20023002807E+04  0.25500000920E-02 0.  1.
    10030    2    1    2    0    0  0.00000000000E+00  0.00000000000E+00 -0.13451355446E+04  0.26594650168E+04  0.22942023760E+04 0.  0.
        1    1    3    3  502    0  0.35602529046E+03  0.63261375518E+03  0.35703557706E+03  0.80896759762E+03  0.50400001928E-02 0. -1.
       -1    1    3    3    0  502 -0.35602529046E+03 -0.63261375518E+03 -0.17021711217E+04  0.18504974191E+04  0.50400001928E-02 0.  1.
</event>
<event>
 5   0  0.1588969E-05  0.2301799E+04  0.7818609E-02  0.8477212E-01
        2   -1    0    0  501    0  0.00000000000E+00  0.00000000000E+00  0.15940007083E+04  0.15940007083E+04  0.25500000920E-02 0. -1.
       -2   -1    0    0    0  501  0.00000000000E+00  0.00000000000E+00 -0.83097162674E+03  0.83097162674E+03  0.25500000920E-02 0.  1.
    10030    2    1    2    0    0  0.00000000000E+00  0.00000000000E+00  0.76302908158E+03  0.24249723351E+04  0.23017987415E+04 0.  0.
        1    1    3    3  502    0 -0.86671409021E+03  0.45595403569E+03 -0.25538717016E+03  0.10120820142E+04  0.50400001928E-02 0.  1.
       -1    1    3    3    0  502  0.86671409021E+03 -0.45595403569E+03  0.10184162517E+04  0.14128903208E+04  0.50400001928E-02 0. -1.
</event>
<event>
 5   0  0.1635955E-05  0.2300453E+04  0.7818609E-02  0.8477743E-01
       -2   -1    0    0    0  501  0.00000000000E+00  0.00000000000E+00  0.11221836052E+04  0.11221836052E+04  0.25500000920E-02 0.  1.
        2   -1    0    0  501    0  0.00000000000E+00  0.00000000000E+00 -0.11789697497E+04  0.11789697497E+04  0.25500000920E-02 0. -1.
    10030    2    1    2    0    0  0.00000000000E+00  0.00000000000E+00 -0.56786144550E+02  0.23011533549E+04  0.23004525852E+04 0.  0.
        2    1    3    3  502    0  0.60193649232E+03 -0.97990066103E+03 -0.63029157407E+01  0.11500315531E+04  0.25500000920E-02 0.  1.
       -2    1    3    3    0  502 -0.60193649232E+03  0.97990066103E+03 -0.50483228810E+02  0.11511218018E+04  0.25500000920E-02 0. -1.
</event>
<event>
 5   0  0.7416556E-06  0.2301070E+04  0.7818609E-02  0.8477499E-01
        1   -1    0    0  501    0  0.00000000000E+00  0.00000000000E+00  0.12563436244E+04  0.12563436244E+04  0.50400001928E-02 0.  1.
       -1   -1    0    0    0  501  0.00000000000E+00  0.00000000000E+00 -0.10536372962E+04  0.10536372962E+04  0.50400001928E-02 0. -1.
    10030    2    1    2    0    0  0.00000000000E+00  0.00000000000E+00  0.20270632823E+03  0.23099809206E+04  0.23010697508E+04 0.  0.
        4    1    3    3  502    0 -0.49608269356E+02  0.11227500104E+02  0.12552137384E+04  0.12562444742E+04  0.12699999809E+01 0.  1.
       -4    1    3    3    0  502  0.49608269356E+02 -0.11227500104E+02 -0.10525074101E+04  0.10537364464E+04  0.12699999809E+01 0. -1.
</event>
<event>
 5   0  0.7416556E-06  0.2312339E+04  0.7818609E-02  0.8473072E-01
       -1   -1    0    0    0  501  0.00000000000E+00  0.00000000000E+00  0.74984365197E+03  0.74984365199E+03  0.50400001928E-02 0.  1.
        1   -1    0    0  501    0  0.00000000000E+00  0.00000000000E+00 -0.17826750296E+04  0.17826750296E+04  0.50400001928E-02 0. -1.
    10030    2    1    2    0    0  0.00000000000E+00  0.00000000000E+00 -0.10328313776E+04  0.25325186816E+04  0.23123386901E+04 0.  0.
        4    1    3    3  502    0  0.85661212181E+03 -0.39588194721E+02 -0.13657402359E+04  0.16126374538E+04  0.12699999809E+01 0. -1.
       -4    1    3    3    0  502 -0.85661212181E+03  0.39588194721E+02  0.33290885833E+03  0.91988122779E+03  0.12699999809E+01 0.  1.
</event>
<event>
 5   0  0.7391007E-06  0.2300404E+04  0.7818609E-02  0.8477762E-01
        1   -1    0    0  501    0  0.00000000000E+00  0.00000000000E+00  0.59979682801E+03  0.59979682803E+03  0.50400001928E-02 0.  1.
       -1   -1    0    0    0  501  0.00000000000E+00  0.00000000000E+00 -0.22056872766E+04  0.22056872766E+04  0.50400001928E-02 0. -1.
    10030    2    1    2    0    0  0.00000000000E+00  0.00000000000E+00 -0.16058904486E+04  0.28054841046E+04  0.23004036447E+04 0.  0.
        1    1    3    3  502    0 -0.35017226480E+03 -0.52117645412E+03  0.37234700678E+03  0.72999164711E+03  0.50400001928E-02 0.  1.
       -1    1    3    3    0  502  0.35017226480E+03  0.52117645412E+03 -0.19782374554E+04  0.20754924575E+04  0.50400001928E-02 0. -1.
</event>
<event>
 5   0  0.7202572E-06  0.2288567E+04  0.7818609E-02  0.8482443E-01
        1   -1    0    0  501    0  0.00000000000E+00  0.00000000000E+00  0.60662328488E+03  0.60662328490E+03  0.50400001928E-02 0. -1.
       -1   -1    0    0    0  501  0.00000000000E+00  0.00000000000E+00 -0.21584813347E+04  0.21584813347E+04  0.50400001928E-02 0.  1.
    10030    2    1    2    0    0  0.00000000000E+00  0.00000000000E+00 -0.15518580498E+04  0.27651046196E+04  0.22885672703E+04 0.  0.
        2    1    3    3  502    0  0.86691173252E+03 -0.51815244838E+03 -0.12599020051E+03  0.10177875232E+04  0.25500000920E-02 0. -1.
       -2    1    3    3    0  502 -0.86691173252E+03  0.51815244838E+03 -0.14258678493E+04  0.17473170964E+04  0.25500000920E-02 0.  1.
</event>
<event>
 5   0  0.7202572E-06  0.2299076E+04  0.7818609E-02  0.8478286E-01
       -1   -1    0    0    0  501  0.00000000000E+00  0.00000000000E+00  0.17993310767E+04  0.17993310767E+04  0.50400001928E-02 0.  1.
        1   -1    0    0  501    0  0.00000000000E+00  0.00000000000E+00 -0.73440466930E+03  0.73440466931E+03  0.50400001928E-02 0. -1.
    10030    2    1    2    0    0  0.00000000000E+00  0.00000000000E+00  0.10649264074E+04  0.25337357460E+04  0.22990755919E+04 0.  0.
        2    1    3    3  502    0 -0.62288442867E+03  0.38316377989E+02 -0.53146493008E+03  0.81970002331E+03  0.25500000920E-02 0. -1.
       -2    1    3    3    0  502  0.62288442867E+03 -0.38316377989E+02  0.15963913375E+04  0.17140357227E+04  0.25500000920E-02 0.  1.
</event>
<event>
 5   0  0.1602809E-05  0.2304628E+04  0.7818609E-02  0.8476098E-01
       -2   -1    0    0    0  501  0.00000000000E+00  0.00000000000E+00  0.69158196673E+03  0.69158196674E+03  0.25500000920E-02 0.  1.
        2   -1    0    0  501    0  0.00000000000E+00  0.00000000000E+00 -0.19199862813E+04  0.19199862813E+04  0.25500000920E-02 0. -1.
    10030    2    1    2    0    0  0.00000000000E+00  0.00000000000E+00 -0.12284043145E+04  0.26115682480E+04  0.23046282898E+04 0.  0.
        3    1    3    3  502    0 -0.46279705819E+03 -0.18067834417E+03 -0.17923878900E+04  0.18599677792E+04  0.10100000352E+00 0. -1.
       -3    1    3    3    0  502  0.46279705819E+03  0.18067834417E+03  0.56398357548E+03  0.75160046882E+03  0.10100000352E+00 0.  1.
</event>
<event>
 5   0  0.1588969E-05  0.2300644E+04  0.7818609E-02  0.8477667E-01
       -2   -1    0    0    0  501  0.00000000000E+00  0.00000000000E+00  0.13576253362E+04  0.13576253362E+04  0.25500000920E-02 0.  1.
        2   -1    0    0  501    0  0.00000000000E+00  0.00000000000E+00 -0.97467280281E+03  0.97467280282E+03  0.25500000920E-02 0. -1.
    10030    2    1    2    0    0  0.00000000000E+00  0.00000000000E+00  0.38295253336E+03  0.23322981390E+04  0.23006438156E+04 0.  0.
        1    1    3    3  502    0  0.72094018368E+03  0.68398738633E+03 -0.39584545473E+03  0.10697135678E+04  0.50400001928E-02 0. -1.
       -1    1    3    3    0  502 -0.72094018368E+03 -0.68398738633E+03  0.77879798810E+03  0.12625845712E+04  0.50400001928E-02 0.  1.
</event>
<event>
 5   0  0.1602809E-05  0.2319063E+04  0.7818609E-02  0.8470443E-01
        2   -1    0    0  501    0  0.00000000000E+00  0.00000000000E+00  0.15937447586E+04  0.15937447586E+04  0.25500000920E-02 0. -1.
       -2   -1    0    0    0  501  0.00000000000E+00  0.00000000000E+00 -0.84361905790E+03  0.84361905790E+03  0.25500000920E-02 0.  1.
    10030    2    1    2    0    0  0.00000000000E+00  0.00000000000E+00  0.75012570070E+03  0.24373638165E+04  0.23190631313E+04 0.  0.
        3    1    3    3  502    0 -0.50972006595E+03  0.18948153241E+03  0.14514121330E+04  0.15499403172E+04  0.10100000352E+00 0. -1.
       -3    1    3    3    0  502  0.50972006595E+03 -0.18948153241E+03 -0.70128643233E+03  0.88742349931E+03  0.10100000352E+00 0.  1.
</event>
<event>
 5   0  0.7391007E-06  0.2286504E+04  0.7818609E-02  0.8483261E-01
       -1   -1    0    0    0  501  0.00000000000E+00  0.00000000000E+00  0.76925138309E+03  0.76925138310E+03  0.50400001928E-02 0.  1.
        1   -1    0    0  501    0  0.00000000000E+00  0.00000000000E+00 -0.16990874171E+04  0.16990874171E+04  0.50400001928E-02 0. -1.
    10030    2    1    2    0    0  0.00000000000E+00  0.00000000000E+00 -0.92983603402E+03  0.24683388002E+04  0.22865041838E+04 0.  0.
        1    1    3    3  502    0  0.90337254202E+03  0.64007636408E+02 -0.12181500122E+04  0.15179158011E+04  0.50400001928E-02 0. -1.
       -1    1    3    3    0  502 -0.90337254202E+03 -0.64007636408E+02  0.28831397813E+03  0.95042299909E+03  0.50400001928E-02 0.  1.
</event>
<event>
 5   0  0.1635955E-05  0.2299055E+04  0.7818609E-02  0.8478294E-01
        2   -1    0    0  501    0  0.00000000000E+00  0.00000000000E+00  0.11300629790E+04  0.11300629790E+04  0.25500000920E-02 0. -1.
       -2   -1    0    0    0  501  0.00000000000E+00  0.00000000000E+00 -0.11693268712E+04  0.11693268712E+04  0.25500000920E-02 0.  1.
    10030    2    1    2    0    0  0.00000000000E+00  0.00000000000E+00 -0.39263892174E+02  0.22993898502E+04  0.22990545948E+04 0.  0.
        2    1    3    3  502    0 -0.94044095154E+03 -0.16600696715E+02 -0.68056735493E+03  0.11609809176E+04  0.25500000920E-02 0.  1.
       -2    1    3    3    0  502  0.94044095154E+03  0.16600696715E+02  0.64130346275E+03  0.11384089326E+04  0.25500000920E-02 0. -1.
</event>
<event>
 5   0  0.1635955E-05  0.2307525E+04  0.7818609E-02  0.8474960E-01
        2   -1    0    0  501    0  0.00000000000E+00  0.00000000000E+00  0.16078657615E+04  0.16078657615E+04  0.25500000920E-02 0. -1.
       -2   -1    0    0    0  501  0.00000000000E+00  0.00000000000E+00 -0.82790971857E+03  0.82790971858E+03  0.25500000920E-02 0.  1.
    10030    2    1    2    0    0  0.00000000000E+00  0.00000000000E+00  0.77995604290E+03  0.24357754801E+04  0.23075248125E+04 0.  0.
        2    1    3    3  502    0  0.32016035696E+03  0.89106412128E+03 -0.30596004494E+03  0.99504244709E+03  0.25500000920E-02 0.  1.
       -2    1    3    3    0  502 -0.32016035696E+03 -0.89106412128E+03  0.10859160878E+04  0.14407330330E+04  0.25500000920E-02 0. -1.
</event>
<event>
 5   0  0.7391007E-06  0.2299130E+04  0.7818609E-02  0.8478264E-01
       -1   -1    0    0    0  501  0.00000000000E+00  0.00000000000E+00  0.96895222852E+03  0.96895222854E+03  0.50400001928E-02 0.  1.
        1   -1    0    0  501    0  0.00000000000E+00  0.00000000000E+00 -0.13638441477E+04  0.13638441477E+04  0.50400001928E-02 0. -1.
    10030    2    1    2    0    0  0.00000000000E+00  0.00000000000E+00 -0.39489191915E+03  0.23327963762E+04  0.22991301192E+04 0.  0.
        1    1    3    3  502    0 -0.80385958602E+02  0.85243768749E+03 -0.97574259395E+03  0.12981469574E+04  0.50400001928E-02 0. -1.
       -1    1    3    3    0  502  0.80385958602E+02 -0.85243768749E+03  0.58085067480E+03  0.10346494188E+04  0.50400001928E-02 0.  1.
</event>
<event>
 5   0  0.7416556E-06  0.2298319E+04  0.7818609E-02  0.8478584E-01
       -1   -1    0    0    0  501  0.00000000000E+00  0.00000000000E+00  0.70476330210E+03  0.70476330212E+03  0.50400001928E-02 0. -1.
        1   -1    0    0  501    0  0.00000000000E+00  0.00000000000E+00 -0.18737753595E+04  0.18737753596E+04  0.50400001928E-02 0.  1.
    10030    2    1    2    0    0  0.00000000000E+00  0.00000000000E+00 -0.11690120574E+04  0.25785386617E+04  0.22983194816E+04 0.  0.
        4    1    3    3  502    0 -0.10953922737E+04 -0.34391853690E+03 -0.63949520161E+03  0.13141993453E+04  0.12699999809E+01 0.  1.
       -4    1    3    3    0  502  0.10953922737E+04  0.34391853690E+03 -0.52951685584E+03  0.12643393164E+04  0.12699999809E+01 0. -1.
</event>
<event>
 5   0  0.7278815E-06  0.2280873E+04  0.7818609E-02  0.8485501E-01
        1   -1    0    0  501    0  0.00000000000E+00  0.00000000000E+00  0.21346697228E+04  0.21346697228E+04  0.50400001928E-02 0.  1.
       -1   -1    0    0    0  501  0.00000000000E+00  0.00000000000E+00 -0.60927230306E+03  0.60927230308E+03  0.50400001928E-02 0. -1.
    10030    2    1    2    0    0  0.00000000000E+00  0.00000000000E+00  0.15253974198E+04  0.27439420259E+04  0.22808727613E+04 0.  0.
        5    1    3    3  502    0 -0.60511869282E+03 -0.86542052392E+03  0.24462766485E+03  0.10839677578E+04  0.46999998093E+01 0. -1.
       -5    1    3    3    0  502  0.60511869282E+03  0.86542052392E+03  0.12807697549E+04  0.16599742681E+04  0.46999998093E+01 0.  1.
</event>
<event>
 5   0  0.1626636E-05  0.2299023E+04  0.7818609E-02  0.8478306E-01
        2   -1    0    0  501    0  0.00000000000E+00  0.00000000000E+00  0.27326485908E+04  0.27326485908E+04  0.25500000920E-02 0. -1.
       -2   -1    0    0    0  501  0.00000000000E+00  0.00000000000E+00 -0.48355173708E+03  0.48355173709E+03  0.25500000920E-02 0.  1.
    10030    2    1    2    0    0  0.00000000000E+00  0.00000000000E+00  0.22490968537E+04  0.32162003279E+04  0.22990232473E+04 0.  0.
        4    1    3    3  502    0 -0.99218636907E+03 -0.36163126375E+02  0.19350102690E+04  0.21748581371E+04  0.12699999809E+01 0.  1.
       -4    1    3    3    0  502  0.99218636907E+03  0.36163126375E+02  0.31408658477E+03  0.10413421908E+04  0.12699999809E+01 0. -1.
</event>
<event>
 5   0  0.7278815E-06  0.2278798E+04  0.7818609E-02  0.8486328E-01
       -1   -1    0    0    0  501  0.00000000000E+00  0.00000000000E+00  0.92733967235E+03  0.92733967237E+03  0.50400001928E-02 0.  1.
        1   -1    0    0  501    0  0.00000000000E+00  0.00000000000E+00 -0.13999509207E+04  0.13999509208E+04  0.50400001928E-02 0. -1.
    10030    2    1    2    0    0  0.00000000000E+00  0.00000000000E+00 -0.47261124839E+03  0.23272905931E+04  0.22787979535E+04 0.  0.
        5    1    3    3  502    0  0.77239083909E+02  0.39891685465E+03 -0.13234327498E+04  0.13844121013E+04  0.46999998093E+01 0. -1.
       -5    1    3    3    0  502 -0.77239083909E+02 -0.39891685465E+03  0.85082150142E+03  0.94287849180E+03  0.46999998093E+01 0.  1.
</event>
<event>
 5   0  0.1588969E-05  0.2304512E+04  0.7818609E-02  0.8476144E-01
        2   -1    0    0  501    0  0.00000000000E+00  0.00000000000E+00  0.18217396299E+04  0.18217396299E+04  0.25500000920E-02 0. -1.
       -2   -1    0    0    0  501  0.00000000000E+00  0.00000000000E+00 -0.72880573433E+03  0.72880573434E+03  0.25500000920E-02 0.  1.
    10030    2    1    2    0    0  0.00000000000E+00  0.00000000000E+00  0.10929338955E+04  0.25505453642E+04  0.23045123464E+04 0.  0.
        1    1    3    3  502    0 -0.40511510598E+03 -0.99913666159E+03  0.99644675903E+03  0.14680934784E+04  0.50400001928E-02 0. -1.
       -1    1    3    3    0  502  0.40511510598E+03  0.99913666159E+03  0.96487136515E+02  0.10824518858E+04  0.50400001928E-02 0.  1.
</event>
<event>
 5   0  0.7278815E-06  0.2308461E+04  0.7818609E-02  0.8474593E-01
       -1   -1    0    0    0  501  0.00000000000E+00  0.00000000000E+00  0.14081713407E+04  0.14081713408E+04  0.50400001928E-02 0. -1.
        1   -1    0    0  501    0  0.00000000000E+00  0.00000000000E+00 -0.94608358971E+03  0.94608358972E+03  0.50400001928E-02 0.  1.
    10030    2    1    2    0    0  0.00000000000E+00  0.00000000000E+00  0.46208775104E+03  0.23542549305E+04  0.23084607833E+04 0.  0.
        5    1    3    3  502    0  0.35943174151E+03  0.31841641286E+03 -0.83937047680E+03  0.96702899445E+03  0.46999998093E+01 0.  1.
       -5    1    3    3    0  502 -0.35943174151E+03 -0.31841641286E+03  0.13014582278E+04  0.13872259360E+04  0.46999998093E+01 0. -1.
</event>
<event>
 5   0  0.7183014E-06  0.2306043E+04  0.7818609E-02  0.8475542E-01
       -1   -1    0    0    0  501  0.00000000000E+00  0.00000000000E+00  0.16368167901E+04  0.16368167901E+04  0.50400001928E-02 0. -1.
        1   -1    0    0  501    0  0.00000000000E+00  0.00000000000E+00 -0.81222202947E+03  0.81222202948E+03  0.50400001928E-02 0.  1.
    10030    2    1    2    0    0  0.00000000000E+00  0.00000000000E+00  0.82459476067E+03  0.24490388196E+04  0.23060430657E+04 0.  0.
        3    1    3    3  502    0 -0.12741310496E+03 -0.25119413561E+03  0.15997195646E+04  0.16243261030E+04  0.10100000352E+00 0. -1.
       -3    1    3    3    0  502  0.12741310496E+03  0.25119413561E+03 -0.77512480397E+03  0.82471271666E+03  0.10100000352E+00 0.  1.
</event>
<event>
 5   0  0.7183014E-06  0.2295266E+04  0.7818609E-02  0.8479790E-01
        1   -1    0    0  501    0  0.00000000000E+00  0.00000000000E+00  0.83459164421E+03  0.83459164422E+03  0.50400001928E-02 0.  1.
       -1   -1    0    0    0  501  0.00000000000E+00  0.00000000000E+00 -0.15780912475E+04  0.15780912475E+04  0.50400001928E-02 0. -1.
    10030    2    1    2    0    0  0.00000000000E+00  0.00000000000E+00 -0.74349960333E+03  0.24126828918E+04  0.22952662321E+04 0.  0.
        3    1    3    3  502    0 -0.46996138612E+03  0.91704817511E+03  0.15928761710E+03  0.10426953606E+04  0.10100000352E+00 0.  1.
       -3    1    3    3    0  502  0.46996138612E+03 -0.91704817511E+03 -0.90278722043E+03  0.13699875311E+04  0.10100000352E+00 0. -1.
</event>
<event>
 5   0  0.7278815E-06  0.2304892E+04  0.7818609E-02  0.8475995E-01
       -1   -1    0    0    0  501  0.00000000000E+00  0.00000000000E+00  0.12343438123E+04  0.12343438123E+04  0.50400001928E-02 0.  1.
        1   -1    0    0  501    0  0.00000000000E+00  0.00000000000E+00 -0.10759823431E+04  0.10759823431E+04  0.50400001928E-02 0. -1.
    10030    2    1    2    0    0  0.00000000000E+00  0.00000000000E+00  0.15836146922E+03  0.23103261554E+04  0.23048923162E+04 0.  0.
        5    1    3    3  502    0 -0.10039911191E+04 -0.33186722998E+03  0.53849244354E+03  0.11866466312E+04  0.46999998093E+01 0.  1.
       -5    1    3    3    0  502  0.10039911191E+04  0.33186722998E+03 -0.38013097432E+03  0.11236795242E+04  0.46999998093E+01 0. -1.
</event>
<event>
 5   0  0.1626636E-05  0.2300276E+04  0.7818609E-02  0.8477812E-01
       -2   -1    0    0    0  501  0.00000000000E+00  0.00000000000E+00  0.14362687441E+04  0.14362687441E+04  0.25500000920E-02 0.  1.
        2   -1    0    0  501    0  0.00000000000E+00  0.00000000000E+00 -0.92100942126E+03  0.92100942126E+03  0.25500000920E-02 0. -1.
    10030    2    1    2    0    0  0.00000000000E+00  0.00000000000E+00  0.51525932279E+03  0.23572781653E+04  0.23002756746E+04 0.  0.
        4    1    3    3  502    0  0.26323345781E+02 -0.66204480035E+03 -0.70578369205E+03  0.96805395979E+03  0.12699999809E+01 0. -1.
       -4    1    3    3    0  502 -0.26323345781E+02  0.66204480035E+03  0.12210430148E+04  0.13892242055E+04  0.12699999809E+01 0.  1.
</event>
<event>
 5   0  0.1602809E-05  0.2304373E+04  0.7818609E-02  0.8476199E-01
       -2   -1    0    0    0  501  0.00000000000E+00  0.00000000000E+00  0.61024903194E+03  0.61024903194E+03  0.25500000920E-02 0.  1.
        2   -1    0    0  501    0  0.00000000000E+00  0.00000000000E+00 -0.21753972339E+04  0.21753972339E+04  0.25500000920E-02 0. -1.
    10030    2    1    2    0    0  0.00000000000E+00  0.00000000000E+00 -0.15651482020E+04  0.27856462658E+04  0.23043732823E+04 0.  0.
        3    1    3    3  502    0 -0.29102332925E+03  0.16127505541E+03 -0.21160588666E+04  0.21420572725E+04  0.10100000352E+00 0. -1.
       -3    1    3    3    0  502  0.29102332925E+03 -0.16127505541E+03  0.55091066466E+03  0.64358899330E+03  0.10100000352E+00 0.  1.
</event>
<event>
 5   0  0.1635955E-05  0.2300680E+04  0.7818609E-02  0.8477653E-01
        2   -1    0    0  501    0  0.00000000000E+00  0.00000000000E+00  0.68071453788E+03  0.68071453788E+03  0.25500000920E-02 0. -1.
       -2   -1    0    0    0  501  0.00000000000E+00  0.00000000000E+00 -0.19439602396E+04  0.19439602396E+04  0.25500000920E-02 0.  1.
    10030    2    1    2    0    0  0.00000000000E+00  0.00000000000E+00 -0.12632457017E+04  0.26246747774E+04  0.23006798961E+04 0.  0.
        2    1    3    3  502    0 -0.49897428674E+01  0.64384991645E+03  0.45588650390E+03  0.78892339102E+03  0.25500000920E-02 0. -1.
       -2    1    3    3    0  502  0.49897428674E+01 -0.64384991645E+03 -0.17191322056E+04  0.18357513864E+04  0.25500000920E-02 0.  1.
</event>
<event>
 5   0  0.1588969E-05  0.2320574E+04  0.7818609E-02  0.8469853E-01
        2   -1    0    0  501    0  0.00000000000E+00  0.00000000000E+00  0.24119807592E+04  0.24119807592E+04  0.25500000920E-02 0. -1.
       -2   -1    0    0    0  501  0.00000000000E+00  0.00000000000E+00 -0.55815758351E+03  0.55815758352E+03  0.25500000920E-02 0.  1.
    10030    2    1    2    0    0  0.00000000000E+00  0.00000000000E+00  0.18538231757E+04  0.29701383427E+04  0.23205735085E+04 0.  0.
        1    1    3    3  502    0 -0.12429887389E+03  0.31634324986E+03 -0.49301167676E+03  0.59881864971E+03  0.50400001928E-02 0.  1.
       -1    1    3    3    0  502  0.12429887389E+03 -0.31634324986E+03  0.23468348525E+04  0.23713196930E+04  0.50400001928E-02 0. -1.
</event>
<event>
 5   0  0.1697855E-05  0.2300256E+04  0.7818609E-02  0.8477820E-01
        2   -1    0    0  501    0  0.00000000000E+00  0.00000000000E+00  0.23777253658E+04  0.23777253658E+04  0.25500000920E-02 0.  1.
       -2   -1    0    0    0  501  0.00000000000E+00  0.00000000000E+00 -0.55632773811E+03  0.55632773811E+03  0.25500000920E-02 0. -1.
    10030    2    1    2    0    0  0.00000000000E+00  0.00000000000E+00  0.18213976277E+04  0.29340531039E+04  0.23002561376E+04 0.  0.
        5    1    3    3  502    0  0.88616695424E+03 -0.61071636891E+03  0.39335076517E+03  0.11458679106E+04  0.46999998093E+01 0.  1.
       -5    1    3    3    0  502 -0.88616695424E+03  0.61071636891E+03  0.14280468625E+04  0.17881851933E+04  0.46999998093E+01 0. -1.
</event>
<event>
 5   0  0.1602809E-05  0.2295994E+04  0.7818609E-02  0.8479502E-01
        2   -1    0    0  501    0  0.00000000000E+00  0.00000000000E+00  0.15753760248E+04  0.15753760248E+04  0.25500000920E-02 0. -1.
       -2   -1    0    0    0  501  0.00000000000E+00  0.00000000000E+00 -0.83656025097E+03  0.83656025097E+03  0.25500000920E-02 0.  1.
    10030    2    1    2    0    0  0.00000000000E+00  0.00000000000E+00  0.73881577382E+03  0.24119362758E+04  0.22959938699E+04 0.  0.
        3    1    3    3  502    0  0.26804179618E+03 -0.70911647150E+03  0.12750346218E+04  0.14833765104E+04  0.10100000352E+00 0. -1.
       -3    1    3    3    0  502 -0.26804179618E+03  0.70911647150E+03 -0.53621884800E+03  0.92855976533E+03  0.10100000352E+00 0.  1.
</event>
<event>
 5   0  0.7391007E-06  0.2311569E+04  0.7818609E-02  0.8473374E-01
        1   -1    0    0  501    0  0.00000000000E+00  0.00000000000E+00  0.91846107699E+03  0.91846107700E+03  0.50400001928E-02 0.  1.
       -1   -1    0    0    0  501  0.00000000000E+00  0.00000000000E+00 -0.14544304680E+04  0.14544304680E+04  0.50400001928E-02 0. -1.
    10030    2    1    2    0    0  0.00000000000E+00  0.00000000000E+00 -0.53596939101E+03  0.23728915450E+04  0.23115689685E+04 0.  0.
        1    1    3    3  502    0 -0.49913929610E+03  0.10315206255E+04 -0.11344888957E+03  0.11515404849E+04  0.50400001928E-02 0.  1.
       -1    1    3    3    0  502  0.49913929610E+03 -0.10315206255E+04 -0.42252050144E+03  0.12213510601E+04  0.50400001928E-02 0. -1.
</event>
<event>
 5   0  0.7183014E-06  0.2369967E+04  0.7818609E-02  0.8450834E-01
        1   -1    0    0  501    0  0.00000000000E+00  0.00000000000E+00  0.14479402236E+04  0.14479402236E+04  0.50400001928E-02 0. -1.
       -1   -1    0    0    0  501  0.00000000000E+00  0.00000000000E+00 -0.96978141185E+03  0.96978141186E+03  0.50400001928E-02 0.  1.
    10030    2    1    2    0    0  0.00000000000E+00  0.00000000000E+00  0.47815881178E+03  0.24177216355E+04  0.23699666786E+04 0.  0.
        3    1    3    3  502    0  0.90780361176E+03  0.38543007767E+03 -0.43106038857E+03  0.10763256064E+04  0.10100000352E+00 0.  1.
       -3    1    3    3    0  502 -0.90780361176E+03 -0.38543007767E+03  0.90921920034E+03  0.13413960291E+04  0.10100000352E+00 0. -1.
</event>
<event>
 5   0  0.7278815E-06  0.2317759E+04  0.7818609E-02  0.8470952E-01
        1   -1    0    0  501    0  0.00000000000E+00  0.00000000000E+00  0.14121369647E+04  0.14121369647E+04  0.50400001928E-02 0. -1.
       -1   -1    0    0    0  501  0.00000000000E+00  0.00000000000E+00 -0.95104242142E+03  0.95104242143E+03  0.50400001928E-02 0.  1.
    10030    2    1    2    0    0  0.00000000000E+00  0.00000000000E+00  0.46109454327E+03  0.23631793861E+04  0.23177593993E+04 0.  0.
        5    1    3    3  502    0 -0.83977391260E+03 -0.38655995679E+03  0.94304846247E+03  0.13206102063E+04  0.46999998093E+01 0. -1.
       -5    1    3    3    0  502  0.83977391260E+03  0.38655995679E+03 -0.48195391919E+03  0.10425691798E+04  0.46999998093E+01 0.  1.
</event>
<event>
 5   0  0.7183014E-06  0.2292840E+04  0.7818609E-02  0.8480749E-01
       -1   -1    0    0    0  501  0.00000000000E+00  0.00000000000E+00  0.65237797183E+03  0.65237797185E+03  0.50400001928E-02 0. -1.
        1   -1    0    0  501    0  0.00000000000E+00  0.00000000000E+00 -0.20145976843E+04  0.20145976843E+04  0.50400001928E-02 0.  1.
    10030    2    1    2    0    0  0.00000000000E+00  0.00000000000E+00 -0.13622197124E+04  0.26669756561E+04  0.22928402922E+04 0.  0.
        3    1    3    3  502    0  0.11357357170E+04  0.26453069738E+02 -0.50210263585E+03  0.12420557358E+04  0.10100000352E+00 0. -1.
       -3    1    3    3    0  502 -0.11357357170E+04 -0.26453069738E+02 -0.86011707659E+03  0.14249199203E+04  0.10100000352E+00 0.  1.
</event>
<event>
 5   0  0.1635955E-05  0.2300528E+04  0.7818609E-02  0.8477713E-01
        2   -1    0    0  501    0  0.00000000000E+00  0.00000000000E+00  0.15714987858E+04  0.15714987858E+04  0.25500000920E-02 0.  1.
       -2   -1    0    0    0  501  0.00000000000E+00  0.00000000000E+00 -0.84193966717E+03  0.84193966717E+03  0.25500000920E-02 0. -1.
    10030    2    1    2    0    0  0.00000000000E+00  0.00000000000E+00  0.72955911864E+03  0.24134384530E+04  0.23005279087E+04 0.  0.
        2    1    3    3  502    0 -0.11320551938E+04 -0.16857817386E+03  0.24452547705E+03  0.11703675797E+04  0.25500000920E-02 0.  1.
       -2    1    3    3    0  502  0.11320551938E+04  0.16857817386E+03  0.48503364159E+03  0.12430708733E+04  0.25500000920E-02 0. -1.
</event>
<event>
 5   0  0.1602809E-05  0.2295883E+04  0.7818609E-02  0.8479546E-01
        2   -1    0    0  501    0  0.00000000000E+00  0.00000000000E+00  0.15621579686E+04  0.15621579686E+04  0.25500000920E-02 0. -1.
       -2   -1    0    0    0  501  0.00000000000E+00  0.00000000000E+00 -0.84355736225E+03  0.84355736225E+03  0.25500000920E-02 0.  1.
    10030    2    1    2    0    0  0.00000000000E+00  0.00000000000E+00  0.71860060636E+03  0.24057153309E+04  0.22958831464E+04 0.  0.
        3    1    3    3  502    0  0.80364327671E+03  0.76515651481E+03  0.66741271689E+03  0.12948925644E+04  0.10100000352E+00 0. -1.
       -3    1    3    3    0  502 -0.80364327671E+03 -0.76515651481E+03  0.51187889469E+02  0.11108227665E+04  0.10100000352E+00 0.  1.
</event>
<event>
 5   0  0.7183014E-06  0.2305748E+04  0.7818609E-02  0.8475658E-01
        1   -1    0    0  501    0  0.00000000000E+00  0.00000000000E+00  0.16568217126E+04  0.16568217126E+04  0.50400001928E-02 0. -1.
       -1   -1    0    0    0  501  0.00000000000E+00  0.00000000000E+00 -0.80220977257E+03  0.80220977258E+03  0.50400001928E-02 0.  1.
    10030    2    1    2    0    0  0.00000000000E+00  0.00000000000E+00  0.85461194005E+03  0.24590314852E+04  0.23057480949E+04 0.  0.
        3    1    3    3  502    0 -0.70857325597E+03 -0.64868533814E+03 -0.25244342260E+03  0.99327560063E+03  0.10100000352E+00 0.  1.
       -3    1    3    3    0  502  0.70857325597E+03  0.64868533814E+03  0.11070553626E+04  0.14657558846E+04  0.10100000352E+00 0. -1.
</event>
<event>
 5   0  0.7202572E-06  0.2292702E+04  0.7818609E-02  0.8480804E-01
        1   -1    0    0  501    0  0.00000000000E+00  0.00000000000E+00  0.13190951288E+04  0.13190951288E+04  0.50400001928E-02 0. -1.
       -1   -1    0    0    0  501  0.00000000000E+00  0.00000000000E+00 -0.99622917858E+03  0.99622917859E+03  0.50400001928E-02 0.  1.
    10030    2    1    2    0    0  0.00000000000E+00  0.00000000000E+00  0.32286595021E+03  0.23153243074E+04  0.22927023851E+04 0.  0.
        2    1    3    3  502    0 -0.24301967620E+03  0.31231470757E+03  0.12479305935E+04  0.13091714195E+04  0.25500000920E-02 0. -1.
       -2    1    3    3    0  502  0.24301967620E+03 -0.31231470757E+03 -0.92506464325E+03  0.10061528879E+04  0.25500000920E-02 0.  1.
</event>
<event>
 5   0  0.1635955E-05  0.2301736E+04  0.7818609E-02  0.8477237E-01
        2   -1    0    0  501    0  0.00000000000E+00  0.00000000000E+00  0.18952346491E+04  0.18952346491E+04  0.25500000920E-02 0.  1.
       -2   -1    0    0    0  501  0.00000000000E+00  0.00000000000E+00 -0.69885685605E+03  0.69885685605E+03  0.25500000920E-02 0. -1.
    10030    2    1    2    0    0  0.00000000000E+00  0.00000000000E+00  0.11963777931E+04  0.25940915052E+04  0.23017364996E+04 0.  0.
        2    1    3    3  502    0 -0.39482100870E+03 -0.82262225731E+03 -0.19225502714E+03  0.93249825877E+03  0.25500000920E-02 0. -1.
       -2    1    3    3    0  502  0.39482100870E+03  0.82262225731E+03  0.13886328202E+04  0.16615932464E+04  0.25500000920E-02 0.  1.
</event>
<event>
 5   0  0.7416556E-06  0.2290661E+04  0.7818609E-02  0.8481612E-01
       -1   -1    0    0    0  501  0.00000000000E+00  0.00000000000E+00  0.18468390530E+04  0.18468390530E+04  0.50400001928E-02 0.  1.
        1   -1    0    0  501    0  0.00000000000E+00  0.00000000000E+00 -0.71028493689E+03  0.71028493690E+03  0.50400001928E-02 0. -1.
    10030    2    1    2    0    0  0.00000000000E+00  0.00000000000E+00  0.11365541161E+04  0.25571239899E+04  0.22906610052E+04 0.  0.
        4    1    3    3  502    0  0.59986222128E+03  0.45856454911E+03  0.15296560484E+04  0.17058620605E+04  0.12699999809E+01 0.  1.
       -4    1    3    3    0  502 -0.59986222128E+03 -0.45856454911E+03 -0.39310193234E+03  0.85126192933E+03  0.12699999809E+01 0. -1.
</event>
<event>
 5   0  0.1588969E-05  0.2310948E+04  0.7818609E-02  0.8473617E-01
       -2   -1    0    0    0  501  0.00000000000E+00  0.00000000000E+00  0.13265187515E+04  0.13265187515E+04  0.25500000920E-02 0.  1.
        2   -1    0    0  501    0  0.00000000000E+00  0.00000000000E+00 -0.10064845530E+04  0.10064845530E+04  0.25500000920E-02 0. -1.
    10030    2    1    2    0    0  0.00000000000E+00  0.00000000000E+00  0.32003419851E+03  0.23330033045E+04  0.23109484050E+04 0.  0.
        1    1    3    3  502    0  0.81639361014E+03 -0.62350282361E+03  0.69408986791E+03  0.12397641076E+04  0.50400001928E-02 0.  1.
       -1    1    3    3    0  502 -0.81639361014E+03  0.62350282361E+03 -0.37405566940E+03  0.10932391969E+04  0.50400001928E-02 0. -1.
</event>
<event>
 5   0  0.7416556E-06  0.2411174E+04  0.7818609E-02  0.8435332E-01
        1   -1    0    0  501    0  0.00000000000E+00  0.00000000000E+00  0.16596733713E+04  0.16596733713E+04  0.50400001928E-02 0.  1.
       -1   -1    0    0    0  501  0.00000000000E+00  0.00000000000E+00 -0.87573846186E+03  0.87573846187E+03  0.50400001928E-02 0. -1.
    10030    2    1    2    0    0  0.00000000000E+00  0.00000000000E+00  0.78393490946E+03  0.25354118332E+04  0.24111738265E+04 0.  0.
        4    1    3    3  502    0  0.90967594250E+03  0.78709562095E+03  0.47614442581E+03  0.12937329570E+04  0.12699999809E+01 0.  1.
       -4    1    3    3    0  502 -0.90967594250E+03 -0.78709562095E+03  0.30779048365E+03  0.12416788762E+04  0.12699999809E+01 0. -1.
</event>
<event>
 5   0  0.7183014E-06  0.2291520E+04  0.7818609E-02  0.8481272E-01
        1   -1    0    0  501    0  0.00000000000E+00  0.00000000000E+00  0.15974619747E+04  0.15974619747E+04  0.50400001928E-02 0.  1.
       -1   -1    0    0    0  501  0.00000000000E+00  0.00000000000E+00 -0.82178206538E+03  0.82178206539E+03  0.50400001928E-02 0. -1.
    10030    2    1    2    0    0  0.00000000000E+00  0.00000000000E+00  0.77567990935E+03  0.24192440401E+04  0.22915196713E+04 0.  0.
        3    1    3    3  502    0 -0.29764195477E+03 -0.10873231850E+04  0.17172768715E+03  0.11403301498E+04  0.10100000352E+00 0. -1.
       -3    1    3    3    0  502  0.29764195477E+03  0.10873231850E+04  0.60395222220E+03  0.12789138903E+04  0.10100000352E+00 0.  1.
</event>
<event>
 5   0  0.7202572E-06  0.2304700E+04  0.7818609E-02  0.8476070E-01
        1   -1    0    0  501    0  0.00000000000E+00  0.00000000000E+00  0.16240774212E+04  0.16240774212E+04  0.50400001928E-02 0.  1.
       -1   -1    0    0    0  501  0.00000000000E+00  0.00000000000E+00 -0.81763978086E+03  0.81763978087E+03  0.50400001928E-02 0. -1.
    10030    2    1    2    0    0  0.00000000000E+00  0.00000000000E+00  0.80643764033E+03  0.24417172021E+04  0.23046998128E+04 0.  0.
        2    1    3    3  502    0  0.10037900331E+04 -0.32531198983E+03 -0.87443243933E+02  0.10588052900E+04  0.25500000920E-02 0. -1.
       -2    1    3    3    0  502 -0.10037900331E+04  0.32531198983E+03  0.89388088426E+03  0.13829119121E+04  0.25500000920E-02 0.  1.
</event>
<event>
 5   0  0.1588969E-05  0.2304678E+04  0.7818609E-02  0.8476079E-01
        2   -1    0    0  501    0  0.00000000000E+00  0.00000000000E+00  0.16618390642E+04  0.16618390642E+04  0.25500000920E-02 0. -1.
       -2   -1    0    0    0  501  0.00000000000E+00  0.00000000000E+00 -0.79904536457E+03  0.79904536458E+03  0.25500000920E-02 0.  1.
    10030    2    1    2    0    0  0.00000000000E+00  0.00000000000E+00  0.86279369961E+03  0.24608844288E+04  0.23046776789E+04 0.  0.
        1    1    3    3  502    0  0.51113258133E+03  0.11850931474E+03  0.15268892502E+04  0.16145252416E+04  0.50400001928E-02 0. -1.
       -1    1    3    3    0  502 -0.51113258133E+03 -0.11850931474E+03 -0.66409555058E+03  0.84635918717E+03  0.50400001928E-02 0.  1.
</event>
<event>
 5   0  0.1697855E-05  0.2251754E+04  0.7818609E-02  0.8497191E-01
       -2   -1    0    0    0  501  0.00000000000E+00  0.00000000000E+00  0.13036839387E+04  0.13036839387E+04  0.25500000920E-02 0. -1.
        2   -1    0    0  501    0  0.00000000000E+00  0.00000000000E+00 -0.97232040122E+03  0.97232040123E+03  0.25500000920E-02 0.  1.
    10030    2    1    2    0    0  0.00000000000E+00  0.00000000000E+00  0.33136353752E+03  0.22760043400E+04  0.22517535304E+04 0.  0.
        5    1    3    3  502    0 -0.12325813658E+03 -0.10341910855E+04  0.59787612146E+03  0.12009253583E+04  0.46999998093E+01 0. -1.
       -5    1    3    3    0  502  0.12325813658E+03  0.10341910855E+04 -0.26651258393E+03  0.10750789817E+04  0.46999998093E+01 0.  1.
</event>
<event>
 5   0  0.7278815E-06  0.2291066E+04  0.7818609E-02  0.8481452E-01
       -1   -1    0    0    0  501  0.00000000000E+00  0.00000000000E+00  0.80308182281E+03  0.80308182283E+03  0.50400001928E-02 0. -1.
        1   -1    0    0  501    0  0.00000000000E+00  0.00000000000E+00 -0.16340132880E+04  0.16340132880E+04  0.50400001928E-02 0.  1.
    10030    2    1    2    0    0  0.00000000000E+00  0.00000000000E+00 -0.83093146522E+03  0.24370951109E+04  0.22910664503E+04 0.  0.
        5    1    3    3  502    0  0.59759800738E+03  0.54840856638E+03  0.44501172284E+03  0.92516639453E+03  0.46999998093E+01 0. -1.
       -5    1    3    3    0  502 -0.59759800738E+03 -0.54840856638E+03 -0.12759431881E+04  0.15119287163E+04  0.46999998093E+01 0.  1.
</event>
<event>
 5   0  0.1626636E-05  0.2297304E+04  0.7818609E-02  0.8478985E-01
        2   -1    0    0  501    0  0.00000000000E+00  0.00000000000E+00  0.10342615115E+04  0.10342615115E+04  0.25500000920E-02 0. -1.
       -2   -1    0    0    0  501  0.00000000000E+00  0.00000000000E+00 -0.12756944513E+04  0.12756944513E+04  0.25500000920E-02 0.  1.
    10030    2    1    2    0    0  0.00000000000E+00  0.00000000000E+00 -0.24143293985E+03  0.23099559628E+04  0.22973042214E+04 0.  0.
        4    1    3    3  502    0  0.15605316790E+02  0.54953919097E+03  0.89338289753E+03  0.10489859212E+04  0.12699999809E+01 0. -1.
       -4    1    3    3    0  502 -0.15605316790E+02 -0.54953919097E+03 -0.11348158374E+04  0.12609700417E+04  0.12699999809E+01 0.  1.
</event>
<event>
 5   0  0.7391007E-06  0.2298086E+04  0.7818609E-02  0.8478676E-01
        1   -1    0    0  501    0  0.00000000000E+00  0.00000000000E+00  0.11872207534E+04  0.11872207534E+04  0.50400001928E-02 0.  1.
       -1   -1    0    0    0  501  0.00000000000E+00  0.00000000000E+00 -0.11120928630E+04  0.11120928630E+04  0.50400001928E-02 0. -1.
    10030    2    1    2    0    0  0.00000000000E+00  0.00000000000E+00  0.75127890424E+02  0.22993136164E+04  0.22980859224E+04 0.  0.
        1    1    3    3  502    0 -0.26815872931E+03  0.52581846105E+03  0.10239433234E+04  0.11818858183E+04  0.50400001928E-02 0.  1.
       -1    1    3    3    0  502  0.26815872931E+03 -0.52581846105E+03 -0.94881543295E+03  0.11174277981E+04  0.50400001928E-02 0. -1.
</event>
<event>
 5   0  0.7278815E-06  0.2289425E+04  0.7818609E-02  0.8482102E-01
       -1   -1    0    0    0  501  0.00000000000E+00  0.00000000000E+00  0.59291707887E+03  0.59291707889E+03  0.50400001928E-02 0.  1.
        1   -1    0    0  501    0  0.00000000000E+00  0.00000000000E+00 -0.22100341760E+04  0.22100341760E+04  0.50400001928E-02 0. -1.
    10030    2    1    2    0    0  0.00000000000E+00  0.00000000000E+00 -0.16171170971E+04  0.28029512549E+04  0.22894252623E+04 0.  0.
        5    1    3    3  502    0 -0.67430062890E+03 -0.92463148658E+03 -0.84141447763E+03  0.14204313209E+04  0.46999998093E+01 0. -1.
       -5    1    3    3    0  502  0.67430062890E+03  0.92463148658E+03 -0.77570261948E+03  0.13825199340E+04  0.46999998093E+01 0.  1.
</event>
<event>
 5   0  0.7202572E-06  0.2305727E+04  0.7818609E-02  0.8475667E-01
       -1   -1    0    0    0  501  0.00000000000E+00  0.00000000000E+00  0.63361850252E+03  0.63361850254E+03  0.50400001928E-02 0.  1.
        1   -1    0    0  501    0  0.00000000000E+00  0.00000000000E+00 -0.20976247582E+04  0.20976247582E+04  0.50400001928E-02 0. -1.
    10030    2    1    2    0    0  0.00000000000E+00  0.00000000000E+00 -0.14640062556E+04  0.27312432607E+04  0.23057266604E+04 0.  0.
        2    1    3    3  502    0 -0.28481166170E+03  0.87588077691E+03  0.89366942772E+02  0.92534926837E+03  0.25500000920E-02 0.  1.
       -2    1    3    3    0  502  0.28481166170E+03 -0.87588077691E+03 -0.15533731984E+04  0.18058939923E+04  0.25500000920E-02 0. -1.
</event>
<event>
 5   0  0.7202572E-06  0.2292478E+04  0.7818609E-02  0.8480893E-01
       -1   -1    0    0    0  501  0.00000000000E+00  0.00000000000E+00  0.90134855452E+03  0.90134855453E+03  0.50400001928E-02 0. -1.
        1   -1    0    0  501    0  0.00000000000E+00  0.00000000000E+00 -0.14576644748E+04  0.14576644748E+04  0.50400001928E-02 0.  1.
    10030    2    1    2    0    0  0.00000000000E+00  0.00000000000E+00 -0.55631592031E+03  0.23590130294E+04  0.22924779322E+04 0.  0.
        2    1    3    3  502    0 -0.54069831959E+03 -0.68201591223E+03  0.48938810249E+03  0.99849942023E+03  0.25500000920E-02 0. -1.
       -2    1    3    3    0  502  0.54069831959E+03  0.68201591223E+03 -0.10457040228E+04  0.13605136091E+04  0.25500000920E-02 0.  1.
</event>
<event>
 5   0  0.7278815E-06  0.2327704E+04  0.7818609E-02  0.8467077E-01
       -1   -1    0    0    0  501  0.00000000000E+00  0.00000000000E+00  0.13684531713E+04  0.13684531713E+04  0.50400001928E-02 0. -1.
        1   -1    0    0  501    0  0.00000000000E+00  0.00000000000E+00 -0.98984145628E+03  0.98984145629E+03  0.50400001928E-02 0.  1.
    10030    2    1    2    0    0  0.00000000000E+00  0.00000000000E+00  0.37861171504E+03  0.23582946276E+04  0.23277041736E+04 0.  0.
        5    1    3    3  502    0  0.26178277345E+03  0.17506595283E+03 -0.94584324863E+03  0.99690513556E+03  0.46999998093E+01 0.  1.
       -5    1    3    3    0  502 -0.26178277345E+03 -0.17506595283E+03  0.13244549637E+04  0.13613894921E+04  0.46999998093E+01 0. -1.
</event>
<event>
 5   0  0.7278815E-06  0.2303073E+04  0.7818609E-02  0.8476710E-01
       -1   -1    0    0    0  501  0.00000000000E+00  0.00000000000E+00  0.21331108016E+04  0.21331108016E+04  0.50400001928E-02 0.  1.
        1   -1    0    0  501    0  0.00000000000E+00  0.00000000000E+00 -0.62164458814E+03  0.62164458817E+03  0.50400001928E-02 0. -1.
    10030    2    1    2    0    0  0.00000000000E+00  0.00000000000E+00  0.15114662135E+04  0.27547553898E+04  0.23030734125E+04 0.  0.
        5    1    3    3  502    0  0.31440735921E+03  0.37240147472E+03 -0.49218319099E+03  0.69267685784E+03  0.46999998093E+01 0. -1.
       -5    1    3    3    0  502 -0.31440735921E+03 -0.37240147472E+03  0.20036494045E+04  0.20620785320E+04  0.46999998093E+01 0.  1.
</event>
<event>
 5   0  0.7202572E-06  0.2281543E+04  0.7818609E-02  0.8485234E-01
       -1   -1    0    0    0  501  0.00000000000E+00  0.00000000000E+00  0.78945325319E+03  0.78945325320E+03  0.50400001928E-02 0. -1.
        1   -1    0    0  501    0  0.00000000000E+00  0.00000000000E+00 -0.16484317898E+04  0.16484317898E+04  0.50400001928E-02 0.  1.
    10030    2    1    2    0    0  0.00000000000E+00  0.00000000000E+00 -0.85897853656E+03  0.24378850430E+04  0.22815431963E+04 0.  0.
        2    1    3    3  502    0 -0.14045839289E+03 -0.10669211005E+04 -0.24984401154E+02  0.10764169337E+04  0.25500000920E-02 0. -1.
       -2    1    3    3    0  502  0.14045839289E+03  0.10669211005E+04 -0.83399413541E+03  0.13614681093E+04  0.25500000920E-02 0.  1.
</event>
<event>
 5   0  0.7202572E-06  0.2307512E+04  0.7818609E-02  0.8474965E-01
       -1   -1    0    0    0  501  0.00000000000E+00  0.00000000000E+00  0.90945457217E+03  0.90945457218E+03  0.50400001928E-02 0.  1.
        1   -1    0    0  501    0  0.00000000000E+00  0.00000000000E+00 -0.14636830748E+04  0.14636830748E+04  0.50400001928E-02 0. -1.
    10030    2    1    2    0    0  0.00000000000E+00  0.00000000000E+00 -0.55422850262E+03  0.23731376470E+04  0.23075123095E+04 0.  0.
        2    1    3    3  502    0  0.50747450826E+03 -0.10147125083E+04 -0.49279604865E+03  0.12369396900E+04  0.25500000920E-02 0.  1.
       -2    1    3    3    0  502 -0.50747450826E+03  0.10147125083E+04 -0.61432453967E+02  0.11361979570E+04  0.25500000920E-02 0. -1.
</event>
<event>
 5   0  0.5704875E-06  0.2294818E+04  0.7818609E-02  0.8479967E-01
       -4   -1    0    0    0  501  0.00000000000E+00  0.00000000000E+00  0.19325061601E+04  0.19325065774E+04  0.12699999809E+01 0. -1.
        4   -1    0    0  501    0  0.00000000000E+00  0.00000000000E+00 -0.68126348414E+03  0.68126466790E+03  0.12699999809E+01 0.  1.
    10030    2    1    2    0    0  0.00000000000E+00  0.00000000000E+00  0.12512426760E+04  0.26137712453E+04  0.22948184871E+04 0.  0.
        5    1    3    3  502    0  0.53506300662E+03 -0.21572488651E+03 -0.50404383647E+03  0.76610177313E+03  0.46999998093E+01 0.  1.
       -5    1    3    3    0  502 -0.53506300662E+03  0.21572488651E+03  0.17552865124E+04  0.18476694722E+04  0.46999998093E+01 0. -1.
</event>
<event>
 5   0  0.1588969E-05  0.2293082E+04  0.7818609E-02  0.8480654E-01
       -2   -1    0    0    0  501  0.00000000000E+00  0.00000000000E+00  0.95245612185E+03  0.95245612186E+03  0.25500000920E-02 0. -1.
        2   -1    0    0  501    0  0.00000000000E+00  0.00000000000E+00 -0.13801754437E+04  0.13801754437E+04  0.25500000920E-02 0.  1.
    10030    2    1    2    0    0  0.00000000000E+00  0.00000000000E+00 -0.42771932183E+03  0.23326315655E+04  0.22930822494E+04 0.  0.
        1    1    3    3  502    0 -0.82088022107E+03  0.80037846582E+03 -0.22435874889E+03  0.11682409315E+04  0.50400001928E-02 0.  1.
       -1    1    3    3    0  502  0.82088022107E+03 -0.80037846582E+03 -0.20336057294E+03  0.11643906340E+04  0.50400001928E-02 0. -1.
</event>
<event>
 5   0  0.7278815E-06  0.2312380E+04  0.7818609E-02  0.8473056E-01
        1   -1    0    0  501    0  0.00000000000E+00  0.00000000000E+00  0.10062483778E+04  0.10062483778E+04  0.50400001928E-02 0. -1.
       -1   -1    0    0    0  501  0.00000000000E+00  0.00000000000E+00 -0.13284740457E+04  0.13284740457E+04  0.50400001928E-02 0.  1.
    10030    2    1    2    0    0  0.00000000000E+00  0.00000000000E+00 -0.32222566791E+03  0.23347224235E+04  0.23123795998E+04 0.  0.
        5    1    3    3  502    0  0.54446877173E+02 -0.94535862919E+03 -0.83091197681E+03  0.12598032400E+04  0.46999998093E+01 0.  1.
       -5    1    3    3    0  502 -0.54446877173E+02  0.94535862919E+03  0.50868630890E+03  0.10749191835E+04  0.46999998093E+01 0. -1.
</event>
<event>
 5   0  0.7202572E-06  0.2309150E+04  0.7818609E-02  0.8474322E-01
        1   -1    0    0  501    0  0.00000000000E+00  0.00000000000E+00  0.13319336499E+04  0.13319336499E+04  0.50400001928E-02 0. -1.
       -1   -1    0    0    0  501  0.00000000000E+00  0.00000000000E+00 -0.10008335809E+04  0.10008335809E+04  0.50400001928E-02 0.  1.
    10030    2    1    2    0    0  0.00000000000E+00  0.00000000000E+00  0.33110006896E+03  0.23327672308E+04  0.23091504277E+04 0.  0.
        2    1    3    3  502    0 -0.10310786242E+04 -0.45287083767E+03 -0.91669039396E+02  0.11298753638E+04  0.25500000920E-02 0.  1.
       -2    1    3    3    0  502  0.10310786242E+04  0.45287083767E+03  0.42276910836E+03  0.12028918671E+04  0.25500000920E-02 0. -1.
</event>
<event>
 5   0  0.7391007E-06  0.2293801E+04  0.7818609E-02  0.8480369E-01
        1   -1    0    0  501    0  0.00000000000E+00  0.00000000000E+00  0.10040372192E+04  0.10040372192E+04  0.50400001928E-02 0.  1.
       -1   -1    0    0    0  501  0.00000000000E+00  0.00000000000E+00 -0.13100912513E+04  0.13100912513E+04  0.50400001928E-02 0. -1.
    10030    2    1    2    0    0  0.00000000000E+00  0.00000000000E+00 -0.30605403206E+03  0.23141284705E+04  0.22938006687E+04 0.  0.
        1    1    3    3  502    0  0.80959700333E+03  0.19248323167E+03  0.64319672942E+03  0.10517600178E+04  0.50400001928E-02 0.  1.
       -1    1    3    3    0  502 -0.80959700333E+03 -0.19248323167E+03 -0.94925076148E+03  0.12623684527E+04  0.50400001928E-02 0. -1.
</event>
<event>
 5   0  0.1697855E-05  0.2301139E+04  0.7818609E-02  0.8477472E-01
       -2   -1    0    0    0  501  0.00000000000E+00  0.00000000000E+00  0.72789450676E+03  0.72789450677E+03  0.25500000920E-02 0. -1.
        2   -1    0    0  501    0  0.00000000000E+00  0.00000000000E+00 -0.18186836135E+04  0.18186836135E+04  0.25500000920E-02 0.  1.
    10030    2    1    2    0    0  0.00000000000E+00  0.00000000000E+00 -0.10907891067E+04  0.25465781203E+04  0.23011386849E+04 0.  0.
        5    1    3    3  502    0 -0.57454831485E+03  0.19953266367E+03 -0.16262273206E+04  0.17362478044E+04  0.46999998093E+01 0.  1.
       -5    1    3    3    0  502  0.57454831485E+03 -0.19953266367E+03  0.53543821387E+03  0.81033031588E+03  0.46999998093E+01 0. -1.
</event>
<event>
 5   0  0.1697855E-05  0.2284830E+04  0.7818609E-02  0.8483927E-01
       -2   -1    0    0    0  501  0.00000000000E+00  0.00000000000E+00  0.84838385831E+03  0.84838385831E+03  0.25500000920E-02 0.  1.
        2   -1    0    0  501    0  0.00000000000E+00  0.00000000000E+00 -0.15383506133E+04  0.15383506133E+04  0.25500000920E-02 0. -1.
    10030    2    1    2    0    0  0.00000000000E+00  0.00000000000E+00 -0.68996675503E+03  0.23867344716E+04  0.22848298219E+04 0.  0.
        5    1    3    3  502    0  0.60102246611E+03  0.27851425456E+03  0.62727632246E+03  0.91230250985E+03  0.46999998093E+01 0.  1.
       -5    1    3    3    0  502 -0.60102246611E+03 -0.27851425456E+03 -0.13172430775E+04  0.14744319618E+04  0.46999998093E+01 0. -1.
</event>
<event>
 5   0  0.1626636E-05  0.2297017E+04  0.7818609E-02  0.8479098E-01
       -2   -1    0    0    0  501  0.00000000000E+00  0.00000000000E+00  0.14856735622E+04  0.14856735622E+04  0.25500000920E-02 0.  1.
        2   -1    0    0  501    0  0.00000000000E+00  0.00000000000E+00 -0.88786092432E+03  0.88786092432E+03  0.25500000920E-02 0. -1.
    10030    2    1    2    0    0  0.00000000000E+00  0.00000000000E+00  0.59781263785E+03  0.23735344865E+04  0.22970167628E+04 0.  0.
        4    1    3    3  502    0  0.14189393399E+02  0.28999294180E+03 -0.84931308377E+03  0.89756981474E+03  0.12699999809E+01 0. -1.
       -4    1    3    3    0  502 -0.14189393399E+02 -0.28999294180E+03  0.14471257216E+04  0.14759646718E+04  0.12699999809E+01 0.  1.
</event>
<event>
 5   0  0.7278815E-06  0.2278700E+04  0.7818609E-02  0.8486367E-01
       -1   -1    0    0    0  501  0.00000000000E+00  0.00000000000E+00  0.12239755219E+04  0.12239755219E+04  0.50400001928E-02 0. -1.
        1   -1    0    0  501    0  0.00000000000E+00  0.00000000000E+00 -0.10605751623E+04  0.10605751623E+04  0.50400001928E-02 0.  1.
    10030    2    1    2    0    0  0.00000000000E+00  0.00000000000E+00  0.16340035958E+03  0.22845506842E+04  0.22786996624E+04 0.  0.
        5    1    3    3  502    0 -0.80207011079E+02  0.40752499896E+03 -0.98196044247E+03  0.10661980069E+04  0.46999998093E+01 0.  1.
       -5    1    3    3    0  502  0.80207011079E+02 -0.40752499896E+03  0.11453608021E+04  0.12183526773E+04  0.46999998093E+01 0. -1.
</event>
<event>
 5   0  0.1635955E-05  0.2304600E+04  0.7818609E-02  0.8476110E-01
        2   -1    0    0  501    0  0.00000000000E+00  0.00000000000E+00  0.25041257838E+04  0.25041257839E+04  0.25500000920E-02 0.  1.
       -2   -1    0    0    0  501  0.00000000000E+00  0.00000000000E+00 -0.53024309657E+03  0.53024309658E+03  0.25500000920E-02 0. -1.
    10030    2    1    2    0    0  0.00000000000E+00  0.00000000000E+00  0.19738826873E+04  0.30343688804E+04  0.23046001040E+04 0.  0.
        2    1    3    3  502    0  0.11151202842E+04 -0.27317390197E+03  0.11164711354E+04  0.16014446681E+04  0.25500000920E-02 0.  1.
       -2    1    3    3    0  502 -0.11151202842E+04  0.27317390197E+03  0.85741155185E+03  0.14329242123E+04  0.25500000920E-02 0. -1.
</event>
<event>
 5   0  0.7202572E-06  0.2300906E+04  0.7818609E-02  0.8477564E-01
        1   -1    0    0  501    0  0.00000000000E+00  0.00000000000E+00  0.16753171905E+04  0.16753171905E+04  0.50400001928E-02 0.  1.
       -1   -1    0    0    0  501  0.00000000000E+00  0.00000000000E+00 -0.79002449574E+03  0.79002449576E+03  0.50400001928E-02 0. -1.
    10030    2    1    2    0    0  0.00000000000E+00  0.00000000000E+00  0.88529269478E+03  0.24653416863E+04  0.23009055771E+04 0.  0.
        2    1    3    3  502    0 -0.34842132262E+03 -0.77566984614E+03 -0.38763976402E+03  0.93451897515E+03  0.25500000920E-02 0. -1.
       -2    1    3    3    0  502  0.34842132262E+03  0.77566984614E+03  0.12729324588E+04  0.15308227111E+04  0.25500000920E-02 0.  1.
</event>
<event>
 5   0  0.1635955E-05  0.2302941E+04  0.7818609E-02  0.8476763E-01
       -2   -1    0    0    0  501  0.00000000000E+00  0.00000000000E+00  0.17911283938E+04  0.17911283938E+04  0.25500000920E-02 0. -1.
        2   -1    0    0  501    0  0.00000000000E+00  0.00000000000E+00 -0.74025058633E+03  0.74025058633E+03  0.25500000920E-02 0.  1.
    10030    2    1    2    0    0  0.00000000000E+00  0.00000000000E+00  0.10508778075E+04  0.25313789801E+04  0.23029405930E+04 0.  0.
        2    1    3    3  502    0 -0.55322691688E+03  0.17979246493E+03  0.16177407181E+04  0.17191481562E+04  0.25500000920E-02 0. -1.
       -2    1    3    3    0  502  0.55322691688E+03 -0.17979246493E+03 -0.56686291058E+03  0.81223082397E+03  0.25500000920E-02 0.  1.
</event>
<event>
 5   0  0.7278815E-06  0.2319714E+04  0.7818609E-02  0.8470188E-01
        1   -1    0    0  501    0  0.00000000000E+00  0.00000000000E+00  0.91020940264E+03  0.91020940266E+03  0.50400001928E-02 0.  1.
       -1   -1    0    0    0  501  0.00000000000E+00  0.00000000000E+00 -0.14779766793E+04  0.14779766794E+04  0.50400001928E-02 0. -1.
    10030    2    1    2    0    0  0.00000000000E+00  0.00000000000E+00 -0.56776727670E+03  0.23881860820E+04  0.23197140086E+04 0.  0.
        5    1    3    3  502    0 -0.10058938806E+04 -0.57265154024E+03 -0.36019230927E+03  0.12122346618E+04  0.46999998093E+01 0.  1.
       -5    1    3    3    0  502  0.10058938806E+04  0.57265154024E+03 -0.20757496743E+03  0.11759514202E+04  0.46999998093E+01 0. -1.
</event>
<event>
 5   0  0.1626636E-05  0.2314105E+04  0.7818609E-02  0.8472380E-01
        2   -1    0    0  501    0  0.00000000000E+00  0.00000000000E+00  0.27929402019E+04  0.27929402019E+04  0.25500000920E-02 0. -1.
       -2   -1    0    0    0  501  0.00000000000E+00  0.00000000000E+00 -0.47934107100E+03  0.47934107100E+03  0.25500000920E-02 0.  1.
    10030    2    1    2    0    0  0.00000000000E+00  0.00000000000E+00  0.23135991310E+04  0.32722812730E+04  0.23141053975E+04 0.  0.
        4    1    3    3  502    0 -0.90585691449E+03 -0.18740240698E+03  0.17397989662E+03  0.94125821590E+03  0.12699999809E+01 0.  1.
       -4    1    3    3    0  502  0.90585691449E+03  0.18740240698E+03  0.21396192343E+04  0.23310230571E+04  0.12699999809E+01 0. -1.
</event>
<event>
 5   0  0.7391007E-06  0.2302429E+04  0.7818609E-02  0.8476964E-01
       -1   -1    0    0    0  501  0.00000000000E+00  0.00000000000E+00  0.84706383588E+03  0.84706383590E+03  0.50400001928E-02 0.  1.
        1   -1    0    0  501    0  0.00000000000E+00  0.00000000000E+00 -0.15645744480E+04  0.15645744480E+04  0.50400001928E-02 0. -1.
    10030    2    1    2    0    0  0.00000000000E+00  0.00000000000E+00 -0.71751061215E+03  0.24116382839E+04  0.23024286599E+04 0.  0.
        1    1    3    3  502    0  0.98053469670E+03 -0.40229113850E+03  0.11201629008E+03  0.10657551787E+04  0.50400001928E-02 0. -1.
       -1    1    3    3    0  502 -0.98053469670E+03  0.40229113850E+03 -0.82952690223E+03  0.13458831053E+04  0.50400001928E-02 0.  1.
</event>
<event>
 5   0  0.7278815E-06  0.2290151E+04  0.7818609E-02  0.8481815E-01
       -1   -1    0    0    0  501  0.00000000000E+00  0.00000000000E+00  0.14160652951E+04  0.14160652951E+04  0.50400001928E-02 0.  1.
        1   -1    0    0  501    0  0.00000000000E+00  0.00000000000E+00 -0.92594465572E+03  0.92594465573E+03  0.50400001928E-02 0. -1.
    10030    2    1    2    0    0  0.00000000000E+00  0.00000000000E+00  0.49012063937E+03  0.23420099508E+04  0.22901511672E+04 0.  0.
        5    1    3    3  502    0 -0.74726012182E+03  0.80670212080E+03  0.57168271656E+03  0.12393583904E+04  0.46999998093E+01 0.  1.
       -5    1    3    3    0  502  0.74726012182E+03 -0.80670212080E+03 -0.81562077190E+02  0.11026515605E+04  0.46999998093E+01 0. -1.
</event>
<event>
 5   0  0.7391007E-06  0.2310461E+04  0.7818609E-02  0.8473808E-01
       -1   -1    0    0    0  501  0.00000000000E+00  0.00000000000E+00  0.10448742222E+04  0.10448742222E+04  0.50400001928E-02 0. -1.
        1   -1    0    0  501    0  0.00000000000E+00  0.00000000000E+00 -0.12772422033E+04  0.12772422034E+04  0.50400001928E-02 0.  1.
    10030    2    1    2    0    0  0.00000000000E+00  0.00000000000E+00 -0.23236798113E+03  0.23221164256E+04  0.23104609530E+04 0.  0.
        1    1    3    3  502    0 -0.92055985956E+03 -0.22322521517E+03 -0.78080467826E+03  0.12275650277E+04  0.50400001928E-02 0.  1.
       -1    1    3    3    0  502  0.92055985956E+03  0.22322521517E+03  0.54843669713E+03  0.10945513978E+04  0.50400001928E-02 0. -1.
</event>
<event>
 5   0  0.1635955E-05  0.2301675E+04  0.7818609E-02  0.8477261E-01
        2   -1    0    0  501    0  0.00000000000E+00  0.00000000000E+00  0.18831543387E+04  0.18831543387E+04  0.25500000920E-02 0. -1.
       -2   -1    0    0    0  501  0.00000000000E+00  0.00000000000E+00 -0.70330226614E+03  0.70330226614E+03  0.25500000920E-02 0.  1.
    10030    2    1    2    0    0  0.00000000000E+00  0.00000000000E+00  0.11798520726E+04  0.25864566049E+04  0.23016747936E+04 0.  0.
        2    1    3    3  502    0 -0.10965787236E+04  0.22177898071E+03  0.89303260288E+03  0.14314950378E+04  0.25500000920E-02 0.  1.
       -2    1    3    3    0  502  0.10965787236E+04 -0.22177898071E+03  0.28681946969E+03  0.11549615671E+04  0.25500000920E-02 0. -1.
</event>
<event>
 5   0  0.1602809E-05  0.2444822E+04  0.7818609E-02  0.8422911E-01
       -2   -1    0    0    0  501  0.00000000000E+00  0.00000000000E+00  0.14645890804E+04  0.14645890804E+04  0.25500000920E-02 0. -1.
        2   -1    0    0  501    0  0.00000000000E+00  0.00000000000E+00 -0.10202785795E+04  0.10202785795E+04  0.25500000920E-02 0.  1.
    10030    2    1    2    0    0  0.00000000000E+00  0.00000000000E+00  0.44431050085E+03  0.24848676599E+04  0.24448221747E+04 0.  0.
        3    1    3    3  502    0 -0.93997764608E+03 -0.86108787361E+02  0.10116122255E+04  0.13835938722E+04  0.10100000352E+00 0. -1.
       -3    1    3    3    0  502  0.93997764608E+03  0.86108787361E+02 -0.56730172461E+03  0.11012737876E+04  0.10100000352E+00 0.  1.
</event>
<event>
 5   0  0.7278815E-06  0.2298584E+04  0.7818609E-02  0.8478480E-01
       -1   -1    0    0    0  501  0.00000000000E+00  0.00000000000E+00  0.15758136035E+04  0.15758136035E+04  0.50400001928E-02 0.  1.
        1   -1    0    0  501    0  0.00000000000E+00  0.00000000000E+00 -0.83821609218E+03  0.83821609220E+03  0.50400001928E-02 0. -1.
    10030    2    1    2    0    0  0.00000000000E+00  0.00000000000E+00  0.73759751135E+03  0.24140296957E+04  0.22985841910E+04 0.  0.
        5    1    3    3  502    0  0.50514241738E+03 -0.40838061054E+03  0.13645239326E+04  0.15112548553E+04  0.46999998093E+01 0.  1.
       -5    1    3    3    0  502 -0.50514241738E+03  0.40838061054E+03 -0.62692642127E+03  0.90277484047E+03  0.46999998093E+01 0. -1.
</event>
<event>
 5   0  0.1697855E-05  0.2299758E+04  0.7818609E-02  0.8478017E-01
        2   -1    0    0  501    0  0.00000000000E+00  0.00000000000E+00  0.11935040485E+04  0.11935040485E+04  0.25500000920E-02 0.  1.
       -2   -1    0    0    0  501  0.00000000000E+00  0.00000000000E+00 -0.11078481214E+04  0.11078481214E+04  0.25500000920E-02 0. -1.
    10030    2    1    2    0    0  0.00000000000E+00  0.00000000000E+00  0.85655927164E+02  0.23013521699E+04  0.22997575681E+04 0.  0.
        5    1    3    3  502    0 -0.71614867203E+03  0.52485880930E+03 -0.68833140292E+03  0.11234624606E+04  0.46999998093E+01 0. -1.
       -5    1    3    3    0  502  0.71614867203E+03 -0.52485880930E+03  0.77398733009E+03  0.11778897093E+04  0.46999998093E+01 0.  1.
</event>
<event>
 5   0  0.1697855E-05  0.2291995E+04  0.7818609E-02  0.8481084E-01
        2   -1    0    0  501    0  0.00000000000E+00  0.00000000000E+00  0.19020303685E+04  0.19020303685E+04  0.25500000920E-02 0.  1.
       -2   -1    0    0    0  501  0.00000000000E+00  0.00000000000E+00 -0.69047797214E+03  0.69047797215E+03  0.25500000920E-02 0. -1.
    10030    2    1    2    0    0  0.00000000000E+00  0.00000000000E+00  0.12115523964E+04  0.25925083407E+04  0.22919948271E+04 0.  0.
        5    1    3    3  502    0 -0.33219754574E+03  0.24326160367E+03 -0.60391168072E+03  0.73093284598E+03  0.46999998093E+01 0. -1.
       -5    1    3    3    0  502  0.33219754574E+03 -0.24326160367E+03  0.18154640771E+04  0.18615754947E+04  0.46999998093E+01 0.  1.
</event>
<event>
 5   0  0.1697855E-05  0.2235316E+04  0.7818609E-02  0.8503871E-01
        2   -1    0    0  501    0  0.00000000000E+00  0.00000000000E+00  0.11117782923E+04  0.11117782923E+04  0.25500000920E-02 0.  1.
       -2   -1    0    0    0  501  0.00000000000E+00  0.00000000000E+00 -0.11235684435E+04  0.11235684435E+04  0.25500000920E-02 0. -1.
    10030    2    1    2    0    0  0.00000000000E+00  0.00000000000E+00 -0.11790151163E+02  0.22353467358E+04  0.22353156425E+04 0.  0.
        5    1    3    3  502    0 -0.10687160950E+04 -0.31564065447E+03  0.79860423722E+02  0.11172210576E+04  0.46999998093E+01 0.  1.
       -5    1    3    3    0  502  0.10687160950E+04  0.31564065447E+03 -0.91650574885E+02  0.11181256782E+04  0.46999998093E+01 0. -1.
</event>
<event>
 5   0  0.7391007E-06  0.2277863E+04  0.7818609E-02  0.8486701E-01
       -1   -1    0    0    0  501  0.00000000000E+00  0.00000000000E+00  0.99531774409E+03  0.99531774411E+03  0.50400001928E-02 0. -1.
        1   -1    0    0  501    0  0.00000000000E+00  0.00000000000E+00 -0.13032675391E+04  0.13032675391E+04  0.50400001928E-02 0.  1.
    10030    2    1    2    0    0  0.00000000000E+00  0.00000000000E+00 -0.30794979502E+03  0.22985852832E+04  0.22778633032E+04 0.  0.
        1    1    3    3  502    0 -0.84977527501E+03 -0.43297935507E+03 -0.78219451699E+03  0.12334574992E+04  0.50400001928E-02 0.  1.
       -1    1    3    3    0  502  0.84977527501E+03  0.43297935507E+03  0.47424472197E+03  0.10651277840E+04  0.50400001928E-02 0. -1.
</event>
<event>
 5   0  0.1626636E-05  0.2243023E+04  0.7818609E-02  0.8500731E-01
        2   -1    0    0  501    0  0.00000000000E+00  0.00000000000E+00  0.10765596736E+04  0.10765596736E+04  0.25500000920E-02 0.  1.
       -2   -1    0    0    0  501  0.00000000000E+00  0.00000000000E+00 -0.11683403287E+04  0.11683403287E+04  0.25500000920E-02 0. -1.
    10030    2    1    2    0    0  0.00000000000E+00  0.00000000000E+00 -0.91780655122E+02  0.22449000023E+04  0.22430230342E+04 0.  0.
        4    1    3    3  502    0 -0.63275059793E+02 -0.16682221600E+03 -0.11540445162E+04  0.11677558577E+04  0.12699999809E+01 0. -1.
       -4    1    3    3    0  502  0.63275059793E+02  0.16682221600E+03  0.10622638611E+04  0.10771441447E+04  0.12699999809E+01 0.  1.
</event>
<event>
 5   0  0.7391007E-06  0.2303979E+04  0.7818609E-02  0.8476354E-01
       -1   -1    0    0    0  501  0.00000000000E+00  0.00000000000E+00  0.10954908449E+04  0.10954908449E+04  0.50400001928E-02 0.  1.
        1   -1    0    0  501    0  0.00000000000E+00  0.00000000000E+00 -0.12114022536E+04  0.12114022536E+04  0.50400001928E-02 0. -1.
    10030    2    1    2    0    0  0.00000000000E+00  0.00000000000E+00 -0.11591140864E+03  0.23068930985E+04  0.23039792346E+04 0.  0.
        1    1    3    3  502    0  0.84913437719E+03  0.60071413920E+03 -0.55375203318E+03  0.11783581721E+04  0.50400001928E-02 0. -1.
       -1    1    3    3    0  502 -0.84913437719E+03 -0.60071413920E+03  0.43784062454E+03  0.11285349264E+04  0.50400001928E-02 0.  1.
</event>
<event>
 5   0  0.7183014E-06  0.2296882E+04  0.7818609E-02  0.8479151E-01
       -1   -1    0    0    0  501  0.00000000000E+00  0.00000000000E+00  0.65411019478E+03  0.65411019480E+03  0.50400001928E-02 0.  1.
        1   -1    0    0  501    0  0.00000000000E+00  0.00000000000E+00 -0.20163532108E+04  0.20163532108E+04  0.50400001928E-02 0. -1.
    10030    2    1    2    0    0  0.00000000000E+00  0.00000000000E+00 -0.13622430160E+04  0.26704634056E+04  0.22968824014E+04 0.  0.
        3    1    3    3  502    0  0.33799707408E+03  0.52015163584E+02  0.59353923145E+03  0.68500834213E+03  0.10100000352E+00 0.  1.
       -3    1    3    3    0  502 -0.33799707408E+03 -0.52015163584E+02 -0.19557822474E+04  0.19854550634E+04  0.10100000352E+00 0. -1.
</event>
<event>
 5   0  0.7202572E-06  0.2302372E+04  0.7818609E-02  0.8476986E-01
        1   -1    0    0  501    0  0.00000000000E+00  0.00000000000E+00  0.12665260734E+04  0.12665260734E+04  0.50400001928E-02 0. -1.
       -1   -1    0    0    0  501  0.00000000000E+00  0.00000000000E+00 -0.10463497495E+04  0.10463497495E+04  0.50400001928E-02 0.  1.
    10030    2    1    2    0    0  0.00000000000E+00  0.00000000000E+00  0.22017632396E+03  0.23128758229E+04  0.23023720287E+04 0.  0.
        2    1    3    3  502    0  0.87091872031E+03 -0.48000827608E+03 -0.47249023350E+03  0.11009788296E+04  0.25500000920E-02 0.  1.
       -2    1    3    3    0  502 -0.87091872031E+03  0.48000827608E+03  0.69266655746E+03  0.12118969933E+04  0.25500000920E-02 0. -1.
</event>
<event>
 5   0  0.1626636E-05  0.2289102E+04  0.7818609E-02  0.8482231E-01
       -2   -1    0    0    0  501  0.00000000000E+00  0.00000000000E+00  0.16128465653E+04  0.16128465653E+04  0.25500000920E-02 0.  1.
        2   -1    0    0  501    0  0.00000000000E+00  0.00000000000E+00 -0.81222656617E+03  0.81222656617E+03  0.25500000920E-02 0. -1.
    10030    2    1    2    0    0  0.00000000000E+00  0.00000000000E+00  0.80061999918E+03  0.24250731315E+04  0.22891018567E+04 0.  0.
        4    1    3    3  502    0 -0.55752848498E+02  0.87436752387E+03  0.11805116389E+04  0.14701143797E+04  0.12699999809E+01 0.  1.
       -4    1    3    3    0  502  0.55752848498E+02 -0.87436752387E+03 -0.37989163969E+03  0.95495875184E+03  0.12699999809E+01 0. -1.
</event>
<event>
 5   0  0.7416556E-06  0.2301904E+04  0.7818609E-02  0.8477171E-01
        1   -1    0    0  501    0  0.00000000000E+00  0.00000000000E+00  0.14259826252E+04  0.14259826252E+04  0.50400001928E-02 0. -1.
       -1   -1    0    0    0  501  0.00000000000E+00  0.00000000000E+00 -0.92896688092E+03  0.92896688094E+03  0.50400001928E-02 0.  1.
    10030    2    1    2    0    0  0.00000000000E+00  0.00000000000E+00  0.49701574430E+03  0.23549495062E+04  0.23019041089E+04 0.  0.
        4    1    3    3  502    0  0.67829540844E+02  0.75653127269E+03  0.11331592889E+04  0.13641818061E+04  0.12699999809E+01 0.  1.
       -4    1    3    3    0  502 -0.67829540844E+02 -0.75653127269E+03 -0.63614354464E+03  0.99076770004E+03  0.12699999809E+01 0. -1.
</event>
<event>
 5   0  0.7183014E-06  0.2297891E+04  0.7818609E-02  0.8478753E-01
        1   -1    0    0  501    0  0.00000000000E+00  0.00000000000E+00  0.11412572286E+04  0.11412572287E+04  0.50400001928E-02 0.  1.
       -1   -1    0    0    0  501  0.00000000000E+00  0.00000000000E+00 -0.11566851365E+04  0.11566851365E+04  0.50400001928E-02 0. -1.
    10030    2    1    2    0    0  0.00000000000E+00  0.00000000000E+00 -0.15427907819E+02  0.22979423651E+04  0.22978905747E+04 0.  0.
        3    1    3    3  502    0  0.42252984181E+03  0.16486975138E+03 -0.10633710919E+04  0.11560586454E+04  0.10100000352E+00 0. -1.
       -3    1    3    3    0  502 -0.42252984181E+03 -0.16486975138E+03  0.10479431841E+04  0.11418837198E+04  0.10100000352E+00 0.  1.
</event>
<event>
 5   0  0.1588969E-05  0.2304023E+04  0.7818609E-02  0.8476337E-01
        2   -1    0    0  501    0  0.00000000000E+00  0.00000000000E+00  0.13139215141E+04  0.13139215141E+04  0.25500000920E-02 0.  1.
       -2   -1    0    0    0  501  0.00000000000E+00  0.00000000000E+00 -0.10100532399E+04  0.10100532399E+04  0.25500000920E-02 0. -1.
    10030    2    1    2    0    0  0.00000000000E+00  0.00000000000E+00  0.30386827426E+03  0.23239747540E+04  0.23040231616E+04 0.  0.
        1    1    3    3  502    0  0.73274564488E+03  0.41225659620E+03  0.94631926147E+03  0.12658561632E+04  0.50400001928E-02 0.  1.
       -1    1    3    3    0  502 -0.73274564488E+03 -0.41225659620E+03 -0.64245098721E+03  0.10581185908E+04  0.50400001928E-02 0. -1.
</event>
<event>
 5   0  0.1697855E-05  0.2300229E+04  0.7818609E-02  0.8477831E-01
       -2   -1    0    0    0  501  0.00000000000E+00  0.00000000000E+00  0.19383581296E+04  0.19383581296E+04  0.25500000920E-02 0. -1.
        2   -1    0    0  501    0  0.00000000000E+00  0.00000000000E+00 -0.68241426442E+03  0.68241426442E+03  0.25500000920E-02 0.  1.
    10030    2    1    2    0    0  0.00000000000E+00  0.00000000000E+00  0.12559438652E+04  0.26207723941E+04  0.23002288906E+04 0.  0.
        5    1    3    3  502    0 -0.20523503724E+03  0.11147078065E+04  0.85020776422E+03  0.14168875208E+04  0.46999998093E+01 0. -1.
       -5    1    3    3    0  502  0.20523503724E+03 -0.11147078065E+04  0.40573610100E+03  0.12038848732E+04  0.46999998093E+01 0.  1.
</event>
<event>
 5   0  0.7416556E-06  0.2291661E+04  0.7818609E-02  0.8481216E-01
       -1   -1    0    0    0  501  0.00000000000E+00  0.00000000000E+00  0.65885129757E+03  0.65885129759E+03  0.50400001928E-02 0.  1.
        1   -1    0    0  501    0  0.00000000000E+00  0.00000000000E+00 -0.19927531017E+04  0.19927531017E+04  0.50400001928E-02 0. -1.
    10030    2    1    2    0    0  0.00000000000E+00  0.00000000000E+00 -0.13339018041E+04  0.26516043993E+04  0.22916613771E+04 0.  0.
        4    1    3    3  502    0  0.54832098986E+03 -0.94636764038E+03 -0.10621508852E+04  0.15246093711E+04  0.12699999809E+01 0. -1.
       -4    1    3    3    0  502 -0.54832098986E+03  0.94636764038E+03 -0.27175091893E+03  0.11269950282E+04  0.12699999809E+01 0.  1.
</event>
<event>
 5   0  0.1626636E-05  0.2292988E+04  0.7818609E-02  0.8480691E-01
        2   -1    0    0  501    0  0.00000000000E+00  0.00000000000E+00  0.22951590446E+04  0.22951590446E+04  0.25500000920E-02 0. -1.
       -2   -1    0    0    0  501  0.00000000000E+00  0.00000000000E+00 -0.57270484495E+03  0.57270484496E+03  0.25500000920E-02 0.  1.
    10030    2    1    2    0    0  0.00000000000E+00  0.00000000000E+00  0.17224541997E+04  0.28678638896E+04  0.22929881856E+04 0.  0.
        4    1    3    3  502    0  0.11218306466E+04  0.15279052804E+03  0.63541189853E+03  0.12983061422E+04  0.12699999809E+01 0. -1.
       -4    1    3    3    0  502 -0.11218306466E+04 -0.15279052804E+03  0.10870423011E+04  0.15695577474E+04  0.12699999809E+01 0.  1.
</event>
<event>
 5   0  0.1635955E-05  0.2350804E+04  0.7818609E-02  0.8458155E-01
       -2   -1    0    0    0  501  0.00000000000E+00  0.00000000000E+00  0.10192574592E+04  0.10192574592E+04  0.25500000920E-02 0. -1.
        2   -1    0    0  501    0  0.00000000000E+00  0.00000000000E+00 -0.13554668427E+04  0.13554668427E+04  0.25500000920E-02 0.  1.
    10030    2    1    2    0    0  0.00000000000E+00  0.00000000000E+00 -0.33620938352E+03  0.23747243019E+04  0.23508038541E+04 0.  0.
        2    1    3    3  502    0  0.81717414819E+03  0.70202380660E+03 -0.64295019836E+03  0.12545899613E+04  0.25500000920E-02 0.  1.
       -2    1    3    3    0  502 -0.81717414819E+03 -0.70202380660E+03  0.30674081484E+03  0.11201343406E+04  0.25500000920E-02 0. -1.
</event>
<event>
 5   0  0.7391007E-06  0.2297880E+04  0.7818609E-02  0.8478757E-01
        1   -1    0    0  501    0  0.00000000000E+00  0.00000000000E+00  0.15627594467E+04  0.15627594467E+04  0.50400001928E-02 0.  1.
       -1   -1    0    0    0  501  0.00000000000E+00  0.00000000000E+00 -0.84470046240E+03  0.84470046242E+03  0.50400001928E-02 0. -1.
    10030    2    1    2    0    0  0.00000000000E+00  0.00000000000E+00  0.71805898429E+03  0.24074599091E+04  0.22978804384E+04 0.  0.
        1    1    3    3  502    0  0.54684449852E+03 -0.10035069211E+04  0.48298722980E+03  0.12407021039E+04  0.50400001928E-02 0.  1.
       -1    1    3    3    0  502 -0.54684449852E+03  0.10035069211E+04  0.23507175449E+03  0.11667578053E+04  0.50400001928E-02 0. -1.
</event>
<event>
 5   0  0.1635955E-05  0.2270017E+04  0.7818609E-02  0.8489838E-01
        2   -1    0    0  501    0  0.00000000000E+00  0.00000000000E+00  0.16773151090E+04  0.16773151090E+04  0.25500000920E-02 0. -1.
       -2   -1    0    0    0  501  0.00000000000E+00  0.00000000000E+00 -0.76803950581E+03  0.76803950581E+03  0.25500000920E-02 0.  1.
    10030    2    1    2    0    0  0.00000000000E+00  0.00000000000E+00  0.90927560315E+03  0.24453546148E+04  0.22700169756E+04 0.  0.
        2    1    3    3  502    0 -0.10450650086E+03 -0.11272389410E+04  0.36675827663E+03  0.11900003666E+04  0.25500000920E-02 0.  1.
       -2    1    3    3    0  502  0.10450650086E+03  0.11272389410E+04  0.54251732652E+03  0.12553542482E+04  0.25500000920E-02 0. -1.
</event>
<event>
 5   0  0.7202572E-06  0.2302338E+04  0.7818609E-02  0.8477000E-01
       -1   -1    0    0    0  501  0.00000000000E+00  0.00000000000E+00  0.77023662880E+03  0.77023662881E+03  0.50400001928E-02 0. -1.
        1   -1    0    0  501    0  0.00000000000E+00  0.00000000000E+00 -0.17204980490E+04  0.17204980490E+04  0.50400001928E-02 0.  1.
    10030    2    1    2    0    0  0.00000000000E+00  0.00000000000E+00 -0.95026142021E+03  0.24907346778E+04  0.23023384783E+04 0.  0.
        2    1    3    3  502    0  0.68013560674E+03 -0.32534231370E+03  0.46597187091E+03  0.88631927042E+03  0.25500000920E-02 0. -1.
       -2    1    3    3    0  502 -0.68013560674E+03  0.32534231370E+03 -0.14162332911E+04  0.16044154074E+04  0.25500000920E-02 0.  1.
</event>
<event>
 5   0  0.7416556E-06  0.2331045E+04  0.7818609E-02  0.8465780E-01
       -1   -1    0    0    0  501  0.00000000000E+00  0.00000000000E+00  0.16143664185E+04  0.16143664185E+04  0.50400001928E-02 0. -1.
        1   -1    0    0  501    0  0.00000000000E+00  0.00000000000E+00 -0.84147095937E+03  0.84147095939E+03  0.50400001928E-02 0.  1.
    10030    2    1    2    0    0  0.00000000000E+00  0.00000000000E+00  0.77289545916E+03  0.24558373779E+04  0.23310447949E+04 0.  0.
        4    1    3    3  502    0 -0.61410468184E+03  0.73066402061E+02 -0.65435616316E+03  0.90035929525E+03  0.12699999809E+01 0.  1.
       -4    1    3    3    0  502  0.61410468184E+03 -0.73066402061E+02  0.14272516223E+04  0.15554780827E+04  0.12699999809E+01 0. -1.
</event>
<event>
 5   0  0.1588969E-05  0.2275974E+04  0.7818609E-02  0.8487455E-01
        2   -1    0    0  501    0  0.00000000000E+00  0.00000000000E+00  0.51667610499E+03  0.51667610499E+03  0.25500000920E-02 0. -1.
       -2   -1    0    0    0  501  0.00000000000E+00  0.00000000000E+00 -0.25064343780E+04  0.25064343780E+04  0.25500000920E-02 0.  1.
    10030    2    1    2    0    0  0.00000000000E+00  0.00000000000E+00 -0.19897582730E+04  0.30231104830E+04  0.22759742985E+04 0.  0.
        1    1    3    3  502    0  0.91822555525E+03  0.18227774742E+03 -0.18543139501E+04  0.20772201552E+04  0.50400001928E-02 0.  1.
       -1    1    3    3    0  502 -0.91822555525E+03 -0.18227774742E+03 -0.13544432285E+03  0.94589032776E+03  0.50400001928E-02 0. -1.
</event>
<event>
 5   0  0.1635955E-05  0.2306804E+04  0.7818609E-02  0.8475243E-01
       -2   -1    0    0    0  501  0.00000000000E+00  0.00000000000E+00  0.11148612874E+04  0.11148612874E+04  0.25500000920E-02 0. -1.
        2   -1    0    0  501    0  0.00000000000E+00  0.00000000000E+00 -0.11932753390E+04  0.11932753390E+04  0.25500000920E-02 0.  1.
    10030    2    1    2    0    0  0.00000000000E+00  0.00000000000E+00 -0.78414051613E+02  0.23081366265E+04  0.23068042663E+04 0.  0.
        2    1    3    3  502    0  0.61658655394E+03 -0.86640881994E+03  0.40769763009E+03  0.11388856744E+04  0.25500000920E-02 0. -1.
       -2    1    3    3    0  502 -0.61658655394E+03  0.86640881994E+03 -0.48611168171E+03  0.11692509521E+04  0.25500000920E-02 0.  1.
</event>
<event>
 5   0  0.7391007E-06  0.2293593E+04  0.7818609E-02  0.8480451E-01
        1   -1    0    0  501    0  0.00000000000E+00  0.00000000000E+00  0.88161941038E+03  0.88161941040E+03  0.50400001928E-02 0. -1.
       -1   -1    0    0    0  501  0.00000000000E+00  0.00000000000E+00 -0.14917351105E+04  0.14917351105E+04  0.50400001928E-02 0.  1.
    10030    2    1    2    0    0  0.00000000000E+00  0.00000000000E+00 -0.61011570010E+03  0.23733545209E+04  0.22935933629E+04 0.  0.
        1    1    3    3  502    0 -0.11285728184E+04  0.16782463403E+03 -0.42439809988E+03  0.12173559304E+04  0.50400001928E-02 0. -1.
       -1    1    3    3    0  502  0.11285728184E+04 -0.16782463403E+03 -0.18571760022E+03  0.11559985905E+04  0.50400001928E-02 0.  1.
</event>
<event>
 5   0  0.7202572E-06  0.2291376E+04  0.7818609E-02  0.8481329E-01
        1   -1    0    0  501    0  0.00000000000E+00  0.00000000000E+00  0.12164207989E+04  0.12164207989E+04  0.50400001928E-02 0.  1.
       -1   -1    0    0    0  501  0.00000000000E+00  0.00000000000E+00 -0.10790684331E+04  0.10790684331E+04  0.50400001928E-02 0. -1.
    10030    2    1    2    0    0  0.00000000000E+00  0.00000000000E+00  0.13735236573E+03  0.22954892320E+04  0.22913762550E+04 0.  0.
        2    1    3    3  502    0 -0.13604376093E+03  0.10367724810E+04 -0.40034814001E+03  0.11196801845E+04  0.25500000920E-02 0.  1.
       -2    1    3    3    0  502  0.13604376093E+03 -0.10367724810E+04  0.53770050574E+03  0.11758090475E+04  0.25500000920E-02 0. -1.
</event>
<event>
 5   0  0.1588969E-05  0.2297775E+04  0.7818609E-02  0.8478799E-01
       -2   -1    0    0    0  501  0.00000000000E+00  0.00000000000E+00  0.10688258931E+04  0.10688258931E+04  0.25500000920E-02 0. -1.
        2   -1    0    0  501    0  0.00000000000E+00  0.00000000000E+00 -0.12349461550E+04  0.12349461550E+04  0.25500000920E-02 0.  1.
    10030    2    1    2    0    0  0.00000000000E+00  0.00000000000E+00 -0.16612026188E+03  0.23037720482E+04  0.22977749473E+04 0.  0.
        1    1    3    3  502    0 -0.36019460180E+03 -0.16439299425E+03  0.99826166898E+03  0.10739141341E+04  0.50400001928E-02 0. -1.
       -1    1    3    3    0  502  0.36019460180E+03  0.16439299425E+03 -0.11643819309E+04  0.12298579140E+04  0.50400001928E-02 0.  1.
</event>
<event>
 5   0  0.7202572E-06  0.2271106E+04  0.7818609E-02  0.8489402E-01
        1   -1    0    0  501    0  0.00000000000E+00  0.00000000000E+00  0.19676188361E+04  0.19676188361E+04  0.50400001928E-02 0.  1.
       -1   -1    0    0    0  501  0.00000000000E+00  0.00000000000E+00 -0.65535080495E+03  0.65535080497E+03  0.50400001928E-02 0. -1.
    10030    2    1    2    0    0  0.00000000000E+00  0.00000000000E+00  0.13122680312E+04  0.26229696411E+04  0.22711059756E+04 0.  0.
        2    1    3    3  502    0 -0.47320200743E+03 -0.57875382768E+03  0.16433155477E+04  0.18053703559E+04  0.25500000920E-02 0.  1.
       -2    1    3    3    0  502  0.47320200743E+03  0.57875382768E+03 -0.33104751649E+03  0.81759928515E+03  0.25500000920E-02 0. -1.
</event>
<event>
 5   0  0.7183014E-06  0.2301630E+04  0.7818609E-02  0.8477279E-01
        1   -1    0    0  501    0  0.00000000000E+00  0.00000000000E+00  0.91002985177E+03  0.91002985178E+03  0.50400001928E-02 0. -1.
       -1   -1    0    0    0  501  0.00000000000E+00  0.00000000000E+00 -0.14553101461E+04  0.14553101461E+04  0.50400001928E-02 0.  1.
    10030    2    1    2    0    0  0.00000000000E+00  0.00000000000E+00 -0.54528029432E+03  0.23653399979E+04  0.23016304452E+04 0.  0.
        3    1    3    3  502    0  0.81884748003E+03 -0.52190985803E+03 -0.90737270973E+03  0.13289944846E+04  0.10100000352E+00 0.  1.
       -3    1    3    3    0  502 -0.81884748003E+03  0.52190985803E+03  0.36209241541E+03  0.10363455133E+04  0.10100000352E+00 0. -1.
</event>
<event>
 5   0  0.1626636E-05  0.2312012E+04  0.7818609E-02  0.8473200E-01
        2   -1    0    0  501    0  0.00000000000E+00  0.00000000000E+00  0.12962125216E+04  0.12962125216E+04  0.25500000920E-02 0. -1.
       -2   -1    0    0    0  501  0.00000000000E+00  0.00000000000E+00 -0.10309647394E+04  0.10309647394E+04  0.25500000920E-02 0.  1.
    10030    2    1    2    0    0  0.00000000000E+00  0.00000000000E+00  0.26524778223E+03  0.23271772610E+04  0.23120115956E+04 0.  0.
        4    1    3    3  502    0 -0.62174285819E+03 -0.10915437194E+03  0.11074126939E+04  0.12746934322E+04  0.12699999809E+01 0. -1.
       -4    1    3    3    0  502  0.62174285819E+03  0.10915437194E+03 -0.84216491164E+03  0.10524838288E+04  0.12699999809E+01 0.  1.
</event>
<event>
 5   0  0.1626636E-05  0.2309456E+04  0.7818609E-02  0.8474202E-01
       -2   -1    0    0    0  501  0.00000000000E+00  0.00000000000E+00  0.10075847507E+04  0.10075847507E+04  0.25500000920E-02 0. -1.
        2   -1    0    0  501    0  0.00000000000E+00  0.00000000000E+00 -0.13233591614E+04  0.13233591614E+04  0.25500000920E-02 0.  1.
    10030    2    1    2    0    0  0.00000000000E+00  0.00000000000E+00 -0.31577441070E+03  0.23309439121E+04  0.23094557893E+04 0.  0.
        4    1    3    3  502    0 -0.46796994718E+03 -0.32205157610E+03  0.85679348365E+03  0.10280125367E+04  0.12699999809E+01 0. -1.
       -4    1    3    3    0  502  0.46796994718E+03  0.32205157610E+03 -0.11725678943E+04  0.13029313754E+04  0.12699999809E+01 0.  1.
</event>
<event>
 5   0  0.1626636E-05  0.2301244E+04  0.7818609E-02  0.8477431E-01
        2   -1    0    0  501    0  0.00000000000E+00  0.00000000000E+00  0.15225974420E+04  0.15225974420E+04  0.25500000920E-02 0. -1.
       -2   -1    0    0    0  501  0.00000000000E+00  0.00000000000E+00 -0.86952172582E+03  0.86952172582E+03  0.25500000920E-02 0.  1.
    10030    2    1    2    0    0  0.00000000000E+00  0.00000000000E+00  0.65307571618E+03  0.23921191678E+04  0.23012444942E+04 0.  0.
        4    1    3    3  502    0 -0.83002706496E+03 -0.79653070913E+03  0.35032930227E+03  0.12025549185E+04  0.12699999809E+01 0.  1.
       -4    1    3    3    0  502  0.83002706496E+03  0.79653070913E+03  0.30274641391E+03  0.11895642493E+04  0.12699999809E+01 0. -1.
</event>
<event>
 5   0  0.1602809E-05  0.2310717E+04  0.7818609E-02  0.8473707E-01
        2   -1    0    0  501    0  0.00000000000E+00  0.00000000000E+00  0.17597617727E+04  0.17597617727E+04  0.25500000920E-02 0. -1.
       -2   -1    0    0    0  501  0.00000000000E+00  0.00000000000E+00 -0.75854216406E+03  0.75854216407E+03  0.25500000920E-02 0.  1.
    10030    2    1    2    0    0  0.00000000000E+00  0.00000000000E+00  0.10012196086E+04  0.25183039368E+04  0.23107172075E+04 0.  0.
        3    1    3    3  502    0 -0.57149760596E+02  0.11397279453E+04  0.69740786827E+03  0.13373943432E+04  0.10100000352E+00 0.  1.
       -3    1    3    3    0  502  0.57149760596E+02 -0.11397279453E+04  0.30381174037E+03  0.11809095936E+04  0.10100000352E+00 0. -1.
</event>
<event>
 5   0  0.7391007E-06  0.2288470E+04  0.7818609E-02  0.8482481E-01
        1   -1    0    0  501    0  0.00000000000E+00  0.00000000000E+00  0.14467897249E+04  0.14467897249E+04  0.50400001928E-02 0.  1.
       -1   -1    0    0    0  501  0.00000000000E+00  0.00000000000E+00 -0.90495098540E+03  0.90495098541E+03  0.50400001928E-02 0. -1.
    10030    2    1    2    0    0  0.00000000000E+00  0.00000000000E+00  0.54183873946E+03  0.23517407103E+04  0.22884700454E+04 0.  0.
        1    1    3    3  502    0 -0.89304182194E+03  0.90479071596E+02  0.10001608809E+04  0.13438868799E+04  0.50400001928E-02 0.  1.
       -1    1    3    3    0  502  0.89304182194E+03 -0.90479071596E+02 -0.45832214145E+03  0.10078538304E+04  0.50400001928E-02 0. -1.
</event>
<event>
 5   0  0.1635955E-05  0.2295527E+04  0.7818609E-02  0.8479687E-01
        2   -1    0    0  501    0  0.00000000000E+00  0.00000000000E+00  0.82605893666E+03  0.82605893666E+03  0.25500000920E-02 0. -1.
       -2   -1    0    0    0  501  0.00000000000E+00  0.00000000000E+00 -0.15947548920E+04  0.15947548920E+04  0.25500000920E-02 0.  1.
    10030    2    1    2    0    0  0.00000000000E+00  0.00000000000E+00 -0.76869595535E+03  0.24208138287E+04  0.22955274168E+04 0.  0.
        2    1    3    3  502    0 -0.44709503298E+03  0.91508879444E+02  0.72626571611E+03  0.85774689387E+03  0.25500000920E-02 0. -1.
       -2    1    3    3    0  502  0.44709503298E+03 -0.91508879444E+02 -0.14949616715E+04  0.15630669348E+04  0.25500000920E-02 0.  1.
</event>
<event>
 5   0  0.1588969E-05  0.2291739E+04  0.7818609E-02  0.8481185E-01
       -2   -1    0    0    0  501  0.00000000000E+00  0.00000000000E+00  0.83211434624E+03  0.83211434625E+03  0.25500000920E-02 0. -1.
        2   -1    0    0  501    0  0.00000000000E+00  0.00000000000E+00 -0.15779286053E+04  0.15779286053E+04  0.25500000920E-02 0.  1.
    10030    2    1    2    0    0  0.00000000000E+00  0.00000000000E+00 -0.74581425906E+03  0.24100429515E+04  0.22917391037E+04 0.  0.
        1    1    3    3  502    0  0.93130331187E+03  0.13998158810E+03 -0.10593643892E+04  0.14174532136E+04  0.50400001928E-02 0.  1.
       -1    1    3    3    0  502 -0.93130331187E+03 -0.13998158810E+03  0.31355013013E+03  0.99258973792E+03  0.50400001928E-02 0. -1.
</event>
<event>
 5   0  0.7202572E-06  0.2306992E+04  0.7818609E-02  0.8475169E-01
       -1   -1    0    0    0  501  0.00000000000E+00  0.00000000000E+00  0.49628524524E+03  0.49628524527E+03  0.50400001928E-02 0.  1.
        1   -1    0    0  501    0  0.00000000000E+00  0.00000000000E+00 -0.26810258097E+04  0.26810258097E+04  0.50400001928E-02 0. -1.
    10030    2    1    2    0    0  0.00000000000E+00  0.00000000000E+00 -0.21847405644E+04  0.31773110549E+04  0.23069924590E+04 0.  0.
        2    1    3    3  502    0  0.99162331917E+03 -0.58866759614E+03 -0.11289960226E+04  0.16138396342E+04  0.25500000920E-02 0.  1.
       -2    1    3    3    0  502 -0.99162331917E+03  0.58866759614E+03 -0.10557445418E+04  0.15634714207E+04  0.25500000920E-02 0. -1.
</event>
<event>
 5   0  0.7202572E-06  0.2303781E+04  0.7818609E-02  0.8476432E-01
       -1   -1    0    0    0  501  0.00000000000E+00  0.00000000000E+00  0.12548521649E+04  0.12548521649E+04  0.50400001928E-02 0.  1.
        1   -1    0    0  501    0  0.00000000000E+00  0.00000000000E+00 -0.10573765352E+04  0.10573765352E+04  0.50400001928E-02 0. -1.
    10030    2    1    2    0    0  0.00000000000E+00  0.00000000000E+00  0.19747562965E+03  0.23122287001E+04  0.23037805749E+04 0.  0.
        2    1    3    3  502    0 -0.24534183851E+03  0.10688999453E+04 -0.25484872875E+03  0.11259163315E+04  0.25500000920E-02 0.  1.
       -2    1    3    3    0  502  0.24534183851E+03 -0.10688999453E+04  0.45232435840E+03  0.11863123687E+04  0.25500000920E-02 0. -1.
</event>
<event>
 5   0  0.1626636E-05  0.2291177E+04  0.7818609E-02  0.8481408E-01
        2   -1    0    0  501    0  0.00000000000E+00  0.00000000000E+00  0.16559009653E+04  0.16559009653E+04  0.25500000920E-02 0.  1.
       -2   -1    0    0    0  501  0.00000000000E+00  0.00000000000E+00 -0.79254345589E+03  0.79254345589E+03  0.25500000920E-02 0. -1.
    10030    2    1    2    0    0  0.00000000000E+00  0.00000000000E+00  0.86335750946E+03  0.24484444212E+04  0.22911774036E+04 0.  0.
        4    1    3    3  502    0 -0.53525187993E+02  0.10295819349E+04 -0.10207250810E+03  0.10360136661E+04  0.12699999809E+01 0. -1.
       -4    1    3    3    0  502  0.53525187993E+02 -0.10295819349E+04  0.96543001756E+03  0.14124307552E+04  0.12699999809E+01 0.  1.
</event>
<event>
 5   0  0.1626636E-05  0.2295666E+04  0.7818609E-02  0.8479632E-01
       -2   -1    0    0    0  501  0.00000000000E+00  0.00000000000E+00  0.95158096687E+03  0.95158096687E+03  0.25500000920E-02 0. -1.
        2   -1    0    0  501    0  0.00000000000E+00  0.00000000000E+00 -0.13845590580E+04  0.13845590580E+04  0.25500000920E-02 0.  1.
    10030    2    1    2    0    0  0.00000000000E+00  0.00000000000E+00 -0.43297809109E+03  0.23361400248E+04  0.22956655219E+04 0.  0.
        4    1    3    3  502    0 -0.34204533755E+03  0.60990994967E+03  0.70979724396E+03  0.99639294462E+03  0.12699999809E+01 0. -1.
       -4    1    3    3    0  502  0.34204533755E+03 -0.60990994967E+03 -0.11427753351E+04  0.13397470802E+04  0.12699999809E+01 0.  1.
</event>
<event>
 5   0  0.1626636E-05  0.2302262E+04  0.7818609E-02  0.8477030E-01
       -2   -1    0    0    0  501  0.00000000000E+00  0.00000000000E+00  0.10249853256E+04  0.10249853256E+04  0.25500000920E-02 0.  1.
        2   -1    0    0  501    0  0.00000000000E+00  0.00000000000E+00 -0.12928011525E+04  0.12928011525E+04  0.25500000920E-02 0. -1.
    10030    2    1    2    0    0  0.00000000000E+00  0.00000000000E+00 -0.26781582688E+03  0.23177864781E+04  0.23022616795E+04 0.  0.
        4    1    3    3  502    0  0.45391769129E+03 -0.10578328064E+04 -0.14096091121E+03  0.11597081996E+04  0.12699999809E+01 0.  1.
       -4    1    3    3    0  502 -0.45391769129E+03  0.10578328064E+04 -0.12685491567E+03  0.11580782785E+04  0.12699999809E+01 0. -1.
</event>
<event>
 5   0  0.7183014E-06  0.2292004E+04  0.7818609E-02  0.8481081E-01
        1   -1    0    0  501    0  0.00000000000E+00  0.00000000000E+00  0.11467913518E+04  0.11467913518E+04  0.50400001928E-02 0.  1.
       -1   -1    0    0    0  501  0.00000000000E+00  0.00000000000E+00 -0.11452130747E+04  0.11452130747E+04  0.50400001928E-02 0. -1.
    10030    2    1    2    0    0  0.00000000000E+00  0.00000000000E+00  0.15782770844E+01  0.22920044265E+04  0.22920038831E+04 0.  0.
        3    1    3    3  502    0 -0.67663979977E+03 -0.76138404453E+03 -0.52435226018E+03  0.11456406002E+04  0.10100000352E+00 0. -1.
       -3    1    3    3    0  502  0.67663979977E+03  0.76138404453E+03  0.52593053727E+03  0.11463638263E+04  0.10100000352E+00 0.  1.
</event>
<event>
 5   0  0.7278815E-06  0.2294999E+04  0.7818609E-02  0.8479896E-01
        1   -1    0    0  501    0  0.00000000000E+00  0.00000000000E+00  0.21998072249E+04  0.21998072249E+04  0.50400001928E-02 0. -1.
       -1   -1    0    0    0  501  0.00000000000E+00  0.00000000000E+00 -0.59857728227E+03  0.59857728230E+03  0.50400001928E-02 0.  1.
    10030    2    1    2    0    0  0.00000000000E+00  0.00000000000E+00  0.16012299426E+04  0.27983845072E+04  0.22949985884E+04 0.  0.
        5    1    3    3  502    0  0.22050435329E+03  0.95423959302E+03  0.71517547277E+02  0.98200418546E+03  0.46999998093E+01 0.  1.
       -5    1    3    3    0  502 -0.22050435329E+03 -0.95423959302E+03  0.15297123953E+04  0.18163803217E+04  0.46999998093E+01 0. -1.
</event>
<event>
 5   0  0.1635955E-05  0.2296473E+04  0.7818609E-02  0.8479313E-01
        2   -1    0    0  501    0  0.00000000000E+00  0.00000000000E+00  0.11830888706E+04  0.11830888706E+04  0.25500000920E-02 0.  1.
       -2   -1    0    0    0  501  0.00000000000E+00  0.00000000000E+00 -0.11144112790E+04  0.11144112790E+04  0.25500000920E-02 0. -1.
    10030    2    1    2    0    0  0.00000000000E+00  0.00000000000E+00  0.68677591562E+02  0.22975001496E+04  0.22964734542E+04 0.  0.
        2    1    3    3  502    0  0.19211312153E+03 -0.36275520448E+03  0.11071748726E+04  0.11808196257E+04  0.25500000920E-02 0.  1.
       -2    1    3    3    0  502 -0.19211312153E+03  0.36275520448E+03 -0.10384972810E+04  0.11166805240E+04  0.25500000920E-02 0. -1.
</event>
<event>
 5   0  0.7202572E-06  0.2305950E+04  0.7818609E-02  0.8475579E-01
        1   -1    0    0  501    0  0.00000000000E+00  0.00000000000E+00  0.10475222195E+04  0.10475222196E+04  0.50400001928E-02 0. -1.
       -1   -1    0    0    0  501  0.00000000000E+00  0.00000000000E+00 -0.12690440188E+04  0.12690440188E+04  0.50400001928E-02 0.  1.
    10030    2    1    2    0    0  0.00000000000E+00  0.00000000000E+00 -0.22152179923E+03  0.23165662383E+04  0.23059503961E+04 0.  0.
        2    1    3    3  502    0 -0.23149618382E+03 -0.60443874636E+03  0.84778848817E+03  0.10666217708E+04  0.25500000920E-02 0. -1.
       -2    1    3    3    0  502  0.23149618382E+03  0.60443874636E+03 -0.10693102874E+04  0.12499444676E+04  0.25500000920E-02 0.  1.
</event>
<event>
 5   0  0.7202572E-06  0.2300236E+04  0.7818609E-02  0.8477828E-01
       -1   -1    0    0    0  501  0.00000000000E+00  0.00000000000E+00  0.54902672284E+03  0.54902672287E+03  0.50400001928E-02 0.  1.
        1   -1    0    0  501    0  0.00000000000E+00  0.00000000000E+00 -0.24093028168E+04  0.24093028168E+04  0.50400001928E-02 0. -1.
    10030    2    1    2    0    0  0.00000000000E+00  0.00000000000E+00 -0.18602760940E+04  0.29583295397E+04  0.23002361878E+04 0.  0.
        2    1    3    3  502    0  0.34397530905E+03 -0.84932526577E+03 -0.18240449313E+04  0.20412771325E+04  0.25500000920E-02 0. -1.
       -2    1    3    3    0  502 -0.34397530905E+03  0.84932526577E+03 -0.36231162655E+02  0.91705240716E+03  0.25500000920E-02 0.  1.
</event>
<event>
 5   0  0.7391007E-06  0.2345093E+04  0.7818609E-02  0.8460351E-01
        1   -1    0    0  501    0  0.00000000000E+00  0.00000000000E+00  0.13772060734E+04  0.13772060734E+04  0.50400001928E-02 0.  1.
       -1   -1    0    0    0  501  0.00000000000E+00  0.00000000000E+00 -0.99830070084E+03  0.99830070085E+03  0.50400001928E-02 0. -1.
    10030    2    1    2    0    0  0.00000000000E+00  0.00000000000E+00  0.37890537260E+03  0.23755067743E+04  0.23450934210E+04 0.  0.
        1    1    3    3  502    0  0.16107960692E+03 -0.10039885031E+04 -0.40200861652E+03  0.10934123111E+04  0.50400001928E-02 0. -1.
       -1    1    3    3    0  502 -0.16107960692E+03  0.10039885031E+04  0.78091398912E+03  0.12820944632E+04  0.50400001928E-02 0.  1.
</event>
<event>
 5   0  0.1635955E-05  0.2304369E+04  0.7818609E-02  0.8476200E-01
       -2   -1    0    0    0  501  0.00000000000E+00  0.00000000000E+00  0.58979052457E+03  0.58979052457E+03  0.25500000920E-02 0. -1.
        2   -1    0    0  501    0  0.00000000000E+00  0.00000000000E+00 -0.22508492671E+04  0.22508492671E+04  0.25500000920E-02 0.  1.
    10030    2    1    2    0    0  0.00000000000E+00  0.00000000000E+00 -0.16610587425E+04  0.28406397916E+04  0.23043693887E+04 0.  0.
        2    1    3    3  502    0 -0.89126415742E+03 -0.36321692018E+03 -0.49671013603E+02  0.96371444889E+03  0.25500000920E-02 0. -1.
       -2    1    3    3    0  502  0.89126415742E+03  0.36321692018E+03 -0.16113877289E+04  0.18769253427E+04  0.25500000920E-02 0.  1.
</event>
<event>
 5   0  0.1626636E-05  0.2285669E+04  0.7818609E-02  0.8483593E-01
        2   -1    0    0  501    0  0.00000000000E+00  0.00000000000E+00  0.11261444796E+04  0.11261444796E+04  0.25500000920E-02 0.  1.
       -2   -1    0    0    0  501  0.00000000000E+00  0.00000000000E+00 -0.11597719618E+04  0.11597719618E+04  0.25500000920E-02 0. -1.
    10030    2    1    2    0    0  0.00000000000E+00  0.00000000000E+00 -0.33627482160E+02  0.22859164414E+04  0.22856690858E+04 0.  0.
        4    1    3    3  502    0  0.90866711649E+03  0.23411280022E+03 -0.66925267796E+03  0.11525560688E+04  0.12699999809E+01 0. -1.
       -4    1    3    3    0  502 -0.90866711649E+03 -0.23411280022E+03  0.63562519580E+03  0.11333603726E+04  0.12699999809E+01 0.  1.
</event>
<event>
 5   0  0.7391007E-06  0.2307990E+04  0.7818609E-02  0.8474777E-01
        1   -1    0    0  501    0  0.00000000000E+00  0.00000000000E+00  0.19914974612E+04  0.19914974612E+04  0.50400001928E-02 0.  1.
       -1   -1    0    0    0  501  0.00000000000E+00  0.00000000000E+00 -0.66869517312E+03  0.66869517314E+03  0.50400001928E-02 0. -1.
    10030    2    1    2    0    0  0.00000000000E+00  0.00000000000E+00  0.13228022881E+04  0.26601926343E+04  0.23079902423E+04 0.  0.
        1    1    3    3  502    0  0.73630545811E+03 -0.42643552445E+03  0.15599215340E+04  0.17768928432E+04  0.50400001928E-02 0. -1.
       -1    1    3    3    0  502 -0.73630545811E+03  0.42643552445E+03 -0.23711924591E+03  0.88329979110E+03  0.50400001928E-02 0.  1.
</event>
<event>
 5   0  0.1588969E-05  0.2157132E+04  0.7818609E-02  0.8536485E-01
        2   -1    0    0  501    0  0.00000000000E+00  0.00000000000E+00  0.18199929485E+04  0.18199929485E+04  0.25500000920E-02 0. -1.
       -2   -1    0    0    0  501  0.00000000000E+00  0.00000000000E+00 -0.63918109915E+03  0.63918109916E+03  0.25500000920E-02 0.  1.
    10030    2    1    2    0    0  0.00000000000E+00  0.00000000000E+00  0.11808118493E+04  0.24591740476E+04  0.21571324422E+04 0.  0.
        1    1    3    3  502    0  0.46528253146E+02 -0.80349420439E+03 -0.22813895049E+03  0.83654957748E+03  0.50400001928E-02 0.  1.
       -1    1    3    3    0  502 -0.46528253146E+02  0.80349420439E+03  0.14089507998E+04  0.16226244702E+04  0.50400001928E-02 0. -1.
</event>
<event>
 5   0  0.7202572E-06  0.2290350E+04  0.7818609E-02  0.8481736E-01
       -1   -1    0    0    0  501  0.00000000000E+00  0.00000000000E+00  0.79651334029E+03  0.79651334031E+03  0.50400001928E-02 0. -1.
        1   -1    0    0  501    0  0.00000000000E+00  0.00000000000E+00 -0.16464585009E+04  0.16464585009E+04  0.50400001928E-02 0.  1.
    10030    2    1    2    0    0  0.00000000000E+00  0.00000000000E+00 -0.84994516062E+03  0.24429718412E+04  0.22903503315E+04 0.  0.
        2    1    3    3  502    0 -0.23887308105E+03 -0.60408326384E+03 -0.14309242686E+04  0.15714710309E+04  0.25500000920E-02 0.  1.
       -2    1    3    3    0  502  0.23887308105E+03  0.60408326384E+03  0.58097910797E+03  0.87150081033E+03  0.25500000920E-02 0. -1.
</event>
<event>
 5   0  0.7391007E-06  0.2297776E+04  0.7818609E-02  0.8478799E-01
       -1   -1    0    0    0  501  0.00000000000E+00  0.00000000000E+00  0.12290670603E+04  0.12290670603E+04  0.50400001928E-02 0. -1.
        1   -1    0    0  501    0  0.00000000000E+00  0.00000000000E+00 -0.10739392675E+04  0.10739392675E+04  0.50400001928E-02 0.  1.
    10030    2    1    2    0    0  0.00000000000E+00  0.00000000000E+00  0.15512779276E+03  0.23030063279E+04  0.22977757754E+04 0.  0.
        1    1    3    3  502    0 -0.76914170299E+03 -0.25688763989E+03  0.89327964610E+03  0.12064488157E+04  0.50400001928E-02 0. -1.
       -1    1    3    3    0  502  0.76914170299E+03  0.25688763989E+03 -0.73815185334E+03  0.10965575121E+04  0.50400001928E-02 0.  1.
</event>
<event>
 5   0  0.7183014E-06  0.2310407E+04  0.7818609E-02  0.8473829E-01
        1   -1    0    0  501    0  0.00000000000E+00  0.00000000000E+00  0.13214316215E+04  0.13214316215E+04  0.50400001928E-02 0. -1.
       -1   -1    0    0    0  501  0.00000000000E+00  0.00000000000E+00 -0.10098854662E+04  0.10098854662E+04  0.50400001928E-02 0.  1.
    10030    2    1    2    0    0  0.00000000000E+00  0.00000000000E+00  0.31154615529E+03  0.23313170878E+04  0.23104065350E+04 0.  0.
        3    1    3    3  502    0  0.10449768994E+04 -0.47154130639E+03  0.12478459655E+02  0.11465093310E+04  0.10100000352E+00 0. -1.
       -3    1    3    3    0  502 -0.10449768994E+04  0.47154130639E+03  0.29906769564E+03  0.11848077568E+04  0.10100000352E+00 0.  1.
</event>
<event>
 5   0  0.7391007E-06  0.2302558E+04  0.7818609E-02  0.8476913E-01
       -1   -1    0    0    0  501  0.00000000000E+00  0.00000000000E+00  0.79230031496E+03  0.79230031498E+03  0.50400001928E-02 0.  1.
        1   -1    0    0  501    0  0.00000000000E+00  0.00000000000E+00 -0.16729052655E+04  0.16729052655E+04  0.50400001928E-02 0. -1.
    10030    2    1    2    0    0  0.00000000000E+00  0.00000000000E+00 -0.88060495055E+03  0.24652055805E+04  0.23025580286E+04 0.  0.
        1    1    3    3  502    0  0.54423043045E+03  0.10128408728E+04 -0.37778260438E+03  0.12102698423E+04  0.50400001928E-02 0.  1.
       -1    1    3    3    0  502 -0.54423043045E+03 -0.10128408728E+04 -0.50282234617E+03  0.12549357382E+04  0.50400001928E-02 0. -1.
</event>
<event>
 5   0  0.7391007E-06  0.2305118E+04  0.7818609E-02  0.8475906E-01
       -1   -1    0    0    0  501  0.00000000000E+00  0.00000000000E+00  0.11479972713E+04  0.11479972714E+04  0.50400001928E-02 0.  1.
        1   -1    0    0  501    0  0.00000000000E+00  0.00000000000E+00 -0.11571390381E+04  0.11571390381E+04  0.50400001928E-02 0. -1.
    10030    2    1    2    0    0  0.00000000000E+00  0.00000000000E+00 -0.91417667084E+01  0.23051363094E+04  0.23051181820E+04 0.  0.
        1    1    3    3  502    0 -0.92075335949E+03  0.60911780844E+03 -0.33560400583E+03  0.11538809741E+04  0.50400001928E-02 0. -1.
       -1    1    3    3    0  502  0.92075335949E+03 -0.60911780844E+03  0.32646223913E+03  0.11512553354E+04  0.50400001928E-02 0.  1.
</event>
<event>
 5   0  0.7202572E-06  0.2138064E+04  0.7818609E-02  0.8544659E-01
        1   -1    0    0  501    0  0.00000000000E+00  0.00000000000E+00  0.91633199544E+03  0.91633199545E+03  0.50400001928E-02 0. -1.
       -1   -1    0    0    0  501  0.00000000000E+00  0.00000000000E+00 -0.12471782481E+04  0.12471782481E+04  0.50400001928E-02 0.  1.
    10030    2    1    2    0    0  0.00000000000E+00  0.00000000000E+00 -0.33084625269E+03  0.21635102436E+04  0.21380639212E+04 0.  0.
        2    1    3    3  502    0 -0.54808619398E+03 -0.44868444713E+03 -0.97564806060E+03  0.12056555674E+04  0.25500000920E-02 0.  1.
       -2    1    3    3    0  502  0.54808619398E+03  0.44868444713E+03  0.64480180792E+03  0.95785467615E+03  0.25500000920E-02 0. -1.
</event>
<event>
 5   0  0.7391007E-06  0.2315985E+04  0.7818609E-02  0.8471645E-01
       -1   -1    0    0    0  501  0.00000000000E+00  0.00000000000E+00  0.12490264807E+04  0.12490264807E+04  0.50400001928E-02 0.  1.
        1   -1    0    0  501    0  0.00000000000E+00  0.00000000000E+00 -0.10735935725E+04  0.10735935725E+04  0.50400001928E-02 0. -1.
    10030    2    1    2    0    0  0.00000000000E+00  0.00000000000E+00  0.17543290817E+03  0.23226200532E+04  0.23159851482E+04 0.  0.
        1    1    3    3  502    0  0.10302926276E+04 -0.12357684637E+03  0.60316621319E+03  0.12002431488E+04  0.50400001928E-02 0.  1.
       -1    1    3    3    0  502 -0.10302926276E+04  0.12357684637E+03 -0.42773330502E+03  0.11223769045E+04  0.50400001928E-02 0. -1.
</event>
<event>
 5   0  0.1635955E-05  0.2316572E+04  0.7818609E-02  0.8471416E-01
        2   -1    0    0  501    0  0.00000000000E+00  0.00000000000E+00  0.84346530737E+03  0.84346530738E+03  0.25500000920E-02 0.  1.
       -2   -1    0    0    0  501  0.00000000000E+00  0.00000000000E+00 -0.15906123579E+04  0.15906123579E+04  0.25500000920E-02 0. -1.
    10030    2    1    2    0    0  0.00000000000E+00  0.00000000000E+00 -0.74714705056E+03  0.24340776653E+04  0.23165718995E+04 0.  0.
        2    1    3    3  502    0 -0.84185784480E+03  0.77262979025E+03 -0.57278180933E+03  0.12781863811E+04  0.25500000920E-02 0. -1.
       -2    1    3    3    0  502  0.84185784480E+03 -0.77262979025E+03 -0.17436524123E+03  0.11558912842E+04  0.25500000920E-02 0.  1.
</event>
<event>
 5   0  0.7202572E-06  0.2305361E+04  0.7818609E-02  0.8475810E-01
       -1   -1    0    0    0  501  0.00000000000E+00  0.00000000000E+00  0.11613679902E+04  0.11613679902E+04  0.50400001928E-02 0. -1.
        1   -1    0    0  501    0  0.00000000000E+00  0.00000000000E+00 -0.11440581670E+04  0.11440581670E+04  0.50400001928E-02 0.  1.
    10030    2    1    2    0    0  0.00000000000E+00  0.00000000000E+00  0.17309823180E+02  0.23054261572E+04  0.23053611727E+04 0.  0.
        2    1    3    3  502    0 -0.65728157857E+03  0.10804459985E+03  0.94941509259E+03  0.11597765850E+04  0.25500000920E-02 0. -1.
       -2    1    3    3    0  502  0.65728157857E+03 -0.10804459985E+03 -0.93210526941E+03  0.11456495722E+04  0.25500000920E-02 0.  1.
</event>
<event>
 5   0  0.7278815E-06  0.2296725E+04  0.7818609E-02  0.8479213E-01
        1   -1    0    0  501    0  0.00000000000E+00  0.00000000000E+00  0.11893163130E+04  0.11893163130E+04  0.50400001928E-02 0.  1.
       -1   -1    0    0    0  501  0.00000000000E+00  0.00000000000E+00 -0.11088193561E+04  0.11088193561E+04  0.50400001928E-02 0. -1.
    10030    2    1    2    0    0  0.00000000000E+00  0.00000000000E+00  0.80496956925E+02  0.22981356692E+04  0.22967254502E+04 0.  0.
        5    1    3    3  502    0  0.61438907790E+02  0.33094335018E+03 -0.10583403232E+04  0.11105874887E+04  0.46999998093E+01 0. -1.
       -5    1    3    3    0  502 -0.61438907790E+02 -0.33094335018E+03  0.11388372801E+04  0.11875481805E+04  0.46999998093E+01 0.  1.
</event>
<event>
 5   0  0.1588969E-05  0.2300604E+04  0.7818609E-02  0.8477683E-01
       -2   -1    0    0    0  501  0.00000000000E+00  0.00000000000E+00  0.12740807681E+04  0.12740807681E+04  0.25500000920E-02 0. -1.
        2   -1    0    0  501    0  0.00000000000E+00  0.00000000000E+00 -0.10385484801E+04  0.10385484801E+04  0.25500000920E-02 0.  1.
    10030    2    1    2    0    0  0.00000000000E+00  0.00000000000E+00  0.23553228800E+03  0.23126292482E+04  0.23006039601E+04 0.  0.
        1    1    3    3  502    0 -0.74971202987E+03  0.86263049963E+03  0.24881297004E+03  0.11696612333E+04  0.50400001928E-02 0.  1.
       -1    1    3    3    0  502  0.74971202987E+03 -0.86263049963E+03 -0.13280682044E+02  0.11429680149E+04  0.50400001928E-02 0. -1.
</event>
<event>
 5   0  0.1588969E-05  0.2295549E+04  0.7818609E-02  0.8479678E-01
        2   -1    0    0  501    0  0.00000000000E+00  0.00000000000E+00  0.21326948989E+04  0.21326948989E+04  0.25500000920E-02 0. -1.
       -2   -1    0    0    0  501  0.00000000000E+00  0.00000000000E+00 -0.61770954786E+03  0.61770954786E+03  0.25500000920E-02 0.  1.
    10030    2    1    2    0    0  0.00000000000E+00  0.00000000000E+00  0.15149853511E+04  0.27504044468E+04  0.22955487377E+04 0.  0.
        1    1    3    3  502    0  0.20270665544E+03  0.84191602236E+03 -0.14508130118E+03  0.87804394016E+03  0.50400001928E-02 0.  1.
       -1    1    3    3    0  502 -0.20270665544E+03 -0.84191602236E+03  0.16600666522E+04  0.18723605066E+04  0.50400001928E-02 0. -1.
</event>
<event>
 5   0  0.1635955E-05  0.2298937E+04  0.7818609E-02  0.8478340E-01
       -2   -1    0    0    0  501  0.00000000000E+00  0.00000000000E+00  0.67214715506E+03  0.67214715506E+03  0.25500000920E-02 0. -1.
        2   -1    0    0  501    0  0.00000000000E+00  0.00000000000E+00 -0.19657576337E+04  0.19657576337E+04  0.25500000920E-02 0.  1.
    10030    2    1    2    0    0  0.00000000000E+00  0.00000000000E+00 -0.12936104787E+04  0.26379047888E+04  0.22989374946E+04 0.  0.
        2    1    3    3  502    0  0.41855943179E+03 -0.10584013877E+04 -0.46223802634E+03  0.12284418946E+04  0.25500000920E-02 0. -1.
       -2    1    3    3    0  502 -0.41855943179E+03  0.10584013877E+04 -0.83137245234E+03  0.14094628942E+04  0.25500000920E-02 0.  1.
</event>
<event>
 5   0  0.1697855E-05  0.2282855E+04  0.7818609E-02  0.8484712E-01
        2   -1    0    0  501    0  0.00000000000E+00  0.00000000000E+00  0.18145068561E+04  0.18145068561E+04  0.25500000920E-02 0. -1.
       -2   -1    0    0    0  501  0.00000000000E+00  0.00000000000E+00 -0.71802275391E+03  0.71802275391E+03  0.25500000920E-02 0.  1.
    10030    2    1    2    0    0  0.00000000000E+00  0.00000000000E+00  0.10964841022E+04  0.25325296100E+04  0.22828554136E+04 0.  0.
        5    1    3    3  502    0 -0.10614409672E+04 -0.36693419627E+03  0.32214429946E+03  0.11683735151E+04  0.46999998093E+01 0.  1.
       -5    1    3    3    0  502  0.10614409672E+04  0.36693419627E+03  0.77433980271E+03  0.13641560949E+04  0.46999998093E+01 0. -1.
</event>
<event>
 5   0  0.7416556E-06  0.2291772E+04  0.7818609E-02  0.8481172E-01
       -1   -1    0    0    0  501  0.00000000000E+00  0.00000000000E+00  0.82133085509E+03  0.82133085510E+03  0.50400001928E-02 0. -1.
        1   -1    0    0  501    0  0.00000000000E+00  0.00000000000E+00 -0.15986920503E+04  0.15986920503E+04  0.50400001928E-02 0.  1.
    10030    2    1    2    0    0  0.00000000000E+00  0.00000000000E+00 -0.77736119518E+03  0.24200229054E+04  0.22917723348E+04 0.  0.
        4    1    3    3  502    0 -0.25817119106E+03 -0.10444070377E+03 -0.15624105738E+04  0.15870376929E+04  0.12699999809E+01 0.  1.
       -4    1    3    3    0  502  0.25817119106E+03  0.10444070377E+03  0.78504937863E+03  0.83298521252E+03  0.12699999809E+01 0. -1.
</event>
<event>
 5   0  0.1588969E-05  0.2305054E+04  0.7818609E-02  0.8475931E-01
        2   -1    0    0  501    0  0.00000000000E+00  0.00000000000E+00  0.13665271187E+04  0.13665271187E+04  0.25500000920E-02 0.  1.
       -2   -1    0    0    0  501  0.00000000000E+00  0.00000000000E+00 -0.97203942713E+03  0.97203942714E+03  0.25500000920E-02 0. -1.
    10030    2    1    2    0    0  0.00000000000E+00  0.00000000000E+00  0.39448769157E+03  0.23385665458E+04  0.23050537847E+04 0.  0.
        1    1    3    3  502    0  0.70469310513E+03  0.67764696392E+03  0.81646207492E+03  0.12737378458E+04  0.50400001928E-02 0.  1.
       -1    1    3    3    0  502 -0.70469310513E+03 -0.67764696392E+03 -0.42197438335E+03  0.10648287000E+04  0.50400001928E-02 0. -1.
</event>
<event>
 5   0  0.7391007E-06  0.2267949E+04  0.7818609E-02  0.8490667E-01
       -1   -1    0    0    0  501  0.00000000000E+00  0.00000000000E+00  0.71741460639E+03  0.71741460641E+03  0.50400001928E-02 0.  1.
        1   -1    0    0  501    0  0.00000000000E+00  0.00000000000E+00 -0.17924059278E+04  0.17924059278E+04  0.50400001928E-02 0. -1.
    10030    2    1    2    0    0  0.00000000000E+00  0.00000000000E+00 -0.10749913214E+04  0.25098205342E+04  0.22679490234E+04 0.  0.
        1    1    3    3  502    0  0.14501914015E+03  0.62111733108E+03  0.50008962037E+03  0.81049794472E+03  0.50400001928E-02 0.  1.
       -1    1    3    3    0  502 -0.14501914015E+03 -0.62111733108E+03 -0.15750809418E+04  0.16993225895E+04  0.50400001928E-02 0. -1.
</event>
<event>
 5   0  0.7202572E-06  0.2301917E+04  0.7818609E-02  0.8477166E-01
        1   -1    0    0  501    0  0.00000000000E+00  0.00000000000E+00  0.16545486160E+04  0.16545486160E+04  0.50400001928E-02 0. -1.
       -1   -1    0    0    0  501  0.00000000000E+00  0.00000000000E+00 -0.80064451628E+03  0.80064451630E+03  0.50400001928E-02 0.  1.
    10030    2    1    2    0    0  0.00000000000E+00  0.00000000000E+00  0.85390409975E+03  0.24551931323E+04  0.23019168329E+04 0.  0.
        2    1    3    3  502    0 -0.10385801915E+04  0.40784149403E+03  0.72810319560E+03  0.13323354539E+04  0.25500000920E-02 0. -1.
       -2    1    3    3    0  502  0.10385801915E+04 -0.40784149403E+03  0.12580090415E+03  0.11228576784E+04  0.25500000920E-02 0.  1.
</event>
<event>
 5   0  0.7391007E-06  0.2298927E+04  0.7818609E-02  0.8478344E-01
        1   -1    0    0  501    0  0.00000000000E+00  0.00000000000E+00  0.17567747705E+04  0.17567747705E+04  0.50400001928E-02 0. -1.
       -1   -1    0    0    0  501  0.00000000000E+00  0.00000000000E+00 -0.75209756616E+03  0.75209756618E+03  0.50400001928E-02 0.  1.
    10030    2    1    2    0    0  0.00000000000E+00  0.00000000000E+00  0.10046772043E+04  0.25088723367E+04  0.22989267315E+04 0.  0.
        1    1    3    3  502    0  0.66597743396E+03 -0.92670904336E+03  0.35210640071E+03  0.11942757266E+04  0.50400001928E-02 0. -1.
       -1    1    3    3    0  502 -0.66597743396E+03  0.92670904336E+03  0.65257080364E+03  0.13145966101E+04  0.50400001928E-02 0.  1.
</event>
<event>
 5   0  0.7278815E-06  0.2323671E+04  0.7818609E-02  0.8468646E-01
        1   -1    0    0  501    0  0.00000000000E+00  0.00000000000E+00  0.12440836803E+04  0.12440836803E+04  0.50400001928E-02 0.  1.
       -1   -1    0    0    0  501  0.00000000000E+00  0.00000000000E+00 -0.10850250132E+04  0.10850250132E+04  0.50400001928E-02 0. -1.
    10030    2    1    2    0    0  0.00000000000E+00  0.00000000000E+00  0.15905866708E+03  0.23291086935E+04  0.23236711572E+04 0.  0.
        5    1    3    3  502    0  0.44532626825E+03 -0.58881356393E+03  0.97874788476E+03  0.12259634620E+04  0.46999998093E+01 0.  1.
       -5    1    3    3    0  502 -0.44532626825E+03  0.58881356393E+03 -0.81968921768E+03  0.11031452315E+04  0.46999998093E+01 0. -1.
</event>
<event>
 5   0  0.7202572E-06  0.2271195E+04  0.7818609E-02  0.8489366E-01
        1   -1    0    0  501    0  0.00000000000E+00  0.00000000000E+00  0.14034706678E+04  0.14034706678E+04  0.50400001928E-02 0. -1.
       -1   -1    0    0    0  501  0.00000000000E+00  0.00000000000E+00 -0.91885195376E+03  0.91885195378E+03  0.50400001928E-02 0.  1.
    10030    2    1    2    0    0  0.00000000000E+00  0.00000000000E+00  0.48461871407E+03  0.23223226216E+04  0.22711950733E+04 0.  0.
        2    1    3    3  502    0  0.65173445007E+03 -0.69139374070E+03 -0.39362252650E+03  0.10284560231E+04  0.25500000920E-02 0.  1.
       -2    1    3    3    0  502 -0.65173445007E+03  0.69139374070E+03  0.87824124057E+03  0.12938665985E+04  0.25500000920E-02 0. -1.
</event>
<event>
 5   0  0.1588969E-05  0.2311581E+04  0.7818609E-02  0.8473369E-01
        2   -1    0    0  501    0  0.00000000000E+00  0.00000000000E+00  0.20317427657E+04  0.20317427657E+04  0.25500000920E-02 0.  1.
       -2   -1    0    0    0  501  0.00000000000E+00  0.00000000000E+00 -0.65749062981E+03  0.65749062982E+03  0.25500000920E-02 0. -1.
    10030    2    1    2    0    0  0.00000000000E+00  0.00000000000E+00  0.13742521359E+04  0.26892333956E+04  0.23115811305E+04 0.  0.
        1    1    3    3  502    0 -0.18808890750E+03 -0.53271443432E+03  0.18601680959E+04  0.19440646725E+04  0.50400001928E-02 0.  1.
       -1    1    3    3    0  502  0.18808890750E+03  0.53271443432E+03 -0.48591596000E+03  0.74516872308E+03  0.50400001928E-02 0. -1.
</event>
<event>
 5   0  0.1602809E-05  0.2298641E+04  0.7818609E-02  0.8478457E-01
        2   -1    0    0  501    0  0.00000000000E+00  0.00000000000E+00  0.13213371390E+04  0.13213371390E+04  0.25500000920E-02 0.  1.
       -2   -1    0    0    0  501  0.00000000000E+00  0.00000000000E+00 -0.99969720761E+03  0.99969720761E+03  0.25500000920E-02 0. -1.
    10030    2    1    2    0    0  0.00000000000E+00  0.00000000000E+00  0.32163993136E+03  0.23210343466E+04  0.22986405096E+04 0.  0.
        3    1    3    3  502    0  0.66335719775E+03 -0.53850334306E+03  0.93701453283E+03  0.12680792038E+04  0.10100000352E+00 0.  1.
       -3    1    3    3    0  502 -0.66335719775E+03  0.53850334306E+03 -0.61537460146E+03  0.10529551427E+04  0.10100000352E+00 0. -1.
</event>
<event>
 5   0  0.7391007E-06  0.2306700E+04  0.7818609E-02  0.8475284E-01
       -1   -1    0    0    0  501  0.00000000000E+00  0.00000000000E+00  0.96551422164E+03  0.96551422165E+03  0.50400001928E-02 0. -1.
        1   -1    0    0  501    0  0.00000000000E+00  0.00000000000E+00 -0.13777279045E+04  0.13777279045E+04  0.50400001928E-02 0.  1.
    10030    2    1    2    0    0  0.00000000000E+00  0.00000000000E+00 -0.41221368289E+03  0.23432421262E+04  0.23066997077E+04 0.  0.
        1    1    3    3  502    0 -0.46381542699E+02  0.11438820711E+04 -0.34831906189E+03  0.11966384621E+04  0.50400001928E-02 0.  1.
       -1    1    3    3    0  502  0.46381542699E+02 -0.11438820711E+04 -0.63894620998E+02  0.11466036641E+04  0.50400001928E-02 0. -1.
</event>
<event>
 5   0  0.7202572E-06  0.2303819E+04  0.7818609E-02  0.8476417E-01
        1   -1    0    0  501    0  0.00000000000E+00  0.00000000000E+00  0.12472231754E+04  0.12472231754E+04  0.50400001928E-02 0.  1.
       -1   -1    0    0    0  501  0.00000000000E+00  0.00000000000E+00 -0.10638793537E+04  0.10638793537E+04  0.50400001928E-02 0. -1.
    10030    2    1    2    0    0  0.00000000000E+00  0.00000000000E+00  0.18334382164E+03  0.23111025291E+04  0.23038185569E+04 0.  0.
        2    1    3    3  502    0 -0.18160863558E+03  0.97636234515E+01 -0.10493855858E+04  0.10650291698E+04  0.25500000920E-02 0. -1.
       -2    1    3    3    0  502  0.18160863558E+03 -0.97636234515E+01  0.12327294074E+04  0.12460733593E+04  0.25500000920E-02 0.  1.
</event>
<event>
 5   0  0.7391007E-06  0.2310398E+04  0.7818609E-02  0.8473833E-01
        1   -1    0    0  501    0  0.00000000000E+00  0.00000000000E+00  0.14939214535E+04  0.14939214535E+04  0.50400001928E-02 0. -1.
       -1   -1    0    0    0  501  0.00000000000E+00  0.00000000000E+00 -0.89327615338E+03  0.89327615340E+03  0.50400001928E-02 0.  1.
    10030    2    1    2    0    0  0.00000000000E+00  0.00000000000E+00  0.60064530012E+03  0.23871976069E+04  0.23103977229E+04 0.  0.
        1    1    3    3  502    0 -0.10648996827E+04  0.82728240821E+02 -0.15433756301E+03  0.10792012691E+04  0.50400001928E-02 0.  1.
       -1    1    3    3    0  502  0.10648996827E+04 -0.82728240821E+02  0.75498286313E+03  0.13079963378E+04  0.50400001928E-02 0. -1.
</event>
<event>
 5   0  0.7202572E-06  0.2299625E+04  0.7818609E-02  0.8478069E-01
        1   -1    0    0  501    0  0.00000000000E+00  0.00000000000E+00  0.77861871703E+03  0.77861871705E+03  0.50400001928E-02 0. -1.
       -1   -1    0    0    0  501  0.00000000000E+00  0.00000000000E+00 -0.16979667572E+04  0.16979667572E+04  0.50400001928E-02 0.  1.
    10030    2    1    2    0    0  0.00000000000E+00  0.00000000000E+00 -0.91934804015E+03  0.24765854742E+04  0.22996249243E+04 0.  0.
        2    1    3    3  502    0  0.49181088961E+03 -0.10338644852E+04 -0.57423140141E+03  0.12808182648E+04  0.25500000920E-02 0.  1.
       -2    1    3    3    0  502 -0.49181088961E+03  0.10338644852E+04 -0.34511663874E+03  0.11957672095E+04  0.25500000920E-02 0. -1.
</event>
<event>
 5   0  0.7183014E-06  0.2307138E+04  0.7818609E-02  0.8475112E-01
       -1   -1    0    0    0  501  0.00000000000E+00  0.00000000000E+00  0.66559696637E+03  0.66559696639E+03  0.50400001928E-02 0.  1.
        1   -1    0    0  501    0  0.00000000000E+00  0.00000000000E+00 -0.19992895766E+04  0.19992895766E+04  0.50400001928E-02 0. -1.
    10030    2    1    2    0    0  0.00000000000E+00  0.00000000000E+00 -0.13336926102E+04  0.26648865430E+04  0.23071376873E+04 0.  0.
        3    1    3    3  502    0  0.70028673828E+03 -0.90633576003E+03 -0.50815644984E+03  0.12530239477E+04  0.10100000352E+00 0.  1.
       -3    1    3    3    0  502 -0.70028673828E+03  0.90633576003E+03 -0.82553616036E+03  0.14118625953E+04  0.10100000352E+00 0. -1.
</event>
<event>
 5   0  0.1588969E-05  0.2271243E+04  0.7818609E-02  0.8489347E-01
        2   -1    0    0  501    0  0.00000000000E+00  0.00000000000E+00  0.65554126284E+03  0.65554126285E+03  0.25500000920E-02 0. -1.
       -2   -1    0    0    0  501  0.00000000000E+00  0.00000000000E+00 -0.19672838358E+04  0.19672838358E+04  0.25500000920E-02 0.  1.
    10030    2    1    2    0    0  0.00000000000E+00  0.00000000000E+00 -0.13117425729E+04  0.26228250986E+04  0.22712425939E+04 0.  0.
        1    1    3    3  502    0  0.82822452370E+03 -0.44739103463E+03 -0.13894368702E+04  0.16782876439E+04  0.50400001928E-02 0.  1.
       -1    1    3    3    0  502 -0.82822452370E+03  0.44739103463E+03  0.77694297226E+02  0.94453745472E+03  0.50400001928E-02 0. -1.
</event>
<event>
 5   0  0.7278815E-06  0.2294164E+04  0.7818609E-02  0.8480226E-01
        1   -1    0    0  501    0  0.00000000000E+00  0.00000000000E+00  0.22455862941E+04  0.22455862941E+04  0.50400001928E-02 0.  1.
       -1   -1    0    0    0  501  0.00000000000E+00  0.00000000000E+00 -0.58594813108E+03  0.58594813110E+03  0.50400001928E-02 0. -1.
    10030    2    1    2    0    0  0.00000000000E+00  0.00000000000E+00  0.16596381630E+04  0.28315344252E+04  0.22941639804E+04 0.  0.
        5    1    3    3  502    0  0.74373499677E+03 -0.19868932057E+03 -0.21975556012E+03  0.80058340460E+03  0.46999998093E+01 0. -1.
       -5    1    3    3    0  502 -0.74373499677E+03  0.19868932057E+03  0.18793937231E+04  0.20309510206E+04  0.46999998093E+01 0.  1.
</event>
<event>
 5   0  0.1635955E-05  0.2295068E+04  0.7818609E-02  0.8479868E-01
       -2   -1    0    0    0  501  0.00000000000E+00  0.00000000000E+00  0.53677844412E+03  0.53677844413E+03  0.25500000920E-02 0.  1.
        2   -1    0    0  501    0  0.00000000000E+00  0.00000000000E+00 -0.24532174027E+04  0.24532174027E+04  0.25500000920E-02 0. -1.
    10030    2    1    2    0    0  0.00000000000E+00  0.00000000000E+00 -0.19164389586E+04  0.29899958468E+04  0.22950679472E+04 0.  0.
        2    1    3    3  502    0 -0.11218477395E+04  0.23797185736E+03 -0.90511948343E+03  0.14609634612E+04  0.25500000920E-02 0. -1.
       -2    1    3    3    0  502  0.11218477395E+04 -0.23797185736E+03 -0.10113194751E+04  0.15290323856E+04  0.25500000920E-02 0.  1.
</event>
<event>
 5   0  0.7202572E-06  0.2300037E+04  0.7818609E-02  0.8477906E-01
        1   -1    0    0  501    0  0.00000000000E+00  0.00000000000E+00  0.15799493500E+04  0.15799493500E+04  0.50400001928E-02 0. -1.
       -1   -1    0    0    0  501  0.00000000000E+00  0.00000000000E+00 -0.83707938595E+03  0.83707938597E+03  0.50400001928E-02 0.  1.
    10030    2    1    2    0    0  0.00000000000E+00  0.00000000000E+00  0.74286996400E+03  0.24170287359E+04  0.23000374186E+04 0.  0.
        2    1    3    3  502    0 -0.97338774686E+03  0.38781449281E+02 -0.27084498765E+03  0.10111106339E+04  0.25500000920E-02 0.  1.
       -2    1    3    3    0  502  0.97338774686E+03 -0.38781449281E+02  0.10137149517E+04  0.14059181021E+04  0.25500000920E-02 0. -1.
</event>
<event>
 5   0  0.1602809E-05  0.2268935E+04  0.7818609E-02  0.8490271E-01
       -2   -1    0    0    0  501  0.00000000000E+00  0.00000000000E+00  0.55949641353E+03  0.55949641353E+03  0.25500000920E-02 0. -1.
        2   -1    0    0  501    0  0.00000000000E+00  0.00000000000E+00 -0.23003118716E+04  0.23003118716E+04  0.25500000920E-02 0.  1.
    10030    2    1    2    0    0  0.00000000000E+00  0.00000000000E+00 -0.17408154580E+04  0.28598082851E+04  0.22689347652E+04 0.  0.
        3    1    3    3  502    0  0.94315026271E+03 -0.59982114700E+03 -0.11151316382E+04  0.15788718780E+04  0.10100000352E+00 0. -1.
       -3    1    3    3    0  502 -0.94315026271E+03  0.59982114700E+03 -0.62568381988E+03  0.12809364071E+04  0.10100000352E+00 0.  1.
</event>
<event>
 5   0  0.7391007E-06  0.2301742E+04  0.7818609E-02  0.8477235E-01
        1   -1    0    0  501    0  0.00000000000E+00  0.00000000000E+00  0.13806033710E+04  0.13806033710E+04  0.50400001928E-02 0. -1.
       -1   -1    0    0    0  501  0.00000000000E+00  0.00000000000E+00 -0.95936570549E+03  0.95936570550E+03  0.50400001928E-02 0.  1.
    10030    2    1    2    0    0  0.00000000000E+00  0.00000000000E+00  0.42123766553E+03  0.23399690765E+04  0.23017415381E+04 0.  0.
        1    1    3    3  502    0 -0.48805859025E+03 -0.33458547167E+03  0.12141067555E+04  0.13506309042E+04  0.50400001928E-02 0. -1.
       -1    1    3    3    0  502  0.48805859025E+03  0.33458547167E+03 -0.79286909002E+03  0.98933817237E+03  0.50400001928E-02 0.  1.
</event>
<event>
 5   0  0.1602809E-05  0.2306846E+04  0.7818609E-02  0.8475227E-01
        2   -1    0    0  501    0  0.00000000000E+00  0.00000000000E+00  0.12954205170E+04  0.12954205170E+04  0.25500000920E-02 0.  1.
       -2   -1    0    0    0  501  0.00000000000E+00  0.00000000000E+00 -0.10269901462E+04  0.10269901462E+04  0.25500000920E-02 0. -1.
    10030    2    1    2    0    0  0.00000000000E+00  0.00000000000E+00  0.26843037079E+03  0.23224106633E+04  0.23068455572E+04 0.  0.
        3    1    3    3  502    0 -0.10164686439E+04 -0.40001452763E+03  0.50707065645E+03  0.12043009538E+04  0.10100000352E+00 0.  1.
       -3    1    3    3    0  502  0.10164686439E+04  0.40001452763E+03 -0.23864028566E+03  0.11181097095E+04  0.10100000352E+00 0. -1.
</event>
<event>
 5   0  0.7183014E-06  0.2302685E+04  0.7818609E-02  0.8476863E-01
        1   -1    0    0  501    0  0.00000000000E+00  0.00000000000E+00  0.91779426588E+03  0.91779426589E+03  0.50400001928E-02 0. -1.
       -1   -1    0    0    0  501  0.00000000000E+00  0.00000000000E+00 -0.14443214187E+04  0.14443214187E+04  0.50400001928E-02 0.  1.
    10030    2    1    2    0    0  0.00000000000E+00  0.00000000000E+00 -0.52652715282E+03  0.23621156846E+04  0.23026853161E+04 0.  0.
        3    1    3    3  502    0 -0.10894930572E+04  0.25106375879E+03 -0.54524314575E+03  0.12439124691E+04  0.10100000352E+00 0.  1.
       -3    1    3    3    0  502  0.10894930572E+04 -0.25106375879E+03  0.18715992928E+02  0.11182032155E+04  0.10100000352E+00 0. -1.
</event>
<event>
 5   0  0.7278815E-06  0.2303800E+04  0.7818609E-02  0.8476424E-01
       -1   -1    0    0    0  501  0.00000000000E+00  0.00000000000E+00  0.10120401442E+04  0.10120401442E+04  0.50400001928E-02 0. -1.
        1   -1    0    0  501    0  0.00000000000E+00  0.00000000000E+00 -0.13110880409E+04  0.13110880409E+04  0.50400001928E-02 0.  1.
    10030    2    1    2    0    0  0.00000000000E+00  0.00000000000E+00 -0.29904789670E+03  0.23231281851E+04  0.23038001041E+04 0.  0.
        5    1    3    3  502    0  0.68634271009E+03  0.35208249071E+01  0.78331710814E+03  0.10414828341E+04  0.46999998093E+01 0. -1.
       -5    1    3    3    0  502 -0.68634271009E+03 -0.35208249071E+01 -0.10823650048E+04  0.12816453509E+04  0.46999998093E+01 0.  1.
</event>
<event>
 5   0  0.7183014E-06  0.2302195E+04  0.7818609E-02  0.8477056E-01
        1   -1    0    0  501    0  0.00000000000E+00  0.00000000000E+00  0.59498602458E+03  0.59498602460E+03  0.50400001928E-02 0.  1.
       -1   -1    0    0    0  501  0.00000000000E+00  0.00000000000E+00 -0.22269855870E+04  0.22269855870E+04  0.50400001928E-02 0. -1.
    10030    2    1    2    0    0  0.00000000000E+00  0.00000000000E+00 -0.16319995624E+04  0.28219716116E+04  0.23021948668E+04 0.  0.
        3    1    3    3  502    0  0.11204227446E+04 -0.14202986810E+03 -0.54326653671E+03  0.12532590116E+04  0.10100000352E+00 0. -1.
       -3    1    3    3    0  502 -0.11204227446E+04  0.14202986810E+03 -0.10887330257E+04  0.15687126000E+04  0.10100000352E+00 0.  1.
</event>
<event>
 5   0  0.1697855E-05  0.2304337E+04  0.7818609E-02  0.8476213E-01
       -2   -1    0    0    0  501  0.00000000000E+00  0.00000000000E+00  0.17963735693E+04  0.17963735693E+04  0.25500000920E-02 0. -1.
        2   -1    0    0  501    0  0.00000000000E+00  0.00000000000E+00 -0.73898479651E+03  0.73898479652E+03  0.25500000920E-02 0.  1.
    10030    2    1    2    0    0  0.00000000000E+00  0.00000000000E+00  0.10573887728E+04  0.25353583658E+04  0.23043374376E+04 0.  0.
        5    1    3    3  502    0  0.10367071890E+04 -0.41220331115E+03  0.84528743082E+03  0.13997165056E+04  0.46999998093E+01 0. -1.
       -5    1    3    3    0  502 -0.10367071890E+04  0.41220331115E+03  0.21210134198E+03  0.11356418602E+04  0.46999998093E+01 0.  1.
</event>
<event>
 5   0  0.1588969E-05  0.2172194E+04  0.7818609E-02  0.8530091E-01
       -2   -1    0    0    0  501  0.00000000000E+00  0.00000000000E+00  0.13086911205E+04  0.13086911205E+04  0.25500000920E-02 0.  1.
        2   -1    0    0  501    0  0.00000000000E+00  0.00000000000E+00 -0.90136390717E+03  0.90136390718E+03  0.25500000920E-02 0. -1.
    10030    2    1    2    0    0  0.00000000000E+00  0.00000000000E+00  0.40732721331E+03  0.22100550277E+04  0.21721942286E+04 0.  0.
        1    1    3    3  502    0  0.70299887015E+03 -0.76395842899E+03 -0.12090612937E+03  0.10452072449E+04  0.50400001928E-02 0. -1.
       -1    1    3    3    0  502 -0.70299887015E+03  0.76395842899E+03  0.52823334268E+03  0.11648477828E+04  0.50400001928E-02 0.  1.
</event>
<event>
 5   0  0.1588969E-05  0.2287240E+04  0.7818609E-02  0.8482969E-01
       -2   -1    0    0    0  501  0.00000000000E+00  0.00000000000E+00  0.72374871967E+03  0.72374871967E+03  0.25500000920E-02 0. -1.
        2   -1    0    0  501    0  0.00000000000E+00  0.00000000000E+00 -0.18070734921E+04  0.18070734921E+04  0.25500000920E-02 0.  1.
    10030    2    1    2    0    0  0.00000000000E+00  0.00000000000E+00 -0.10833247724E+04  0.25308222117E+04  0.22872403689E+04 0.  0.
        1    1    3    3  502    0  0.53634416328E+03 -0.63966468277E+03  0.32326870404E+03  0.89517519118E+03  0.50400001928E-02 0. -1.
       -1    1    3    3    0  502 -0.53634416328E+03  0.63966468277E+03 -0.14065934764E+04  0.16356470205E+04  0.50400001928E-02 0.  1.
</event>
<event>
 5   0  0.7202572E-06  0.2296732E+04  0.7818609E-02  0.8479211E-01
       -1   -1    0    0    0  501  0.00000000000E+00  0.00000000000E+00  0.85849270897E+03  0.85849270899E+03  0.50400001928E-02 0. -1.
        1   -1    0    0  501    0  0.00000000000E+00  0.00000000000E+00 -0.15361162856E+04  0.15361162856E+04  0.50400001928E-02 0.  1.
    10030    2    1    2    0    0  0.00000000000E+00  0.00000000000E+00 -0.67762357662E+03  0.23946089946E+04  0.22967321405E+04 0.  0.
        2    1    3    3  502    0 -0.91900922337E+03 -0.44119313251E+03  0.21241085949E+03  0.10413201746E+04  0.25500000920E-02 0. -1.
       -2    1    3    3    0  502  0.91900922337E+03  0.44119313251E+03 -0.89003443611E+03  0.13532888200E+04  0.25500000920E-02 0.  1.
</event>
<event>
 5   0  0.5704875E-06  0.2318585E+04  0.7818609E-02  0.8470629E-01
        4   -1    0    0  501    0  0.00000000000E+00  0.00000000000E+00  0.86837577950E+03  0.86837670818E+03  0.12699999809E+01 0. -1.
       -4   -1    0    0    0  501  0.00000000000E+00  0.00000000000E+00 -0.15476684473E+04  0.15476689684E+04  0.12699999809E+01 0.  1.
    10030    2    1    2    0    0  0.00000000000E+00  0.00000000000E+00 -0.67929266778E+03  0.24160456765E+04  0.23185853839E+04 0.  0.
        4    1    3    3  502    0  0.38018695520E+03  0.89866098842E+03  0.31262410496E+03  0.10246312200E+04  0.12699999809E+01 0.  1.
       -4    1    3    3    0  502 -0.38018695520E+03 -0.89866098842E+03 -0.99191677274E+03  0.13914144566E+04  0.12699999809E+01 0. -1.
</event>
<event>
 5   0  0.1635955E-05  0.2279093E+04  0.7818609E-02  0.8486210E-01
       -2   -1    0    0    0  501  0.00000000000E+00  0.00000000000E+00  0.10121902271E+04  0.10121902271E+04  0.25500000920E-02 0. -1.
        2   -1    0    0  501    0  0.00000000000E+00  0.00000000000E+00 -0.12829271517E+04  0.12829271517E+04  0.25500000920E-02 0.  1.
    10030    2    1    2    0    0  0.00000000000E+00  0.00000000000E+00 -0.27073692457E+03  0.22951173787E+04  0.22790930871E+04 0.  0.
        2    1    3    3  502    0  0.54720553894E+03 -0.75292501102E+03  0.52670088567E+03  0.10694595818E+04  0.25500000920E-02 0. -1.
       -2    1    3    3    0  502 -0.54720553894E+03  0.75292501102E+03 -0.79743781024E+03  0.12256577970E+04  0.25500000920E-02 0.  1.
</event>
<event>
 5   0  0.7278815E-06  0.2310134E+04  0.7818609E-02  0.8473936E-01
        1   -1    0    0  501    0  0.00000000000E+00  0.00000000000E+00  0.11218697270E+04  0.11218697271E+04  0.50400001928E-02 0. -1.
       -1   -1    0    0    0  501  0.00000000000E+00  0.00000000000E+00 -0.11892461644E+04  0.11892461644E+04  0.50400001928E-02 0.  1.
    10030    2    1    2    0    0  0.00000000000E+00  0.00000000000E+00 -0.67376437321E+02  0.23111158914E+04  0.23101335631E+04 0.  0.
        5    1    3    3  502    0 -0.46670990048E+03 -0.19783143544E+03  0.10046364293E+04  0.11252874535E+04  0.46999998093E+01 0. -1.
       -5    1    3    3    0  502  0.46670990048E+03  0.19783143544E+03 -0.10720128666E+04  0.11858284379E+04  0.46999998093E+01 0.  1.
</event>
<event>
 5   0  0.7416556E-06  0.2310514E+04  0.7818609E-02  0.8473787E-01
        1   -1    0    0  501    0  0.00000000000E+00  0.00000000000E+00  0.10961785630E+04  0.10961785630E+04  0.50400001928E-02 0.  1.
       -1   -1    0    0    0  501  0.00000000000E+00  0.00000000000E+00 -0.12175198465E+04  0.12175198465E+04  0.50400001928E-02 0. -1.
    10030    2    1    2    0    0  0.00000000000E+00  0.00000000000E+00 -0.12134128352E+03  0.23136984095E+04  0.23105143633E+04 0.  0.
        4    1    3    3  502    0 -0.65263866099E+03  0.11653342038E+03  0.88673054106E+03  0.11071630075E+04  0.12699999809E+01 0.  1.
       -4    1    3    3    0  502  0.65263866099E+03 -0.11653342038E+03 -0.10080718246E+04  0.12065354020E+04  0.12699999809E+01 0. -1.
</event>
<event>
 5   0  0.7183014E-06  0.2357006E+04  0.7818609E-02  0.8455778E-01
        1   -1    0    0  501    0  0.00000000000E+00  0.00000000000E+00  0.20545894502E+04  0.20545894502E+04  0.50400001928E-02 0.  1.
       -1   -1    0    0    0  501  0.00000000000E+00  0.00000000000E+00 -0.67598369673E+03  0.67598369675E+03  0.50400001928E-02 0. -1.
    10030    2    1    2    0    0  0.00000000000E+00  0.00000000000E+00  0.13786057534E+04  0.27305731469E+04  0.23570057037E+04 0.  0.
        3    1    3    3  502    0  0.88544578606E+03  0.56252493308E+03  0.13114687488E+04  0.16794043080E+04  0.10100000352E+00 0.  1.
       -3    1    3    3    0  502 -0.88544578606E+03 -0.56252493308E+03  0.67137004652E+02  0.10511688390E+04  0.10100000352E+00 0. -1.
</event>
<event>
 5   0  0.7278815E-06  0.2298681E+04  0.7818609E-02  0.8478442E-01
       -1   -1    0    0    0  501  0.00000000000E+00  0.00000000000E+00  0.89580090694E+03  0.89580090696E+03  0.50400001928E-02 0.  1.
        1   -1    0    0  501    0  0.00000000000E+00  0.00000000000E+00 -0.14746390678E+04  0.14746390678E+04  0.50400001928E-02 0. -1.
    10030    2    1    2    0    0  0.00000000000E+00  0.00000000000E+00 -0.57883816084E+03  0.23704399747E+04  0.22986805036E+04 0.  0.
        5    1    3    3  502    0  0.23791517621E+03  0.28573086739E+03  0.83205807849E+03  0.91136627962E+03  0.46999998093E+01 0.  1.
       -5    1    3    3    0  502 -0.23791517621E+03 -0.28573086739E+03 -0.14108962393E+04  0.14590736951E+04  0.46999998093E+01 0. -1.
</event>
<event>
 5   0  0.1635955E-05  0.2295568E+04  0.7818609E-02  0.8479671E-01
        2   -1    0    0  501    0  0.00000000000E+00  0.00000000000E+00  0.25609438949E+04  0.25609438949E+04  0.25500000920E-02 0.  1.
       -2   -1    0    0    0  501  0.00000000000E+00  0.00000000000E+00 -0.51442288839E+03  0.51442288839E+03  0.25500000920E-02 0. -1.
    10030    2    1    2    0    0  0.00000000000E+00  0.00000000000E+00  0.20465210065E+04  0.30753667833E+04  0.22955680390E+04 0.  0.
        2    1    3    3  502    0  0.64945982330E+03 -0.92338951720E+03  0.13009429668E+04  0.17224688286E+04  0.25500000920E-02 0. -1.
       -2    1    3    3    0  502 -0.64945982330E+03  0.92338951720E+03  0.74557803967E+03  0.13528979547E+04  0.25500000920E-02 0.  1.
</event>
<event>
 5   0  0.1635955E-05  0.2300989E+04  0.7818609E-02  0.8477531E-01
        2   -1    0    0  501    0  0.00000000000E+00  0.00000000000E+00  0.15602003355E+04  0.15602003355E+04  0.25500000920E-02 0. -1.
       -2   -1    0    0    0  501  0.00000000000E+00  0.00000000000E+00 -0.84837657670E+03  0.84837657670E+03  0.25500000920E-02 0.  1.
    10030    2    1    2    0    0  0.00000000000E+00  0.00000000000E+00  0.71182375883E+03  0.24085769122E+04  0.23009888480E+04 0.  0.
        2    1    3    3  502    0  0.34826179816E+03  0.95349927553E+02  0.14993520913E+04  0.15422174238E+04  0.25500000920E-02 0. -1.
       -2    1    3    3    0  502 -0.34826179816E+03 -0.95349927553E+02 -0.78752833245E+03  0.86635948841E+03  0.25500000920E-02 0.  1.
</event>
<event>
 5   0  0.7416556E-06  0.2311225E+04  0.7818609E-02  0.8473508E-01
       -1   -1    0    0    0  501  0.00000000000E+00  0.00000000000E+00  0.17038771671E+04  0.17038771671E+04  0.50400001928E-02 0. -1.
        1   -1    0    0  501    0  0.00000000000E+00  0.00000000000E+00 -0.78376583782E+03  0.78376583783E+03  0.50400001928E-02 0.  1.
    10030    2    1    2    0    0  0.00000000000E+00  0.00000000000E+00  0.92011132931E+03  0.24876430050E+04  0.23112254026E+04 0.  0.
        4    1    3    3  502    0 -0.33767250355E+02 -0.10262029118E+03  0.16984292649E+04  0.17018621366E+04  0.12699999809E+01 0. -1.
       -4    1    3    3    0  502  0.33767250355E+02  0.10262029118E+03 -0.77831793556E+03  0.78578086836E+03  0.12699999809E+01 0.  1.
</event>
<event>
 5   0  0.7391007E-06  0.2294910E+04  0.7818609E-02  0.8479931E-01
        1   -1    0    0  501    0  0.00000000000E+00  0.00000000000E+00  0.20131385590E+04  0.20131385590E+04  0.50400001928E-02 0.  1.
       -1   -1    0    0    0  501  0.00000000000E+00  0.00000000000E+00 -0.65403004422E+03  0.65403004424E+03  0.50400001928E-02 0. -1.
    10030    2    1    2    0    0  0.00000000000E+00  0.00000000000E+00  0.13591085148E+04  0.26671686032E+04  0.22949101079E+04 0.  0.
        1    1    3    3  502    0 -0.81940312552E+03 -0.39369978043E+03  0.14932942574E+04  0.17482416133E+04  0.50400001928E-02 0.  1.
       -1    1    3    3    0  502  0.81940312552E+03  0.39369978043E+03 -0.13418574267E+03  0.91892698991E+03  0.50400001928E-02 0. -1.
</event>
<event>
 5   0  0.7391007E-06  0.2302153E+04  0.7818609E-02  0.8477073E-01
        1   -1    0    0  501    0  0.00000000000E+00  0.00000000000E+00  0.14199725871E+04  0.14199725871E+04  0.50400001928E-02 0. -1.
       -1   -1    0    0    0  501  0.00000000000E+00  0.00000000000E+00 -0.93310021272E+03  0.93310021273E+03  0.50400001928E-02 0.  1.
    10030    2    1    2    0    0  0.00000000000E+00  0.00000000000E+00  0.48687237433E+03  0.23530727998E+04  0.23021526648E+04 0.  0.
        1    1    3    3  502    0  0.86101704250E+03  0.73127633445E+03  0.17501066936E+02  0.11297883484E+04  0.50400001928E-02 0.  1.
       -1    1    3    3    0  502 -0.86101704250E+03 -0.73127633445E+03  0.46937130740E+03  0.12232844514E+04  0.50400001928E-02 0. -1.
</event>
<event>
 5   0  0.7278815E-06  0.2275055E+04  0.7818609E-02  0.8487822E-01
        1   -1    0    0  501    0  0.00000000000E+00  0.00000000000E+00  0.10739725261E+04  0.10739725261E+04  0.50400001928E-02 0. -1.
       -1   -1    0    0    0  501  0.00000000000E+00  0.00000000000E+00 -0.12048439267E+04  0.12048439267E+04  0.50400001928E-02 0.  1.
    10030    2    1    2    0    0  0.00000000000E+00  0.00000000000E+00 -0.13087140056E+03  0.22788164528E+04  0.22750554064E+04 0.  0.
        5    1    3    3  502    0 -0.27035584071E+03  0.89851228109E+03  0.57869082924E+03  0.11024163305E+04  0.46999998093E+01 0.  1.
       -5    1    3    3    0  502  0.27035584071E+03 -0.89851228109E+03 -0.70956222980E+03  0.11764001223E+04  0.46999998093E+01 0. -1.
</event>
<event>
 5   0  0.1626636E-05  0.2286662E+04  0.7818609E-02  0.8483199E-01
        2   -1    0    0  501    0  0.00000000000E+00  0.00000000000E+00  0.21005557502E+04  0.21005557502E+04  0.25500000920E-02 0. -1.
       -2   -1    0    0    0  501  0.00000000000E+00  0.00000000000E+00 -0.62231408087E+03  0.62231408088E+03  0.25500000920E-02 0.  1.
    10030    2    1    2    0    0  0.00000000000E+00  0.00000000000E+00  0.14782416693E+04  0.27228698311E+04  0.22866616899E+04 0.  0.
        4    1    3    3  502    0 -0.48975770577E+03 -0.56946342729E+02  0.19674530477E+04  0.20282945062E+04  0.12699999809E+01 0. -1.
       -4    1    3    3    0  502  0.48975770577E+03  0.56946342729E+02 -0.48921137833E+03  0.69457532486E+03  0.12699999809E+01 0.  1.
</event>
<event>
 5   0  0.1602809E-05  0.2309176E+04  0.7818609E-02  0.8474312E-01
        2   -1    0    0  501    0  0.00000000000E+00  0.00000000000E+00  0.20382123353E+04  0.20382123353E+04  0.25500000920E-02 0.  1.
       -2   -1    0    0    0  501  0.00000000000E+00  0.00000000000E+00 -0.65404037636E+03  0.65404037637E+03  0.25500000920E-02 0. -1.
    10030    2    1    2    0    0  0.00000000000E+00  0.00000000000E+00  0.13841719590E+04  0.26922527117E+04  0.23091757516E+04 0.  0.
        3    1    3    3  502    0  0.10689049338E+04  0.32446189186E+03  0.35169327829E+03  0.11711197415E+04  0.10100000352E+00 0. -1.
       -3    1    3    3    0  502 -0.10689049338E+04 -0.32446189186E+03  0.10324786807E+04  0.15211329702E+04  0.10100000352E+00 0.  1.
</event>
<event>
 5   0  0.1588969E-05  0.2305280E+04  0.7818609E-02  0.8475842E-01
       -2   -1    0    0    0  501  0.00000000000E+00  0.00000000000E+00  0.92799793312E+03  0.92799793312E+03  0.25500000920E-02 0.  1.
        2   -1    0    0  501    0  0.00000000000E+00  0.00000000000E+00 -0.14316620442E+04  0.14316620442E+04  0.25500000920E-02 0. -1.
    10030    2    1    2    0    0  0.00000000000E+00  0.00000000000E+00 -0.50366411104E+03  0.23596599773E+04  0.23052803889E+04 0.  0.
        1    1    3    3  502    0 -0.76639092554E+03 -0.71559842512E+03  0.23814891712E+03  0.10752446529E+04  0.50400001928E-02 0. -1.
       -1    1    3    3    0  502  0.76639092554E+03  0.71559842512E+03 -0.74181302817E+03  0.12844153244E+04  0.50400001928E-02 0.  1.
</event>
<event>
 5   0  0.1602809E-05  0.2299902E+04  0.7818609E-02  0.8477960E-01
       -2   -1    0    0    0  501  0.00000000000E+00  0.00000000000E+00  0.71967091745E+03  0.71967091745E+03  0.25500000920E-02 0. -1.
        2   -1    0    0  501    0  0.00000000000E+00  0.00000000000E+00 -0.18374887926E+04  0.18374887926E+04  0.25500000920E-02 0.  1.
    10030    2    1    2    0    0  0.00000000000E+00  0.00000000000E+00 -0.11178178751E+04  0.25571597100E+04  0.22999019502E+04 0.  0.
        3    1    3    3  502    0 -0.35128199932E+03  0.15672264906E+03  0.64601989839E+03  0.75186617898E+03  0.10100000352E+00 0. -1.
       -3    1    3    3    0  502  0.35128199932E+03 -0.15672264906E+03 -0.17638377735E+04  0.18052935311E+04  0.10100000352E+00 0.  1.
</event>
<event>
 5   0  0.1697855E-05  0.2325819E+04  0.7818609E-02  0.8467810E-01
       -2   -1    0    0    0  501  0.00000000000E+00  0.00000000000E+00  0.89095818919E+03  0.89095818919E+03  0.25500000920E-02 0.  1.
        2   -1    0    0  501    0  0.00000000000E+00  0.00000000000E+00 -0.15178693520E+04  0.15178693520E+04  0.25500000920E-02 0. -1.
    10030    2    1    2    0    0  0.00000000000E+00  0.00000000000E+00 -0.62691116280E+03  0.24088275412E+04  0.23258186767E+04 0.  0.
        5    1    3    3  502    0  0.11443007802E+04 -0.11578492135E+03 -0.49135814027E+03  0.12507139304E+04  0.46999998093E+01 0. -1.
       -5    1    3    3    0  502 -0.11443007802E+04  0.11578492135E+03 -0.13555302252E+03  0.11581136108E+04  0.46999998093E+01 0.  1.
</event>
<event>
 5   0  0.5704875E-06  0.2299188E+04  0.7818609E-02  0.8478241E-01
       -4   -1    0    0    0  501  0.00000000000E+00  0.00000000000E+00  0.12360596206E+04  0.12360602731E+04  0.12699999809E+01 0.  1.
        4   -1    0    0  501    0  0.00000000000E+00  0.00000000000E+00 -0.10691756656E+04  0.10691764199E+04  0.12699999809E+01 0. -1.
    10030    2    1    2    0    0  0.00000000000E+00  0.00000000000E+00  0.16688395499E+03  0.23052366930E+04  0.22991881081E+04 0.  0.
        4    1    3    3  502    0 -0.32042657580E+03  0.80104745994E+03 -0.67830316376E+03  0.10974730149E+04  0.12699999809E+01 0. -1.
       -4    1    3    3    0  502  0.32042657580E+03 -0.80104745994E+03  0.84518711875E+03  0.12077636781E+04  0.12699999809E+01 0.  1.
</event>
<event>
 5   0  0.7183014E-06  0.2299693E+04  0.7818609E-02  0.8478042E-01
        1   -1    0    0  501    0  0.00000000000E+00  0.00000000000E+00  0.93092104662E+03  0.93092104664E+03  0.50400001928E-02 0. -1.
       -1   -1    0    0    0  501  0.00000000000E+00  0.00000000000E+00 -0.14202569972E+04  0.14202569972E+04  0.50400001928E-02 0.  1.
    10030    2    1    2    0    0  0.00000000000E+00  0.00000000000E+00 -0.48933595054E+03  0.23511780438E+04  0.22996931363E+04 0.  0.
        3    1    3    3  502    0  0.62906362180E+03 -0.19919089261E+03 -0.12074234542E+04  0.13759612858E+04  0.10100000352E+00 0.  1.
       -3    1    3    3    0  502 -0.62906362180E+03  0.19919089261E+03  0.71808750369E+03  0.97521675802E+03  0.10100000352E+00 0. -1.
</event>
<event>
 5   0  0.1588969E-05  0.2301356E+04  0.7818609E-02  0.8477387E-01
        2   -1    0    0  501    0  0.00000000000E+00  0.00000000000E+00  0.13401074427E+04  0.13401074427E+04  0.25500000920E-02 0. -1.
       -2   -1    0    0    0  501  0.00000000000E+00  0.00000000000E+00 -0.98802509517E+03  0.98802509518E+03  0.25500000920E-02 0.  1.
    10030    2    1    2    0    0  0.00000000000E+00  0.00000000000E+00  0.35208234754E+03  0.23281325379E+04  0.23013559339E+04 0.  0.
        1    1    3    3  502    0  0.69968629854E+01 -0.96852805851E+03 -0.45244747003E+03  0.10690202381E+04  0.50400001928E-02 0.  1.
       -1    1    3    3    0  502 -0.69968629854E+01  0.96852805851E+03  0.80452981758E+03  0.12591122998E+04  0.50400001928E-02 0. -1.
</event>
<event>
 5   0  0.7183014E-06  0.2284770E+04  0.7818609E-02  0.8483950E-01
        1   -1    0    0  501    0  0.00000000000E+00  0.00000000000E+00  0.12614201530E+04  0.12614201531E+04  0.50400001928E-02 0. -1.
       -1   -1    0    0    0  501  0.00000000000E+00  0.00000000000E+00 -0.10345828574E+04  0.10345828574E+04  0.50400001928E-02 0.  1.
    10030    2    1    2    0    0  0.00000000000E+00  0.00000000000E+00  0.22683729565E+03  0.22960030105E+04  0.22847701559E+04 0.  0.
        3    1    3    3  502    0  0.65693003980E+03  0.92523778775E+03  0.24605853465E+03  0.11611058753E+04  0.10100000352E+00 0. -1.
       -3    1    3    3    0  502 -0.65693003980E+03 -0.92523778775E+03 -0.19221239003E+02  0.11348971351E+04  0.10100000352E+00 0.  1.
</event>
<event>
 5   0  0.7202572E-06  0.2291892E+04  0.7818609E-02  0.8481125E-01
       -1   -1    0    0    0  501  0.00000000000E+00  0.00000000000E+00  0.45667939075E+03  0.45667939077E+03  0.50400001928E-02 0. -1.
        1   -1    0    0  501    0  0.00000000000E+00  0.00000000000E+00 -0.28755242994E+04  0.28755242994E+04  0.50400001928E-02 0.  1.
    10030    2    1    2    0    0  0.00000000000E+00  0.00000000000E+00 -0.24188449086E+04  0.33322036902E+04  0.22918923929E+04 0.  0.
        2    1    3    3  502    0  0.10964911178E+04 -0.26155068424E+03 -0.90972256832E+03  0.14485498552E+04  0.25500000920E-02 0. -1.
       -2    1    3    3    0  502 -0.10964911178E+04  0.26155068424E+03 -0.15091223403E+04  0.18836538349E+04  0.25500000920E-02 0.  1.
</event>
<event>
 5   0  0.7416556E-06  0.2297044E+04  0.7818609E-02  0.8479088E-01
       -1   -1    0    0    0  501  0.00000000000E+00  0.00000000000E+00  0.81085760659E+03  0.81085760661E+03  0.50400001928E-02 0. -1.
        1   -1    0    0  501    0  0.00000000000E+00  0.00000000000E+00 -0.16267991805E+04  0.16267991805E+04  0.50400001928E-02 0.  1.
    10030    2    1    2    0    0  0.00000000000E+00  0.00000000000E+00 -0.81594157390E+03  0.24376567871E+04  0.22970437435E+04 0.  0.
        4    1    3    3  502    0 -0.10195818763E+04 -0.14247963388E+02 -0.96886137393E+03  0.14065717833E+04  0.12699999809E+01 0.  1.
       -4    1    3    3    0  502  0.10195818763E+04  0.14247963388E+02  0.15291980003E+03  0.10310850038E+04  0.12699999809E+01 0. -1.
</event>
<event>
 5   0  0.1626636E-05  0.2294437E+04  0.7818609E-02  0.8480118E-01
        2   -1    0    0  501    0  0.00000000000E+00  0.00000000000E+00  0.16223497128E+04  0.16223497128E+04  0.25500000920E-02 0. -1.
       -2   -1    0    0    0  501  0.00000000000E+00  0.00000000000E+00 -0.81123712659E+03  0.81123712659E+03  0.25500000920E-02 0.  1.
    10030    2    1    2    0    0  0.00000000000E+00  0.00000000000E+00  0.81111258624E+03  0.24335868394E+04  0.22944370284E+04 0.  0.
        4    1    3    3  502    0 -0.10277274078E+04  0.21148468024E+03  0.89754006567E+03  0.13807712255E+04  0.12699999809E+01 0.  1.
       -4    1    3    3    0  502  0.10277274078E+04 -0.21148468024E+03 -0.86427479438E+02  0.10528156139E+04  0.12699999809E+01 0. -1.
</event>
<event>
 5   0  0.7278815E-06  0.2296369E+04  0.7818609E-02  0.8479354E-01
        1   -1    0    0  501    0  0.00000000000E+00  0.00000000000E+00  0.26546493059E+04  0.26546493059E+04  0.50400001928E-02 0. -1.
       -1   -1    0    0    0  501  0.00000000000E+00  0.00000000000E+00 -0.49661105812E+03  0.49661105815E+03  0.50400001928E-02 0.  1.
    10030    2    1    2    0    0  0.00000000000E+00  0.00000000000E+00  0.21580382478E+04  0.31512603641E+04  0.22963694832E+04 0.  0.
        5    1    3    3  502    0  0.39005420226E+02 -0.11306550596E+04  0.81009500334E+03  0.13914662378E+04  0.46999998093E+01 0. -1.
       -5    1    3    3    0  502 -0.39005420226E+02  0.11306550596E+04  0.13479432445E+04  0.17597941263E+04  0.46999998093E+01 0.  1.
</event>
<event>
 5   0  0.7278815E-06  0.2315661E+04  0.7818609E-02  0.8471772E-01
        1   -1    0    0  501    0  0.00000000000E+00  0.00000000000E+00  0.15950817792E+04  0.15950817792E+04  0.50400001928E-02 0.  1.
       -1   -1    0    0    0  501  0.00000000000E+00  0.00000000000E+00 -0.84044074461E+03  0.84044074463E+03  0.50400001928E-02 0. -1.
    10030    2    1    2    0    0  0.00000000000E+00  0.00000000000E+00  0.75464103457E+03  0.24355225238E+04  0.23156612172E+04 0.  0.
        5    1    3    3  502    0 -0.40424056066E+03 -0.89571482043E+03  0.10212476252E+04  0.14172805906E+04  0.46999998093E+01 0.  1.
       -5    1    3    3    0  502  0.40424056066E+03  0.89571482043E+03 -0.26660659066E+03  0.10182419332E+04  0.46999998093E+01 0. -1.
</event>
<event>
 5   0  0.7278815E-06  0.2304504E+04  0.7818609E-02  0.8476147E-01
        1   -1    0    0  501    0  0.00000000000E+00  0.00000000000E+00  0.15439251019E+04  0.15439251019E+04  0.50400001928E-02 0.  1.
       -1   -1    0    0    0  501  0.00000000000E+00  0.00000000000E+00 -0.85994106118E+03  0.85994106120E+03  0.50400001928E-02 0. -1.
    10030    2    1    2    0    0  0.00000000000E+00  0.00000000000E+00  0.68398404074E+03  0.24038661631E+04  0.23045039297E+04 0.  0.
        5    1    3    3  502    0 -0.32947748270E+02  0.84847577709E+03  0.11544624968E+04  0.14331093625E+04  0.46999998093E+01 0.  1.
       -5    1    3    3    0  502  0.32947748270E+02 -0.84847577709E+03 -0.47047845602E+03  0.97075680064E+03  0.46999998093E+01 0. -1.
</event>
<event>
 5   0  0.1697855E-05  0.2299151E+04  0.7818609E-02  0.8478256E-01
       -2   -1    0    0    0  501  0.00000000000E+00  0.00000000000E+00  0.50599954458E+03  0.50599954459E+03  0.25500000920E-02 0.  1.
        2   -1    0    0  501    0  0.00000000000E+00  0.00000000000E+00 -0.26117100000E+04  0.26117100000E+04  0.25500000920E-02 0. -1.
    10030    2    1    2    0    0  0.00000000000E+00  0.00000000000E+00 -0.21057104554E+04  0.31177095446E+04  0.22991512091E+04 0.  0.
        5    1    3    3  502    0  0.93072806868E+03  0.35445863686E+03 -0.27434220537E+03  0.10330447225E+04  0.46999998093E+01 0.  1.
       -5    1    3    3    0  502 -0.93072806868E+03 -0.35445863686E+03 -0.18313682500E+04  0.20846648221E+04  0.46999998093E+01 0. -1.
</event>
<event>
 5   0  0.1588969E-05  0.2302681E+04  0.7818609E-02  0.8476865E-01
        2   -1    0    0  501    0  0.00000000000E+00  0.00000000000E+00  0.14587808672E+04  0.14587808672E+04  0.25500000920E-02 0.  1.
       -2   -1    0    0    0  501  0.00000000000E+00  0.00000000000E+00 -0.90869377763E+03  0.90869377764E+03  0.25500000920E-02 0. -1.
    10030    2    1    2    0    0  0.00000000000E+00  0.00000000000E+00  0.55008708957E+03  0.23674746448E+04  0.23026811303E+04 0.  0.
        1    1    3    3  502    0  0.86961225577E+02  0.99438478600E+03  0.86496716724E+03  0.13208071615E+04  0.50400001928E-02 0.  1.
       -1    1    3    3    0  502 -0.86961225577E+02 -0.99438478600E+03 -0.31488007767E+03  0.10466674834E+04  0.50400001928E-02 0. -1.
</event>
<event>
 5   0  0.7202572E-06  0.2267739E+04  0.7818609E-02  0.8490751E-01
        1   -1    0    0  501    0  0.00000000000E+00  0.00000000000E+00  0.14220490226E+04  0.14220490226E+04  0.50400001928E-02 0.  1.
       -1   -1    0    0    0  501  0.00000000000E+00  0.00000000000E+00 -0.90408957696E+03  0.90408957697E+03  0.50400001928E-02 0. -1.
    10030    2    1    2    0    0  0.00000000000E+00  0.00000000000E+00  0.51795944560E+03  0.23261385995E+04  0.22677386968E+04 0.  0.
        2    1    3    3  502    0 -0.15818626035E+03  0.96237165442E+03  0.85221381251E+03  0.12951642662E+04  0.25500000920E-02 0.  1.
       -2    1    3    3    0  502  0.15818626035E+03 -0.96237165442E+03 -0.33425436692E+03  0.10309743333E+04  0.25500000920E-02 0. -1.
</event>
<event>
 5   0  0.1697855E-05  0.2289961E+04  0.7818609E-02  0.8481890E-01
       -2   -1    0    0    0  501  0.00000000000E+00  0.00000000000E+00  0.62211510766E+03  0.62211510767E+03  0.25500000920E-02 0. -1.
        2   -1    0    0  501    0  0.00000000000E+00  0.00000000000E+00 -0.21072952185E+04  0.21072952185E+04  0.25500000920E-02 0.  1.
    10030    2    1    2    0    0  0.00000000000E+00  0.00000000000E+00 -0.14851801108E+04  0.27294103261E+04  0.22899608658E+04 0.  0.
        5    1    3    3  502    0 -0.64990394221E+03 -0.86617321284E+03 -0.29929371746E+03  0.11234900925E+04  0.46999998093E+01 0.  1.
       -5    1    3    3    0  502  0.64990394221E+03  0.86617321284E+03 -0.11858863933E+04  0.16059202336E+04  0.46999998093E+01 0. -1.
</event>
<event>
 5   0  0.1588969E-05  0.2260021E+04  0.7818609E-02  0.8493853E-01
       -2   -1    0    0    0  501  0.00000000000E+00  0.00000000000E+00  0.85598475226E+03  0.85598475226E+03  0.25500000920E-02 0. -1.
        2   -1    0    0  501    0  0.00000000000E+00  0.00000000000E+00 -0.14917598677E+04  0.14917598677E+04  0.25500000920E-02 0.  1.
    10030    2    1    2    0    0  0.00000000000E+00  0.00000000000E+00 -0.63577511544E+03  0.23477446200E+04  0.22600209740E+04 0.  0.
        1    1    3    3  502    0 -0.64645011762E+03 -0.82517906995E+03  0.12051894507E+03  0.10551507324E+04  0.50400001928E-02 0. -1.
       -1    1    3    3    0  502  0.64645011762E+03  0.82517906995E+03 -0.75629406050E+03  0.12925938875E+04  0.50400001928E-02 0.  1.
</event>
<event>
 5   0  0.1588969E-05  0.2304245E+04  0.7818609E-02  0.8476249E-01
       -2   -1    0    0    0  501  0.00000000000E+00  0.00000000000E+00  0.69332216553E+03  0.69332216554E+03  0.25500000920E-02 0. -1.
        2   -1    0    0  501    0  0.00000000000E+00  0.00000000000E+00 -0.19145298966E+04  0.19145298966E+04  0.25500000920E-02 0.  1.
    10030    2    1    2    0    0  0.00000000000E+00  0.00000000000E+00 -0.12212077311E+04  0.26078520621E+04  0.23042447907E+04 0.  0.
        1    1    3    3  502    0 -0.72394869203E+03  0.50181748268E+03  0.22984777805E+03  0.91035844353E+03  0.50400001928E-02 0. -1.
       -1    1    3    3    0  502  0.72394869203E+03 -0.50181748268E+03 -0.14510555091E+04  0.16974936186E+04  0.50400001928E-02 0.  1.
</event>
<event>
 5   0  0.1602809E-05  0.2303694E+04  0.7818609E-02  0.8476466E-01
       -2   -1    0    0    0  501  0.00000000000E+00  0.00000000000E+00  0.77835720086E+03  0.77835720087E+03  0.25500000920E-02 0. -1.
        2   -1    0    0  501    0  0.00000000000E+00  0.00000000000E+00 -0.17045535817E+04  0.17045535817E+04  0.25500000920E-02 0.  1.
    10030    2    1    2    0    0  0.00000000000E+00  0.00000000000E+00 -0.92619638081E+03  0.24829107825E+04  0.23036940375E+04 0.  0.
        3    1    3    3  502    0  0.60320757076E+03  0.67411051318E+03  0.30544412088E+03  0.95476723791E+03  0.10100000352E+00 0. -1.
       -3    1    3    3    0  502 -0.60320757076E+03 -0.67411051318E+03 -0.12316405017E+04  0.15281435446E+04  0.10100000352E+00 0.  1.
</event>
<event>
 5   0  0.7416556E-06  0.2237447E+04  0.7818609E-02  0.8503001E-01
        1   -1    0    0  501    0  0.00000000000E+00  0.00000000000E+00  0.44972499560E+03  0.44972499563E+03  0.50400001928E-02 0. -1.
       -1   -1    0    0    0  501  0.00000000000E+00  0.00000000000E+00 -0.27829065433E+04  0.27829065433E+04  0.50400001928E-02 0.  1.
    10030    2    1    2    0    0  0.00000000000E+00  0.00000000000E+00 -0.23331815477E+04  0.32326315389E+04  0.22374473249E+04 0.  0.
        4    1    3    3  502    0 -0.10306995718E+04 -0.31129289853E+03 -0.16055206726E+04  0.19331174613E+04  0.12699999809E+01 0. -1.
       -4    1    3    3    0  502  0.10306995718E+04  0.31129289853E+03 -0.72766087502E+03  0.12995140776E+04  0.12699999809E+01 0.  1.
</event>
<event>
 5   0  0.7416556E-06  0.2321104E+04  0.7818609E-02  0.8469646E-01
        1   -1    0    0  501    0  0.00000000000E+00  0.00000000000E+00  0.82769403150E+03  0.82769403152E+03  0.50400001928E-02 0. -1.
       -1   -1    0    0    0  501  0.00000000000E+00  0.00000000000E+00 -0.16272697031E+04  0.16272697031E+04  0.50400001928E-02 0.  1.
    10030    2    1    2    0    0  0.00000000000E+00  0.00000000000E+00 -0.79957567164E+03  0.24549637347E+04  0.23211044104E+04 0.  0.
        4    1    3    3  502    0 -0.67245707340E+03 -0.22091019215E+03 -0.13725457599E+04  0.15443067391E+04  0.12699999809E+01 0.  1.
       -4    1    3    3    0  502  0.67245707340E+03  0.22091019215E+03  0.57297008827E+03  0.91065699554E+03  0.12699999809E+01 0. -1.
</event>
<event>
 5   0  0.7391007E-06  0.2301074E+04  0.7818609E-02  0.8477498E-01
       -1   -1    0    0    0  501  0.00000000000E+00  0.00000000000E+00  0.11720208321E+04  0.11720208321E+04  0.50400001928E-02 0.  1.
        1   -1    0    0  501    0  0.00000000000E+00  0.00000000000E+00 -0.11294465478E+04  0.11294465478E+04  0.50400001928E-02 0. -1.
    10030    2    1    2    0    0  0.00000000000E+00  0.00000000000E+00  0.42574284302E+02  0.23014673798E+04  0.23010735605E+04 0.  0.
        1    1    3    3  502    0  0.10772630197E+04  0.39697909102E+03  0.96445663268E+02  0.11521240291E+04  0.50400001928E-02 0.  1.
       -1    1    3    3    0  502 -0.10772630197E+04 -0.39697909102E+03 -0.53871378966E+02  0.11493433508E+04  0.50400001928E-02 0. -1.
</event>
<event>
 5   0  0.1697855E-05  0.2300047E+04  0.7818609E-02  0.8477903E-01
        2   -1    0    0  501    0  0.00000000000E+00  0.00000000000E+00  0.16001740276E+04  0.16001740276E+04  0.25500000920E-02 0.  1.
       -2   -1    0    0    0  501  0.00000000000E+00  0.00000000000E+00 -0.82650633541E+03  0.82650633542E+03  0.25500000920E-02 0. -1.
    10030    2    1    2    0    0  0.00000000000E+00  0.00000000000E+00  0.77366769219E+03  0.24266803630E+04  0.23000469313E+04 0.  0.
        5    1    3    3  502    0 -0.82618179836E+03 -0.12829208677E+03  0.12199258060E+04  0.14789443146E+04  0.46999998093E+01 0.  1.
       -5    1    3    3    0  502  0.82618179836E+03  0.12829208677E+03 -0.44625811378E+03  0.94773604848E+03  0.46999998093E+01 0. -1.
</event>
<event>
 5   0  0.7391007E-06  0.2289342E+04  0.7818609E-02  0.8482135E-01
        1   -1    0    0  501    0  0.00000000000E+00  0.00000000000E+00  0.12579440021E+04  0.12579440021E+04  0.50400001928E-02 0.  1.
       -1   -1    0    0    0  501  0.00000000000E+00  0.00000000000E+00 -0.10415979359E+04  0.10415979360E+04  0.50400001928E-02 0. -1.
    10030    2    1    2    0    0  0.00000000000E+00  0.00000000000E+00  0.21634606615E+03  0.22995419381E+04  0.22893421554E+04 0.  0.
        1    1    3    3  502    0 -0.50579675335E+03  0.59711488447E+03 -0.73095026014E+03  0.10708243664E+04  0.50400001928E-02 0. -1.
       -1    1    3    3    0  502  0.50579675335E+03 -0.59711488447E+03  0.94729632629E+03  0.12287175716E+04  0.50400001928E-02 0.  1.
</event>
<event>
 5   0  0.1697855E-05  0.2295585E+04  0.7818609E-02  0.8479664E-01
       -2   -1    0    0    0  501  0.00000000000E+00  0.00000000000E+00  0.20058224118E+04  0.20058224118E+04  0.25500000920E-02 0.  1.
        2   -1    0    0  501    0  0.00000000000E+00  0.00000000000E+00 -0.65680178965E+03  0.65680178965E+03  0.25500000920E-02 0. -1.
    10030    2    1    2    0    0  0.00000000000E+00  0.00000000000E+00  0.13490206222E+04  0.26626242015E+04  0.22955851104E+04 0.  0.
        5    1    3    3  502    0 -0.43629025899E+03  0.76320205358E+03 -0.18143685610E+03  0.89764580288E+03  0.46999998093E+01 0. -1.
       -5    1    3    3    0  502  0.43629025899E+03 -0.76320205358E+03  0.15304574782E+04  0.17649783986E+04  0.46999998093E+01 0.  1.
</event>
<event>
 5   0  0.1588969E-05  0.2293909E+04  0.7818609E-02  0.8480326E-01
       -2   -1    0    0    0  501  0.00000000000E+00  0.00000000000E+00  0.79707837908E+03  0.79707837908E+03  0.25500000920E-02 0.  1.
        2   -1    0    0  501    0  0.00000000000E+00  0.00000000000E+00 -0.16504087415E+04  0.16504087415E+04  0.25500000920E-02 0. -1.
    10030    2    1    2    0    0  0.00000000000E+00  0.00000000000E+00 -0.85333036245E+03  0.24474871206E+04  0.22939094355E+04 0.  0.
        1    1    3    3  502    0 -0.98749506973E+02 -0.56349694467E+03 -0.14873150271E+04  0.15935451865E+04  0.50400001928E-02 0. -1.
       -1    1    3    3    0  502  0.98749506973E+02  0.56349694467E+03  0.63398466462E+03  0.85394193408E+03  0.50400001928E-02 0.  1.
</event>
<event>
 5   0  0.1626636E-05  0.2300217E+04  0.7818609E-02  0.8477836E-01
       -2   -1    0    0    0  501  0.00000000000E+00  0.00000000000E+00  0.15035013401E+04  0.15035013401E+04  0.25500000920E-02 0. -1.
        2   -1    0    0  501    0  0.00000000000E+00  0.00000000000E+00 -0.87977943303E+03  0.87977943303E+03  0.25500000920E-02 0.  1.
    10030    2    1    2    0    0  0.00000000000E+00  0.00000000000E+00  0.62372190712E+03  0.23832807732E+04  0.23002169955E+04 0.  0.
        4    1    3    3  502    0 -0.13369311782E+03 -0.21406431628E+03  0.14744547121E+04  0.14958996264E+04  0.12699999809E+01 0. -1.
       -4    1    3    3    0  502  0.13369311782E+03  0.21406431628E+03 -0.85073280500E+03  0.88738114678E+03  0.12699999809E+01 0.  1.
</event>
<event>
 5   0  0.1697855E-05  0.2300638E+04  0.7818609E-02  0.8477670E-01
       -2   -1    0    0    0  501  0.00000000000E+00  0.00000000000E+00  0.63035036875E+03  0.63035036876E+03  0.25500000920E-02 0. -1.
        2   -1    0    0  501    0  0.00000000000E+00  0.00000000000E+00 -0.20992027614E+04  0.20992027614E+04  0.25500000920E-02 0.  1.
    10030    2    1    2    0    0  0.00000000000E+00  0.00000000000E+00 -0.14688523927E+04  0.27295531302E+04  0.23006375071E+04 0.  0.
        5    1    3    3  502    0 -0.38943947706E+03 -0.10541660816E+04 -0.10257237664E+04  0.15215323095E+04  0.46999998093E+01 0. -1.
       -5    1    3    3    0  502  0.38943947706E+03  0.10541660816E+04 -0.44312862622E+03  0.12080208207E+04  0.46999998093E+01 0.  1.
</event>
<event>
 5   0  0.7416556E-06  0.2310279E+04  0.7818609E-02  0.8473879E-01
       -1   -1    0    0    0  501  0.00000000000E+00  0.00000000000E+00  0.10000775035E+04  0.10000775036E+04  0.50400001928E-02 0. -1.
        1   -1    0    0  501    0  0.00000000000E+00  0.00000000000E+00 -0.13342443928E+04  0.13342443928E+04  0.50400001928E-02 0.  1.
    10030    2    1    2    0    0  0.00000000000E+00  0.00000000000E+00 -0.33416688921E+03  0.23343218963E+04  0.23102794649E+04 0.  0.
        4    1    3    3  502    0 -0.69236143696E+03  0.63457483384E+03  0.51244539317E+03  0.10698838596E+04  0.12699999809E+01 0. -1.
       -4    1    3    3    0  502  0.69236143696E+03 -0.63457483384E+03 -0.84661228239E+03  0.12644380367E+04  0.12699999809E+01 0.  1.
</event>
<event>
 5   0  0.1588969E-05  0.2368192E+04  0.7818609E-02  0.8451509E-01
       -2   -1    0    0    0  501  0.00000000000E+00  0.00000000000E+00  0.65766042431E+03  0.65766042431E+03  0.25500000920E-02 0. -1.
        2   -1    0    0  501    0  0.00000000000E+00  0.00000000000E+00 -0.21319262091E+04  0.21319262091E+04  0.25500000920E-02 0.  1.
    10030    2    1    2    0    0  0.00000000000E+00  0.00000000000E+00 -0.14742657848E+04  0.27895866334E+04  0.23681921335E+04 0.  0.
        1    1    3    3  502    0 -0.71653722729E+02 -0.76065066490E+03  0.32846919951E+03  0.83163435779E+03  0.50400001928E-02 0. -1.
       -1    1    3    3    0  502  0.71653722729E+02  0.76065066490E+03 -0.18027349843E+04  0.19579522757E+04  0.50400001928E-02 0.  1.
</event>
<event>
 5   0  0.7416556E-06  0.2302295E+04  0.7818609E-02  0.8477017E-01
        1   -1    0    0  501    0  0.00000000000E+00  0.00000000000E+00  0.98123999167E+03  0.98123999169E+03  0.50400001928E-02 0. -1.
       -1   -1    0    0    0  501  0.00000000000E+00  0.00000000000E+00 -0.13504756455E+04  0.13504756455E+04  0.50400001928E-02 0.  1.
    10030    2    1    2    0    0  0.00000000000E+00  0.00000000000E+00 -0.36923565381E+03  0.23317156372E+04  0.23022951254E+04 0.  0.
        4    1    3    3  502    0  0.51957960499E+03 -0.24594057035E+03  0.82546812075E+03  0.10059070341E+04  0.12699999809E+01 0. -1.
       -4    1    3    3    0  502 -0.51957960499E+03  0.24594057035E+03 -0.11947037746E+04  0.13258086030E+04  0.12699999809E+01 0.  1.
</event>
<event>
 5   0  0.7202572E-06  0.2292420E+04  0.7818609E-02  0.8480916E-01
       -1   -1    0    0    0  501  0.00000000000E+00  0.00000000000E+00  0.91939252424E+03  0.91939252426E+03  0.50400001928E-02 0. -1.
        1   -1    0    0  501    0  0.00000000000E+00  0.00000000000E+00 -0.14289846476E+04  0.14289846477E+04  0.50400001928E-02 0.  1.
    10030    2    1    2    0    0  0.00000000000E+00  0.00000000000E+00 -0.50959212340E+03  0.23483771719E+04  0.22924203823E+04 0.  0.
        2    1    3    3  502    0  0.32395195064E+03 -0.79677875982E+03  0.52132278129E+03  0.10057726884E+04  0.25500000920E-02 0. -1.
       -2    1    3    3    0  502 -0.32395195064E+03  0.79677875982E+03 -0.10309149047E+04  0.13426044835E+04  0.25500000920E-02 0.  1.
</event>
<event>
 5   0  0.7202572E-06  0.2330332E+04  0.7818609E-02  0.8466057E-01
       -1   -1    0    0    0  501  0.00000000000E+00  0.00000000000E+00  0.11182646915E+04  0.11182646916E+04  0.50400001928E-02 0.  1.
        1   -1    0    0  501    0  0.00000000000E+00  0.00000000000E+00 -0.12140347937E+04  0.12140347937E+04  0.50400001928E-02 0. -1.
    10030    2    1    2    0    0  0.00000000000E+00  0.00000000000E+00 -0.95770102153E+02  0.23322994853E+04  0.23303323747E+04 0.  0.
        2    1    3    3  502    0  0.61024165126E+03  0.88438080303E+03  0.40314818238E+03  0.11476291799E+04  0.25500000920E-02 0.  1.
       -2    1    3    3    0  502 -0.61024165126E+03 -0.88438080303E+03 -0.49891828453E+03  0.11846703053E+04  0.25500000920E-02 0. -1.
</event>
<event>
 5   0  0.7391007E-06  0.2262959E+04  0.7818609E-02  0.8492671E-01
        1   -1    0    0  501    0  0.00000000000E+00  0.00000000000E+00  0.14628164681E+04  0.14628164681E+04  0.50400001928E-02 0. -1.
       -1   -1    0    0    0  501  0.00000000000E+00  0.00000000000E+00 -0.87519266859E+03  0.87519266861E+03  0.50400001928E-02 0.  1.
    10030    2    1    2    0    0  0.00000000000E+00  0.00000000000E+00  0.58762379954E+03  0.23380091368E+04  0.22629593443E+04 0.  0.
        1    1    3    3  502    0  0.71230141221E+03 -0.14426767029E+03  0.11897863714E+04  0.13941944169E+04  0.50400001928E-02 0. -1.
       -1    1    3    3    0  502 -0.71230141221E+03  0.14426767029E+03 -0.60216257182E+03  0.94381471988E+03  0.50400001928E-02 0.  1.
</event>
<event>
 5   0  0.7416556E-06  0.2302146E+04  0.7818609E-02  0.8477076E-01
        1   -1    0    0  501    0  0.00000000000E+00  0.00000000000E+00  0.13020396659E+04  0.13020396659E+04  0.50400001928E-02 0.  1.
       -1   -1    0    0    0  501  0.00000000000E+00  0.00000000000E+00 -0.10176100860E+04  0.10176100860E+04  0.50400001928E-02 0. -1.
    10030    2    1    2    0    0  0.00000000000E+00  0.00000000000E+00  0.28442957993E+03  0.23196497519E+04  0.23021456916E+04 0.  0.
        4    1    3    3  502    0 -0.19685666880E+03  0.56221333041E+03  0.11346558774E+04  0.12815154895E+04  0.12699999809E+01 0.  1.
       -4    1    3    3    0  502  0.19685666880E+03 -0.56221333041E+03 -0.85022629745E+03  0.10381342624E+04  0.12699999809E+01 0. -1.
</event>
<event>
 5   0  0.1626636E-05  0.2321932E+04  0.7818609E-02  0.8469323E-01
       -2   -1    0    0    0  501  0.00000000000E+00  0.00000000000E+00  0.12073459414E+04  0.12073459414E+04  0.25500000920E-02 0.  1.
        2   -1    0    0  501    0  0.00000000000E+00  0.00000000000E+00 -0.11163680411E+04  0.11163680411E+04  0.25500000920E-02 0. -1.
    10030    2    1    2    0    0  0.00000000000E+00  0.00000000000E+00  0.90977900307E+02  0.23237139825E+04  0.23219323191E+04 0.  0.
        4    1    3    3  502    0  0.47151395894E+03 -0.47548988387E+03 -0.90361883564E+03  0.11246975843E+04  0.12699999809E+01 0. -1.
       -4    1    3    3    0  502 -0.47151395894E+03  0.47548988387E+03  0.99459673595E+03  0.11990163982E+04  0.12699999809E+01 0.  1.
</event>
<event>
 5   0  0.1626636E-05  0.2291314E+04  0.7818609E-02  0.8481354E-01
        2   -1    0    0  501    0  0.00000000000E+00  0.00000000000E+00  0.15141202340E+04  0.15141202340E+04  0.25500000920E-02 0. -1.
       -2   -1    0    0    0  501  0.00000000000E+00  0.00000000000E+00 -0.86685980892E+03  0.86685980893E+03  0.25500000920E-02 0.  1.
    10030    2    1    2    0    0  0.00000000000E+00  0.00000000000E+00  0.64726042510E+03  0.23809800430E+04  0.22913140132E+04 0.  0.
        4    1    3    3  502    0 -0.42852112302E+03 -0.87549012259E+03 -0.30193740576E+03  0.10204318289E+04  0.12699999809E+01 0.  1.
       -4    1    3    3    0  502  0.42852112302E+03  0.87549012259E+03  0.94919783086E+03  0.13605482140E+04  0.12699999809E+01 0. -1.
</event>
<event>
 5   0  0.7278815E-06  0.2301943E+04  0.7818609E-02  0.8477156E-01
        1   -1    0    0  501    0  0.00000000000E+00  0.00000000000E+00  0.14267283375E+04  0.14267283375E+04  0.50400001928E-02 0. -1.
       -1   -1    0    0    0  501  0.00000000000E+00  0.00000000000E+00 -0.92851250421E+03  0.92851250423E+03  0.50400001928E-02 0.  1.
    10030    2    1    2    0    0  0.00000000000E+00  0.00000000000E+00  0.49821583326E+03  0.23552408417E+04  0.23019427460E+04 0.  0.
        5    1    3    3  502    0 -0.11093492583E+03  0.83837515889E+03  0.10479107790E+04  0.13465951714E+04  0.46999998093E+01 0. -1.
       -5    1    3    3    0  502  0.11093492583E+03 -0.83837515889E+03 -0.54969494578E+03  0.10086456703E+04  0.46999998093E+01 0.  1.
</event>
<event>
 5   0  0.1635955E-05  0.2266790E+04  0.7818609E-02  0.8491132E-01
       -2   -1    0    0    0  501  0.00000000000E+00  0.00000000000E+00  0.97236832357E+03  0.97236832357E+03  0.25500000920E-02 0. -1.
        2   -1    0    0  501    0  0.00000000000E+00  0.00000000000E+00 -0.13210879048E+04  0.13210879048E+04  0.25500000920E-02 0.  1.
    10030    2    1    2    0    0  0.00000000000E+00  0.00000000000E+00 -0.34871958122E+03  0.22934562284E+04  0.22667898282E+04 0.  0.
        2    1    3    3  502    0  0.33155019029E+03  0.10757778909E+04 -0.41050792042E+02  0.11264585064E+04  0.25500000920E-02 0.  1.
       -2    1    3    3    0  502 -0.33155019029E+03 -0.10757778909E+04 -0.30766878918E+03  0.11669977219E+04  0.25500000920E-02 0. -1.
</event>
<event>
 5   0  0.7278815E-06  0.2301367E+04  0.7818609E-02  0.8477382E-01
        1   -1    0    0  501    0  0.00000000000E+00  0.00000000000E+00  0.79801088047E+03  0.79801088049E+03  0.50400001928E-02 0. -1.
       -1   -1    0    0    0  501  0.00000000000E+00  0.00000000000E+00 -0.16592159464E+04  0.16592159464E+04  0.50400001928E-02 0.  1.
    10030    2    1    2    0    0  0.00000000000E+00  0.00000000000E+00 -0.86120506596E+03  0.24572268269E+04  0.23013668793E+04 0.  0.
        5    1    3    3  502    0  0.41998511196E+03 -0.40700492750E+03  0.62747452245E+03  0.85778020005E+03  0.46999998093E+01 0. -1.
       -5    1    3    3    0  502 -0.41998511196E+03  0.40700492750E+03 -0.14886795884E+04  0.15994466269E+04  0.46999998093E+01 0.  1.
</event>
<event>
 5   0  0.1588969E-05  0.2302470E+04  0.7818609E-02  0.8476948E-01
        2   -1    0    0  501    0  0.00000000000E+00  0.00000000000E+00  0.19528694290E+04  0.19528694290E+04  0.25500000920E-02 0. -1.
       -2   -1    0    0    0  501  0.00000000000E+00  0.00000000000E+00 -0.67866382300E+03  0.67866382300E+03  0.25500000920E-02 0.  1.
    10030    2    1    2    0    0  0.00000000000E+00  0.00000000000E+00  0.12742056060E+04  0.26315332520E+04  0.23024698326E+04 0.  0.
        1    1    3    3  502    0  0.56097454092E+03  0.93963099053E+03  0.22861088677E+03  0.11179721694E+04  0.50400001928E-02 0.  1.
       -1    1    3    3    0  502 -0.56097454092E+03 -0.93963099053E+03  0.10455947192E+04  0.15135610826E+04  0.50400001928E-02 0. -1.
</event>
<event>
 5   0  0.1626636E-05  0.2293498E+04  0.7818609E-02  0.8480489E-01
        2   -1    0    0  501    0  0.00000000000E+00  0.00000000000E+00  0.13168667844E+04  0.13168667844E+04  0.25500000920E-02 0.  1.
       -2   -1    0    0    0  501  0.00000000000E+00  0.00000000000E+00 -0.99860740544E+03  0.99860740544E+03  0.25500000920E-02 0. -1.
    10030    2    1    2    0    0  0.00000000000E+00  0.00000000000E+00  0.31825937897E+03  0.23154741899E+04  0.22934976982E+04 0.  0.
        4    1    3    3  502    0  0.82337276962E+03 -0.65547126920E+03 -0.30069700103E+03  0.10945344224E+04  0.12699999809E+01 0. -1.
       -4    1    3    3    0  502 -0.82337276962E+03  0.65547126920E+03  0.61895638000E+03  0.12209397675E+04  0.12699999809E+01 0.  1.
</event>
<event>
 5   0  0.7278815E-06  0.2307308E+04  0.7818609E-02  0.8475045E-01
       -1   -1    0    0    0  501  0.00000000000E+00  0.00000000000E+00  0.11062797136E+04  0.11062797136E+04  0.50400001928E-02 0. -1.
        1   -1    0    0  501    0  0.00000000000E+00  0.00000000000E+00 -0.12030570868E+04  0.12030570868E+04  0.50400001928E-02 0.  1.
    10030    2    1    2    0    0  0.00000000000E+00  0.00000000000E+00 -0.96777373248E+02  0.23093368004E+04  0.23073080847E+04 0.  0.
        5    1    3    3  502    0 -0.59225385139E+02  0.82498666696E+03  0.75654782781E+03  0.11209359271E+04  0.46999998093E+01 0. -1.
       -5    1    3    3    0  502  0.59225385139E+02 -0.82498666696E+03 -0.85332520105E+03  0.11884008733E+04  0.46999998093E+01 0.  1.
</event>
<event>
 5   0  0.1626636E-05  0.2302923E+04  0.7818609E-02  0.8476770E-01
       -2   -1    0    0    0  501  0.00000000000E+00  0.00000000000E+00  0.15672409972E+04  0.15672409973E+04  0.25500000920E-02 0. -1.
        2   -1    0    0  501    0  0.00000000000E+00  0.00000000000E+00 -0.84598561578E+03  0.84598561578E+03  0.25500000920E-02 0.  1.
    10030    2    1    2    0    0  0.00000000000E+00  0.00000000000E+00  0.72125538147E+03  0.24132266130E+04  0.23029227865E+04 0.  0.
        4    1    3    3  502    0  0.70512058237E+03  0.30659266335E+03 -0.53755396659E+03  0.93816841601E+03  0.12699999809E+01 0.  1.
       -4    1    3    3    0  502 -0.70512058237E+03 -0.30659266335E+03  0.12588093481E+04  0.14750581970E+04  0.12699999809E+01 0. -1.
</event>
<event>
 5   0  0.1697855E-05  0.2359346E+04  0.7818609E-02  0.8454882E-01
       -2   -1    0    0    0  501  0.00000000000E+00  0.00000000000E+00  0.11463212318E+04  0.11463212318E+04  0.25500000920E-02 0.  1.
        2   -1    0    0  501    0  0.00000000000E+00  0.00000000000E+00 -0.12139955055E+04  0.12139955055E+04  0.25500000920E-02 0. -1.
    10030    2    1    2    0    0  0.00000000000E+00  0.00000000000E+00 -0.67674273654E+02  0.23603167373E+04  0.23593463699E+04 0.  0.
        5    1    3    3  502    0 -0.87179470911E+02  0.88050155915E+03  0.74669108175E+03  0.11577793043E+04  0.46999998093E+01 0.  1.
       -5    1    3    3    0  502  0.87179470911E+02 -0.88050155915E+03 -0.81436535541E+03  0.12025374331E+04  0.46999998093E+01 0. -1.
</event>
<event>
 5   0  0.1588969E-05  0.2264102E+04  0.7818609E-02  0.8492211E-01
        2   -1    0    0  501    0  0.00000000000E+00  0.00000000000E+00  0.21660339850E+04  0.21660339850E+04  0.25500000920E-02 0. -1.
       -2   -1    0    0    0  501  0.00000000000E+00  0.00000000000E+00 -0.59165245515E+03  0.59165245515E+03  0.25500000920E-02 0.  1.
    10030    2    1    2    0    0  0.00000000000E+00  0.00000000000E+00  0.15743815298E+04  0.27576864401E+04  0.22641018750E+04 0.  0.
        1    1    3    3  502    0  0.93905513420E+03  0.47314664447E+03  0.27643127846E+03  0.10872472322E+04  0.50400001928E-02 0.  1.
       -1    1    3    3    0  502 -0.93905513420E+03 -0.47314664447E+03  0.12979502513E+04  0.16704392079E+04  0.50400001928E-02 0. -1.
</event>
<event>
 5   0  0.7416556E-06  0.2298524E+04  0.7818609E-02  0.8478503E-01
        1   -1    0    0  501    0  0.00000000000E+00  0.00000000000E+00  0.15963975525E+04  0.15963975526E+04  0.50400001928E-02 0.  1.
       -1   -1    0    0    0  501  0.00000000000E+00  0.00000000000E+00 -0.82736445257E+03  0.82736445258E+03  0.50400001928E-02 0. -1.
    10030    2    1    2    0    0  0.00000000000E+00  0.00000000000E+00  0.76903309998E+03  0.24237620051E+04  0.22985235149E+04 0.  0.
        4    1    3    3  502    0 -0.42287042012E+03 -0.10362210824E+04  0.65995248060E+03  0.12992738023E+04  0.12699999809E+01 0. -1.
       -4    1    3    3    0  502  0.42287042012E+03  0.10362210824E+04  0.10908061938E+03  0.11244882028E+04  0.12699999809E+01 0.  1.
</event>
<event>
 5   0  0.1588969E-05  0.2324970E+04  0.7818609E-02  0.8468140E-01
        2   -1    0    0  501    0  0.00000000000E+00  0.00000000000E+00  0.12400575475E+04  0.12400575475E+04  0.25500000920E-02 0.  1.
       -2   -1    0    0    0  501  0.00000000000E+00  0.00000000000E+00 -0.10897651254E+04  0.10897651254E+04  0.25500000920E-02 0. -1.
    10030    2    1    2    0    0  0.00000000000E+00  0.00000000000E+00  0.15029242205E+03  0.23298226729E+04  0.23249700804E+04 0.  0.
        1    1    3    3  502    0 -0.96717179532E+03  0.56400017843E+03 -0.23832290479E+03  0.11446900410E+04  0.50400001928E-02 0. -1.
       -1    1    3    3    0  502  0.96717179532E+03 -0.56400017843E+03  0.38861532684E+03  0.11851326319E+04  0.50400001928E-02 0.  1.
</event>
<event>
 5   0  0.7202572E-06  0.2297578E+04  0.7818609E-02  0.8478877E-01
       -1   -1    0    0    0  501  0.00000000000E+00  0.00000000000E+00  0.19791473284E+04  0.19791473284E+04  0.50400001928E-02 0. -1.
        1   -1    0    0  501    0  0.00000000000E+00  0.00000000000E+00 -0.66681039399E+03  0.66681039401E+03  0.50400001928E-02 0.  1.
    10030    2    1    2    0    0  0.00000000000E+00  0.00000000000E+00  0.13123369344E+04  0.26459577224E+04  0.22975778636E+04 0.  0.
        2    1    3    3  502    0 -0.62970818765E+02  0.43790394111E+03  0.18771076888E+04  0.19285379076E+04  0.25500000920E-02 0. -1.
       -2    1    3    3    0  502  0.62970818765E+02 -0.43790394111E+03 -0.56477075440E+03  0.71741981481E+03  0.25500000920E-02 0.  1.
</event>
<event>
 5   0  0.1602809E-05  0.2304309E+04  0.7818609E-02  0.8476224E-01
       -2   -1    0    0    0  501  0.00000000000E+00  0.00000000000E+00  0.17729928420E+04  0.17729928420E+04  0.25500000920E-02 0.  1.
        2   -1    0    0  501    0  0.00000000000E+00  0.00000000000E+00 -0.74871128853E+03  0.74871128854E+03  0.25500000920E-02 0. -1.
    10030    2    1    2    0    0  0.00000000000E+00  0.00000000000E+00  0.10242815535E+04  0.25217041305E+04  0.23043087947E+04 0.  0.
        3    1    3    3  502    0 -0.11058496915E+04 -0.18049954945E+03  0.21854644909E+03  0.11415980852E+04  0.10100000352E+00 0. -1.
       -3    1    3    3    0  502  0.11058496915E+04  0.18049954945E+03  0.80573510437E+03  0.13801060453E+04  0.10100000352E+00 0.  1.
</event>
<event>
 5   0  0.7416556E-06  0.2301712E+04  0.7818609E-02  0.8477246E-01
        1   -1    0    0  501    0  0.00000000000E+00  0.00000000000E+00  0.19823324769E+04  0.19823324769E+04  0.50400001928E-02 0.  1.
       -1   -1    0    0    0  501  0.00000000000E+00  0.00000000000E+00 -0.66813713580E+03  0.66813713582E+03  0.50400001928E-02 0. -1.
    10030    2    1    2    0    0  0.00000000000E+00  0.00000000000E+00  0.13141953411E+04  0.26504696127E+04  0.23017123568E+04 0.  0.
        4    1    3    3  502    0 -0.10334205032E+04 -0.47685509536E+03  0.46059675757E+03  0.12278027954E+04  0.12699999809E+01 0. -1.
       -4    1    3    3    0  502  0.10334205032E+04  0.47685509536E+03  0.85359858352E+03  0.14226668173E+04  0.12699999809E+01 0.  1.
</event>
<event>
 5   0  0.7391007E-06  0.2304904E+04  0.7818609E-02  0.8475990E-01
       -1   -1    0    0    0  501  0.00000000000E+00  0.00000000000E+00  0.94749111237E+03  0.94749111239E+03  0.50400001928E-02 0.  1.
        1   -1    0    0  501    0  0.00000000000E+00  0.00000000000E+00 -0.14017499120E+04  0.14017499120E+04  0.50400001928E-02 0. -1.
    10030    2    1    2    0    0  0.00000000000E+00  0.00000000000E+00 -0.45425879961E+03  0.23492410244E+04  0.23049039749E+04 0.  0.
        1    1    3    3  502    0  0.11401144774E+04  0.14248984290E+03 -0.31818549313E+03  0.11922274888E+04  0.50400001928E-02 0. -1.
       -1    1    3    3    0  502 -0.11401144774E+04 -0.14248984290E+03 -0.13607330648E+03  0.11570135356E+04  0.50400001928E-02 0.  1.
</event>
<event>
 5   0  0.1588969E-05  0.2297900E+04  0.7818609E-02  0.8478750E-01
       -2   -1    0    0    0  501  0.00000000000E+00  0.00000000000E+00  0.81120343740E+03  0.81120343741E+03  0.25500000920E-02 0. -1.
        2   -1    0    0  501    0  0.00000000000E+00  0.00000000000E+00 -0.16273181895E+04  0.16273181895E+04  0.25500000920E-02 0.  1.
    10030    2    1    2    0    0  0.00000000000E+00  0.00000000000E+00 -0.81611475213E+03  0.24385216269E+04  0.22979000057E+04 0.  0.
        1    1    3    3  502    0 -0.77567802515E+03 -0.73324699816E+03 -0.85923225445E+03  0.13702582334E+04  0.50400001928E-02 0. -1.
       -1    1    3    3    0  502  0.77567802515E+03  0.73324699816E+03  0.43117502321E+02  0.10682633936E+04  0.50400001928E-02 0.  1.
</event>
<event>
 5   0  0.1626636E-05  0.2419346E+04  0.7818609E-02  0.8432296E-01
       -2   -1    0    0    0  501  0.00000000000E+00  0.00000000000E+00  0.11791462626E+04  0.11791462626E+04  0.25500000920E-02 0.  1.
        2   -1    0    0  501    0  0.00000000000E+00  0.00000000000E+00 -0.12409897521E+04  0.12409897521E+04  0.25500000920E-02 0. -1.
    10030    2    1    2    0    0  0.00000000000E+00  0.00000000000E+00 -0.61843489434E+02  0.24201360147E+04  0.24193457199E+04 0.  0.
        4    1    3    3  502    0 -0.72849235847E+02 -0.17640621978E+03 -0.12258330391E+04  0.12406024416E+04  0.12699999809E+01 0. -1.
       -4    1    3    3    0  502  0.72849235847E+02  0.17640621978E+03  0.11639895496E+04  0.11795335731E+04  0.12699999809E+01 0.  1.
</event>
<event>
 5   0  0.7278815E-06  0.2313473E+04  0.7818609E-02  0.8472628E-01
        1   -1    0    0  501    0  0.00000000000E+00  0.00000000000E+00  0.18669357542E+04  0.18669357542E+04  0.50400001928E-02 0.  1.
       -1   -1    0    0    0  501  0.00000000000E+00  0.00000000000E+00 -0.71670328590E+03  0.71670328592E+03  0.50400001928E-02 0. -1.
    10030    2    1    2    0    0  0.00000000000E+00  0.00000000000E+00  0.11502324683E+04  0.25836390401E+04  0.23134727054E+04 0.  0.
        5    1    3    3  502    0 -0.97832913644E+03  0.45770728059E+03  0.10374589891E+04  0.14976538645E+04  0.46999998093E+01 0. -1.
       -5    1    3    3    0  502  0.97832913644E+03 -0.45770728059E+03  0.11277347918E+03  0.10859851756E+04  0.46999998093E+01 0.  1.
</event>
<event>
 5   0  0.1588969E-05  0.2272564E+04  0.7818609E-02  0.8488818E-01
        2   -1    0    0  501    0  0.00000000000E+00  0.00000000000E+00  0.15317417319E+04  0.15317417319E+04  0.25500000920E-02 0. -1.
       -2   -1    0    0    0  501  0.00000000000E+00  0.00000000000E+00 -0.84292056905E+03  0.84292056905E+03  0.25500000920E-02 0.  1.
    10030    2    1    2    0    0  0.00000000000E+00  0.00000000000E+00  0.68882116285E+03  0.23746623010E+04  0.22725638493E+04 0.  0.
        1    1    3    3  502    0 -0.62386563996E+03  0.94142308074E+03  0.21368672615E+03  0.11494119238E+04  0.50400001928E-02 0. -1.
       -1    1    3    3    0  502  0.62386563996E+03 -0.94142308074E+03  0.47513443670E+03  0.12252503771E+04  0.50400001928E-02 0.  1.
</event>
<event>
 5   0  0.1602809E-05  0.2267396E+04  0.7818609E-02  0.8490889E-01
       -2   -1    0    0    0  501  0.00000000000E+00  0.00000000000E+00  0.10346597243E+04  0.10346597243E+04  0.25500000920E-02 0. -1.
        2   -1    0    0  501    0  0.00000000000E+00  0.00000000000E+00 -0.12422161294E+04  0.12422161294E+04  0.25500000920E-02 0.  1.
    10030    2    1    2    0    0  0.00000000000E+00  0.00000000000E+00 -0.20755640515E+03  0.22768758537E+04  0.22673958613E+04 0.  0.
        3    1    3    3  502    0 -0.35814873768E+03 -0.32984487677E+03 -0.11318765596E+04  0.12321577486E+04  0.10100000352E+00 0.  1.
       -3    1    3    3    0  502  0.35814873768E+03  0.32984487677E+03  0.92432015447E+03  0.10447181051E+04  0.10100000352E+00 0. -1.
</event>
<event>
 5   0  0.7391007E-06  0.2297798E+04  0.7818609E-02  0.8478790E-01
       -1   -1    0    0    0  501  0.00000000000E+00  0.00000000000E+00  0.72277090219E+03  0.72277090220E+03  0.50400001928E-02 0.  1.
        1   -1    0    0  501    0  0.00000000000E+00  0.00000000000E+00 -0.18262614029E+04  0.18262614029E+04  0.50400001928E-02 0. -1.
    10030    2    1    2    0    0  0.00000000000E+00  0.00000000000E+00 -0.11034905007E+04  0.25490323051E+04  0.22977977298E+04 0.  0.
        1    1    3    3  502    0  0.48722320068E+03  0.54847275767E+03 -0.15325898548E+04  0.16991293289E+04  0.50400001928E-02 0. -1.
       -1    1    3    3    0  502 -0.48722320068E+03 -0.54847275767E+03  0.42909935413E+03  0.84990297619E+03  0.50400001928E-02 0.  1.
</event>
<event>
 5   0  0.7391007E-06  0.2290173E+04  0.7818609E-02  0.8481806E-01
       -1   -1    0    0    0  501  0.00000000000E+00  0.00000000000E+00  0.73169983831E+03  0.73169983833E+03  0.50400001928E-02 0. -1.
        1   -1    0    0  501    0  0.00000000000E+00  0.00000000000E+00 -0.17920237439E+04  0.17920237439E+04  0.50400001928E-02 0.  1.
    10030    2    1    2    0    0  0.00000000000E+00  0.00000000000E+00 -0.10603239056E+04  0.25237235823E+04  0.22901733417E+04 0.  0.
        1    1    3    3  502    0 -0.42119297884E+02  0.11233799361E+04 -0.29007465982E+03  0.11609908804E+04  0.50400001928E-02 0. -1.
       -1    1    3    3    0  502  0.42119297884E+02 -0.11233799361E+04 -0.77024924581E+03  0.13627327019E+04  0.50400001928E-02 0.  1.
</event>
<event>
 5   0  0.7183014E-06  0.2293754E+04  0.7818609E-02  0.8480388E-01
       -1   -1    0    0    0  501  0.00000000000E+00  0.00000000000E+00  0.12714784482E+04  0.12714784482E+04  0.50400001928E-02 0.  1.
        1   -1    0    0  501    0  0.00000000000E+00  0.00000000000E+00 -0.10344859773E+04  0.10344859773E+04  0.50400001928E-02 0. -1.
    10030    2    1    2    0    0  0.00000000000E+00  0.00000000000E+00  0.23699247089E+03  0.23059644254E+04  0.22937538011E+04 0.  0.
        3    1    3    3  502    0 -0.74843807486E+03  0.73397175325E+03 -0.34922504866E+03  0.11049127709E+04  0.10100000352E+00 0. -1.
       -3    1    3    3    0  502  0.74843807486E+03 -0.73397175325E+03  0.58621751955E+03  0.12010516545E+04  0.10100000352E+00 0.  1.
</event>
<event>
 5   0  0.7278815E-06  0.2323822E+04  0.7818609E-02  0.8468587E-01
        1   -1    0    0  501    0  0.00000000000E+00  0.00000000000E+00  0.10508561511E+04  0.10508561512E+04  0.50400001928E-02 0.  1.
       -1   -1    0    0    0  501  0.00000000000E+00  0.00000000000E+00 -0.12847026262E+04  0.12847026262E+04  0.50400001928E-02 0. -1.
    10030    2    1    2    0    0  0.00000000000E+00  0.00000000000E+00 -0.23384647504E+03  0.23355587774E+04  0.23238224176E+04 0.  0.
        5    1    3    3  502    0  0.21371707987E+03 -0.11075328174E+04  0.16325273511E+03  0.11397269311E+04  0.46999998093E+01 0.  1.
       -5    1    3    3    0  502 -0.21371707987E+03  0.11075328174E+04 -0.39709921015E+03  0.11958318463E+04  0.46999998093E+01 0. -1.
</event>
<event>
 5   0  0.7278815E-06  0.2311872E+04  0.7818609E-02  0.8473255E-01
       -1   -1    0    0    0  501  0.00000000000E+00  0.00000000000E+00  0.80818919493E+03  0.80818919494E+03  0.50400001928E-02 0. -1.
        1   -1    0    0  501    0  0.00000000000E+00  0.00000000000E+00 -0.16533110282E+04  0.16533110282E+04  0.50400001928E-02 0.  1.
    10030    2    1    2    0    0  0.00000000000E+00  0.00000000000E+00 -0.84512183331E+03  0.24615002232E+04  0.23118720630E+04 0.  0.
        5    1    3    3  502    0  0.13866660411E+02  0.64253452255E+03 -0.14455379819E+04  0.15819750454E+04  0.46999998093E+01 0.  1.
       -5    1    3    3    0  502 -0.13866660411E+02 -0.64253452255E+03  0.60041614861E+03  0.87952517784E+03  0.46999998093E+01 0. -1.
</event>
<event>
 5   0  0.1626636E-05  0.2306775E+04  0.7818609E-02  0.8475255E-01
        2   -1    0    0  501    0  0.00000000000E+00  0.00000000000E+00  0.20665494056E+04  0.20665494056E+04  0.25500000920E-02 0. -1.
       -2   -1    0    0    0  501  0.00000000000E+00  0.00000000000E+00 -0.64373138584E+03  0.64373138584E+03  0.25500000920E-02 0.  1.
    10030    2    1    2    0    0  0.00000000000E+00  0.00000000000E+00  0.14228180197E+04  0.27102807914E+04  0.23067749893E+04 0.  0.
        4    1    3    3  502    0  0.24599768219E+03 -0.10618734239E+04  0.26833552804E+03  0.11225397973E+04  0.12699999809E+01 0. -1.
       -4    1    3    3    0  502 -0.24599768219E+03  0.10618734239E+04  0.11544824917E+04  0.15877409942E+04  0.12699999809E+01 0.  1.
</event>
<event>
 5   0  0.1588969E-05  0.2269508E+04  0.7818609E-02  0.8490042E-01
       -2   -1    0    0    0  501  0.00000000000E+00  0.00000000000E+00  0.58290571057E+03  0.58290571058E+03  0.25500000920E-02 0. -1.
        2   -1    0    0  501    0  0.00000000000E+00  0.00000000000E+00 -0.22090479073E+04  0.22090479073E+04  0.25500000920E-02 0.  1.
    10030    2    1    2    0    0  0.00000000000E+00  0.00000000000E+00 -0.16261421967E+04  0.27919536179E+04  0.22695079996E+04 0.  0.
        1    1    3    3  502    0  0.35184788607E+03 -0.19546359220E+02 -0.21400296854E+04  0.21688490149E+04  0.50400001928E-02 0.  1.
       -1    1    3    3    0  502 -0.35184788607E+03  0.19546359220E+02  0.51388748871E+03  0.62310460292E+03  0.50400001928E-02 0. -1.
</event>
<event>
 5   0  0.7202572E-06  0.2292488E+04  0.7818609E-02  0.8480889E-01
        1   -1    0    0  501    0  0.00000000000E+00  0.00000000000E+00  0.19307393680E+04  0.19307393680E+04  0.50400001928E-02 0. -1.
       -1   -1    0    0    0  501  0.00000000000E+00  0.00000000000E+00 -0.68050389615E+03  0.68050389617E+03  0.50400001928E-02 0.  1.
    10030    2    1    2    0    0  0.00000000000E+00  0.00000000000E+00  0.12502354719E+04  0.26112432642E+04  0.22924883096E+04 0.  0.
        2    1    3    3  502    0 -0.10961144441E+04  0.33184516765E+03  0.67959654862E+03  0.13317055076E+04  0.25500000920E-02 0. -1.
       -2    1    3    3    0  502  0.10961144441E+04 -0.33184516765E+03  0.57063892326E+03  0.12795377567E+04  0.25500000920E-02 0.  1.
</event>
<event>
 5   0  0.1697855E-05  0.2304974E+04  0.7818609E-02  0.8475962E-01
        2   -1    0    0  501    0  0.00000000000E+00  0.00000000000E+00  0.18518281293E+04  0.18518281293E+04  0.25500000920E-02 0. -1.
       -2   -1    0    0    0  501  0.00000000000E+00  0.00000000000E+00 -0.71725167206E+03  0.71725167207E+03  0.25500000920E-02 0.  1.
    10030    2    1    2    0    0  0.00000000000E+00  0.00000000000E+00  0.11345764572E+04  0.25690798014E+04  0.23049744659E+04 0.  0.
        5    1    3    3  502    0  0.76594158651E+03 -0.53944537812E+02 -0.39062113746E+03  0.86150071975E+03  0.46999998093E+01 0.  1.
       -5    1    3    3    0  502 -0.76594158651E+03  0.53944537812E+02  0.15251975947E+04  0.17075790816E+04  0.46999998093E+01 0. -1.
</event>
<event>
 5   0  0.7202572E-06  0.2246737E+04  0.7818609E-02  0.8499223E-01
       -1   -1    0    0    0  501  0.00000000000E+00  0.00000000000E+00  0.66049487146E+03  0.66049487148E+03  0.50400001928E-02 0.  1.
        1   -1    0    0  501    0  0.00000000000E+00  0.00000000000E+00 -0.19106227568E+04  0.19106227568E+04  0.50400001928E-02 0. -1.
    10030    2    1    2    0    0  0.00000000000E+00  0.00000000000E+00 -0.12501278853E+04  0.25711176283E+04  0.22467367734E+04 0.  0.
        2    1    3    3  502    0 -0.98689858239E+03  0.16705535787E+03 -0.41453007538E+02  0.10017957159E+04  0.25500000920E-02 0.  1.
       -2    1    3    3    0  502  0.98689858239E+03 -0.16705535787E+03 -0.12086748778E+04  0.15693219124E+04  0.25500000920E-02 0. -1.
</event>
<event>
 5   0  0.1635955E-05  0.2308970E+04  0.7818609E-02  0.8474393E-01
        2   -1    0    0  501    0  0.00000000000E+00  0.00000000000E+00  0.18393851517E+04  0.18393851517E+04  0.25500000920E-02 0. -1.
       -2   -1    0    0    0  501  0.00000000000E+00  0.00000000000E+00 -0.72460950821E+03  0.72460950822E+03  0.25500000920E-02 0.  1.
    10030    2    1    2    0    0  0.00000000000E+00  0.00000000000E+00  0.11147756434E+04  0.25639946599E+04  0.23089703074E+04 0.  0.
        2    1    3    3  502    0 -0.82947202623E+03  0.12368167524E+03  0.14384403458E+04  0.16650620491E+04  0.25500000920E-02 0. -1.
       -2    1    3    3    0  502  0.82947202623E+03 -0.12368167524E+03 -0.32366470234E+03  0.89893261073E+03  0.25500000920E-02 0.  1.
</event>
<event>
 5   0  0.1602809E-05  0.2297064E+04  0.7818609E-02  0.8479080E-01
        2   -1    0    0  501    0  0.00000000000E+00  0.00000000000E+00  0.10763952821E+04  0.10763952821E+04  0.25500000920E-02 0.  1.
       -2   -1    0    0    0  501  0.00000000000E+00  0.00000000000E+00 -0.12255027018E+04  0.12255027018E+04  0.25500000920E-02 0. -1.
    10030    2    1    2    0    0  0.00000000000E+00  0.00000000000E+00 -0.14910741971E+03  0.23018979839E+04  0.22970636268E+04 0.  0.
        3    1    3    3  502    0  0.14376702362E+03 -0.25744946881E+03  0.10378167399E+04  0.10788942403E+04  0.10100000352E+00 0.  1.
       -3    1    3    3    0  502 -0.14376702362E+03  0.25744946881E+03 -0.11869241596E+04  0.12230037436E+04  0.10100000352E+00 0. -1.
</event>
<event>
 5   0  0.1588969E-05  0.2310895E+04  0.7818609E-02  0.8473638E-01
        2   -1    0    0  501    0  0.00000000000E+00  0.00000000000E+00  0.18193915859E+04  0.18193915859E+04  0.25500000920E-02 0. -1.
       -2   -1    0    0    0  501  0.00000000000E+00  0.00000000000E+00 -0.73379421349E+03  0.73379421349E+03  0.25500000920E-02 0.  1.
    10030    2    1    2    0    0  0.00000000000E+00  0.00000000000E+00  0.10855973724E+04  0.25531857994E+04  0.23108950801E+04 0.  0.
        1    1    3    3  502    0 -0.44663864844E+02 -0.26276132139E+03 -0.69936627880E+03  0.74843273899E+03  0.50400001928E-02 0.  1.
       -1    1    3    3    0  502  0.44663864844E+02  0.26276132139E+03  0.17849636512E+04  0.18047530604E+04  0.50400001928E-02 0. -1.
</event>
<event>
 5   0  0.1626636E-05  0.2293116E+04  0.7818609E-02  0.8480640E-01
       -2   -1    0    0    0  501  0.00000000000E+00  0.00000000000E+00  0.56542485196E+03  0.56542485197E+03  0.25500000920E-02 0.  1.
        2   -1    0    0  501    0  0.00000000000E+00  0.00000000000E+00 -0.23249690832E+04  0.23249690832E+04  0.25500000920E-02 0. -1.
    10030    2    1    2    0    0  0.00000000000E+00  0.00000000000E+00 -0.17595442313E+04  0.28903939352E+04  0.22931160457E+04 0.  0.
        4    1    3    3  502    0  0.22947569367E+03 -0.10954020566E+04 -0.11936987320E+04  0.16363016334E+04  0.12699999809E+01 0.  1.
       -4    1    3    3    0  502 -0.22947569367E+03  0.10954020566E+04 -0.56584549927E+03  0.12540923019E+04  0.12699999809E+01 0. -1.
</event>
<event>
 5   0  0.7278815E-06  0.2303805E+04  0.7818609E-02  0.8476422E-01
        1   -1    0    0  501    0  0.00000000000E+00  0.00000000000E+00  0.23294789639E+04  0.23294789639E+04  0.50400001928E-02 0. -1.
       -1   -1    0    0    0  501  0.00000000000E+00  0.00000000000E+00 -0.56960337385E+03  0.56960337387E+03  0.50400001928E-02 0.  1.
    10030    2    1    2    0    0  0.00000000000E+00  0.00000000000E+00  0.17598755900E+04  0.28990823378E+04  0.23038047462E+04 0.  0.
        5    1    3    3  502    0  0.39958345836E+03 -0.84938055821E+03  0.39787453863E+02  0.93953148130E+03  0.46999998093E+01 0. -1.
       -5    1    3    3    0  502 -0.39958345836E+03  0.84938055821E+03  0.17200881362E+04  0.19595508565E+04  0.46999998093E+01 0.  1.
</event>
<event>
 5   0  0.7416556E-06  0.2295416E+04  0.7818609E-02  0.8479731E-01
       -1   -1    0    0    0  501  0.00000000000E+00  0.00000000000E+00  0.48831347706E+03  0.48831347708E+03  0.50400001928E-02 0.  1.
        1   -1    0    0  501    0  0.00000000000E+00  0.00000000000E+00 -0.26975154163E+04  0.26975154163E+04  0.50400001928E-02 0. -1.
    10030    2    1    2    0    0  0.00000000000E+00  0.00000000000E+00 -0.22092019392E+04  0.31858288933E+04  0.22954155462E+04 0.  0.
        4    1    3    3  502    0 -0.41988271267E+03 -0.99194933714E+03 -0.55472508942E+03  0.12116049346E+04  0.12699999809E+01 0.  1.
       -4    1    3    3    0  502  0.41988271267E+03  0.99194933714E+03 -0.16544768498E+04  0.19742239587E+04  0.12699999809E+01 0. -1.
</event>
<event>
 5   0  0.7278815E-06  0.2314277E+04  0.7818609E-02  0.8472313E-01
       -1   -1    0    0    0  501  0.00000000000E+00  0.00000000000E+00  0.21809541091E+04  0.21809541092E+04  0.50400001928E-02 0.  1.
        1   -1    0    0  501    0  0.00000000000E+00  0.00000000000E+00 -0.61393767934E+03  0.61393767936E+03  0.50400001928E-02 0. -1.
    10030    2    1    2    0    0  0.00000000000E+00  0.00000000000E+00  0.15670164298E+04  0.27948917885E+04  0.23142773425E+04 0.  0.
        5    1    3    3  502    0 -0.88786299114E+03  0.45652011965E+03  0.77007249612E+02  0.10013308730E+04  0.46999998093E+01 0. -1.
       -5    1    3    3    0  502  0.88786299114E+03 -0.45652011965E+03  0.14900091802E+04  0.17935609155E+04  0.46999998093E+01 0.  1.
</event>
<event>
 5   0  0.1602809E-05  0.2302537E+04  0.7818609E-02  0.8476921E-01
       -2   -1    0    0    0  501  0.00000000000E+00  0.00000000000E+00  0.99102787596E+03  0.99102787597E+03  0.25500000920E-02 0. -1.
        2   -1    0    0  501    0  0.00000000000E+00  0.00000000000E+00 -0.13374187269E+04  0.13374187269E+04  0.25500000920E-02 0.  1.
    10030    2    1    2    0    0  0.00000000000E+00  0.00000000000E+00 -0.34639085091E+03  0.23284466028E+04  0.23025370704E+04 0.  0.
        3    1    3    3  502    0 -0.60597186838E+03  0.69342270321E+03 -0.87189873248E+03  0.12681657465E+04  0.10100000352E+00 0.  1.
       -3    1    3    3    0  502  0.60597186838E+03 -0.69342270321E+03  0.52550788158E+03  0.10602808564E+04  0.10100000352E+00 0. -1.
</event>
<event>
 5   0  0.1635955E-05  0.2303606E+04  0.7818609E-02  0.8476501E-01
        2   -1    0    0  501    0  0.00000000000E+00  0.00000000000E+00  0.68736651250E+03  0.68736651251E+03  0.25500000920E-02 0. -1.
       -2   -1    0    0    0  501  0.00000000000E+00  0.00000000000E+00 -0.19300473115E+04  0.19300473115E+04  0.25500000920E-02 0.  1.
    10030    2    1    2    0    0  0.00000000000E+00  0.00000000000E+00 -0.12426807990E+04  0.26174138240E+04  0.23036057731E+04 0.  0.
        2    1    3    3  502    0  0.10494778778E+04 -0.16274222689E+03 -0.11478159878E+03  0.10682058153E+04  0.25500000920E-02 0.  1.
       -2    1    3    3    0  502 -0.10494778778E+04  0.16274222689E+03 -0.11278992002E+04  0.15492080087E+04  0.25500000920E-02 0. -1.
</event>
<event>
 5   0  0.1697855E-05  0.2299723E+04  0.7818609E-02  0.8478030E-01
       -2   -1    0    0    0  501  0.00000000000E+00  0.00000000000E+00  0.17830048240E+04  0.17830048241E+04  0.25500000920E-02 0. -1.
        2   -1    0    0  501    0  0.00000000000E+00  0.00000000000E+00 -0.74154673292E+03  0.74154673293E+03  0.25500000920E-02 0.  1.
    10030    2    1    2    0    0  0.00000000000E+00  0.00000000000E+00  0.10414580911E+04  0.25245515570E+04  0.22997229416E+04 0.  0.
        5    1    3    3  502    0 -0.88202763334E+03  0.72163756067E+03  0.68874708614E+03  0.13315885827E+04  0.46999998093E+01 0. -1.
       -5    1    3    3    0  502  0.88202763334E+03 -0.72163756067E+03  0.35271100499E+03  0.11929629743E+04  0.46999998093E+01 0.  1.
</event>
<event>
 5   0  0.7416556E-06  0.2308795E+04  0.7818609E-02  0.8474461E-01
        1   -1    0    0  501    0  0.00000000000E+00  0.00000000000E+00  0.10357456518E+04  0.10357456518E+04  0.50400001928E-02 0. -1.
       -1   -1    0    0    0  501  0.00000000000E+00  0.00000000000E+00 -0.12866422602E+04  0.12866422602E+04  0.50400001928E-02 0.  1.
    10030    2    1    2    0    0  0.00000000000E+00  0.00000000000E+00 -0.25089660844E+03  0.23223879120E+04  0.23087954664E+04 0.  0.
        4    1    3    3  502    0  0.44342161299E+03 -0.40600438862E+03  0.86583314847E+03  0.10541019611E+04  0.12699999809E+01 0. -1.
       -4    1    3    3    0  502 -0.44342161299E+03  0.40600438862E+03 -0.11167297569E+04  0.12682859509E+04  0.12699999809E+01 0.  1.
</event>
<event>
 5   0  0.7391007E-06  0.2311526E+04  0.7818609E-02  0.8473391E-01
       -1   -1    0    0    0  501  0.00000000000E+00  0.00000000000E+00  0.10343951004E+04  0.10343951004E+04  0.50400001928E-02 0.  1.
        1   -1    0    0  501    0  0.00000000000E+00  0.00000000000E+00 -0.12913709198E+04  0.12913709198E+04  0.50400001928E-02 0. -1.
    10030    2    1    2    0    0  0.00000000000E+00  0.00000000000E+00 -0.25697581937E+03  0.23257660202E+04  0.23115256885E+04 0.  0.
        1    1    3    3  502    0 -0.37160675861E+03  0.84837440857E+03 -0.82409135549E+03  0.12397408126E+04  0.50400001928E-02 0. -1.
       -1    1    3    3    0  502  0.37160675861E+03 -0.84837440857E+03  0.56711553612E+03  0.10860252076E+04  0.50400001928E-02 0.  1.
</event>
<event>
 5   0  0.1635955E-05  0.2290221E+04  0.7818609E-02  0.8481787E-01
       -2   -1    0    0    0  501  0.00000000000E+00  0.00000000000E+00  0.57749818028E+03  0.57749818028E+03  0.25500000920E-02 0.  1.
        2   -1    0    0  501    0  0.00000000000E+00  0.00000000000E+00 -0.22706178415E+04  0.22706178415E+04  0.25500000920E-02 0. -1.
    10030    2    1    2    0    0  0.00000000000E+00  0.00000000000E+00 -0.16931196612E+04  0.28481160217E+04  0.22902206632E+04 0.  0.
        2    1    3    3  502    0  0.41806647310E+03  0.34205064900E+03 -0.21022249950E+04  0.21705133383E+04  0.25500000920E-02 0. -1.
       -2    1    3    3    0  502 -0.41806647310E+03 -0.34205064900E+03  0.40910533379E+03  0.67760268340E+03  0.25500000920E-02 0.  1.
</event>
<event>
 5   0  0.5704875E-06  0.2302282E+04  0.7818609E-02  0.8477022E-01
       -3   -1    0    0    0  501  0.00000000000E+00  0.00000000000E+00  0.62801045711E+03  0.62801046523E+03  0.10100000352E+00 0. -1.
        3   -1    0    0  501    0  0.00000000000E+00  0.00000000000E+00 -0.21100370858E+04  0.21100370882E+04  0.10100000352E+00 0.  1.
    10030    2    1    2    0    0  0.00000000000E+00  0.00000000000E+00 -0.14820266287E+04  0.27380475534E+04  0.23022817979E+04 0.  0.
        5    1    3    3  502    0  0.13058148445E+02 -0.30732512074E+03 -0.20602432513E+04  0.20830851134E+04  0.46999998093E+01 0.  1.
       -5    1    3    3    0  502 -0.13058148445E+02  0.30732512074E+03  0.57821662267E+03  0.65496244000E+03  0.46999998093E+01 0. -1.
</event>
<event>
 5   0  0.7416556E-06  0.2300208E+04  0.7818609E-02  0.8477839E-01
        1   -1    0    0  501    0  0.00000000000E+00  0.00000000000E+00  0.97216942723E+03  0.97216942724E+03  0.50400001928E-02 0. -1.
       -1   -1    0    0    0  501  0.00000000000E+00  0.00000000000E+00 -0.13606061853E+04  0.13606061853E+04  0.50400001928E-02 0.  1.
    10030    2    1    2    0    0  0.00000000000E+00  0.00000000000E+00 -0.38843675808E+03  0.23327756126E+04  0.23002084565E+04 0.  0.
        4    1    3    3  502    0  0.10560311936E+04 -0.61061706327E+02 -0.65206084738E+03  0.12426243904E+04  0.12699999809E+01 0.  1.
       -4    1    3    3    0  502 -0.10560311936E+04  0.61061706327E+02  0.26362408930E+03  0.10901512222E+04  0.12699999809E+01 0. -1.
</event>
<event>
 5   0  0.1626636E-05  0.2306071E+04  0.7818609E-02  0.8475531E-01
       -2   -1    0    0    0  501  0.00000000000E+00  0.00000000000E+00  0.64616631600E+03  0.64616631600E+03  0.25500000920E-02 0.  1.
        2   -1    0    0  501    0  0.00000000000E+00  0.00000000000E+00 -0.20575052605E+04  0.20575052605E+04  0.25500000920E-02 0. -1.
    10030    2    1    2    0    0  0.00000000000E+00  0.00000000000E+00 -0.14113389445E+04  0.27036715765E+04  0.23060707659E+04 0.  0.
        4    1    3    3  502    0 -0.58641136169E+03  0.90883620218E+03 -0.11740891149E+04  0.15963547194E+04  0.12699999809E+01 0. -1.
       -4    1    3    3    0  502  0.58641136169E+03 -0.90883620218E+03 -0.23724982961E+03  0.11073168571E+04  0.12699999809E+01 0.  1.
</event>
<event>
 5   0  0.7278815E-06  0.2302583E+04  0.7818609E-02  0.8476903E-01
       -1   -1    0    0    0  501  0.00000000000E+00  0.00000000000E+00  0.16343230648E+04  0.16343230648E+04  0.50400001928E-02 0.  1.
        1   -1    0    0  501    0  0.00000000000E+00  0.00000000000E+00 -0.81102191951E+03  0.81102191952E+03  0.50400001928E-02 0. -1.
    10030    2    1    2    0    0  0.00000000000E+00  0.00000000000E+00  0.82330114533E+03  0.24453449844E+04  0.23025827491E+04 0.  0.
        5    1    3    3  502    0 -0.56717747920E+02  0.11248614953E+04  0.15828053953E+03  0.11373676212E+04  0.46999998093E+01 0.  1.
       -5    1    3    3    0  502  0.56717747920E+02 -0.11248614953E+04  0.66502060580E+03  0.13079773632E+04  0.46999998093E+01 0. -1.
</event>
<event>
 5   0  0.1602809E-05  0.2301807E+04  0.7818609E-02  0.8477209E-01
        2   -1    0    0  501    0  0.00000000000E+00  0.00000000000E+00  0.14531644054E+04  0.14531644054E+04  0.25500000920E-02 0.  1.
       -2   -1    0    0    0  501  0.00000000000E+00  0.00000000000E+00 -0.91151312069E+03  0.91151312069E+03  0.25500000920E-02 0. -1.
    10030    2    1    2    0    0  0.00000000000E+00  0.00000000000E+00  0.54165128473E+03  0.23646775261E+04  0.23018066140E+04 0.  0.
        3    1    3    3  502    0 -0.15398682499E+03 -0.11371034183E+04  0.17973421622E+03  0.11614734284E+04  0.10100000352E+00 0. -1.
       -3    1    3    3    0  502  0.15398682499E+03  0.11371034183E+04  0.36191706851E+03  0.12032040977E+04  0.10100000352E+00 0.  1.
</event>
<event>
 5   0  0.1588969E-05  0.2299286E+04  0.7818609E-02  0.8478203E-01
       -2   -1    0    0    0  501  0.00000000000E+00  0.00000000000E+00  0.10304400473E+04  0.10304400473E+04  0.25500000920E-02 0.  1.
        2   -1    0    0  501    0  0.00000000000E+00  0.00000000000E+00 -0.12826356070E+04  0.12826356070E+04  0.25500000920E-02 0. -1.
    10030    2    1    2    0    0  0.00000000000E+00  0.00000000000E+00 -0.25219555967E+03  0.23130756543E+04  0.22992860592E+04 0.  0.
        1    1    3    3  502    0  0.55496850498E+03  0.99371395551E+03 -0.28899987212E+03  0.11742991071E+04  0.50400001928E-02 0.  1.
       -1    1    3    3    0  502 -0.55496850498E+03 -0.99371395551E+03  0.36804312448E+02  0.11387765471E+04  0.50400001928E-02 0. -1.
</event>
<event>
 5   0  0.7183014E-06  0.2289869E+04  0.7818609E-02  0.8481926E-01
       -1   -1    0    0    0  501  0.00000000000E+00  0.00000000000E+00  0.90306319585E+03  0.90306319587E+03  0.50400001928E-02 0. -1.
        1   -1    0    0  501    0  0.00000000000E+00  0.00000000000E+00 -0.14515871321E+04  0.14515871321E+04  0.50400001928E-02 0.  1.
    10030    2    1    2    0    0  0.00000000000E+00  0.00000000000E+00 -0.54852393628E+03  0.23546503280E+04  0.22898689173E+04 0.  0.
        3    1    3    3  502    0  0.42067289575E+03  0.86894945566E+03  0.35864730298E+03  0.10298867607E+04  0.10100000352E+00 0.  1.
       -3    1    3    3    0  502 -0.42067289575E+03 -0.86894945566E+03 -0.90717123926E+03  0.13247635673E+04  0.10100000352E+00 0. -1.
</event>
<event>
 5   0  0.7416556E-06  0.2295928E+04  0.7818609E-02  0.8479529E-01
        1   -1    0    0  501    0  0.00000000000E+00  0.00000000000E+00  0.16028248861E+04  0.16028248861E+04  0.50400001928E-02 0.  1.
       -1   -1    0    0    0  501  0.00000000000E+00  0.00000000000E+00 -0.82218641611E+03  0.82218641612E+03  0.50400001928E-02 0. -1.
    10030    2    1    2    0    0  0.00000000000E+00  0.00000000000E+00  0.78063847001E+03  0.24250113022E+04  0.22959275675E+04 0.  0.
        4    1    3    3  502    0  0.10426503033E+04 -0.38122053472E+03  0.69892885385E+03  0.13118505657E+04  0.12699999809E+01 0. -1.
       -4    1    3    3    0  502 -0.10426503033E+04  0.38122053472E+03  0.81709616156E+02  0.11131607365E+04  0.12699999809E+01 0.  1.
</event>
<event>
 5   0  0.7416556E-06  0.2294873E+04  0.7818609E-02  0.8479945E-01
        1   -1    0    0  501    0  0.00000000000E+00  0.00000000000E+00  0.17372475203E+04  0.17372475203E+04  0.50400001928E-02 0.  1.
       -1   -1    0    0    0  501  0.00000000000E+00  0.00000000000E+00 -0.75787137978E+03  0.75787137979E+03  0.50400001928E-02 0. -1.
    10030    2    1    2    0    0  0.00000000000E+00  0.00000000000E+00  0.97937614054E+03  0.24951189001E+04  0.22948726982E+04 0.  0.
        4    1    3    3  502    0  0.42837103597E+03  0.78297579964E+03 -0.29438688755E+03  0.93979683961E+03  0.12699999809E+01 0. -1.
       -4    1    3    3    0  502 -0.42837103597E+03 -0.78297579964E+03  0.12737630281E+04  0.15553220605E+04  0.12699999809E+01 0.  1.
</event>
<event>
 5   0  0.7416556E-06  0.2298714E+04  0.7818609E-02  0.8478429E-01
       -1   -1    0    0    0  501  0.00000000000E+00  0.00000000000E+00  0.80537144216E+03  0.80537144218E+03  0.50400001928E-02 0. -1.
        1   -1    0    0  501    0  0.00000000000E+00  0.00000000000E+00 -0.16402629922E+04  0.16402629922E+04  0.50400001928E-02 0.  1.
    10030    2    1    2    0    0  0.00000000000E+00  0.00000000000E+00 -0.83489155002E+03  0.24456344344E+04  0.22987135285E+04 0.  0.
        4    1    3    3  502    0  0.93027983099E+03  0.38041145343E+03 -0.10106540711E+04  0.14253268756E+04  0.12699999809E+01 0.  1.
       -4    1    3    3    0  502 -0.93027983099E+03 -0.38041145343E+03  0.17576252108E+03  0.10203075588E+04  0.12699999809E+01 0. -1.
</event>
<event>
 5   0  0.7183014E-06  0.2292574E+04  0.7818609E-02  0.8480855E-01
        1   -1    0    0  501    0  0.00000000000E+00  0.00000000000E+00  0.99871739268E+03  0.99871739269E+03  0.50400001928E-02 0.  1.
       -1   -1    0    0    0  501  0.00000000000E+00  0.00000000000E+00 -0.13156612498E+04  0.13156612498E+04  0.50400001928E-02 0. -1.
    10030    2    1    2    0    0  0.00000000000E+00  0.00000000000E+00 -0.31694385708E+03  0.23143786425E+04  0.22925739011E+04 0.  0.
        3    1    3    3  502    0 -0.79199355034E+03  0.29912085473E+03  0.62169573527E+03  0.10503488311E+04  0.10100000352E+00 0.  1.
       -3    1    3    3    0  502  0.79199355034E+03 -0.29912085473E+03 -0.93863959235E+03  0.12640298114E+04  0.10100000352E+00 0. -1.
</event>
<event>
 5   0  0.1697855E-05  0.2299250E+04  0.7818609E-02  0.8478217E-01
       -2   -1    0    0    0  501  0.00000000000E+00  0.00000000000E+00  0.96029349342E+03  0.96029349343E+03  0.25500000920E-02 0.  1.
        2   -1    0    0  501    0  0.00000000000E+00  0.00000000000E+00 -0.13762853937E+04  0.13762853937E+04  0.25500000920E-02 0. -1.
    10030    2    1    2    0    0  0.00000000000E+00  0.00000000000E+00 -0.41599190029E+03  0.23365788871E+04  0.22992502332E+04 0.  0.
        5    1    3    3  502    0  0.15782096121E+03 -0.11233584867E+04 -0.39750152561E+03  0.12020279939E+04  0.46999998093E+01 0. -1.
       -5    1    3    3    0  502 -0.15782096121E+03  0.11233584867E+04 -0.18490374679E+02  0.11345508932E+04  0.46999998093E+01 0.  1.
</event>
<event>
 5   0  0.1635955E-05  0.2281814E+04  0.7818609E-02  0.8485126E-01
       -2   -1    0    0    0  501  0.00000000000E+00  0.00000000000E+00  0.11710904103E+04  0.11710904103E+04  0.25500000920E-02 0. -1.
        2   -1    0    0  501    0  0.00000000000E+00  0.00000000000E+00 -0.11115011788E+04  0.11115011788E+04  0.25500000920E-02 0.  1.
    10030    2    1    2    0    0  0.00000000000E+00  0.00000000000E+00  0.59589231429E+02  0.22825915891E+04  0.22818136397E+04 0.  0.
        2    1    3    3  502    0 -0.88226808674E+02 -0.43368935879E+03 -0.10221331765E+04  0.11138342158E+04  0.25500000920E-02 0.  1.
       -2    1    3    3    0  502  0.88226808674E+02  0.43368935879E+03  0.10817224080E+04  0.11687573733E+04  0.25500000920E-02 0. -1.
</event>
<event>
 5   0  0.7202572E-06  0.2298309E+04  0.7818609E-02  0.8478588E-01
       -1   -1    0    0    0  501  0.00000000000E+00  0.00000000000E+00  0.15573341534E+04  0.15573341534E+04  0.50400001928E-02 0.  1.
        1   -1    0    0  501    0  0.00000000000E+00  0.00000000000E+00 -0.84795901711E+03  0.84795901713E+03  0.50400001928E-02 0. -1.
    10030    2    1    2    0    0  0.00000000000E+00  0.00000000000E+00  0.70937513626E+03  0.24052931705E+04  0.22983085415E+04 0.  0.
        2    1    3    3  502    0  0.99156423388E+03 -0.40798512040E+03  0.78733672718E+03  0.13302445679E+04  0.25500000920E-02 0.  1.
       -2    1    3    3    0  502 -0.99156423388E+03  0.40798512040E+03 -0.77961590915E+02  0.10750486026E+04  0.25500000920E-02 0. -1.
</event>
<event>
 5   0  0.7391007E-06  0.2299967E+04  0.7818609E-02  0.8477934E-01
       -1   -1    0    0    0  501  0.00000000000E+00  0.00000000000E+00  0.12117467055E+04  0.12117467055E+04  0.50400001928E-02 0. -1.
        1   -1    0    0  501    0  0.00000000000E+00  0.00000000000E+00 -0.10913686441E+04  0.10913686441E+04  0.50400001928E-02 0.  1.
    10030    2    1    2    0    0  0.00000000000E+00  0.00000000000E+00  0.12037806142E+03  0.23031153496E+04  0.22999672684E+04 0.  0.
        1    1    3    3  502    0 -0.79546470088E+03  0.53098289643E+03  0.69962036170E+03  0.11849791463E+04  0.50400001928E-02 0. -1.
       -1    1    3    3    0  502  0.79546470088E+03 -0.53098289643E+03 -0.57924230028E+03  0.11181362033E+04  0.50400001928E-02 0.  1.
</event>
<event>
 5   0  0.7183014E-06  0.2301219E+04  0.7818609E-02  0.8477441E-01
        1   -1    0    0  501    0  0.00000000000E+00  0.00000000000E+00  0.99956413695E+03  0.99956413696E+03  0.50400001928E-02 0.  1.
       -1   -1    0    0    0  501  0.00000000000E+00  0.00000000000E+00 -0.13244793287E+04  0.13244793287E+04  0.50400001928E-02 0. -1.
    10030    2    1    2    0    0  0.00000000000E+00  0.00000000000E+00 -0.32491519172E+03  0.23240434656E+04  0.23012188397E+04 0.  0.
        3    1    3    3  502    0  0.95441249151E+03 -0.56250164398E+03 -0.47633065110E+03  0.12059030653E+04  0.10100000352E+00 0. -1.
       -3    1    3    3    0  502 -0.95441249151E+03  0.56250164398E+03  0.15141545938E+03  0.11181404004E+04  0.10100000352E+00 0.  1.
</event>
<event>
 5   0  0.7391007E-06  0.2292665E+04  0.7818609E-02  0.8480819E-01
        1   -1    0    0  501    0  0.00000000000E+00  0.00000000000E+00  0.11891895675E+04  0.11891895675E+04  0.50400001928E-02 0. -1.
       -1   -1    0    0    0  501  0.00000000000E+00  0.00000000000E+00 -0.11050203764E+04  0.11050203764E+04  0.50400001928E-02 0.  1.
    10030    2    1    2    0    0  0.00000000000E+00  0.00000000000E+00  0.84169191173E+02  0.22942099439E+04  0.22926654387E+04 0.  0.
        1    1    3    3  502    0  0.58873050165E+03 -0.97757189806E+03  0.15091577753E+03  0.11510977332E+04  0.50400001928E-02 0. -1.
       -1    1    3    3    0  502 -0.58873050165E+03  0.97757189806E+03 -0.66746586356E+02  0.11431122107E+04  0.50400001928E-02 0.  1.
</event>
<event>
 5   0  0.7416556E-06  0.2306763E+04  0.7818609E-02  0.8475259E-01
       -1   -1    0    0    0  501  0.00000000000E+00  0.00000000000E+00  0.11370615618E+04  0.11370615619E+04  0.50400001928E-02 0.  1.
        1   -1    0    0  501    0  0.00000000000E+00  0.00000000000E+00 -0.11699361392E+04  0.11699361392E+04  0.50400001928E-02 0. -1.
    10030    2    1    2    0    0  0.00000000000E+00  0.00000000000E+00 -0.32874577338E+02  0.23069977011E+04  0.23067634588E+04 0.  0.
        4    1    3    3  502    0  0.85860664996E+03  0.21444943700E+03 -0.75617033260E+03  0.11640400015E+04  0.12699999809E+01 0. -1.
       -4    1    3    3    0  502 -0.85860664996E+03 -0.21444943700E+03  0.72329575526E+03  0.11429576995E+04  0.12699999809E+01 0.  1.
</event>
<event>
 5   0  0.7416556E-06  0.2299446E+04  0.7818609E-02  0.8478139E-01
       -1   -1    0    0    0  501  0.00000000000E+00  0.00000000000E+00  0.79600625611E+03  0.79600625613E+03  0.50400001928E-02 0.  1.
        1   -1    0    0  501    0  0.00000000000E+00  0.00000000000E+00 -0.16606191904E+04  0.16606191904E+04  0.50400001928E-02 0. -1.
    10030    2    1    2    0    0  0.00000000000E+00  0.00000000000E+00 -0.86461293429E+03  0.24566254465E+04  0.22994462504E+04 0.  0.
        4    1    3    3  502    0 -0.10327441976E+04  0.31700045917E+03 -0.11950042071E+02  0.10803676620E+04  0.12699999809E+01 0.  1.
       -4    1    3    3    0  502  0.10327441976E+04 -0.31700045917E+03 -0.85266289222E+03  0.13762577845E+04  0.12699999809E+01 0. -1.
</event>
<event>
 5   0  0.7183014E-06  0.2234553E+04  0.7818609E-02  0.8504183E-01
       -1   -1    0    0    0  501  0.00000000000E+00  0.00000000000E+00  0.77619345858E+03  0.77619345860E+03  0.50400001928E-02 0.  1.
        1   -1    0    0  501    0  0.00000000000E+00  0.00000000000E+00 -0.16082414944E+04  0.16082414944E+04  0.50400001928E-02 0. -1.
    10030    2    1    2    0    0  0.00000000000E+00  0.00000000000E+00 -0.83204803577E+03  0.23844349530E+04  0.22345527765E+04 0.  0.
        3    1    3    3  502    0  0.10023871016E+04 -0.97782267074E+02  0.10011957052E+03  0.10121092884E+04  0.10100000352E+00 0.  1.
       -3    1    3    3    0  502 -0.10023871016E+04  0.97782267074E+02 -0.93216760629E+03  0.13723256645E+04  0.10100000352E+00 0. -1.
</event>
<event>
 5   0  0.1635955E-05  0.2314380E+04  0.7818609E-02  0.8472273E-01
        2   -1    0    0  501    0  0.00000000000E+00  0.00000000000E+00  0.19089463758E+04  0.19089463758E+04  0.25500000920E-02 0. -1.
       -2   -1    0    0    0  501  0.00000000000E+00  0.00000000000E+00 -0.70148064731E+03  0.70148064732E+03  0.25500000920E-02 0.  1.
    10030    2    1    2    0    0  0.00000000000E+00  0.00000000000E+00  0.12074657285E+04  0.26104270231E+04  0.23143802103E+04 0.  0.
        2    1    3    3  502    0  0.69432789668E+01  0.31458819127E+03 -0.65229948729E+03  0.72422963233E+03  0.25500000920E-02 0.  1.
       -2    1    3    3    0  502 -0.69432789668E+01 -0.31458819127E+03  0.18597652158E+04  0.18861973908E+04  0.25500000920E-02 0. -1.
</event>
<event>
 5   0  0.7278815E-06  0.2300252E+04  0.7818609E-02  0.8477822E-01
        1   -1    0    0  501    0  0.00000000000E+00  0.00000000000E+00  0.11233162673E+04  0.11233162673E+04  0.50400001928E-02 0.  1.
       -1   -1    0    0    0  501  0.00000000000E+00  0.00000000000E+00 -0.11775760937E+04  0.11775760937E+04  0.50400001928E-02 0. -1.
    10030    2    1    2    0    0  0.00000000000E+00  0.00000000000E+00 -0.54259826463E+02  0.23008923610E+04  0.23002524923E+04 0.  0.
        5    1    3    3  502    0 -0.15416532202E+03 -0.44430702277E+03 -0.10769896979E+04  0.11752040574E+04  0.46999998093E+01 0. -1.
       -5    1    3    3    0  502  0.15416532202E+03  0.44430702277E+03  0.10227298715E+04  0.11256883037E+04  0.46999998093E+01 0.  1.
</event>
<event>
 5   0  0.1588969E-05  0.2295510E+04  0.7818609E-02  0.8479694E-01
        2   -1    0    0  501    0  0.00000000000E+00  0.00000000000E+00  0.94544519627E+03  0.94544519628E+03  0.25500000920E-02 0. -1.
       -2   -1    0    0    0  501  0.00000000000E+00  0.00000000000E+00 -0.13933555368E+04  0.13933555368E+04  0.25500000920E-02 0.  1.
    10030    2    1    2    0    0  0.00000000000E+00  0.00000000000E+00 -0.44791034052E+03  0.23388007331E+04  0.22955097900E+04 0.  0.
        1    1    3    3  502    0  0.70737565565E+03  0.95509665275E+02  0.69179382078E+03  0.99402268831E+03  0.50400001928E-02 0. -1.
       -1    1    3    3    0  502 -0.70737565565E+03 -0.95509665275E+02 -0.11397041613E+04  0.13447780448E+04  0.50400001928E-02 0.  1.
</event>
<event>
 5   0  0.7183014E-06  0.2304009E+04  0.7818609E-02  0.8476342E-01
        1   -1    0    0  501    0  0.00000000000E+00  0.00000000000E+00  0.16594391219E+04  0.16594391219E+04  0.50400001928E-02 0. -1.
       -1   -1    0    0    0  501  0.00000000000E+00  0.00000000000E+00 -0.79973678035E+03  0.79973678037E+03  0.50400001928E-02 0.  1.
    10030    2    1    2    0    0  0.00000000000E+00  0.00000000000E+00  0.85970234156E+03  0.24591759023E+04  0.23040091151E+04 0.  0.
        3    1    3    3  502    0 -0.51260791669E+02 -0.17639621619E+03  0.16437066808E+04  0.16539392240E+04  0.10100000352E+00 0. -1.
       -3    1    3    3    0  502  0.51260791669E+02  0.17639621619E+03 -0.78400433928E+03  0.80523667829E+03  0.10100000352E+00 0.  1.
</event>
<event>
 5   0  0.1588969E-05  0.2308796E+04  0.7818609E-02  0.8474461E-01
       -2   -1    0    0    0  501  0.00000000000E+00  0.00000000000E+00  0.69608764876E+03  0.69608764877E+03  0.25500000920E-02 0. -1.
        2   -1    0    0  501    0  0.00000000000E+00  0.00000000000E+00 -0.19144635183E+04  0.19144635183E+04  0.25500000920E-02 0.  1.
    10030    2    1    2    0    0  0.00000000000E+00  0.00000000000E+00 -0.12183758696E+04  0.26105511671E+04  0.23087957113E+04 0.  0.
        1    1    3    3  502    0  0.47344266688E+03  0.86754896969E+03 -0.12836806764E+04  0.16200695209E+04  0.50400001928E-02 0.  1.
       -1    1    3    3    0  502 -0.47344266688E+03 -0.86754896969E+03  0.65304806817E+02  0.99048164619E+03  0.50400001928E-02 0. -1.
</event>
<event>
 5   0  0.7391007E-06  0.2307777E+04  0.7818609E-02  0.8474861E-01
       -1   -1    0    0    0  501  0.00000000000E+00  0.00000000000E+00  0.85101593237E+03  0.85101593238E+03  0.50400001928E-02 0. -1.
        1   -1    0    0  501    0  0.00000000000E+00  0.00000000000E+00 -0.15645523336E+04  0.15645523336E+04  0.50400001928E-02 0.  1.
    10030    2    1    2    0    0  0.00000000000E+00  0.00000000000E+00 -0.71353640124E+03  0.24155682660E+04  0.23077772535E+04 0.  0.
        1    1    3    3  502    0 -0.10934452089E+04 -0.31649492372E+03 -0.15908863889E+03  0.11493914289E+04  0.50400001928E-02 0.  1.
       -1    1    3    3    0  502  0.10934452089E+04  0.31649492372E+03 -0.55444776235E+03  0.12661768371E+04  0.50400001928E-02 0. -1.
</event>
<event>
 5   0  0.1697855E-05  0.2294834E+04  0.7818609E-02  0.8479961E-01
       -2   -1    0    0    0  501  0.00000000000E+00  0.00000000000E+00  0.81339979162E+03  0.81339979162E+03  0.25500000920E-02 0. -1.
        2   -1    0    0  501    0  0.00000000000E+00  0.00000000000E+00 -0.16185956414E+04  0.16185956414E+04  0.25500000920E-02 0.  1.
    10030    2    1    2    0    0  0.00000000000E+00  0.00000000000E+00 -0.80519584980E+03  0.24319954330E+04  0.22948336388E+04 0.  0.
        5    1    3    3  502    0 -0.77090034235E+03  0.75788344152E+03  0.49226644228E+01  0.10810739898E+04  0.46999998093E+01 0. -1.
       -5    1    3    3    0  502  0.77090034235E+03 -0.75788344152E+03 -0.81011851422E+03  0.13509214433E+04  0.46999998093E+01 0.  1.
</event>
<event>
 5   0  0.7202572E-06  0.2300065E+04  0.7818609E-02  0.8477895E-01
       -1   -1    0    0    0  501  0.00000000000E+00  0.00000000000E+00  0.68979212670E+03  0.68979212672E+03  0.50400001928E-02 0. -1.
        1   -1    0    0  501    0  0.00000000000E+00  0.00000000000E+00 -0.19173534239E+04  0.19173534239E+04  0.50400001928E-02 0.  1.
    10030    2    1    2    0    0  0.00000000000E+00  0.00000000000E+00 -0.12275612972E+04  0.26071455506E+04  0.23000654738E+04 0.  0.
        2    1    3    3  502    0  0.40982554874E+02  0.76406340574E+03 -0.15869515626E+04  0.17617853785E+04  0.25500000920E-02 0.  1.
       -2    1    3    3    0  502 -0.40982554874E+02 -0.76406340574E+03  0.35939026540E+03  0.84536017215E+03  0.25500000920E-02 0. -1.
</event>
<event>
 5   0  0.1602809E-05  0.2301699E+04  0.7818609E-02  0.8477252E-01
        2   -1    0    0  501    0  0.00000000000E+00  0.00000000000E+00  0.27309925268E+04  0.27309925268E+04  0.25500000920E-02 0.  1.
       -2   -1    0    0    0  501  0.00000000000E+00  0.00000000000E+00 -0.48497177829E+03  0.48497177829E+03  0.25500000920E-02 0. -1.
    10030    2    1    2    0    0  0.00000000000E+00  0.00000000000E+00  0.22460207485E+04  0.32159643051E+04  0.23016987659E+04 0.  0.
        3    1    3    3  502    0 -0.44092528473E+03  0.15227247082E+03  0.25929773123E+04  0.26346030753E+04  0.10100000352E+00 0.  1.
       -3    1    3    3    0  502  0.44092528473E+03 -0.15227247082E+03 -0.34695656382E+03  0.58136122976E+03  0.10100000352E+00 0. -1.
</event>
<event>
 5   0  0.1635955E-05  0.2309316E+04  0.7818609E-02  0.8474257E-01
       -2   -1    0    0    0  501  0.00000000000E+00  0.00000000000E+00  0.15282475072E+04  0.15282475072E+04  0.25500000920E-02 0. -1.
        2   -1    0    0  501    0  0.00000000000E+00  0.00000000000E+00 -0.87239510740E+03  0.87239510741E+03  0.25500000920E-02 0.  1.
    10030    2    1    2    0    0  0.00000000000E+00  0.00000000000E+00  0.65585239982E+03  0.24006426146E+04  0.23093164774E+04 0.  0.
        2    1    3    3  502    0  0.64599211925E+03  0.37476623992E+03  0.12433651447E+04  0.14504180211E+04  0.25500000920E-02 0. -1.
       -2    1    3    3    0  502 -0.64599211925E+03 -0.37476623992E+03 -0.58751274493E+03  0.95022459354E+03  0.25500000920E-02 0.  1.
</event>
<event>
 5   0  0.7202572E-06  0.2298750E+04  0.7818609E-02  0.8478414E-01
        1   -1    0    0  501    0  0.00000000000E+00  0.00000000000E+00  0.10766723218E+04  0.10766723218E+04  0.50400001928E-02 0.  1.
       -1   -1    0    0    0  501  0.00000000000E+00  0.00000000000E+00 -0.12269874075E+04  0.12269874075E+04  0.50400001928E-02 0. -1.
    10030    2    1    2    0    0  0.00000000000E+00  0.00000000000E+00 -0.15031508572E+03  0.23036597293E+04  0.22987504265E+04 0.  0.
        2    1    3    3  502    0  0.11318397761E+04  0.15815074289E+03 -0.19785449181E+03  0.11598359092E+04  0.25500000920E-02 0.  1.
       -2    1    3    3    0  502 -0.11318397761E+04 -0.15815074289E+03  0.47539406091E+02  0.11438238201E+04  0.25500000920E-02 0. -1.
</event>
<event>
 5   0  0.1697855E-05  0.2339591E+04  0.7818609E-02  0.8462473E-01
        2   -1    0    0  501    0  0.00000000000E+00  0.00000000000E+00  0.19193193906E+04  0.19193193906E+04  0.25500000920E-02 0. -1.
       -2   -1    0    0    0  501  0.00000000000E+00  0.00000000000E+00 -0.71297206208E+03  0.71297206208E+03  0.25500000920E-02 0.  1.
    10030    2    1    2    0    0  0.00000000000E+00  0.00000000000E+00  0.12063473286E+04  0.26322914527E+04  0.23395906512E+04 0.  0.
        5    1    3    3  502    0  0.90418734579E+03  0.73317963820E+03  0.73288777718E+03  0.13755921351E+04  0.46999998093E+01 0. -1.
       -5    1    3    3    0  502 -0.90418734579E+03 -0.73317963820E+03  0.47345955140E+03  0.12566993176E+04  0.46999998093E+01 0.  1.
</event>
<event>
 5   0  0.1697855E-05  0.2294824E+04  0.7818609E-02  0.8479965E-01
       -2   -1    0    0    0  501  0.00000000000E+00  0.00000000000E+00  0.13814244115E+04  0.13814244115E+04  0.25500000920E-02 0.  1.
        2   -1    0    0  501    0  0.00000000000E+00  0.00000000000E+00 -0.95304153337E+03  0.95304153337E+03  0.25500000920E-02 0. -1.
    10030    2    1    2    0    0  0.00000000000E+00  0.00000000000E+00  0.42838287813E+03  0.23344659449E+04  0.22948244721E+04 0.  0.
        5    1    3    3  502    0  0.39949652938E+03  0.33808283855E+03 -0.82454238959E+03  0.97662158738E+03  0.46999998093E+01 0. -1.
       -5    1    3    3    0  502 -0.39949652938E+03 -0.33808283855E+03  0.12529252677E+04  0.13578443575E+04  0.46999998093E+01 0.  1.
</event>
<event>
 5   0  0.1602809E-05  0.2318619E+04  0.7818609E-02  0.8470616E-01
       -2   -1    0    0    0  501  0.00000000000E+00  0.00000000000E+00  0.95724146333E+03  0.95724146334E+03  0.25500000920E-02 0.  1.
        2   -1    0    0  501    0  0.00000000000E+00  0.00000000000E+00 -0.14040323051E+04  0.14040323051E+04  0.25500000920E-02 0. -1.
    10030    2    1    2    0    0  0.00000000000E+00  0.00000000000E+00 -0.44679084178E+03  0.23612737685E+04  0.23186185010E+04 0.  0.
        3    1    3    3  502    0 -0.11216736508E+04  0.26087907488E+03 -0.87569159054E+02  0.11549363786E+04  0.10100000352E+00 0. -1.
       -3    1    3    3    0  502  0.11216736508E+04 -0.26087907488E+03 -0.35922168273E+03  0.12063373899E+04  0.10100000352E+00 0.  1.
</event>
<event>
 5   0  0.1588969E-05  0.2317795E+04  0.7818609E-02  0.8470938E-01
        2   -1    0    0  501    0  0.00000000000E+00  0.00000000000E+00  0.10256208172E+04  0.10256208172E+04  0.25500000920E-02 0. -1.
       -2   -1    0    0    0  501  0.00000000000E+00  0.00000000000E+00 -0.13094935843E+04  0.13094935843E+04  0.25500000920E-02 0.  1.
    10030    2    1    2    0    0  0.00000000000E+00  0.00000000000E+00 -0.28387276707E+03  0.23351144016E+04  0.23177954009E+04 0.  0.
        1    1    3    3  502    0 -0.10907047945E+04 -0.30713360385E+03 -0.38680784201E+03  0.11973254804E+04  0.50400001928E-02 0. -1.
       -1    1    3    3    0  502  0.10907047945E+04  0.30713360385E+03  0.10293507495E+03  0.11377889211E+04  0.50400001928E-02 0.  1.
</event>
<event>
 5   0  0.7278815E-06  0.2301637E+04  0.7818609E-02  0.8477276E-01
       -1   -1    0    0    0  501  0.00000000000E+00  0.00000000000E+00  0.72739241796E+03  0.72739241798E+03  0.50400001928E-02 0.  1.
        1   -1    0    0  501    0  0.00000000000E+00  0.00000000000E+00 -0.18207270157E+04  0.18207270158E+04  0.50400001928E-02 0. -1.
    10030    2    1    2    0    0  0.00000000000E+00  0.00000000000E+00 -0.10933345978E+04  0.25481194337E+04  0.23016368319E+04 0.  0.
        5    1    3    3  502    0  0.10262223878E+04  0.50568945161E+03 -0.68452881005E+03  0.13332126584E+04  0.46999998093E+01 0. -1.
       -5    1    3    3    0  502 -0.10262223878E+04 -0.50568945161E+03 -0.40880578773E+03  0.12149067753E+04  0.46999998093E+01 0.  1.
</event>
<event>
 5   0  0.7391007E-06  0.2304161E+04  0.7818609E-02  0.8476282E-01
        1   -1    0    0  501    0  0.00000000000E+00  0.00000000000E+00  0.18764258453E+04  0.18764258453E+04  0.50400001928E-02 0.  1.
       -1   -1    0    0    0  501  0.00000000000E+00  0.00000000000E+00 -0.70734987808E+03  0.70734987809E+03  0.50400001928E-02 0. -1.
    10030    2    1    2    0    0  0.00000000000E+00  0.00000000000E+00  0.11690759672E+04  0.25837757234E+04  0.23041610993E+04 0.  0.
        1    1    3    3  502    0  0.89486475450E+03 -0.65837560613E+03  0.92659304439E+03  0.14466568486E+04  0.50400001928E-02 0.  1.
       -1    1    3    3    0  502 -0.89486475450E+03  0.65837560613E+03  0.24248292284E+03  0.11371188748E+04  0.50400001928E-02 0. -1.
</event>
<event>
 5   0  0.1635955E-05  0.2319622E+04  0.7818609E-02  0.8470224E-01
        2   -1    0    0  501    0  0.00000000000E+00  0.00000000000E+00  0.10581251608E+04  0.10581251608E+04  0.25500000920E-02 0. -1.
       -2   -1    0    0    0  501  0.00000000000E+00  0.00000000000E+00 -0.12712687230E+04  0.12712687230E+04  0.25500000920E-02 0.  1.
    10030    2    1    2    0    0  0.00000000000E+00  0.00000000000E+00 -0.21314356217E+03  0.23293938838E+04  0.23196218847E+04 0.  0.
        2    1    3    3  502    0 -0.78831902762E+03 -0.60753541239E+03  0.49143270329E+03  0.11099784991E+04  0.25500000920E-02 0. -1.
       -2    1    3    3    0  502  0.78831902762E+03  0.60753541239E+03 -0.70457626545E+03  0.12194153847E+04  0.25500000920E-02 0.  1.
</event>
<event>
 5   0  0.7202572E-06  0.2295244E+04  0.7818609E-02  0.8479799E-01
       -1   -1    0    0    0  501  0.00000000000E+00  0.00000000000E+00  0.21841265550E+04  0.21841265550E+04  0.50400001928E-02 0.  1.
        1   -1    0    0  501    0  0.00000000000E+00  0.00000000000E+00 -0.60300343798E+03  0.60300343800E+03  0.50400001928E-02 0. -1.
    10030    2    1    2    0    0  0.00000000000E+00  0.00000000000E+00  0.15811231170E+04  0.27871299930E+04  0.22952436225E+04 0.  0.
        2    1    3    3  502    0 -0.44102322443E+03 -0.10192171559E+04  0.11419365633E+04  0.15928980539E+04  0.25500000920E-02 0. -1.
       -2    1    3    3    0  502  0.44102322443E+03  0.10192171559E+04  0.43918655366E+03  0.11942319391E+04  0.25500000920E-02 0.  1.
</event>
<event>
 5   0  0.1588969E-05  0.2302858E+04  0.7818609E-02  0.8476795E-01
        2   -1    0    0  501    0  0.00000000000E+00  0.00000000000E+00  0.17763399877E+04  0.17763399877E+04  0.25500000920E-02 0. -1.
       -2   -1    0    0    0  501  0.00000000000E+00  0.00000000000E+00 -0.74636007077E+03  0.74636007077E+03  0.25500000920E-02 0.  1.
    10030    2    1    2    0    0  0.00000000000E+00  0.00000000000E+00  0.10299799169E+04  0.25227000585E+04  0.23028584315E+04 0.  0.
        1    1    3    3  502    0 -0.18625850397E+03  0.31575500231E+03  0.17107014602E+04  0.17495407791E+04  0.50400001928E-02 0. -1.
       -1    1    3    3    0  502  0.18625850397E+03 -0.31575500231E+03 -0.68072154327E+03  0.77315927937E+03  0.50400001928E-02 0.  1.
</event>
<event>
 5   0  0.1697855E-05  0.2274451E+04  0.7818609E-02  0.8488063E-01
       -2   -1    0    0    0  501  0.00000000000E+00  0.00000000000E+00  0.60513112646E+03  0.60513112647E+03  0.25500000920E-02 0.  1.
        2   -1    0    0  501    0  0.00000000000E+00  0.00000000000E+00 -0.21371922001E+04  0.21371922001E+04  0.25500000920E-02 0. -1.
    10030    2    1    2    0    0  0.00000000000E+00  0.00000000000E+00 -0.15320610736E+04  0.27423233266E+04  0.22744507236E+04 0.  0.
        5    1    3    3  502    0  0.32763961825E+03  0.10594669327E+04 -0.46234160884E+03  0.12014989614E+04  0.46999998093E+01 0.  1.
       -5    1    3    3    0  502 -0.32763961825E+03 -0.10594669327E+04 -0.10697194648E+04  0.15408243652E+04  0.46999998093E+01 0. -1.
</event>
<event>
 5   0  0.7278815E-06  0.2292216E+04  0.7818609E-02  0.8480997E-01
        1   -1    0    0  501    0  0.00000000000E+00  0.00000000000E+00  0.21770813375E+04  0.21770813375E+04  0.50400001928E-02 0. -1.
       -1   -1    0    0    0  501  0.00000000000E+00  0.00000000000E+00 -0.60335964444E+03  0.60335964446E+03  0.50400001928E-02 0.  1.
    10030    2    1    2    0    0  0.00000000000E+00  0.00000000000E+00  0.15737216931E+04  0.27804409820E+04  0.22922155411E+04 0.  0.
        5    1    3    3  502    0  0.90046373001E+03 -0.66173404048E+03  0.10956719092E+04  0.15650066747E+04  0.46999998093E+01 0. -1.
       -5    1    3    3    0  502 -0.90046373001E+03  0.66173404048E+03  0.47804978391E+03  0.12154343073E+04  0.46999998093E+01 0.  1.
</event>
<event>
 5   0  0.7278815E-06  0.2291940E+04  0.7818609E-02  0.8481106E-01
       -1   -1    0    0    0  501  0.00000000000E+00  0.00000000000E+00  0.59660789963E+03  0.59660789965E+03  0.50400001928E-02 0. -1.
        1   -1    0    0  501    0  0.00000000000E+00  0.00000000000E+00 -0.22011897783E+04  0.22011897783E+04  0.50400001928E-02 0.  1.
    10030    2    1    2    0    0  0.00000000000E+00  0.00000000000E+00 -0.16045818786E+04  0.27977976779E+04  0.22919399733E+04 0.  0.
        5    1    3    3  502    0 -0.40292933649E+03 -0.32419919640E+03  0.44604286270E+03  0.68295936520E+03  0.46999998093E+01 0. -1.
       -5    1    3    3    0  502  0.40292933649E+03  0.32419919640E+03 -0.20506247413E+04  0.21148383127E+04  0.46999998093E+01 0.  1.
</event>
<event>
 5   0  0.1588969E-05  0.2284766E+04  0.7818609E-02  0.8483952E-01
        2   -1    0    0  501    0  0.00000000000E+00  0.00000000000E+00  0.16255017660E+04  0.16255017660E+04  0.25500000920E-02 0.  1.
       -2   -1    0    0    0  501  0.00000000000E+00  0.00000000000E+00 -0.80285264458E+03  0.80285264459E+03  0.25500000920E-02 0. -1.
    10030    2    1    2    0    0  0.00000000000E+00  0.00000000000E+00  0.82264912138E+03  0.24283544106E+04  0.22847655386E+04 0.  0.
        1    1    3    3  502    0  0.35457281831E+03 -0.10658323342E+04  0.63253435230E+03  0.12891160362E+04  0.50400001928E-02 0. -1.
       -1    1    3    3    0  502 -0.35457281831E+03  0.10658323342E+04  0.19011476908E+03  0.11392383743E+04  0.50400001928E-02 0.  1.
</event>
<event>
 5   0  0.1626636E-05  0.2301315E+04  0.7818609E-02  0.8477403E-01
        2   -1    0    0  501    0  0.00000000000E+00  0.00000000000E+00  0.12463452781E+04  0.12463452781E+04  0.25500000920E-02 0.  1.
       -2   -1    0    0    0  501  0.00000000000E+00  0.00000000000E+00 -0.10623163128E+04  0.10623163128E+04  0.25500000920E-02 0. -1.
    10030    2    1    2    0    0  0.00000000000E+00  0.00000000000E+00  0.18402896526E+03  0.23086615909E+04  0.23013152069E+04 0.  0.
        4    1    3    3  502    0 -0.11352269539E+04 -0.25221388432E+02  0.27871325651E+03  0.11692130035E+04  0.12699999809E+01 0.  1.
       -4    1    3    3    0  502  0.11352269539E+04  0.25221388432E+02 -0.94684291249E+02  0.11394485874E+04  0.12699999809E+01 0. -1.
</event>
<event>
 5   0  0.7202572E-06  0.2297911E+04  0.7818609E-02  0.8478745E-01
       -1   -1    0    0    0  501  0.00000000000E+00  0.00000000000E+00  0.13498828214E+04  0.13498828214E+04  0.50400001928E-02 0.  1.
        1   -1    0    0  501    0  0.00000000000E+00  0.00000000000E+00 -0.97793614889E+03  0.97793614890E+03  0.50400001928E-02 0. -1.
    10030    2    1    2    0    0  0.00000000000E+00  0.00000000000E+00  0.37194667250E+03  0.23278189703E+04  0.22979114063E+04 0.  0.
        2    1    3    3  502    0  0.41292558541E+03 -0.38144210364E+03  0.12010597605E+04  0.13261033768E+04  0.25500000920E-02 0.  1.
       -2    1    3    3    0  502 -0.41292558541E+03  0.38144210364E+03 -0.82911308804E+03  0.10017155935E+04  0.25500000920E-02 0. -1.
</event>
<event>
 5   0  0.7416556E-06  0.2298115E+04  0.7818609E-02  0.8478665E-01
        1   -1    0    0  501    0  0.00000000000E+00  0.00000000000E+00  0.18793467356E+04  0.18793467356E+04  0.50400001928E-02 0.  1.
       -1   -1    0    0    0  501  0.00000000000E+00  0.00000000000E+00 -0.70254903903E+03  0.70254903905E+03  0.50400001928E-02 0. -1.
    10030    2    1    2    0    0  0.00000000000E+00  0.00000000000E+00  0.11767976966E+04  0.25818957747E+04  0.22981150912E+04 0.  0.
        4    1    3    3  502    0 -0.20890701559E+03 -0.85276592272E+03  0.14212028169E+04  0.16705301313E+04  0.12699999809E+01 0.  1.
       -4    1    3    3    0  502  0.20890701559E+03  0.85276592272E+03 -0.24440512029E+03  0.91136564333E+03  0.12699999809E+01 0. -1.
</event>
<event>
 5   0  0.1602809E-05  0.2294460E+04  0.7818609E-02  0.8480108E-01
        2   -1    0    0  501    0  0.00000000000E+00  0.00000000000E+00  0.76242847657E+03  0.76242847658E+03  0.25500000920E-02 0. -1.
       -2   -1    0    0    0  501  0.00000000000E+00  0.00000000000E+00 -0.17262435022E+04  0.17262435022E+04  0.25500000920E-02 0.  1.
    10030    2    1    2    0    0  0.00000000000E+00  0.00000000000E+00 -0.96381502563E+03  0.24886719788E+04  0.22944604626E+04 0.  0.
        3    1    3    3  502    0 -0.39957378556E+03  0.72363017204E+03  0.38093817616E+03  0.91017236842E+03  0.10100000352E+00 0. -1.
       -3    1    3    3    0  502  0.39957378556E+03 -0.72363017204E+03 -0.13447532018E+04  0.15784996104E+04  0.10100000352E+00 0.  1.
</event>
<event>
 5   0  0.7391007E-06  0.2297181E+04  0.7818609E-02  0.8479033E-01
       -1   -1    0    0    0  501  0.00000000000E+00  0.00000000000E+00  0.12246696289E+04  0.12246696289E+04  0.50400001928E-02 0. -1.
        1   -1    0    0  501    0  0.00000000000E+00  0.00000000000E+00 -0.10772378319E+04  0.10772378319E+04  0.50400001928E-02 0.  1.
    10030    2    1    2    0    0  0.00000000000E+00  0.00000000000E+00  0.14743179697E+03  0.23019074609E+04  0.22971812779E+04 0.  0.
        1    1    3    3  502    0 -0.33772246565E+03  0.34668192003E+03 -0.97006799568E+03  0.10841018097E+04  0.50400001928E-02 0.  1.
       -1    1    3    3    0  502  0.33772246565E+03 -0.34668192003E+03  0.11174997926E+04  0.12178056512E+04  0.50400001928E-02 0. -1.
</event>
<event>
 5   0  0.1602809E-05  0.2293163E+04  0.7818609E-02  0.8480622E-01
        2   -1    0    0  501    0  0.00000000000E+00  0.00000000000E+00  0.13841281857E+04  0.13841281857E+04  0.25500000920E-02 0.  1.
       -2   -1    0    0    0  501  0.00000000000E+00  0.00000000000E+00 -0.94980321485E+03  0.94980321485E+03  0.25500000920E-02 0. -1.
    10030    2    1    2    0    0  0.00000000000E+00  0.00000000000E+00  0.43432497084E+03  0.23339314006E+04  0.22931632306E+04 0.  0.
        3    1    3    3  502    0  0.74321636048E+03 -0.26179135391E+03  0.10648831594E+04  0.13247193759E+04  0.10100000352E+00 0.  1.
       -3    1    3    3    0  502 -0.74321636048E+03  0.26179135391E+03 -0.63055818853E+03  0.10092120247E+04  0.10100000352E+00 0. -1.
</event>
<event>
 5   0  0.7202572E-06  0.2296975E+04  0.7818609E-02  0.8479115E-01
       -1   -1    0    0    0  501  0.00000000000E+00  0.00000000000E+00  0.98293925325E+03  0.98293925327E+03  0.50400001928E-02 0.  1.
        1   -1    0    0  501    0  0.00000000000E+00  0.00000000000E+00 -0.13419179405E+04  0.13419179405E+04  0.50400001928E-02 0. -1.
    10030    2    1    2    0    0  0.00000000000E+00  0.00000000000E+00 -0.35897868723E+03  0.23248571938E+04  0.22969752444E+04 0.  0.
        2    1    3    3  502    0 -0.15070584960E+03 -0.14316222876E+03 -0.13227203975E+04  0.13389536686E+04  0.25500000920E-02 0. -1.
       -2    1    3    3    0  502  0.15070584960E+03  0.14316222876E+03  0.96374171023E+03  0.98590352514E+03  0.25500000920E-02 0.  1.
</event>
<event>
 5   0  0.1588969E-05  0.2292514E+04  0.7818609E-02  0.8480879E-01
        2   -1    0    0  501    0  0.00000000000E+00  0.00000000000E+00  0.27113280200E+04  0.27113280200E+04  0.25500000920E-02 0. -1.
       -2   -1    0    0    0  501  0.00000000000E+00  0.00000000000E+00 -0.48459832815E+03  0.48459832815E+03  0.25500000920E-02 0.  1.
    10030    2    1    2    0    0  0.00000000000E+00  0.00000000000E+00  0.22267296918E+04  0.31959263481E+04  0.22925139263E+04 0.  0.
        1    1    3    3  502    0  0.16201664407E+03  0.13995783509E+03 -0.45647719269E+03  0.50419144779E+03  0.50400001928E-02 0.  1.
       -1    1    3    3    0  502 -0.16201664407E+03 -0.13995783509E+03  0.26832068845E+04  0.26917349003E+04  0.50400001928E-02 0. -1.
</event>
<event>
 5   0  0.1635955E-05  0.2297734E+04  0.7818609E-02  0.8478815E-01
        2   -1    0    0  501    0  0.00000000000E+00  0.00000000000E+00  0.14657676727E+04  0.14657676727E+04  0.25500000920E-02 0. -1.
       -2   -1    0    0    0  501  0.00000000000E+00  0.00000000000E+00 -0.90048099342E+03  0.90048099342E+03  0.25500000920E-02 0.  1.
    10030    2    1    2    0    0  0.00000000000E+00  0.00000000000E+00  0.56528667931E+03  0.23662486662E+04  0.22977344756E+04 0.  0.
        2    1    3    3  502    0 -0.83051373374E+03  0.78740862152E+03  0.38629509091E+03  0.12078862928E+04  0.25500000920E-02 0. -1.
       -2    1    3    3    0  502  0.83051373374E+03 -0.78740862152E+03  0.17899158840E+03  0.11583623733E+04  0.25500000920E-02 0.  1.
</event>
<event>
 5   0  0.5704875E-06  0.2301878E+04  0.7818609E-02  0.8477181E-01
        3   -1    0    0  501    0  0.00000000000E+00  0.00000000000E+00  0.91563038729E+03  0.91563039286E+03  0.10100000352E+00 0.  1.
       -3   -1    0    0    0  501  0.00000000000E+00  0.00000000000E+00 -0.14467191811E+04  0.14467191846E+04  0.10100000352E+00 0. -1.
    10030    2    1    2    0    0  0.00000000000E+00  0.00000000000E+00 -0.53108879378E+03  0.23623495775E+04  0.23018775422E+04 0.  0.
        1    1    3    3  502    0  0.65789873475E+03 -0.42125480079E+03  0.60186610911E+03  0.98616893365E+03  0.50400001928E-02 0.  1.
       -1    1    3    3    0  502 -0.65789873475E+03  0.42125480079E+03 -0.11329549029E+04  0.13761806438E+04  0.50400001928E-02 0. -1.
</event>
<event>
 5   0  0.7416556E-06  0.2387563E+04  0.7818609E-02  0.8444175E-01
        1   -1    0    0  501    0  0.00000000000E+00  0.00000000000E+00  0.19017923477E+04  0.19017923477E+04  0.50400001928E-02 0. -1.
       -1   -1    0    0    0  501  0.00000000000E+00  0.00000000000E+00 -0.74935298710E+03  0.74935298711E+03  0.50400001928E-02 0.  1.
    10030    2    1    2    0    0  0.00000000000E+00  0.00000000000E+00  0.11524393606E+04  0.26511453349E+04  0.23875625869E+04 0.  0.
        4    1    3    3  502    0  0.80918576236E+02 -0.88700822751E+03 -0.30637634359E+03  0.94191267560E+03  0.12699999809E+01 0.  1.
       -4    1    3    3    0  502 -0.80918576236E+02  0.88700822751E+03  0.14588157042E+04  0.17092326593E+04  0.12699999809E+01 0. -1.
</event>
<event>
 5   0  0.1626636E-05  0.2304549E+04  0.7818609E-02  0.8476130E-01
        2   -1    0    0  501    0  0.00000000000E+00  0.00000000000E+00  0.21829417086E+04  0.21829417086E+04  0.25500000920E-02 0.  1.
       -2   -1    0    0    0  501  0.00000000000E+00  0.00000000000E+00 -0.60823265577E+03  0.60823265577E+03  0.25500000920E-02 0. -1.
    10030    2    1    2    0    0  0.00000000000E+00  0.00000000000E+00  0.15747090529E+04  0.27911743644E+04  0.23045489215E+04 0.  0.
        4    1    3    3  502    0  0.57889881845E+03 -0.75589926272E+03  0.15734210151E+04  0.18390657523E+04  0.12699999809E+01 0.  1.
       -4    1    3    3    0  502 -0.57889881845E+03  0.75589926272E+03  0.12880377347E+01  0.95210861215E+03  0.12699999809E+01 0. -1.
</event>
<event>
 5   0  0.1697855E-05  0.2305363E+04  0.7818609E-02  0.8475810E-01
       -2   -1    0    0    0  501  0.00000000000E+00  0.00000000000E+00  0.81540820837E+03  0.81540820837E+03  0.25500000920E-02 0. -1.
        2   -1    0    0  501    0  0.00000000000E+00  0.00000000000E+00 -0.16294596064E+04  0.16294596064E+04  0.25500000920E-02 0.  1.
    10030    2    1    2    0    0  0.00000000000E+00  0.00000000000E+00 -0.81405139802E+03  0.24448678148E+04  0.23053630849E+04 0.  0.
        5    1    3    3  502    0 -0.65796726577E+03 -0.17678461222E+03  0.57901139730E+03  0.89411968446E+03  0.46999998093E+01 0. -1.
       -5    1    3    3    0  502  0.65796726577E+03  0.17678461222E+03 -0.13930627953E+04  0.15507481303E+04  0.46999998093E+01 0.  1.
</event>
<event>
 5   0  0.7391007E-06  0.2310631E+04  0.7818609E-02  0.8473741E-01
        1   -1    0    0  501    0  0.00000000000E+00  0.00000000000E+00  0.16274406979E+04  0.16274406980E+04  0.50400001928E-02 0.  1.
       -1   -1    0    0    0  501  0.00000000000E+00  0.00000000000E+00 -0.82015506422E+03  0.82015506423E+03  0.50400001928E-02 0. -1.
    10030    2    1    2    0    0  0.00000000000E+00  0.00000000000E+00  0.80728563373E+03  0.24475957622E+04  0.23106308491E+04 0.  0.
        1    1    3    3  502    0 -0.10745196853E+04 -0.41174042247E+03  0.51286131418E+03  0.12598212005E+04  0.50400001928E-02 0. -1.
       -1    1    3    3    0  502  0.10745196853E+04  0.41174042247E+03  0.29442431955E+03  0.11877745617E+04  0.50400001928E-02 0.  1.
</event>
<event>
 5   0  0.1626636E-05  0.2296190E+04  0.7818609E-02  0.8479425E-01
        2   -1    0    0  501    0  0.00000000000E+00  0.00000000000E+00  0.11029999098E+04  0.11029999098E+04  0.25500000920E-02 0.  1.
       -2   -1    0    0    0  501  0.00000000000E+00  0.00000000000E+00 -0.11950338138E+04  0.11950338138E+04  0.25500000920E-02 0. -1.
    10030    2    1    2    0    0  0.00000000000E+00  0.00000000000E+00 -0.92033904019E+02  0.22980337236E+04  0.22961900521E+04 0.  0.
        4    1    3    3  502    0 -0.56410171406E+03  0.98350055153E+03 -0.22681774763E+03  0.11562577490E+04  0.12699999809E+01 0.  1.
       -4    1    3    3    0  502  0.56410171406E+03 -0.98350055153E+03  0.13478384361E+03  0.11417759746E+04  0.12699999809E+01 0. -1.
</event>
<event>
 5   0  0.7183014E-06  0.2301555E+04  0.7818609E-02  0.8477308E-01
        1   -1    0    0  501    0  0.00000000000E+00  0.00000000000E+00  0.17749278232E+04  0.17749278233E+04  0.50400001928E-02 0. -1.
       -1   -1    0    0    0  501  0.00000000000E+00  0.00000000000E+00 -0.74610865083E+03  0.74610865085E+03  0.50400001928E-02 0.  1.
    10030    2    1    2    0    0  0.00000000000E+00  0.00000000000E+00  0.10288191724E+04  0.25210364741E+04  0.23015551295E+04 0.  0.
        3    1    3    3  502    0  0.46172767876E+03  0.45387118994E+03  0.15565000616E+04  0.16857888238E+04  0.10100000352E+00 0. -1.
       -3    1    3    3    0  502 -0.46172767876E+03 -0.45387118994E+03 -0.52768088918E+03  0.83524765034E+03  0.10100000352E+00 0.  1.
</event>
<event>
 5   0  0.7202572E-06  0.2241033E+04  0.7818609E-02  0.8501541E-01
       -1   -1    0    0    0  501  0.00000000000E+00  0.00000000000E+00  0.10185982994E+04  0.10185982994E+04  0.50400001928E-02 0.  1.
        1   -1    0    0  501    0  0.00000000000E+00  0.00000000000E+00 -0.12326324834E+04  0.12326324834E+04  0.50400001928E-02 0. -1.
    10030    2    1    2    0    0  0.00000000000E+00  0.00000000000E+00 -0.21403418402E+03  0.22512307827E+04  0.22410331111E+04 0.  0.
        2    1    3    3  502    0  0.28056477248E+03  0.10424566634E+04  0.19455702035E+03  0.10969434447E+04  0.25500000920E-02 0.  1.
       -2    1    3    3    0  502 -0.28056477248E+03 -0.10424566634E+04 -0.40859120437E+03  0.11542873381E+04  0.25500000920E-02 0. -1.
</event>
<event>
 5   0  0.7202572E-06  0.2304484E+04  0.7818609E-02  0.8476155E-01
        1   -1    0    0  501    0  0.00000000000E+00  0.00000000000E+00  0.14243708532E+04  0.14243708532E+04  0.50400001928E-02 0.  1.
       -1   -1    0    0    0  501  0.00000000000E+00  0.00000000000E+00 -0.93210366438E+03  0.93210366439E+03  0.50400001928E-02 0. -1.
    10030    2    1    2    0    0  0.00000000000E+00  0.00000000000E+00  0.49226718881E+03  0.23564745176E+04  0.23044837094E+04 0.  0.
        2    1    3    3  502    0 -0.47968273680E+02 -0.61925351710E+03 -0.74626957367E+03  0.97092437929E+03  0.25500000920E-02 0. -1.
       -2    1    3    3    0  502  0.47968273680E+02  0.61925351710E+03  0.12385367625E+04  0.13855501383E+04  0.25500000920E-02 0.  1.
</event>
<event>
 5   0  0.7391007E-06  0.2296801E+04  0.7818609E-02  0.8479183E-01
       -1   -1    0    0    0  501  0.00000000000E+00  0.00000000000E+00  0.11141443141E+04  0.11141443141E+04  0.50400001928E-02 0. -1.
        1   -1    0    0  501    0  0.00000000000E+00  0.00000000000E+00 -0.11837101741E+04  0.11837101741E+04  0.50400001928E-02 0.  1.
    10030    2    1    2    0    0  0.00000000000E+00  0.00000000000E+00 -0.69565860026E+02  0.22978544883E+04  0.22968012192E+04 0.  0.
        1    1    3    3  502    0 -0.65271967672E+03 -0.10345393337E+03 -0.97440384361E+03  0.11773735784E+04  0.50400001928E-02 0.  1.
       -1    1    3    3    0  502  0.65271967672E+03  0.10345393337E+03  0.90483798359E+03  0.11204809098E+04  0.50400001928E-02 0. -1.
</event>
<event>
 5   0  0.7278815E-06  0.2296408E+04  0.7818609E-02  0.8479339E-01
        1   -1    0    0  501    0  0.00000000000E+00  0.00000000000E+00  0.41975965636E+03  0.41975965639E+03  0.50400001928E-02 0.  1.
       -1   -1    0    0    0  501  0.00000000000E+00  0.00000000000E+00 -0.31407791387E+04  0.31407791387E+04  0.50400001928E-02 0. -1.
    10030    2    1    2    0    0  0.00000000000E+00  0.00000000000E+00 -0.27210194823E+04  0.35605387951E+04  0.22964079533E+04 0.  0.
        5    1    3    3  502    0 -0.10600199753E+03  0.87391586974E+03 -0.25034419380E+04  0.26537160733E+04  0.46999998093E+01 0. -1.
       -5    1    3    3    0  502  0.10600199753E+03 -0.87391586974E+03 -0.21757754430E+03  0.90682272173E+03  0.46999998093E+01 0.  1.
</event>
<event>
 5   0  0.7202572E-06  0.2309562E+04  0.7818609E-02  0.8474160E-01
        1   -1    0    0  501    0  0.00000000000E+00  0.00000000000E+00  0.10739942599E+04  0.10739942599E+04  0.50400001928E-02 0. -1.
       -1   -1    0    0    0  501  0.00000000000E+00  0.00000000000E+00 -0.12416445970E+04  0.12416445970E+04  0.50400001928E-02 0.  1.
    10030    2    1    2    0    0  0.00000000000E+00  0.00000000000E+00 -0.16765033712E+03  0.23156388569E+04  0.23095620105E+04 0.  0.
        2    1    3    3  502    0 -0.59408540470E+03 -0.93872298610E+03 -0.39990193279E+03  0.11807031247E+04  0.25500000920E-02 0. -1.
       -2    1    3    3    0  502  0.59408540470E+03  0.93872298610E+03  0.23225159567E+03  0.11349357323E+04  0.25500000920E-02 0.  1.
</event>
<event>
 5   0  0.1626636E-05  0.2262478E+04  0.7818609E-02  0.8492864E-01
       -2   -1    0    0    0  501  0.00000000000E+00  0.00000000000E+00  0.75883684622E+03  0.75883684623E+03  0.25500000920E-02 0. -1.
        2   -1    0    0  501    0  0.00000000000E+00  0.00000000000E+00 -0.16863986802E+04  0.16863986802E+04  0.25500000920E-02 0.  1.
    10030    2    1    2    0    0  0.00000000000E+00  0.00000000000E+00 -0.92756183396E+03  0.24452355264E+04  0.22624778063E+04 0.  0.
        4    1    3    3  502    0  0.83377331646E+03  0.39867262099E+02 -0.12889548575E+04  0.15356345852E+04  0.12699999809E+01 0.  1.
       -4    1    3    3    0  502 -0.83377331646E+03 -0.39867262099E+02  0.36139302352E+03  0.90960094117E+03  0.12699999809E+01 0. -1.
</event>
<event>
 5   0  0.1626636E-05  0.2305319E+04  0.7818609E-02  0.8475827E-01
        2   -1    0    0  501    0  0.00000000000E+00  0.00000000000E+00  0.16483186344E+04  0.16483186344E+04  0.25500000920E-02 0. -1.
       -2   -1    0    0    0  501  0.00000000000E+00  0.00000000000E+00 -0.80604808201E+03  0.80604808202E+03  0.25500000920E-02 0.  1.
    10030    2    1    2    0    0  0.00000000000E+00  0.00000000000E+00  0.84227055239E+03  0.24543667164E+04  0.23053191309E+04 0.  0.
        4    1    3    3  502    0 -0.18194867643E+03  0.23427852895E+03  0.16069850152E+04  0.16341340832E+04  0.12699999809E+01 0. -1.
       -4    1    3    3    0  502  0.18194867643E+03 -0.23427852895E+03 -0.76471446283E+03  0.82023263318E+03  0.12699999809E+01 0.  1.
</event>
<event>
 5   0  0.1588969E-05  0.2299092E+04  0.7818609E-02  0.8478279E-01
        2   -1    0    0  501    0  0.00000000000E+00  0.00000000000E+00  0.23863820113E+04  0.23863820113E+04  0.25500000920E-02 0.  1.
       -2   -1    0    0    0  501  0.00000000000E+00  0.00000000000E+00 -0.55374894535E+03  0.55374894536E+03  0.25500000920E-02 0. -1.
    10030    2    1    2    0    0  0.00000000000E+00  0.00000000000E+00  0.18326330660E+04  0.29401309567E+04  0.22990924487E+04 0.  0.
        1    1    3    3  502    0  0.41807722854E+03 -0.11017692880E+03 -0.44581184208E+03  0.62102795688E+03  0.50400001928E-02 0. -1.
       -1    1    3    3    0  502 -0.41807722854E+03  0.11017692880E+03  0.22784449080E+04  0.23191029998E+04  0.50400001928E-02 0.  1.
</event>
<event>
 5   0  0.7416556E-06  0.2296418E+04  0.7818609E-02  0.8479335E-01
       -1   -1    0    0    0  501  0.00000000000E+00  0.00000000000E+00  0.75600974341E+03  0.75600974342E+03  0.50400001928E-02 0. -1.
        1   -1    0    0  501    0  0.00000000000E+00  0.00000000000E+00 -0.17438716217E+04  0.17438716217E+04  0.50400001928E-02 0.  1.
    10030    2    1    2    0    0  0.00000000000E+00  0.00000000000E+00 -0.98786187826E+03  0.24998813651E+04  0.22964180258E+04 0.  0.
        4    1    3    3  502    0  0.88402231072E+03  0.14250872379E+03 -0.12763446728E+04  0.15591220346E+04  0.12699999809E+01 0.  1.
       -4    1    3    3    0  502 -0.88402231072E+03 -0.14250872379E+03  0.28848279454E+03  0.94075933046E+03  0.12699999809E+01 0. -1.
</event>
<event>
 5   0  0.7416556E-06  0.2306764E+04  0.7818609E-02  0.8475259E-01
        1   -1    0    0  501    0  0.00000000000E+00  0.00000000000E+00  0.18469618613E+04  0.18469618613E+04  0.50400001928E-02 0.  1.
       -1   -1    0    0    0  501  0.00000000000E+00  0.00000000000E+00 -0.72025877336E+03  0.72025877338E+03  0.50400001928E-02 0. -1.
    10030    2    1    2    0    0  0.00000000000E+00  0.00000000000E+00  0.11267030879E+04  0.25672206347E+04  0.23067643874E+04 0.  0.
        4    1    3    3  502    0  0.90560675259E+03  0.67612704813E+03  0.30709818666E+03  0.11711457145E+04  0.12699999809E+01 0. -1.
       -4    1    3    3    0  502 -0.90560675259E+03 -0.67612704813E+03  0.81960490127E+03  0.13960749201E+04  0.12699999809E+01 0.  1.
</event>
<event>
 5   0  0.1697855E-05  0.2306832E+04  0.7818609E-02  0.8475232E-01
       -2   -1    0    0    0  501  0.00000000000E+00  0.00000000000E+00  0.79824232092E+03  0.79824232093E+03  0.25500000920E-02 0.  1.
        2   -1    0    0  501    0  0.00000000000E+00  0.00000000000E+00 -0.16666216936E+04  0.16666216936E+04  0.25500000920E-02 0. -1.
    10030    2    1    2    0    0  0.00000000000E+00  0.00000000000E+00 -0.86837937272E+03  0.24648640146E+04  0.23068315663E+04 0.  0.
        5    1    3    3  502    0 -0.45926480677E+03 -0.47423677678E+03 -0.14447736367E+04  0.15884639229E+04  0.46999998093E+01 0. -1.
       -5    1    3    3    0  502  0.45926480677E+03  0.47423677678E+03  0.57639426393E+03  0.87640009167E+03  0.46999998093E+01 0.  1.
</event>
<event>
 5   0  0.7278815E-06  0.2293289E+04  0.7818609E-02  0.8480572E-01
        1   -1    0    0  501    0  0.00000000000E+00  0.00000000000E+00  0.11843080546E+04  0.11843080546E+04  0.50400001928E-02 0.  1.
       -1   -1    0    0    0  501  0.00000000000E+00  0.00000000000E+00 -0.11101789447E+04  0.11101789447E+04  0.50400001928E-02 0. -1.
    10030    2    1    2    0    0  0.00000000000E+00  0.00000000000E+00  0.74129109836E+02  0.22944869993E+04  0.22932892240E+04 0.  0.
        5    1    3    3  502    0 -0.68686609227E+02 -0.46944789835E+03  0.10814836072E+04  0.11809860550E+04  0.46999998093E+01 0.  1.
       -5    1    3    3    0  502  0.68686609227E+02  0.46944789835E+03 -0.10073544974E+04  0.11135009443E+04  0.46999998093E+01 0. -1.
</event>
<event>
 5   0  0.7278815E-06  0.2294981E+04  0.7818609E-02  0.8479903E-01
       -1   -1    0    0    0  501  0.00000000000E+00  0.00000000000E+00  0.23304729640E+04  0.23304729640E+04  0.50400001928E-02 0. -1.
        1   -1    0    0  501    0  0.00000000000E+00  0.00000000000E+00 -0.56500726420E+03  0.56500726423E+03  0.50400001928E-02 0.  1.
    10030    2    1    2    0    0  0.00000000000E+00  0.00000000000E+00  0.17654656998E+04  0.28954802282E+04  0.22949807439E+04 0.  0.
        5    1    3    3  502    0  0.71091816964E+03  0.86988162541E+03  0.58788967709E+03  0.12679649240E+04  0.46999998093E+01 0. -1.
       -5    1    3    3    0  502 -0.71091816964E+03 -0.86988162541E+03  0.11775760227E+04  0.16275153042E+04  0.46999998093E+01 0.  1.
</event>
<event>
 5   0  0.1635955E-05  0.2302206E+04  0.7818609E-02  0.8477052E-01
       -2   -1    0    0    0  501  0.00000000000E+00  0.00000000000E+00  0.65921728642E+03  0.65921728643E+03  0.25500000920E-02 0.  1.
        2   -1    0    0  501    0  0.00000000000E+00  0.00000000000E+00 -0.20100180807E+04  0.20100180807E+04  0.25500000920E-02 0. -1.
    10030    2    1    2    0    0  0.00000000000E+00  0.00000000000E+00 -0.13508007943E+04  0.26692353671E+04  0.23022064763E+04 0.  0.
        2    1    3    3  502    0 -0.41846209679E+02 -0.10827339967E+04 -0.22490058119E+03  0.11066364734E+04  0.25500000920E-02 0.  1.
       -2    1    3    3    0  502  0.41846209679E+02  0.10827339967E+04 -0.11259002131E+04  0.15625988937E+04  0.25500000920E-02 0. -1.
</event>
<event>
 5   0  0.7183014E-06  0.2284487E+04  0.7818609E-02  0.8484063E-01
        1   -1    0    0  501    0  0.00000000000E+00  0.00000000000E+00  0.11488855752E+04  0.11488855752E+04  0.50400001928E-02 0.  1.
       -1   -1    0    0    0  501  0.00000000000E+00  0.00000000000E+00 -0.11356400183E+04  0.11356400183E+04  0.50400001928E-02 0. -1.
    10030    2    1    2    0    0  0.00000000000E+00  0.00000000000E+00  0.13245556816E+02  0.22845255935E+04  0.22844871947E+04 0.  0.
        3    1    3    3  502    0  0.11317155140E+04  0.15435541606E+03 -0.40931106812E+01  0.11422006666E+04  0.10100000352E+00 0.  1.
       -3    1    3    3    0  502 -0.11317155140E+04 -0.15435541606E+03  0.17338667497E+02  0.11423249269E+04  0.10100000352E+00 0. -1.
</event>
<event>
 5   0  0.1602809E-05  0.2293595E+04  0.7818609E-02  0.8480451E-01
       -2   -1    0    0    0  501  0.00000000000E+00  0.00000000000E+00  0.15282167534E+04  0.15282167534E+04  0.25500000920E-02 0.  1.
        2   -1    0    0  501    0  0.00000000000E+00  0.00000000000E+00 -0.86057474348E+03  0.86057474348E+03  0.25500000920E-02 0. -1.
    10030    2    1    2    0    0  0.00000000000E+00  0.00000000000E+00  0.66764200997E+03  0.23887914969E+04  0.22935952045E+04 0.  0.
        3    1    3    3  502    0  0.91660826769E+03 -0.28547210728E+03  0.98713600978E+03  0.13769903966E+04  0.10100000352E+00 0.  1.
       -3    1    3    3    0  502 -0.91660826769E+03  0.28547210728E+03 -0.31949399982E+03  0.10118011003E+04  0.10100000352E+00 0. -1.
</event>
<event>
 5   0  0.1626636E-05  0.2294650E+04  0.7818609E-02  0.8480034E-01
       -2   -1    0    0    0  501  0.00000000000E+00  0.00000000000E+00  0.81442445210E+03  0.81442445210E+03  0.25500000920E-02 0. -1.
        2   -1    0    0  501    0  0.00000000000E+00  0.00000000000E+00 -0.16163001546E+04  0.16163001546E+04  0.25500000920E-02 0.  1.
    10030    2    1    2    0    0  0.00000000000E+00  0.00000000000E+00 -0.80187570249E+03  0.24307246067E+04  0.22946497492E+04 0.  0.
        4    1    3    3  502    0 -0.57715159182E+03  0.98871398500E+03 -0.32100834314E+03  0.11889942276E+04  0.12699999809E+01 0. -1.
       -4    1    3    3    0  502  0.57715159182E+03 -0.98871398500E+03 -0.48086735936E+03  0.12417303791E+04  0.12699999809E+01 0.  1.
</event>
<event>
 5   0  0.1626636E-05  0.2289979E+04  0.7818609E-02  0.8481883E-01
        2   -1    0    0  501    0  0.00000000000E+00  0.00000000000E+00  0.15663086923E+04  0.15663086923E+04  0.25500000920E-02 0. -1.
       -2   -1    0    0    0  501  0.00000000000E+00  0.00000000000E+00 -0.83700067977E+03  0.83700067977E+03  0.25500000920E-02 0.  1.
    10030    2    1    2    0    0  0.00000000000E+00  0.00000000000E+00  0.72930801254E+03  0.24033093721E+04  0.22899794237E+04 0.  0.
        4    1    3    3  502    0  0.12195125255E+02  0.26150712195E+03 -0.80516912557E+03  0.84666027991E+03  0.12699999809E+01 0.  1.
       -4    1    3    3    0  502 -0.12195125255E+02 -0.26150712195E+03  0.15344771381E+04  0.15566490922E+04  0.12699999809E+01 0. -1.
</event>
<event>
 5   0  0.7202572E-06  0.2298885E+04  0.7818609E-02  0.8478361E-01
        1   -1    0    0  501    0  0.00000000000E+00  0.00000000000E+00  0.88962628548E+03  0.88962628549E+03  0.50400001928E-02 0.  1.
       -1   -1    0    0    0  501  0.00000000000E+00  0.00000000000E+00 -0.14851381043E+04  0.14851381043E+04  0.50400001928E-02 0. -1.
    10030    2    1    2    0    0  0.00000000000E+00  0.00000000000E+00 -0.59551181878E+03  0.23747643898E+04  0.22988848559E+04 0.  0.
        2    1    3    3  502    0 -0.94708827440E+03 -0.76576663966E+02 -0.96592684093E+03  0.13549372115E+04  0.25500000920E-02 0. -1.
       -2    1    3    3    0  502  0.94708827440E+03  0.76576663966E+02  0.37041502214E+03  0.10198271783E+04  0.25500000920E-02 0.  1.
</event>
<event>
 5   0  0.1588969E-05  0.2298627E+04  0.7818609E-02  0.8478462E-01
       -2   -1    0    0    0  501  0.00000000000E+00  0.00000000000E+00  0.86246021255E+03  0.86246021255E+03  0.25500000920E-02 0.  1.
        2   -1    0    0  501    0  0.00000000000E+00  0.00000000000E+00 -0.15315745233E+04  0.15315745234E+04  0.25500000920E-02 0. -1.
    10030    2    1    2    0    0  0.00000000000E+00  0.00000000000E+00 -0.66911431080E+03  0.23940347359E+04  0.22986274939E+04 0.  0.
        1    1    3    3  502    0 -0.66827954173E+03  0.46895503473E+03  0.50797288251E+03  0.96153669710E+03  0.50400001928E-02 0.  1.
       -1    1    3    3    0  502  0.66827954173E+03 -0.46895503473E+03 -0.11770871933E+04  0.14324980388E+04  0.50400001928E-02 0. -1.
</event>
<event>
 5   0  0.7391007E-06  0.2301588E+04  0.7818609E-02  0.8477295E-01
        1   -1    0    0  501    0  0.00000000000E+00  0.00000000000E+00  0.17165434398E+04  0.17165434398E+04  0.50400001928E-02 0. -1.
       -1   -1    0    0    0  501  0.00000000000E+00  0.00000000000E+00 -0.77150779668E+03  0.77150779670E+03  0.50400001928E-02 0.  1.
    10030    2    1    2    0    0  0.00000000000E+00  0.00000000000E+00  0.94503564313E+03  0.24880512365E+04  0.23015878408E+04 0.  0.
        1    1    3    3  502    0 -0.21444830075E+03 -0.91043734128E+03  0.11972354003E+04  0.15192948463E+04  0.50400001928E-02 0.  1.
       -1    1    3    3    0  502  0.21444830075E+03  0.91043734128E+03 -0.25219975720E+03  0.96875639025E+03  0.50400001928E-02 0. -1.
</event>
<event>
 5   0  0.7278815E-06  0.2299108E+04  0.7818609E-02  0.8478273E-01
       -1   -1    0    0    0  501  0.00000000000E+00  0.00000000000E+00  0.11581928878E+04  0.11581928878E+04  0.50400001928E-02 0.  1.
        1   -1    0    0  501    0  0.00000000000E+00  0.00000000000E+00 -0.11409799706E+04  0.11409799706E+04  0.50400001928E-02 0. -1.
    10030    2    1    2    0    0  0.00000000000E+00  0.00000000000E+00  0.17212917177E+02  0.22991728584E+04  0.22991084246E+04 0.  0.
        5    1    3    3  502    0  0.29270678310E+03 -0.94471643834E+03 -0.57731642808E+03  0.11451998768E+04  0.46999998093E+01 0. -1.
       -5    1    3    3    0  502 -0.29270678310E+03  0.94471643834E+03  0.59452934526E+03  0.11539729815E+04  0.46999998093E+01 0.  1.
</event>
<event>
 5   0  0.1588969E-05  0.2298639E+04  0.7818609E-02  0.8478458E-01
        2   -1    0    0  501    0  0.00000000000E+00  0.00000000000E+00  0.11878268226E+04  0.11878268226E+04  0.25500000920E-02 0.  1.
       -2   -1    0    0    0  501  0.00000000000E+00  0.00000000000E+00 -0.11120606741E+04  0.11120606741E+04  0.25500000920E-02 0. -1.
    10030    2    1    2    0    0  0.00000000000E+00  0.00000000000E+00  0.75766148538E+02  0.22998874967E+04  0.22986391601E+04 0.  0.
        1    1    3    3  502    0 -0.11880706219E+03  0.45782405166E+03  0.10859334481E+04  0.11844701069E+04  0.50400001928E-02 0.  1.
       -1    1    3    3    0  502  0.11880706219E+03 -0.45782405166E+03 -0.10101672996E+04  0.11154173898E+04  0.50400001928E-02 0. -1.
</event>
<event>
 5   0  0.7278815E-06  0.2298517E+04  0.7818609E-02  0.8478506E-01
        1   -1    0    0  501    0  0.00000000000E+00  0.00000000000E+00  0.10648542240E+04  0.10648542240E+04  0.50400001928E-02 0.  1.
       -1   -1    0    0    0  501  0.00000000000E+00  0.00000000000E+00 -0.12403530059E+04  0.12403530060E+04  0.50400001928E-02 0. -1.
    10030    2    1    2    0    0  0.00000000000E+00  0.00000000000E+00 -0.17549878194E+03  0.23052072300E+04  0.22985170329E+04 0.  0.
        5    1    3    3  502    0 -0.35185633732E+03  0.69161414862E+03 -0.93794322417E+03  0.12173301091E+04  0.46999998093E+01 0. -1.
       -5    1    3    3    0  502  0.35185633732E+03 -0.69161414862E+03  0.76244444223E+03  0.10878771209E+04  0.46999998093E+01 0.  1.
</event>
<event>
 5   0  0.7183014E-06  0.2295860E+04  0.7818609E-02  0.8479555E-01
       -1   -1    0    0    0  501  0.00000000000E+00  0.00000000000E+00  0.92503661234E+03  0.92503661235E+03  0.50400001928E-02 0.  1.
        1   -1    0    0  501    0  0.00000000000E+00  0.00000000000E+00 -0.14245303562E+04  0.14245303562E+04  0.50400001928E-02 0. -1.
    10030    2    1    2    0    0  0.00000000000E+00  0.00000000000E+00 -0.49949374388E+03  0.23495669686E+04  0.22958595209E+04 0.  0.
        3    1    3    3  502    0 -0.14433252820E+03 -0.10679530194E+04 -0.65445610389E+03  0.12608204997E+04  0.10100000352E+00 0.  1.
       -3    1    3    3    0  502  0.14433252820E+03  0.10679530194E+04  0.15496236001E+03  0.10887464689E+04  0.10100000352E+00 0. -1.
</event>
<event>
 5   0  0.7416556E-06  0.2286411E+04  0.7818609E-02  0.8483298E-01
       -1   -1    0    0    0  501  0.00000000000E+00  0.00000000000E+00  0.11027220529E+04  0.11027220529E+04  0.50400001928E-02 0. -1.
        1   -1    0    0  501    0  0.00000000000E+00  0.00000000000E+00 -0.11851754610E+04  0.11851754610E+04  0.50400001928E-02 0.  1.
    10030    2    1    2    0    0  0.00000000000E+00  0.00000000000E+00 -0.82453408132E+02  0.22878975139E+04  0.22864112643E+04 0.  0.
        4    1    3    3  502    0  0.22085686310E+03 -0.73979712038E+03 -0.88488801919E+03  0.11743534190E+04  0.12699999809E+01 0.  1.
       -4    1    3    3    0  502 -0.22085686310E+03  0.73979712038E+03  0.80243461106E+03  0.11135440949E+04  0.12699999809E+01 0. -1.
</event>
<event>
 5   0  0.1697855E-05  0.2306361E+04  0.7818609E-02  0.8475417E-01
        2   -1    0    0  501    0  0.00000000000E+00  0.00000000000E+00  0.13746396147E+04  0.13746396147E+04  0.25500000920E-02 0. -1.
       -2   -1    0    0    0  501  0.00000000000E+00  0.00000000000E+00 -0.96739900061E+03  0.96739900061E+03  0.25500000920E-02 0.  1.
    10030    2    1    2    0    0  0.00000000000E+00  0.00000000000E+00  0.40724061408E+03  0.23420386153E+04  0.23063607605E+04 0.  0.
        5    1    3    3  502    0 -0.11127865854E+04 -0.16843832071E+03 -0.51538356667E+02  0.11266515631E+04  0.46999998093E+01 0.  1.
       -5    1    3    3    0  502  0.11127865854E+04  0.16843832071E+03  0.45877897074E+03  0.12153870522E+04  0.46999998093E+01 0. -1.
</event>
<event>
 5   0  0.1588969E-05  0.2299385E+04  0.7818609E-02  0.8478164E-01
       -2   -1    0    0    0  501  0.00000000000E+00  0.00000000000E+00  0.93027800489E+03  0.93027800489E+03  0.25500000920E-02 0.  1.
        2   -1    0    0  501    0  0.00000000000E+00  0.00000000000E+00 -0.14208577564E+04  0.14208577564E+04  0.25500000920E-02 0. -1.
    10030    2    1    2    0    0  0.00000000000E+00  0.00000000000E+00 -0.49057975147E+03  0.23511357612E+04  0.22993848906E+04 0.  0.
        1    1    3    3  502    0  0.66087414018E+03  0.67928981763E+03 -0.91078636642E+03  0.13144280470E+04  0.50400001928E-02 0. -1.
       -1    1    3    3    0  502 -0.66087414018E+03 -0.67928981763E+03  0.42020661495E+03  0.10367077142E+04  0.50400001928E-02 0.  1.
</event>
<event>
 5   0  0.7202572E-06  0.2295909E+04  0.7818609E-02  0.8479536E-01
       -1   -1    0    0    0  501  0.00000000000E+00  0.00000000000E+00  0.10654659762E+04  0.10654659762E+04  0.50400001928E-02 0. -1.
        1   -1    0    0  501    0  0.00000000000E+00  0.00000000000E+00 -0.12368296451E+04  0.12368296451E+04  0.50400001928E-02 0.  1.
    10030    2    1    2    0    0  0.00000000000E+00  0.00000000000E+00 -0.17136366890E+03  0.23022956213E+04  0.22959093234E+04 0.  0.
        2    1    3    3  502    0  0.46395835776E+03  0.80947854406E+03  0.58497369630E+03  0.11012298109E+04  0.25500000920E-02 0. -1.
       -2    1    3    3    0  502 -0.46395835776E+03 -0.80947854406E+03 -0.75633736521E+03  0.12010658105E+04  0.25500000920E-02 0.  1.
</event>
<event>
 5   0  0.7278815E-06  0.2303916E+04  0.7818609E-02  0.8476379E-01
       -1   -1    0    0    0  501  0.00000000000E+00  0.00000000000E+00  0.12990896132E+04  0.12990896132E+04  0.50400001928E-02 0. -1.
        1   -1    0    0  501    0  0.00000000000E+00  0.00000000000E+00 -0.10214899502E+04  0.10214899502E+04  0.50400001928E-02 0.  1.
    10030    2    1    2    0    0  0.00000000000E+00  0.00000000000E+00  0.27759966302E+03  0.23205795635E+04  0.23039157835E+04 0.  0.
        5    1    3    3  502    0 -0.73455765458E+03  0.54934495298E+03 -0.56311213733E+03  0.10763234618E+04  0.46999998093E+01 0.  1.
       -5    1    3    3    0  502  0.73455765458E+03 -0.54934495298E+03  0.84071180034E+03  0.12442561017E+04  0.46999998093E+01 0. -1.
</event>
<event>
 5   0  0.1602809E-05  0.2339854E+04  0.7818609E-02  0.8462371E-01
        2   -1    0    0  501    0  0.00000000000E+00  0.00000000000E+00  0.12997311974E+04  0.12997311974E+04  0.25500000920E-02 0. -1.
       -2   -1    0    0    0  501  0.00000000000E+00  0.00000000000E+00 -0.10530862414E+04  0.10530862414E+04  0.25500000920E-02 0.  1.
    10030    2    1    2    0    0  0.00000000000E+00  0.00000000000E+00  0.24664495593E+03  0.23528174388E+04  0.23398538771E+04 0.  0.
        3    1    3    3  502    0  0.22378914640E+02 -0.94075081803E+03  0.82231124714E+03  0.12496834458E+04  0.10100000352E+00 0. -1.
       -3    1    3    3    0  502 -0.22378914640E+02  0.94075081803E+03 -0.57566629121E+03  0.11031339930E+04  0.10100000352E+00 0.  1.
</event>
<event>
 5   0  0.1588969E-05  0.2294989E+04  0.7818609E-02  0.8479900E-01
       -2   -1    0    0    0  501  0.00000000000E+00  0.00000000000E+00  0.41325180501E+03  0.41325180502E+03  0.25500000920E-02 0.  1.
        2   -1    0    0  501    0  0.00000000000E+00  0.00000000000E+00 -0.31862975265E+04  0.31862975265E+04  0.25500000920E-02 0. -1.
    10030    2    1    2    0    0  0.00000000000E+00  0.00000000000E+00 -0.27730457215E+04  0.35995493315E+04  0.22949886310E+04 0.  0.
        1    1    3    3  502    0 -0.53032116207E+03  0.58804733628E+03 -0.26890855943E+04  0.28032519576E+04  0.50400001928E-02 0. -1.
       -1    1    3    3    0  502  0.53032116207E+03 -0.58804733628E+03 -0.83960127201E+02  0.79629737387E+03  0.50400001928E-02 0.  1.
</event>
<event>
 5   0  0.5704875E-06  0.2303349E+04  0.7818609E-02  0.8476602E-01
        3   -1    0    0  501    0  0.00000000000E+00  0.00000000000E+00  0.61639886694E+03  0.61639887522E+03  0.10100000352E+00 0.  1.
       -3   -1    0    0    0  501  0.00000000000E+00  0.00000000000E+00 -0.21517787004E+04  0.21517787028E+04  0.10100000352E+00 0. -1.
    10030    2    1    2    0    0  0.00000000000E+00  0.00000000000E+00 -0.15353798334E+04  0.27681775780E+04  0.23033488382E+04 0.  0.
        4    1    3    3  502    0  0.19968646953E+03  0.39911061809E+03 -0.20436364686E+04  0.20917972178E+04  0.12699999809E+01 0. -1.
       -4    1    3    3    0  502 -0.19968646953E+03 -0.39911061809E+03  0.50825663516E+03  0.67638036020E+03  0.12699999809E+01 0.  1.
</event>
<event>
 5   0  0.7202572E-06  0.2301434E+04  0.7818609E-02  0.8477356E-01
        1   -1    0    0  501    0  0.00000000000E+00  0.00000000000E+00  0.75676118550E+03  0.75676118552E+03  0.50400001928E-02 0.  1.
       -1   -1    0    0    0  501  0.00000000000E+00  0.00000000000E+00 -0.17497596144E+04  0.17497596144E+04  0.50400001928E-02 0. -1.
    10030    2    1    2    0    0  0.00000000000E+00  0.00000000000E+00 -0.99299842888E+03  0.25065207999E+04  0.23014344745E+04 0.  0.
        2    1    3    3  502    0  0.36794249665E+03 -0.43494416212E+03  0.59239100353E+03  0.82187907022E+03  0.25500000920E-02 0.  1.
       -2    1    3    3    0  502 -0.36794249665E+03  0.43494416212E+03 -0.15853894324E+04  0.16846417297E+04  0.25500000920E-02 0. -1.
</event>
<event>
 5   0  0.7278815E-06  0.2297313E+04  0.7818609E-02  0.8478981E-01
       -1   -1    0    0    0  501  0.00000000000E+00  0.00000000000E+00  0.15964558667E+04  0.15964558667E+04  0.50400001928E-02 0. -1.
        1   -1    0    0  501    0  0.00000000000E+00  0.00000000000E+00 -0.82646325779E+03  0.82646325781E+03  0.50400001928E-02 0.  1.
    10030    2    1    2    0    0  0.00000000000E+00  0.00000000000E+00  0.76999260890E+03  0.24229191245E+04  0.22973133148E+04 0.  0.
        5    1    3    3  502    0 -0.76856434301E+03 -0.53331023233E+03  0.10879822086E+04  0.14348652653E+04  0.46999998093E+01 0. -1.
       -5    1    3    3    0  502  0.76856434301E+03  0.53331023233E+03 -0.31798959969E+03  0.98805385924E+03  0.46999998093E+01 0.  1.
</event>
<event>
 5   0  0.7202572E-06  0.2308428E+04  0.7818609E-02  0.8474605E-01
       -1   -1    0    0    0  501  0.00000000000E+00  0.00000000000E+00  0.99038876783E+03  0.99038876785E+03  0.50400001928E-02 0. -1.
        1   -1    0    0  501    0  0.00000000000E+00  0.00000000000E+00 -0.13451384881E+04  0.13451384881E+04  0.50400001928E-02 0.  1.
    10030    2    1    2    0    0  0.00000000000E+00  0.00000000000E+00 -0.35474972030E+03  0.23355272560E+04  0.23084280798E+04 0.  0.
        2    1    3    3  502    0  0.71101996733E+03  0.53679891552E+03  0.56507050765E+03  0.10549915394E+04  0.25500000920E-02 0. -1.
       -2    1    3    3    0  502 -0.71101996733E+03 -0.53679891552E+03 -0.91982022795E+03  0.12805357166E+04  0.25500000920E-02 0.  1.
</event>
<event>
 5   0  0.7278815E-06  0.2293384E+04  0.7818609E-02  0.8480534E-01
       -1   -1    0    0    0  501  0.00000000000E+00  0.00000000000E+00  0.94285221551E+03  0.94285221552E+03  0.50400001928E-02 0.  1.
        1   -1    0    0  501    0  0.00000000000E+00  0.00000000000E+00 -0.13946011213E+04  0.13946011213E+04  0.50400001928E-02 0. -1.
    10030    2    1    2    0    0  0.00000000000E+00  0.00000000000E+00 -0.45174890579E+03  0.23374533368E+04  0.22933841867E+04 0.  0.
        5    1    3    3  502    0  0.96311785523E+03  0.38309574265E+03  0.27398029827E+03  0.10721220289E+04  0.46999998093E+01 0.  1.
       -5    1    3    3    0  502 -0.96311785523E+03 -0.38309574265E+03 -0.72572920406E+03  0.12653313079E+04  0.46999998093E+01 0. -1.
</event>
<event>
 5   0  0.7202572E-06  0.2283501E+04  0.7818609E-02  0.8484455E-01
        1   -1    0    0  501    0  0.00000000000E+00  0.00000000000E+00  0.11262578052E+04  0.11262578052E+04  0.50400001928E-02 0. -1.
       -1   -1    0    0    0  501  0.00000000000E+00  0.00000000000E+00 -0.11574561989E+04  0.11574561989E+04  0.50400001928E-02 0.  1.
    10030    2    1    2    0    0  0.00000000000E+00  0.00000000000E+00 -0.31198393720E+02  0.22837140041E+04  0.22835008896E+04 0.  0.
        2    1    3    3  502    0 -0.56425851413E+02  0.23285948003E+03 -0.11320306918E+04  0.11571088546E+04  0.25500000920E-02 0.  1.
       -2    1    3    3    0  502  0.56425851413E+02 -0.23285948003E+03  0.11008322981E+04  0.11266051494E+04  0.25500000920E-02 0. -1.
</event>
<event>
 5   0  0.1602809E-05  0.2297341E+04  0.7818609E-02  0.8478970E-01
       -2   -1    0    0    0  501  0.00000000000E+00  0.00000000000E+00  0.12873180973E+04  0.12873180973E+04  0.25500000920E-02 0.  1.
        2   -1    0    0  501    0  0.00000000000E+00  0.00000000000E+00 -0.10249557324E+04  0.10249557324E+04  0.25500000920E-02 0. -1.
    10030    2    1    2    0    0  0.00000000000E+00  0.00000000000E+00  0.26236236485E+03  0.23122738297E+04  0.22973411268E+04 0.  0.
        3    1    3    3  502    0  0.66668194553E+03 -0.74721222840E+03  0.69755825421E+03  0.12204009419E+04  0.10100000352E+00 0.  1.
       -3    1    3    3    0  502 -0.66668194553E+03  0.74721222840E+03 -0.43519588936E+03  0.10918728878E+04  0.10100000352E+00 0. -1.
</event>
<event>
 5   0  0.1635955E-05  0.2284372E+04  0.7818609E-02  0.8484109E-01
       -2   -1    0    0    0  501  0.00000000000E+00  0.00000000000E+00  0.10796718456E+04  0.10796718456E+04  0.25500000920E-02 0.  1.
        2   -1    0    0  501    0  0.00000000000E+00  0.00000000000E+00 -0.12083199734E+04  0.12083199734E+04  0.25500000920E-02 0. -1.
    10030    2    1    2    0    0  0.00000000000E+00  0.00000000000E+00 -0.12864812780E+03  0.22879918190E+04  0.22843721726E+04 0.  0.
        2    1    3    3  502    0 -0.22802545886E+03 -0.12688531872E+03 -0.11780633412E+04  0.12066187177E+04  0.25500000920E-02 0. -1.
       -2    1    3    3    0  502  0.22802545886E+03  0.12688531872E+03  0.10494152134E+04  0.10813731013E+04  0.25500000920E-02 0.  1.
</event>
<event>
 5   0  0.1588969E-05  0.2302462E+04  0.7818609E-02  0.8476951E-01
       -2   -1    0    0    0  501  0.00000000000E+00  0.00000000000E+00  0.84093677158E+03  0.84093677159E+03  0.25500000920E-02 0. -1.
        2   -1    0    0  501    0  0.00000000000E+00  0.00000000000E+00 -0.15760194232E+04  0.15760194232E+04  0.25500000920E-02 0.  1.
    10030    2    1    2    0    0  0.00000000000E+00  0.00000000000E+00 -0.73508265166E+03  0.24169561948E+04  0.23024618874E+04 0.  0.
        1    1    3    3  502    0  0.72579005706E+03  0.51411085012E+03  0.39973042615E+03  0.97512337001E+03  0.50400001928E-02 0. -1.
       -1    1    3    3    0  502 -0.72579005706E+03 -0.51411085012E+03 -0.11348130778E+04  0.14418328248E+04  0.50400001928E-02 0.  1.
</event>
<event>
 5   0  0.7202572E-06  0.2298331E+04  0.7818609E-02  0.8478579E-01
        1   -1    0    0  501    0  0.00000000000E+00  0.00000000000E+00  0.15479030835E+04  0.15479030835E+04  0.50400001928E-02 0. -1.
       -1   -1    0    0    0  501  0.00000000000E+00  0.00000000000E+00 -0.85314245413E+03  0.85314245414E+03  0.50400001928E-02 0.  1.
    10030    2    1    2    0    0  0.00000000000E+00  0.00000000000E+00  0.69476062939E+03  0.24010455377E+04  0.22983314256E+04 0.  0.
        2    1    3    3  502    0 -0.90425574328E+03  0.55274274801E+03 -0.11674797285E+03  0.10662237495E+04  0.25500000920E-02 0.  1.
       -2    1    3    3    0  502  0.90425574328E+03 -0.55274274801E+03  0.81150860224E+03  0.13348217882E+04  0.25500000920E-02 0. -1.
</event>
<event>
 5   0  0.1626636E-05  0.2313122E+04  0.7818609E-02  0.8472765E-01
       -2   -1    0    0    0  501  0.00000000000E+00  0.00000000000E+00  0.12583529332E+04  0.12583529332E+04  0.25500000920E-02 0.  1.
        2   -1    0    0  501    0  0.00000000000E+00  0.00000000000E+00 -0.10630031780E+04  0.10630031780E+04  0.25500000920E-02 0. -1.
    10030    2    1    2    0    0  0.00000000000E+00  0.00000000000E+00  0.19534975519E+03  0.23213561113E+04  0.23131218447E+04 0.  0.
        4    1    3    3  502    0  0.85898999500E+03  0.75983299205E+03 -0.52596490028E+02  0.11480322256E+04  0.12699999809E+01 0. -1.
       -4    1    3    3    0  502 -0.85898999500E+03 -0.75983299205E+03  0.24794624522E+03  0.11733238857E+04  0.12699999809E+01 0.  1.
</event>
<event>
 5   0  0.7391007E-06  0.2298695E+04  0.7818609E-02  0.8478436E-01
        1   -1    0    0  501    0  0.00000000000E+00  0.00000000000E+00  0.62334072882E+03  0.62334072884E+03  0.50400001928E-02 0.  1.
       -1   -1    0    0    0  501  0.00000000000E+00  0.00000000000E+00 -0.21192254571E+04  0.21192254571E+04  0.50400001928E-02 0. -1.
    10030    2    1    2    0    0  0.00000000000E+00  0.00000000000E+00 -0.14958847283E+04  0.27425661860E+04  0.22986948828E+04 0.  0.
        1    1    3    3  502    0 -0.66572288467E+03  0.87370010335E+03 -0.34429324583E+03  0.11511197457E+04  0.50400001928E-02 0.  1.
       -1    1    3    3    0  502  0.66572288467E+03 -0.87370010335E+03 -0.11515914825E+04  0.15914464403E+04  0.50400001928E-02 0. -1.
</event>
<event>
 5   0  0.7416556E-06  0.2275816E+04  0.7818609E-02  0.8487518E-01
        1   -1    0    0  501    0  0.00000000000E+00  0.00000000000E+00  0.25477736615E+04  0.25477736615E+04  0.50400001928E-02 0. -1.
       -1   -1    0    0    0  501  0.00000000000E+00  0.00000000000E+00 -0.50822199959E+03  0.50822199961E+03  0.50400001928E-02 0.  1.
    10030    2    1    2    0    0  0.00000000000E+00  0.00000000000E+00  0.20395516619E+04  0.30559956611E+04  0.22758160073E+04 0.  0.
        4    1    3    3  502    0  0.51644997932E+03  0.17035742966E+03  0.23619783835E+04  0.24237750993E+04  0.12699999809E+01 0. -1.
       -4    1    3    3    0  502 -0.51644997932E+03 -0.17035742966E+03 -0.32242672165E+03  0.63222056176E+03  0.12699999809E+01 0.  1.
</event>
<event>
 5   0  0.1602809E-05  0.2286912E+04  0.7818609E-02  0.8483099E-01
       -2   -1    0    0    0  501  0.00000000000E+00  0.00000000000E+00  0.14865205255E+04  0.14865205255E+04  0.25500000920E-02 0. -1.
        2   -1    0    0  501    0  0.00000000000E+00  0.00000000000E+00 -0.87956521207E+03  0.87956521207E+03  0.25500000920E-02 0.  1.
    10030    2    1    2    0    0  0.00000000000E+00  0.00000000000E+00  0.60695531345E+03  0.23660857376E+04  0.22869121026E+04 0.  0.
        3    1    3    3  502    0 -0.28564109469E+01 -0.60492716405E+03 -0.70044888730E+03  0.92551266161E+03  0.10100000352E+00 0.  1.
       -3    1    3    3    0  502  0.28564109469E+01  0.60492716405E+03  0.13074042008E+04  0.14405730760E+04  0.10100000352E+00 0. -1.
</event>
<event>
 5   0  0.7278815E-06  0.2298713E+04  0.7818609E-02  0.8478429E-01
       -1   -1    0    0    0  501  0.00000000000E+00  0.00000000000E+00  0.11741284561E+04  0.11741284561E+04  0.50400001928E-02 0.  1.
        1   -1    0    0  501    0  0.00000000000E+00  0.00000000000E+00 -0.11251070321E+04  0.11251070321E+04  0.50400001928E-02 0. -1.
    10030    2    1    2    0    0  0.00000000000E+00  0.00000000000E+00  0.49021424023E+02  0.22992354882E+04  0.22987128420E+04 0.  0.
        5    1    3    3  502    0 -0.17627108793E+03 -0.54809877172E+03 -0.97045880760E+03  0.11284042482E+04  0.46999998093E+01 0. -1.
       -5    1    3    3    0  502  0.17627108793E+03  0.54809877172E+03  0.10194802316E+04  0.11708312400E+04  0.46999998093E+01 0.  1.
</event>
<event>
 5   0  0.1602809E-05  0.2297907E+04  0.7818609E-02  0.8478747E-01
       -2   -1    0    0    0  501  0.00000000000E+00  0.00000000000E+00  0.68594963898E+03  0.68594963899E+03  0.25500000920E-02 0.  1.
        2   -1    0    0  501    0  0.00000000000E+00  0.00000000000E+00 -0.19244759591E+04  0.19244759591E+04  0.25500000920E-02 0. -1.
    10030    2    1    2    0    0  0.00000000000E+00  0.00000000000E+00 -0.12385263202E+04  0.26104255981E+04  0.22979065163E+04 0.  0.
        3    1    3    3  502    0  0.84834438183E+03 -0.63687497163E+03 -0.11788131910E+03  0.10673302841E+04  0.10100000352E+00 0.  1.
       -3    1    3    3    0  502 -0.84834438183E+03  0.63687497163E+03 -0.11206450011E+04  0.15430953141E+04  0.10100000352E+00 0. -1.
</event>
<event>
 5   0  0.7416556E-06  0.2295441E+04  0.7818609E-02  0.8479721E-01
        1   -1    0    0  501    0  0.00000000000E+00  0.00000000000E+00  0.12204022199E+04  0.12204022199E+04  0.50400001928E-02 0.  1.
       -1   -1    0    0    0  501  0.00000000000E+00  0.00000000000E+00 -0.10793670168E+04  0.10793670168E+04  0.50400001928E-02 0. -1.
    10030    2    1    2    0    0  0.00000000000E+00  0.00000000000E+00  0.14103520316E+03  0.22997692367E+04  0.22954406143E+04 0.  0.
        4    1    3    3  502    0 -0.10650463231E+04 -0.52290926522E+02  0.49582049607E+03  0.11759666614E+04  0.12699999809E+01 0.  1.
       -4    1    3    3    0  502  0.10650463231E+04  0.52290926522E+02 -0.35478529291E+03  0.11238025754E+04  0.12699999809E+01 0. -1.
</event>
<event>
 5   0  0.7278815E-06  0.2281443E+04  0.7818609E-02  0.8485274E-01
       -1   -1    0    0    0  501  0.00000000000E+00  0.00000000000E+00  0.13250242263E+04  0.13250242263E+04  0.50400001928E-02 0.  1.
        1   -1    0    0  501    0  0.00000000000E+00  0.00000000000E+00 -0.98205445983E+03  0.98205445984E+03  0.50400001928E-02 0. -1.
    10030    2    1    2    0    0  0.00000000000E+00  0.00000000000E+00  0.34296976648E+03  0.23070786862E+04  0.22814433597E+04 0.  0.
        5    1    3    3  502    0  0.70721372363E+02 -0.11342552158E+04  0.27101569339E+03  0.11683355695E+04  0.46999998093E+01 0.  1.
       -5    1    3    3    0  502 -0.70721372363E+02  0.11342552158E+04  0.71954073084E+02  0.11387431166E+04  0.46999998093E+01 0. -1.
</event>
<event>
 5   0  0.1602809E-05  0.2295497E+04  0.7818609E-02  0.8479699E-01
       -2   -1    0    0    0  501  0.00000000000E+00  0.00000000000E+00  0.10612986324E+04  0.10612986324E+04  0.25500000920E-02 0. -1.
        2   -1    0    0  501    0  0.00000000000E+00  0.00000000000E+00 -0.12412405552E+04  0.12412405552E+04  0.25500000920E-02 0.  1.
    10030    2    1    2    0    0  0.00000000000E+00  0.00000000000E+00 -0.17994192273E+03  0.23025391876E+04  0.22954972479E+04 0.  0.
        3    1    3    3  502    0 -0.56770783662E+03  0.54377601353E+03  0.74886138511E+03  0.10857153978E+04  0.10100000352E+00 0. -1.
       -3    1    3    3    0  502  0.56770783662E+03 -0.54377601353E+03 -0.92880330784E+03  0.12168237898E+04  0.10100000352E+00 0.  1.
</event>
<event>
 5   0  0.7391007E-06  0.2306852E+04  0.7818609E-02  0.8475224E-01
        1   -1    0    0  501    0  0.00000000000E+00  0.00000000000E+00  0.92224468535E+03  0.92224468536E+03  0.50400001928E-02 0.  1.
       -1   -1    0    0    0  501  0.00000000000E+00  0.00000000000E+00 -0.14425577905E+04  0.14425577905E+04  0.50400001928E-02 0. -1.
    10030    2    1    2    0    0  0.00000000000E+00  0.00000000000E+00 -0.52031310518E+03  0.23648024759E+04  0.23068517557E+04 0.  0.
        1    1    3    3  502    0  0.10917019020E+04 -0.30903736427E+03 -0.47291332507E+03  0.12292128165E+04  0.50400001928E-02 0. -1.
       -1    1    3    3    0  502 -0.10917019020E+04  0.30903736427E+03 -0.47399780113E+02  0.11355896594E+04  0.50400001928E-02 0.  1.
</event>
<event>
 5   0  0.1697855E-05  0.2301120E+04  0.7818609E-02  0.8477480E-01
        2   -1    0    0  501    0  0.00000000000E+00  0.00000000000E+00  0.17120013201E+04  0.17120013201E+04  0.25500000920E-02 0. -1.
       -2   -1    0    0    0  501  0.00000000000E+00  0.00000000000E+00 -0.77324006868E+03  0.77324006869E+03  0.25500000920E-02 0.  1.
    10030    2    1    2    0    0  0.00000000000E+00  0.00000000000E+00  0.93876125142E+03  0.24852413888E+04  0.23011197434E+04 0.  0.
        5    1    3    3  502    0  0.75010089335E+03 -0.73722075226E+03  0.97320468453E+03  0.14329323905E+04  0.46999998093E+01 0. -1.
       -5    1    3    3    0  502 -0.75010089335E+03  0.73722075226E+03 -0.34443433114E+02  0.10523089983E+04  0.46999998093E+01 0.  1.
</event>
<event>
 5   0  0.7202572E-06  0.2295123E+04  0.7818609E-02  0.8479846E-01
        1   -1    0    0  501    0  0.00000000000E+00  0.00000000000E+00  0.11173310119E+04  0.11173310119E+04  0.50400001928E-02 0.  1.
       -1   -1    0    0    0  501  0.00000000000E+00  0.00000000000E+00 -0.11786100266E+04  0.11786100266E+04  0.50400001928E-02 0. -1.
    10030    2    1    2    0    0  0.00000000000E+00  0.00000000000E+00 -0.61279014670E+02  0.22959410385E+04  0.22951231197E+04 0.  0.
        2    1    3    3  502    0  0.25816575908E+02  0.85411903280E+03 -0.79688357173E+03  0.11684216896E+04  0.25500000920E-02 0. -1.
       -2    1    3    3    0  502 -0.25816575908E+02 -0.85411903280E+03  0.73560455706E+03  0.11275193489E+04  0.25500000920E-02 0.  1.
</event>
<event>
 5   0  0.7183014E-06  0.2300976E+04  0.7818609E-02  0.8477537E-01
        1   -1    0    0  501    0  0.00000000000E+00  0.00000000000E+00  0.17011378370E+04  0.17011378370E+04  0.50400001928E-02 0. -1.
       -1   -1    0    0    0  501  0.00000000000E+00  0.00000000000E+00 -0.77808051259E+03  0.77808051261E+03  0.50400001928E-02 0.  1.
    10030    2    1    2    0    0  0.00000000000E+00  0.00000000000E+00  0.92305732436E+03  0.24792183496E+04  0.23009756193E+04 0.  0.
        3    1    3    3  502    0  0.40001161566E+03  0.20430392180E+03 -0.67970499369E+03  0.81470747742E+03  0.10100000352E+00 0.  1.
       -3    1    3    3    0  502 -0.40001161566E+03 -0.20430392180E+03  0.16027623180E+04  0.16645108721E+04  0.10100000352E+00 0. -1.
</event>
<event>
 5   0  0.7278815E-06  0.2304848E+04  0.7818609E-02  0.8476012E-01
       -1   -1    0    0    0  501  0.00000000000E+00  0.00000000000E+00  0.22547223985E+04  0.22547223985E+04  0.50400001928E-02 0.  1.
        1   -1    0    0  501    0  0.00000000000E+00  0.00000000000E+00 -0.58902188944E+03  0.58902188946E+03  0.50400001928E-02 0. -1.
    10030    2    1    2    0    0  0.00000000000E+00  0.00000000000E+00  0.16657005091E+04  0.28437442880E+04  0.23048478018E+04 0.  0.
        5    1    3    3  502    0 -0.11023660534E+04 -0.31417712972E+03  0.97956771164E+03  0.15078107229E+04  0.46999998093E+01 0. -1.
       -5    1    3    3    0  502  0.11023660534E+04  0.31417712972E+03  0.68613279746E+03  0.13359335651E+04  0.46999998093E+01 0.  1.
</event>
<event>
 5   0  0.1635955E-05  0.2301739E+04  0.7818609E-02  0.8477236E-01
        2   -1    0    0  501    0  0.00000000000E+00  0.00000000000E+00  0.16883418515E+04  0.16883418515E+04  0.25500000920E-02 0.  1.
       -2   -1    0    0    0  501  0.00000000000E+00  0.00000000000E+00 -0.78449771636E+03  0.78449771636E+03  0.25500000920E-02 0. -1.
    10030    2    1    2    0    0  0.00000000000E+00  0.00000000000E+00  0.90384413513E+03  0.24728395679E+04  0.23017387575E+04 0.  0.
        2    1    3    3  502    0 -0.58710137586E+03  0.72659868344E+03  0.11741014035E+04  0.15003825439E+04  0.25500000920E-02 0.  1.
       -2    1    3    3    0  502  0.58710137586E+03 -0.72659868344E+03 -0.27025726839E+03  0.97245702395E+03  0.25500000920E-02 0. -1.
</event>
<event>
 5   0  0.1588969E-05  0.2295204E+04  0.7818609E-02  0.8479814E-01
        2   -1    0    0  501    0  0.00000000000E+00  0.00000000000E+00  0.18292827497E+04  0.18292827497E+04  0.25500000920E-02 0.  1.
       -2   -1    0    0    0  501  0.00000000000E+00  0.00000000000E+00 -0.71994931976E+03  0.71994931976E+03  0.25500000920E-02 0. -1.
    10030    2    1    2    0    0  0.00000000000E+00  0.00000000000E+00  0.11093334300E+04  0.25492320695E+04  0.22952044539E+04 0.  0.
        1    1    3    3  502    0 -0.24394673471E+03  0.81983166003E+03  0.14044307973E+04  0.16444025737E+04  0.50400001928E-02 0.  1.
       -1    1    3    3    0  502  0.24394673471E+03 -0.81983166003E+03 -0.29509736731E+03  0.90482949575E+03  0.50400001928E-02 0. -1.
</event>
<event>
 5   0  0.7391007E-06  0.2300317E+04  0.7818609E-02  0.8477796E-01
        1   -1    0    0  501    0  0.00000000000E+00  0.00000000000E+00  0.17101442345E+04  0.17101442345E+04  0.50400001928E-02 0. -1.
       -1   -1    0    0    0  501  0.00000000000E+00  0.00000000000E+00 -0.77353959727E+03  0.77353959729E+03  0.50400001928E-02 0.  1.
    10030    2    1    2    0    0  0.00000000000E+00  0.00000000000E+00  0.93660463719E+03  0.24836838318E+04  0.23003167455E+04 0.  0.
        1    1    3    3  502    0 -0.70755885699E+03  0.89703165677E+03  0.61137541562E+03  0.12957952107E+04  0.50400001928E-02 0. -1.
       -1    1    3    3    0  502  0.70755885699E+03 -0.89703165677E+03  0.32522922157E+03  0.11878886210E+04  0.50400001928E-02 0.  1.
</event>
<event>
 5   0  0.7183014E-06  0.2305162E+04  0.7818609E-02  0.8475889E-01
       -1   -1    0    0    0  501  0.00000000000E+00  0.00000000000E+00  0.13251379859E+04  0.13251379859E+04  0.50400001928E-02 0. -1.
        1   -1    0    0  501    0  0.00000000000E+00  0.00000000000E+00 -0.10024938574E+04  0.10024938575E+04  0.50400001928E-02 0.  1.
    10030    2    1    2    0    0  0.00000000000E+00  0.00000000000E+00  0.32264412846E+03  0.23276318434E+04  0.23051617654E+04 0.  0.
        3    1    3    3  502    0 -0.43357686490E+03  0.30932061245E+03  0.11934277563E+04  0.13068810041E+04  0.10100000352E+00 0. -1.
       -3    1    3    3    0  502  0.43357686490E+03 -0.30932061245E+03 -0.87078362789E+03  0.10207508393E+04  0.10100000352E+00 0.  1.
</event>
<event>
 5   0  0.7183014E-06  0.2305654E+04  0.7818609E-02  0.8475695E-01
       -1   -1    0    0    0  501  0.00000000000E+00  0.00000000000E+00  0.87438183469E+03  0.87438183470E+03  0.50400001928E-02 0.  1.
        1   -1    0    0  501    0  0.00000000000E+00  0.00000000000E+00 -0.15199419379E+04  0.15199419379E+04  0.50400001928E-02 0. -1.
    10030    2    1    2    0    0  0.00000000000E+00  0.00000000000E+00 -0.64556010322E+03  0.23943237726E+04  0.23056535909E+04 0.  0.
        3    1    3    3  502    0  0.85435910888E+03 -0.56705615965E+03 -0.86984864161E+03  0.13446630971E+04  0.10100000352E+00 0. -1.
       -3    1    3    3    0  502 -0.85435910888E+03  0.56705615965E+03  0.22428853839E+03  0.10496606755E+04  0.10100000352E+00 0.  1.
</event>
<event>
 5   0  0.7202572E-06  0.2297281E+04  0.7818609E-02  0.8478994E-01
       -1   -1    0    0    0  501  0.00000000000E+00  0.00000000000E+00  0.77801216937E+03  0.77801216939E+03  0.50400001928E-02 0.  1.
        1   -1    0    0  501    0  0.00000000000E+00  0.00000000000E+00 -0.16958287219E+04  0.16958287219E+04  0.50400001928E-02 0. -1.
    10030    2    1    2    0    0  0.00000000000E+00  0.00000000000E+00 -0.91781655255E+03  0.24738408913E+04  0.22972813348E+04 0.  0.
        2    1    3    3  502    0 -0.36798531232E+03 -0.49887534701E+02 -0.16294032657E+04  0.16711842982E+04  0.25500000920E-02 0. -1.
       -2    1    3    3    0  502  0.36798531232E+03  0.49887534701E+02  0.71158671314E+03  0.80265659315E+03  0.25500000920E-02 0.  1.
</event>
<event>
 5   0  0.1588969E-05  0.2299310E+04  0.7818609E-02  0.8478193E-01
       -2   -1    0    0    0  501  0.00000000000E+00  0.00000000000E+00  0.87014160252E+03  0.87014160253E+03  0.25500000920E-02 0.  1.
        2   -1    0    0  501    0  0.00000000000E+00  0.00000000000E+00 -0.15189559589E+04  0.15189559589E+04  0.25500000920E-02 0. -1.
    10030    2    1    2    0    0  0.00000000000E+00  0.00000000000E+00 -0.64881435634E+03  0.23890975614E+04  0.22993101332E+04 0.  0.
        1    1    3    3  502    0  0.10940779189E+04  0.14361820681E+03 -0.65960998235E+03  0.12855808068E+04  0.50400001928E-02 0. -1.
       -1    1    3    3    0  502 -0.10940779189E+04 -0.14361820681E+03  0.10795626016E+02  0.11035167546E+04  0.50400001928E-02 0.  1.
</event>
<event>
 5   0  0.1602809E-05  0.2155713E+04  0.7818609E-02  0.8537091E-01
       -2   -1    0    0    0  501  0.00000000000E+00  0.00000000000E+00  0.21732258307E+04  0.21732258307E+04  0.25500000920E-02 0.  1.
        2   -1    0    0  501    0  0.00000000000E+00  0.00000000000E+00 -0.53458521257E+03  0.53458521257E+03  0.25500000920E-02 0. -1.
    10030    2    1    2    0    0  0.00000000000E+00  0.00000000000E+00  0.16386406181E+04  0.27078110433E+04  0.21557127755E+04 0.  0.
        3    1    3    3  502    0  0.65372503329E+03 -0.73213094786E+02 -0.25320720395E+03  0.70486202532E+03  0.10100000352E+00 0. -1.
       -3    1    3    3    0  502 -0.65372503329E+03  0.73213094786E+02  0.18918478221E+04  0.20029490179E+04  0.10100000352E+00 0.  1.
</event>
<event>
 5   0  0.7183014E-06  0.2303564E+04  0.7818609E-02  0.8476517E-01
       -1   -1    0    0    0  501  0.00000000000E+00  0.00000000000E+00  0.98156572831E+03  0.98156572832E+03  0.50400001928E-02 0.  1.
        1   -1    0    0  501    0  0.00000000000E+00  0.00000000000E+00 -0.13515158774E+04  0.13515158774E+04  0.50400001928E-02 0. -1.
    10030    2    1    2    0    0  0.00000000000E+00  0.00000000000E+00 -0.36995014904E+03  0.23330816057E+04  0.23035639053E+04 0.  0.
        3    1    3    3  502    0 -0.75218177839E+03 -0.71237231208E+03 -0.69476359107E+03  0.12473765255E+04  0.10100000352E+00 0. -1.
       -3    1    3    3    0  502  0.75218177839E+03  0.71237231208E+03  0.32481344202E+03  0.10857050802E+04  0.10100000352E+00 0.  1.
</event>
<event>
 5   0  0.1626636E-05  0.2300090E+04  0.7818609E-02  0.8477886E-01
       -2   -1    0    0    0  501  0.00000000000E+00  0.00000000000E+00  0.13348227458E+04  0.13348227458E+04  0.25500000920E-02 0.  1.
        2   -1    0    0  501    0  0.00000000000E+00  0.00000000000E+00 -0.99084552867E+03  0.99084552868E+03  0.25500000920E-02 0. -1.
    10030    2    1    2    0    0  0.00000000000E+00  0.00000000000E+00  0.34397721716E+03  0.23256682745E+04  0.23000896933E+04 0.  0.
        4    1    3    3  502    0 -0.10607237615E+04 -0.37244638656E+03  0.41706876126E+03  0.11990826383E+04  0.12699999809E+01 0. -1.
       -4    1    3    3    0  502  0.10607237615E+04  0.37244638656E+03 -0.73091544105E+02  0.11265856362E+04  0.12699999809E+01 0.  1.
</event>
<event>
 5   0  0.7183014E-06  0.2298939E+04  0.7818609E-02  0.8478340E-01
        1   -1    0    0  501    0  0.00000000000E+00  0.00000000000E+00  0.17304897579E+04  0.17304897579E+04  0.50400001928E-02 0.  1.
       -1   -1    0    0    0  501  0.00000000000E+00  0.00000000000E+00 -0.76352958669E+03  0.76352958670E+03  0.50400001928E-02 0. -1.
    10030    2    1    2    0    0  0.00000000000E+00  0.00000000000E+00  0.96696017117E+03  0.24940193446E+04  0.22989389984E+04 0.  0.
        3    1    3    3  502    0 -0.71220607903E+03 -0.10639288558E+03  0.14554554795E+04  0.16238557843E+04  0.10100000352E+00 0.  1.
       -3    1    3    3    0  502  0.71220607903E+03  0.10639288558E+03 -0.48849530836E+03  0.87016356026E+03  0.10100000352E+00 0. -1.
</event>
<event>
 5   0  0.7183014E-06  0.2329319E+04  0.7818609E-02  0.8466450E-01
       -1   -1    0    0    0  501  0.00000000000E+00  0.00000000000E+00  0.10002961692E+04  0.10002961692E+04  0.50400001928E-02 0. -1.
        1   -1    0    0  501    0  0.00000000000E+00  0.00000000000E+00 -0.13560305628E+04  0.13560305628E+04  0.50400001928E-02 0.  1.
    10030    2    1    2    0    0  0.00000000000E+00  0.00000000000E+00 -0.35573439368E+03  0.23563267320E+04  0.23293193661E+04 0.  0.
        3    1    3    3  502    0  0.42340659895E+03  0.26887221008E+03 -0.12411809362E+04  0.13386917271E+04  0.10100000352E+00 0.  1.
       -3    1    3    3    0  502 -0.42340659895E+03 -0.26887221008E+03  0.88544654257E+03  0.10176350050E+04  0.10100000352E+00 0. -1.
</event>
<event>
 5   0  0.1602809E-05  0.2298628E+04  0.7818609E-02  0.8478462E-01
        2   -1    0    0  501    0  0.00000000000E+00  0.00000000000E+00  0.17772175915E+04  0.17772175915E+04  0.25500000920E-02 0.  1.
       -2   -1    0    0    0  501  0.00000000000E+00  0.00000000000E+00 -0.74325298621E+03  0.74325298621E+03  0.25500000920E-02 0. -1.
    10030    2    1    2    0    0  0.00000000000E+00  0.00000000000E+00  0.10339646053E+04  0.25204705777E+04  0.22986276619E+04 0.  0.
        3    1    3    3  502    0  0.12740215156E+03  0.10053969831E+04 -0.77431733348E+02  0.10163907149E+04  0.10100000352E+00 0. -1.
       -3    1    3    3    0  502 -0.12740215156E+03 -0.10053969831E+04  0.11113963387E+04  0.15040798628E+04  0.10100000352E+00 0.  1.
</event>
<event>
 5   0  0.7416556E-06  0.2299388E+04  0.7818609E-02  0.8478162E-01
        1   -1    0    0  501    0  0.00000000000E+00  0.00000000000E+00  0.20683702663E+04  0.20683702663E+04  0.50400001928E-02 0. -1.
       -1   -1    0    0    0  501  0.00000000000E+00  0.00000000000E+00 -0.63905211178E+03  0.63905211180E+03  0.50400001928E-02 0.  1.
    10030    2    1    2    0    0  0.00000000000E+00  0.00000000000E+00  0.14293181545E+04  0.27074223781E+04  0.22993880809E+04 0.  0.
        4    1    3    3  502    0  0.26245076980E+03 -0.32327254649E+03  0.19764635868E+04  0.20198503580E+04  0.12699999809E+01 0. -1.
       -4    1    3    3    0  502 -0.26245076980E+03  0.32327254649E+03 -0.54714543228E+03  0.68757202011E+03  0.12699999809E+01 0.  1.
</event>
<event>
 5   0  0.7183014E-06  0.2307867E+04  0.7818609E-02  0.8474826E-01
        1   -1    0    0  501    0  0.00000000000E+00  0.00000000000E+00  0.11509088940E+04  0.11509088940E+04  0.50400001928E-02 0. -1.
       -1   -1    0    0    0  501  0.00000000000E+00  0.00000000000E+00 -0.11569664542E+04  0.11569664542E+04  0.50400001928E-02 0.  1.
    10030    2    1    2    0    0  0.00000000000E+00  0.00000000000E+00 -0.60575602168E+01  0.23078753483E+04  0.23078673985E+04 0.  0.
        3    1    3    3  502    0 -0.24543318845E+02 -0.10135279885E+04  0.54808255767E+03  0.11524911532E+04  0.10100000352E+00 0. -1.
       -3    1    3    3    0  502  0.24543318845E+02  0.10135279885E+04 -0.55414011789E+03  0.11553841951E+04  0.10100000352E+00 0.  1.
</event>
<event>
 5   0  0.1635955E-05  0.2286984E+04  0.7818609E-02  0.8483071E-01
        2   -1    0    0  501    0  0.00000000000E+00  0.00000000000E+00  0.14876000856E+04  0.14876000856E+04  0.25500000920E-02 0. -1.
       -2   -1    0    0    0  501  0.00000000000E+00  0.00000000000E+00 -0.87898209443E+03  0.87898209443E+03  0.25500000920E-02 0.  1.
    10030    2    1    2    0    0  0.00000000000E+00  0.00000000000E+00  0.60861799118E+03  0.23665821800E+04  0.22869838993E+04 0.  0.
        2    1    3    3  502    0  0.56159715067E+03  0.52689538876E+03  0.11790489560E+04  0.14082494633E+04  0.25500000920E-02 0. -1.
       -2    1    3    3    0  502 -0.56159715067E+03 -0.52689538876E+03 -0.57043096479E+03  0.95833271672E+03  0.25500000920E-02 0.  1.
</event>
<event>
 5   0  0.7416556E-06  0.2280551E+04  0.7818609E-02  0.8485629E-01
       -1   -1    0    0    0  501  0.00000000000E+00  0.00000000000E+00  0.57991712808E+03  0.57991712810E+03  0.50400001928E-02 0. -1.
        1   -1    0    0  501    0  0.00000000000E+00  0.00000000000E+00 -0.22420928690E+04  0.22420928690E+04  0.50400001928E-02 0.  1.
    10030    2    1    2    0    0  0.00000000000E+00  0.00000000000E+00 -0.16621757409E+04  0.28220099971E+04  0.22805508611E+04 0.  0.
        4    1    3    3  502    0  0.37331780413E+03 -0.86718558315E+03 -0.39861994558E+02  0.94496963444E+03  0.12699999809E+01 0. -1.
       -4    1    3    3    0  502 -0.37331780413E+03  0.86718558315E+03 -0.16223137463E+04  0.18770403626E+04  0.12699999809E+01 0.  1.
</event>
<event>
 5   0  0.1588969E-05  0.2248856E+04  0.7818609E-02  0.8498364E-01
        2   -1    0    0  501    0  0.00000000000E+00  0.00000000000E+00  0.19718808929E+04  0.19718808929E+04  0.25500000920E-02 0. -1.
       -2   -1    0    0    0  501  0.00000000000E+00  0.00000000000E+00 -0.64118410845E+03  0.64118410845E+03  0.25500000920E-02 0.  1.
    10030    2    1    2    0    0  0.00000000000E+00  0.00000000000E+00  0.13306967845E+04  0.26130650014E+04  0.22488563247E+04 0.  0.
        1    1    3    3  502    0  0.43037987684E+03  0.97984112934E+03  0.10662191176E+04  0.15106749100E+04  0.50400001928E-02 0. -1.
       -1    1    3    3    0  502 -0.43037987684E+03 -0.97984112934E+03  0.26447766689E+03  0.11023900913E+04  0.50400001928E-02 0.  1.
</event>
<event>
 5   0  0.7202572E-06  0.2303770E+04  0.7818609E-02  0.8476436E-01
        1   -1    0    0  501    0  0.00000000000E+00  0.00000000000E+00  0.11627531566E+04  0.11627531566E+04  0.50400001928E-02 0. -1.
       -1   -1    0    0    0  501  0.00000000000E+00  0.00000000000E+00 -0.11411186827E+04  0.11411186827E+04  0.50400001928E-02 0.  1.
    10030    2    1    2    0    0  0.00000000000E+00  0.00000000000E+00  0.21634473900E+02  0.23038718393E+04  0.23037702580E+04 0.  0.
        2    1    3    3  502    0 -0.19536522020E+03 -0.47689503250E+03 -0.10193946340E+04  0.11422617306E+04  0.25500000920E-02 0.  1.
       -2    1    3    3    0  502  0.19536522020E+03  0.47689503250E+03  0.10410291079E+04  0.11616101087E+04  0.25500000920E-02 0. -1.
</event>
<event>
 5   0  0.7416556E-06  0.2307561E+04  0.7818609E-02  0.8474946E-01
        1   -1    0    0  501    0  0.00000000000E+00  0.00000000000E+00  0.10219791962E+04  0.10219791962E+04  0.50400001928E-02 0. -1.
       -1   -1    0    0    0  501  0.00000000000E+00  0.00000000000E+00 -0.13025792638E+04  0.13025792638E+04  0.50400001928E-02 0.  1.
    10030    2    1    2    0    0  0.00000000000E+00  0.00000000000E+00 -0.28060006759E+03  0.23245584599E+04  0.23075605378E+04 0.  0.
        4    1    3    3  502    0 -0.95460312329E+03  0.61864341153E+03 -0.33464732186E+03  0.11857391098E+04  0.12699999809E+01 0.  1.
       -4    1    3    3    0  502  0.95460312329E+03 -0.61864341153E+03  0.54047254270E+02  0.11388193501E+04  0.12699999809E+01 0. -1.
</event>
<event>
 5   0  0.1602809E-05  0.2304739E+04  0.7818609E-02  0.8476055E-01
        2   -1    0    0  501    0  0.00000000000E+00  0.00000000000E+00  0.95756524765E+03  0.95756524765E+03  0.25500000920E-02 0. -1.
       -2   -1    0    0    0  501  0.00000000000E+00  0.00000000000E+00 -0.13868042567E+04  0.13868042567E+04  0.25500000920E-02 0.  1.
    10030    2    1    2    0    0  0.00000000000E+00  0.00000000000E+00 -0.42923900900E+03  0.23443695043E+04  0.23047390841E+04 0.  0.
        3    1    3    3  502    0  0.32816130666E+03 -0.19440095087E+02 -0.13380966420E+04  0.13778862050E+04  0.10100000352E+00 0.  1.
       -3    1    3    3    0  502 -0.32816130666E+03  0.19440095087E+02  0.90885763301E+03  0.96648329927E+03  0.10100000352E+00 0. -1.
</event>
<event>
 5   0  0.7183014E-06  0.2208022E+04  0.7818609E-02  0.8515097E-01
        1   -1    0    0  501    0  0.00000000000E+00  0.00000000000E+00  0.13778321032E+04  0.13778321032E+04  0.50400001928E-02 0. -1.
       -1   -1    0    0    0  501  0.00000000000E+00  0.00000000000E+00 -0.88460712930E+03  0.88460712932E+03  0.50400001928E-02 0.  1.
    10030    2    1    2    0    0  0.00000000000E+00  0.00000000000E+00  0.49322497390E+03  0.22624392325E+04  0.22080218310E+04 0.  0.
        3    1    3    3  502    0 -0.67126360160E+03 -0.78467476431E+03 -0.15356468399E+03  0.10439786544E+04  0.10100000352E+00 0.  1.
       -3    1    3    3    0  502  0.67126360160E+03  0.78467476431E+03  0.64678965788E+03  0.12184605781E+04  0.10100000352E+00 0. -1.
</event>
<event>
 5   0  0.1635955E-05  0.2314369E+04  0.7818609E-02  0.8472277E-01
       -2   -1    0    0    0  501  0.00000000000E+00  0.00000000000E+00  0.10775423428E+04  0.10775423428E+04  0.25500000920E-02 0. -1.
        2   -1    0    0  501    0  0.00000000000E+00  0.00000000000E+00 -0.12427135283E+04  0.12427135283E+04  0.25500000920E-02 0.  1.
    10030    2    1    2    0    0  0.00000000000E+00  0.00000000000E+00 -0.16517118548E+03  0.23202558711E+04  0.23143694145E+04 0.  0.
        2    1    3    3  502    0 -0.23649586063E+03  0.10147846654E+04 -0.58721285994E+03  0.11960506478E+04  0.25500000920E-02 0.  1.
       -2    1    3    3    0  502  0.23649586063E+03 -0.10147846654E+04  0.42204167445E+03  0.11242052233E+04  0.25500000920E-02 0. -1.
</event>
<event>
 5   0  0.1602809E-05  0.2300467E+04  0.7818609E-02  0.8477737E-01
       -2   -1    0    0    0  501  0.00000000000E+00  0.00000000000E+00  0.11959675439E+04  0.11959675439E+04  0.25500000920E-02 0. -1.
        2   -1    0    0  501    0  0.00000000000E+00  0.00000000000E+00 -0.11062479578E+04  0.11062479578E+04  0.25500000920E-02 0.  1.
    10030    2    1    2    0    0  0.00000000000E+00  0.00000000000E+00  0.89719586170E+02  0.23022155017E+04  0.23004666075E+04 0.  0.
        3    1    3    3  502    0 -0.73388757622E+03 -0.62889966495E+03 -0.57925755318E+03  0.11267852884E+04  0.10100000352E+00 0.  1.
       -3    1    3    3    0  502  0.73388757622E+03  0.62889966495E+03  0.66897713935E+03  0.11754302133E+04  0.10100000352E+00 0. -1.
</event>
<event>
 5   0  0.1635955E-05  0.2299391E+04  0.7818609E-02  0.8478161E-01
       -2   -1    0    0    0  501  0.00000000000E+00  0.00000000000E+00  0.89133663814E+03  0.89133663815E+03  0.25500000920E-02 0. -1.
        2   -1    0    0  501    0  0.00000000000E+00  0.00000000000E+00 -0.14829413346E+04  0.14829413346E+04  0.25500000920E-02 0.  1.
    10030    2    1    2    0    0  0.00000000000E+00  0.00000000000E+00 -0.59160469641E+03  0.23742779727E+04  0.22993911748E+04 0.  0.
        2    1    3    3  502    0 -0.27103753703E+03 -0.78309590669E+03 -0.11186881212E+04  0.13921794633E+04  0.25500000920E-02 0.  1.
       -2    1    3    3    0  502  0.27103753703E+03  0.78309590669E+03  0.52708342476E+03  0.98209850942E+03  0.25500000920E-02 0. -1.
</event>
<event>
 5   0  0.1635955E-05  0.2329491E+04  0.7818609E-02  0.8466383E-01
        2   -1    0    0  501    0  0.00000000000E+00  0.00000000000E+00  0.17273852345E+04  0.17273852345E+04  0.25500000920E-02 0. -1.
       -2   -1    0    0    0  501  0.00000000000E+00  0.00000000000E+00 -0.78536710524E+03  0.78536710525E+03  0.25500000920E-02 0.  1.
    10030    2    1    2    0    0  0.00000000000E+00  0.00000000000E+00  0.94201812925E+03  0.25127523397E+04  0.23294905377E+04 0.  0.
        2    1    3    3  502    0  0.26707802313E+03 -0.10976760611E+04  0.16513776252E+03  0.11417065674E+04  0.25500000920E-02 0.  1.
       -2    1    3    3    0  502 -0.26707802313E+03  0.10976760611E+04  0.77688036674E+03  0.13710457723E+04  0.25500000920E-02 0. -1.
</event>
<event>
 5   0  0.7278815E-06  0.2317549E+04  0.7818609E-02  0.8471034E-01
       -1   -1    0    0    0  501  0.00000000000E+00  0.00000000000E+00  0.61117044822E+03  0.61117044824E+03  0.50400001928E-02 0.  1.
        1   -1    0    0  501    0  0.00000000000E+00  0.00000000000E+00 -0.21970280685E+04  0.21970280685E+04  0.50400001928E-02 0. -1.
    10030    2    1    2    0    0  0.00000000000E+00  0.00000000000E+00 -0.15858576202E+04  0.28081985167E+04  0.23175492481E+04 0.  0.
        5    1    3    3  502    0 -0.35227627632E+03  0.88587296983E+03 -0.15910652993E+04  0.18548262371E+04  0.46999998093E+01 0. -1.
       -5    1    3    3    0  502  0.35227627632E+03 -0.88587296983E+03  0.52076790045E+01  0.95337227957E+03  0.46999998093E+01 0.  1.
</event>
<event>
 5   0  0.7416556E-06  0.2300512E+04  0.7818609E-02  0.8477719E-01
       -1   -1    0    0    0  501  0.00000000000E+00  0.00000000000E+00  0.65573635159E+03  0.65573635161E+03  0.50400001928E-02 0. -1.
        1   -1    0    0  501    0  0.00000000000E+00  0.00000000000E+00 -0.20177141108E+04  0.20177141108E+04  0.50400001928E-02 0.  1.
    10030    2    1    2    0    0  0.00000000000E+00  0.00000000000E+00 -0.13619777592E+04  0.26734504624E+04  0.23005116732E+04 0.  0.
        4    1    3    3  502    0  0.76624722183E+03  0.42498236035E+03  0.18503124733E+03  0.89553502833E+03  0.12699999809E+01 0. -1.
       -4    1    3    3    0  502 -0.76624722183E+03 -0.42498236035E+03 -0.15470090065E+04  0.17779154341E+04  0.12699999809E+01 0.  1.
</event>
<event>
 5   0  0.1635955E-05  0.2293524E+04  0.7818609E-02  0.8480479E-01
        2   -1    0    0  501    0  0.00000000000E+00  0.00000000000E+00  0.15194877426E+04  0.15194877426E+04  0.25500000920E-02 0.  1.
       -2   -1    0    0    0  501  0.00000000000E+00  0.00000000000E+00 -0.86546444096E+03  0.86546444096E+03  0.25500000920E-02 0. -1.
    10030    2    1    2    0    0  0.00000000000E+00  0.00000000000E+00  0.65402330167E+03  0.23849521836E+04  0.22935235859E+04 0.  0.
        2    1    3    3  502    0 -0.58789924492E+03 -0.96512629455E+03  0.52963391962E+03  0.12480410151E+04  0.25500000920E-02 0. -1.
       -2    1    3    3    0  502  0.58789924492E+03  0.96512629455E+03  0.12438938205E+03  0.11369111685E+04  0.25500000920E-02 0.  1.
</event>
<event>
 5   0  0.1635955E-05  0.2301673E+04  0.7818609E-02  0.8477262E-01
        2   -1    0    0  501    0  0.00000000000E+00  0.00000000000E+00  0.18271313726E+04  0.18271313726E+04  0.25500000920E-02 0. -1.
       -2   -1    0    0    0  501  0.00000000000E+00  0.00000000000E+00 -0.72486534715E+03  0.72486534716E+03  0.25500000920E-02 0.  1.
    10030    2    1    2    0    0  0.00000000000E+00  0.00000000000E+00  0.11022660254E+04  0.25519967197E+04  0.23016726237E+04 0.  0.
        2    1    3    3  502    0 -0.10666025679E+04  0.42810691603E+03  0.61679961117E+03  0.13043612727E+04  0.25500000920E-02 0.  1.
       -2    1    3    3    0  502  0.10666025679E+04 -0.42810691603E+03  0.48546641424E+03  0.12476354470E+04  0.25500000920E-02 0. -1.
</event>
<event>
 5   0  0.5704875E-06  0.2295325E+04  0.7818609E-02  0.8479767E-01
       -3   -1    0    0    0  501  0.00000000000E+00  0.00000000000E+00  0.52932947529E+03  0.52932948493E+03  0.10100000352E+00 0. -1.
        3   -1    0    0  501    0  0.00000000000E+00  0.00000000000E+00 -0.24882969002E+04  0.24882969023E+04  0.10100000352E+00 0.  1.
    10030    2    1    2    0    0  0.00000000000E+00  0.00000000000E+00 -0.19589674249E+04  0.30176263872E+04  0.22953247354E+04 0.  0.
        5    1    3    3  502    0 -0.54584709355E+03 -0.16097732835E+03 -0.22897190924E+04  0.23593851660E+04  0.46999998093E+01 0.  1.
       -5    1    3    3    0  502  0.54584709355E+03  0.16097732835E+03  0.33075166741E+03  0.65824122119E+03  0.46999998093E+01 0. -1.
</event>
<event>
 5   0  0.1602809E-05  0.2323866E+04  0.7818609E-02  0.8468570E-01
        2   -1    0    0  501    0  0.00000000000E+00  0.00000000000E+00  0.24728944377E+04  0.24728944377E+04  0.25500000920E-02 0.  1.
       -2   -1    0    0    0  501  0.00000000000E+00  0.00000000000E+00 -0.54595489684E+03  0.54595489685E+03  0.25500000920E-02 0. -1.
    10030    2    1    2    0    0  0.00000000000E+00  0.00000000000E+00  0.19269395409E+04  0.30188493346E+04  0.23238664571E+04 0.  0.
        3    1    3    3  502    0  0.84626729976E+02 -0.28299733097E+03  0.24233067982E+04  0.24412425158E+04  0.10100000352E+00 0.  1.
       -3    1    3    3    0  502 -0.84626729976E+02  0.28299733097E+03 -0.49636725729E+03  0.57760681876E+03  0.10100000352E+00 0. -1.
</event>
<event>
 5   0  0.7202572E-06  0.2175236E+04  0.7818609E-02  0.8528807E-01
       -1   -1    0    0    0  501  0.00000000000E+00  0.00000000000E+00  0.11751102252E+04  0.11751102252E+04  0.50400001928E-02 0. -1.
        1   -1    0    0  501    0  0.00000000000E+00  0.00000000000E+00 -0.10066397314E+04  0.10066397314E+04  0.50400001928E-02 0.  1.
    10030    2    1    2    0    0  0.00000000000E+00  0.00000000000E+00  0.16847049379E+03  0.21817499566E+04  0.21752357495E+04 0.  0.
        2    1    3    3  502    0 -0.29894330018E+02  0.28737583182E+03 -0.96744385881E+03  0.10096663606E+04  0.25500000920E-02 0.  1.
       -2    1    3    3    0  502  0.29894330018E+02 -0.28737583182E+03  0.11359143526E+04  0.11720835961E+04  0.25500000920E-02 0. -1.
</event>
<event>
 5   0  0.7391007E-06  0.2293940E+04  0.7818609E-02  0.8480314E-01
        1   -1    0    0  501    0  0.00000000000E+00  0.00000000000E+00  0.22161581096E+04  0.22161581096E+04  0.50400001928E-02 0.  1.
       -1   -1    0    0    0  501  0.00000000000E+00  0.00000000000E+00 -0.59361310460E+03  0.59361310462E+03  0.50400001928E-02 0. -1.
    10030    2    1    2    0    0  0.00000000000E+00  0.00000000000E+00  0.16225450050E+04  0.28097712142E+04  0.22939402745E+04 0.  0.
        1    1    3    3  502    0 -0.33348822902E+03 -0.56568527057E+03 -0.34057534790E+03  0.73973359519E+03  0.50400001928E-02 0. -1.
       -1    1    3    3    0  502  0.33348822902E+03  0.56568527057E+03  0.19631203529E+04  0.20700376190E+04  0.50400001928E-02 0.  1.
</event>
<event>
 5   0  0.1635955E-05  0.2307151E+04  0.7818609E-02  0.8475107E-01
        2   -1    0    0  501    0  0.00000000000E+00  0.00000000000E+00  0.13400962991E+04  0.13400962991E+04  0.25500000920E-02 0. -1.
       -2   -1    0    0    0  501  0.00000000000E+00  0.00000000000E+00 -0.99301569463E+03  0.99301569463E+03  0.25500000920E-02 0.  1.
    10030    2    1    2    0    0  0.00000000000E+00  0.00000000000E+00  0.34708060444E+03  0.23331119937E+04  0.23071511934E+04 0.  0.
        2    1    3    3  502    0 -0.63949724099E+03 -0.62761668182E+03 -0.56118669435E+03  0.10572558472E+04  0.25500000920E-02 0.  1.
       -2    1    3    3    0  502  0.63949724099E+03  0.62761668182E+03  0.90826729879E+03  0.12758561465E+04  0.25500000920E-02 0. -1.
</event>
<event>
 5   0  0.1697855E-05  0.2253971E+04  0.7818609E-02  0.8496294E-01
       -2   -1    0    0    0  501  0.00000000000E+00  0.00000000000E+00  0.12231153960E+04  0.12231153960E+04  0.25500000920E-02 0. -1.
        2   -1    0    0  501    0  0.00000000000E+00  0.00000000000E+00 -0.10384107380E+04  0.10384107380E+04  0.25500000920E-02 0.  1.
    10030    2    1    2    0    0  0.00000000000E+00  0.00000000000E+00  0.18470465805E+03  0.22615261340E+04  0.22539708614E+04 0.  0.
        5    1    3    3  502    0 -0.78609393684E+02 -0.65484263480E+03  0.10092402505E+04  0.12056476626E+04  0.46999998093E+01 0. -1.
       -5    1    3    3    0  502  0.78609393684E+02  0.65484263480E+03 -0.82453559244E+03  0.10558784714E+04  0.46999998093E+01 0.  1.
</event>
<event>
 5   0  0.5704875E-06  0.2297596E+04  0.7818609E-02  0.8478870E-01
        4   -1    0    0  501    0  0.00000000000E+00  0.00000000000E+00  0.17243758198E+04  0.17243762875E+04  0.12699999809E+01 0. -1.
       -4   -1    0    0    0  501  0.00000000000E+00  0.00000000000E+00 -0.76534074261E+03  0.76534179632E+03  0.12699999809E+01 0.  1.
    10030    2    1    2    0    0  0.00000000000E+00  0.00000000000E+00  0.95903507722E+03  0.24897180838E+04  0.22975961041E+04 0.  0.
        5    1    3    3  502    0 -0.62687306562E+03  0.89404239706E+03  0.92689605869E+02  0.10958535948E+04  0.46999998093E+01 0. -1.
       -5    1    3    3    0  502  0.62687306562E+03 -0.89404239706E+03  0.86634547135E+03  0.13938644891E+04  0.46999998093E+01 0.  1.
</event>
<event>
 5   0  0.7278815E-06  0.2312073E+04  0.7818609E-02  0.8473176E-01
       -1   -1    0    0    0  501  0.00000000000E+00  0.00000000000E+00  0.11817979118E+04  0.11817979118E+04  0.50400001928E-02 0.  1.
        1   -1    0    0  501    0  0.00000000000E+00  0.00000000000E+00 -0.11308361692E+04  0.11308361692E+04  0.50400001928E-02 0. -1.
    10030    2    1    2    0    0  0.00000000000E+00  0.00000000000E+00  0.50961742585E+02  0.23126340810E+04  0.23120725104E+04 0.  0.
        5    1    3    3  502    0 -0.10409825211E+04  0.42751925056E+03  0.29008323925E+03  0.11621478798E+04  0.46999998093E+01 0. -1.
       -5    1    3    3    0  502  0.10409825211E+04 -0.42751925056E+03 -0.23912149666E+03  0.11504862012E+04  0.46999998093E+01 0.  1.
</event>
<event>
 5   0  0.1626636E-05  0.2295154E+04  0.7818609E-02  0.8479834E-01
        2   -1    0    0  501    0  0.00000000000E+00  0.00000000000E+00  0.11346671840E+04  0.11346671840E+04  0.25500000920E-02 0.  1.
       -2   -1    0    0    0  501  0.00000000000E+00  0.00000000000E+00 -0.11606333670E+04  0.11606333670E+04  0.25500000920E-02 0. -1.
    10030    2    1    2    0    0  0.00000000000E+00  0.00000000000E+00 -0.25966183020E+02  0.22953005510E+04  0.22951536717E+04 0.  0.
        4    1    3    3  502    0  0.37279279645E+03  0.11478659587E+03 -0.10923021526E+04  0.11598603524E+04  0.12699999809E+01 0. -1.
       -4    1    3    3    0  502 -0.37279279645E+03 -0.11478659587E+03  0.10663359696E+04  0.11354401986E+04  0.12699999809E+01 0.  1.
</event>
<event>
 5   0  0.7183014E-06  0.2343005E+04  0.7818609E-02  0.8461155E-01
       -1   -1    0    0    0  501  0.00000000000E+00  0.00000000000E+00  0.93400301730E+03  0.93400301731E+03  0.50400001928E-02 0.  1.
        1   -1    0    0  501    0  0.00000000000E+00  0.00000000000E+00 -0.14693933519E+04  0.14693933519E+04  0.50400001928E-02 0. -1.
    10030    2    1    2    0    0  0.00000000000E+00  0.00000000000E+00 -0.53539033463E+03  0.24033963692E+04  0.23430047583E+04 0.  0.
        3    1    3    3  502    0  0.71725954492E+03  0.52867039889E+03 -0.10478673506E+04  0.13754925082E+04  0.10100000352E+00 0. -1.
       -3    1    3    3    0  502 -0.71725954492E+03 -0.52867039889E+03  0.51247701598E+03  0.10279038610E+04  0.10100000352E+00 0.  1.
</event>
<event>
 5   0  0.7202572E-06  0.2329892E+04  0.7818609E-02  0.8466227E-01
       -1   -1    0    0    0  501  0.00000000000E+00  0.00000000000E+00  0.98216445524E+03  0.98216445525E+03  0.50400001928E-02 0.  1.
        1   -1    0    0  501    0  0.00000000000E+00  0.00000000000E+00 -0.13817434772E+04  0.13817434772E+04  0.50400001928E-02 0. -1.
    10030    2    1    2    0    0  0.00000000000E+00  0.00000000000E+00 -0.39957902197E+03  0.23639079325E+04  0.23298921259E+04 0.  0.
        2    1    3    3  502    0  0.12755728940E+03  0.49443127864E+02 -0.13735651377E+04  0.13803610660E+04  0.25500000920E-02 0. -1.
       -2    1    3    3    0  502 -0.12755728940E+03 -0.49443127864E+02  0.97398611572E+03  0.98354686650E+03  0.25500000920E-02 0.  1.
</event>
<event>
 5   0  0.1635955E-05  0.2297302E+04  0.7818609E-02  0.8478986E-01
        2   -1    0    0  501    0  0.00000000000E+00  0.00000000000E+00  0.11308206830E+04  0.11308206830E+04  0.25500000920E-02 0. -1.
       -2   -1    0    0    0  501  0.00000000000E+00  0.00000000000E+00 -0.11667628386E+04  0.11667628386E+04  0.25500000920E-02 0.  1.
    10030    2    1    2    0    0  0.00000000000E+00  0.00000000000E+00 -0.35942155619E+02  0.22975835216E+04  0.22973023746E+04 0.  0.
        2    1    3    3  502    0 -0.35443671576E+03  0.33031491383E+02  0.10742628841E+04  0.11317054427E+04  0.25500000920E-02 0. -1.
       -2    1    3    3    0  502  0.35443671576E+03 -0.33031491383E+02 -0.11102050397E+04  0.11658780790E+04  0.25500000920E-02 0.  1.
</event>
<event>
 5   0  0.1602809E-05  0.2347450E+04  0.7818609E-02  0.8459444E-01
        2   -1    0    0  501    0  0.00000000000E+00  0.00000000000E+00  0.12920377773E+04  0.12920377773E+04  0.25500000920E-02 0.  1.
       -2   -1    0    0    0  501  0.00000000000E+00  0.00000000000E+00 -0.10662458067E+04  0.10662458067E+04  0.25500000920E-02 0. -1.
    10030    2    1    2    0    0  0.00000000000E+00  0.00000000000E+00  0.22579197064E+03  0.23582835840E+04  0.23474495625E+04 0.  0.
        3    1    3    3  502    0 -0.49311469549E+03 -0.81832118472E+03  0.79781829831E+03  0.12447191296E+04  0.10100000352E+00 0.  1.
       -3    1    3    3    0  502  0.49311469549E+03  0.81832118472E+03 -0.57202632767E+03  0.11135644544E+04  0.10100000352E+00 0. -1.
</event>
<event>
 5   0  0.7416556E-06  0.2302963E+04  0.7818609E-02  0.8476754E-01
       -1   -1    0    0    0  501  0.00000000000E+00  0.00000000000E+00  0.17173969667E+04  0.17173969667E+04  0.50400001928E-02 0.  1.
        1   -1    0    0  501    0  0.00000000000E+00  0.00000000000E+00 -0.77204619866E+03  0.77204619868E+03  0.50400001928E-02 0. -1.
    10030    2    1    2    0    0  0.00000000000E+00  0.00000000000E+00  0.94535076803E+03  0.24894431654E+04  0.23029631345E+04 0.  0.
        4    1    3    3  502    0 -0.10959839275E+04 -0.25308883321E+03  0.20641006064E+03  0.11436089598E+04  0.12699999809E+01 0.  1.
       -4    1    3    3    0  502  0.10959839275E+04  0.25308883321E+03  0.73894070739E+03  0.13458342056E+04  0.12699999809E+01 0. -1.
</event>
<event>
 5   0  0.1602809E-05  0.2305855E+04  0.7818609E-02  0.8475616E-01
       -2   -1    0    0    0  501  0.00000000000E+00  0.00000000000E+00  0.94783273918E+03  0.94783273918E+03  0.25500000920E-02 0. -1.
        2   -1    0    0  501    0  0.00000000000E+00  0.00000000000E+00 -0.14024013651E+04  0.14024013651E+04  0.25500000920E-02 0.  1.
    10030    2    1    2    0    0  0.00000000000E+00  0.00000000000E+00 -0.45456862588E+03  0.23502341042E+04  0.23058550928E+04 0.  0.
        3    1    3    3  502    0  0.20698898235E+03  0.10724683883E+04 -0.60345250481E+03  0.12478733183E+04  0.10100000352E+00 0.  1.
       -3    1    3    3    0  502 -0.20698898235E+03 -0.10724683883E+04  0.14888387893E+03  0.11023607859E+04  0.10100000352E+00 0. -1.
</event>
<event>
 5   0  0.7183014E-06  0.2301101E+04  0.7818609E-02  0.8477487E-01
       -1   -1    0    0    0  501  0.00000000000E+00  0.00000000000E+00  0.75386955807E+03  0.75386955808E+03  0.50400001928E-02 0.  1.
        1   -1    0    0  501    0  0.00000000000E+00  0.00000000000E+00 -0.17559622073E+04  0.17559622073E+04  0.50400001928E-02 0. -1.
    10030    2    1    2    0    0  0.00000000000E+00  0.00000000000E+00 -0.10020926492E+04  0.25098317654E+04  0.23011010001E+04 0.  0.
        3    1    3    3  502    0  0.10851904074E+04  0.37674268813E+03 -0.43041779866E+03  0.12267162529E+04  0.10100000352E+00 0.  1.
       -3    1    3    3    0  502 -0.10851904074E+04 -0.37674268813E+03 -0.57167485056E+03  0.12831155125E+04  0.10100000352E+00 0. -1.
</event>
<event>
 5   0  0.1635955E-05  0.2342703E+04  0.7818609E-02  0.8461272E-01
        2   -1    0    0  501    0  0.00000000000E+00  0.00000000000E+00  0.92143427522E+03  0.92143427522E+03  0.25500000920E-02 0.  1.
       -2   -1    0    0    0  501  0.00000000000E+00  0.00000000000E+00 -0.14890525949E+04  0.14890525949E+04  0.25500000920E-02 0. -1.
    10030    2    1    2    0    0  0.00000000000E+00  0.00000000000E+00 -0.56761831971E+03  0.24104868702E+04  0.23427027968E+04 0.  0.
        2    1    3    3  502    0  0.25480629340E+03  0.90379695359E+03  0.43665704287E+03  0.10355889887E+04  0.25500000920E-02 0.  1.
       -2    1    3    3    0  502 -0.25480629340E+03 -0.90379695359E+03 -0.10042753626E+04  0.13748978814E+04  0.25500000920E-02 0. -1.
</event>
<event>
 5   0  0.1602809E-05  0.2304389E+04  0.7818609E-02  0.8476192E-01
        2   -1    0    0  501    0  0.00000000000E+00  0.00000000000E+00  0.14771640740E+04  0.14771640740E+04  0.25500000920E-02 0. -1.
       -2   -1    0    0    0  501  0.00000000000E+00  0.00000000000E+00 -0.89871717298E+03  0.89871717299E+03  0.25500000920E-02 0.  1.
    10030    2    1    2    0    0  0.00000000000E+00  0.00000000000E+00  0.57844690097E+03  0.23758812469E+04  0.23043894815E+04 0.  0.
        3    1    3    3  502    0  0.86902879484E+03 -0.20878147672E+01 -0.49077703423E+03  0.99803682937E+03  0.10100000352E+00 0.  1.
       -3    1    3    3    0  502 -0.86902879484E+03  0.20878147672E+01  0.10692239352E+04  0.13778444176E+04  0.10100000352E+00 0. -1.
</event>
<event>
 5   0  0.1588969E-05  0.2292345E+04  0.7818609E-02  0.8480945E-01
       -2   -1    0    0    0  501  0.00000000000E+00  0.00000000000E+00  0.13158062740E+04  0.13158062740E+04  0.25500000920E-02 0. -1.
        2   -1    0    0  501    0  0.00000000000E+00  0.00000000000E+00 -0.99840824828E+03  0.99840824828E+03  0.25500000920E-02 0.  1.
    10030    2    1    2    0    0  0.00000000000E+00  0.00000000000E+00  0.31739802576E+03  0.23142145223E+04  0.22923453816E+04 0.  0.
        1    1    3    3  502    0 -0.10769407701E+04 -0.16669641662E+03 -0.19982663214E+03  0.11079349261E+04  0.50400001928E-02 0. -1.
       -1    1    3    3    0  502  0.10769407701E+04  0.16669641662E+03  0.51722465790E+03  0.12062795962E+04  0.50400001928E-02 0.  1.
</event>
<event>
 5   0  0.7391007E-06  0.2306905E+04  0.7818609E-02  0.8475204E-01
       -1   -1    0    0    0  501  0.00000000000E+00  0.00000000000E+00  0.59142647451E+03  0.59142647453E+03  0.50400001928E-02 0.  1.
        1   -1    0    0  501    0  0.00000000000E+00  0.00000000000E+00 -0.22495658095E+04  0.22495658095E+04  0.50400001928E-02 0. -1.
    10030    2    1    2    0    0  0.00000000000E+00  0.00000000000E+00 -0.16581393350E+04  0.28409922841E+04  0.23069050921E+04 0.  0.
        1    1    3    3  502    0 -0.12857622976E+03  0.26199246093E+03 -0.22033457444E+04  0.22225895631E+04  0.50400001928E-02 0. -1.
       -1    1    3    3    0  502  0.12857622976E+03 -0.26199246093E+03  0.54520640940E+03  0.61840272098E+03  0.50400001928E-02 0.  1.
</event>
<event>
 5   0  0.1602809E-05  0.2293236E+04  0.7818609E-02  0.8480593E-01
        2   -1    0    0  501    0  0.00000000000E+00  0.00000000000E+00  0.10167030334E+04  0.10167030334E+04  0.25500000920E-02 0.  1.
       -2   -1    0    0    0  501  0.00000000000E+00  0.00000000000E+00 -0.12931334848E+04  0.12931334848E+04  0.25500000920E-02 0. -1.
    10030    2    1    2    0    0  0.00000000000E+00  0.00000000000E+00 -0.27643045142E+03  0.23098365182E+04  0.22932359116E+04 0.  0.
        3    1    3    3  502    0  0.48538454594E+03  0.37413549591E+03  0.83790127688E+03  0.10381011929E+04  0.10100000352E+00 0.  1.
       -3    1    3    3    0  502 -0.48538454594E+03 -0.37413549591E+03 -0.11143317283E+04  0.12717353253E+04  0.10100000352E+00 0. -1.
</event>
<event>
 5   0  0.7416556E-06  0.2295202E+04  0.7818609E-02  0.8479815E-01
        1   -1    0    0  501    0  0.00000000000E+00  0.00000000000E+00  0.16627704258E+04  0.16627704258E+04  0.50400001928E-02 0. -1.
       -1   -1    0    0    0  501  0.00000000000E+00  0.00000000000E+00 -0.79204411231E+03  0.79204411233E+03  0.50400001928E-02 0.  1.
    10030    2    1    2    0    0  0.00000000000E+00  0.00000000000E+00  0.87072631352E+03  0.24548145382E+04  0.22952015388E+04 0.  0.
        4    1    3    3  502    0 -0.62685125174E+03 -0.12549475936E+03 -0.58395837748E+03  0.86585242736E+03  0.12699999809E+01 0.  1.
       -4    1    3    3    0  502  0.62685125174E+03  0.12549475936E+03  0.14546846910E+04  0.15889621108E+04  0.12699999809E+01 0. -1.
</event>
<event>
 5   0  0.1697855E-05  0.2300149E+04  0.7818609E-02  0.8477862E-01
        2   -1    0    0  501    0  0.00000000000E+00  0.00000000000E+00  0.23060929963E+04  0.23060929963E+04  0.25500000920E-02 0. -1.
       -2   -1    0    0    0  501  0.00000000000E+00  0.00000000000E+00 -0.57355530557E+03  0.57355530558E+03  0.25500000920E-02 0.  1.
    10030    2    1    2    0    0  0.00000000000E+00  0.00000000000E+00  0.17325376907E+04  0.28796483019E+04  0.23001494501E+04 0.  0.
        5    1    3    3  502    0  0.11054267764E+04  0.50530591193E+02  0.12584439813E+04  0.16757759524E+04  0.46999998093E+01 0.  1.
       -5    1    3    3    0  502 -0.11054267764E+04 -0.50530591193E+02  0.47409370941E+03  0.12038723495E+04  0.46999998093E+01 0. -1.
</event>
<event>
 5   0  0.7416556E-06  0.2295729E+04  0.7818609E-02  0.8479607E-01
        1   -1    0    0  501    0  0.00000000000E+00  0.00000000000E+00  0.12674438088E+04  0.12674438088E+04  0.50400001928E-02 0. -1.
       -1   -1    0    0    0  501  0.00000000000E+00  0.00000000000E+00 -0.10395670470E+04  0.10395670470E+04  0.50400001928E-02 0.  1.
    10030    2    1    2    0    0  0.00000000000E+00  0.00000000000E+00  0.22787676179E+03  0.23070108559E+04  0.22957289192E+04 0.  0.
        4    1    3    3  502    0  0.31949298388E+03  0.10594736075E+04 -0.19257055558E+03  0.11232297733E+04  0.12699999809E+01 0.  1.
       -4    1    3    3    0  502 -0.31949298388E+03 -0.10594736075E+04  0.42044731737E+03  0.11837810826E+04  0.12699999809E+01 0. -1.
</event>
<event>
 5   0  0.7183014E-06  0.2302162E+04  0.7818609E-02  0.8477069E-01
       -1   -1    0    0    0  501  0.00000000000E+00  0.00000000000E+00  0.15836935504E+04  0.15836935504E+04  0.50400001928E-02 0. -1.
        1   -1    0    0  501    0  0.00000000000E+00  0.00000000000E+00 -0.83664377705E+03  0.83664377707E+03  0.50400001928E-02 0.  1.
    10030    2    1    2    0    0  0.00000000000E+00  0.00000000000E+00  0.74704977337E+03  0.24203373275E+04  0.23021619003E+04 0.  0.
        3    1    3    3  502    0  0.67498863168E+03  0.92933673841E+03  0.29407505678E+03  0.11856460583E+04  0.10100000352E+00 0. -1.
       -3    1    3    3    0  502 -0.67498863168E+03 -0.92933673841E+03  0.45297471659E+03  0.12346912692E+04  0.10100000352E+00 0.  1.
</event>
<event>
 5   0  0.1588969E-05  0.2301055E+04  0.7818609E-02  0.8477505E-01
        2   -1    0    0  501    0  0.00000000000E+00  0.00000000000E+00  0.20682557898E+04  0.20682557898E+04  0.25500000920E-02 0.  1.
       -2   -1    0    0    0  501  0.00000000000E+00  0.00000000000E+00 -0.64001419377E+03  0.64001419377E+03  0.25500000920E-02 0. -1.
    10030    2    1    2    0    0  0.00000000000E+00  0.00000000000E+00  0.14282415960E+04  0.27082699836E+04  0.23010545946E+04 0.  0.
        1    1    3    3  502    0 -0.93921967219E+03 -0.55554999419E+03  0.11432606731E+04  0.15804475174E+04  0.50400001928E-02 0.  1.
       -1    1    3    3    0  502  0.93921967219E+03  0.55554999419E+03  0.28498092292E+03  0.11278224661E+04  0.50400001928E-02 0. -1.
</event>
<event>
 5   0  0.1626636E-05  0.2275812E+04  0.7818609E-02  0.8487519E-01
        2   -1    0    0  501    0  0.00000000000E+00  0.00000000000E+00  0.57479298352E+03  0.57479298353E+03  0.25500000920E-02 0.  1.
       -2   -1    0    0    0  501  0.00000000000E+00  0.00000000000E+00 -0.22526903062E+04  0.22526903062E+04  0.25500000920E-02 0. -1.
    10030    2    1    2    0    0  0.00000000000E+00  0.00000000000E+00 -0.16778973227E+04  0.28274832897E+04  0.22758124545E+04 0.  0.
        4    1    3    3  502    0 -0.10539446581E+04  0.39221840000E+03 -0.10548356384E+04  0.15418542254E+04  0.12699999809E+01 0. -1.
       -4    1    3    3    0  502  0.10539446581E+04 -0.39221840000E+03 -0.62306168434E+03  0.12856290643E+04  0.12699999809E+01 0.  1.
</event>
<event>
 5   0  0.1602809E-05  0.2305107E+04  0.7818609E-02  0.8475910E-01
       -2   -1    0    0    0  501  0.00000000000E+00  0.00000000000E+00  0.10309108145E+04  0.10309108145E+04  0.25500000920E-02 0. -1.
        2   -1    0    0  501    0  0.00000000000E+00  0.00000000000E+00 -0.12885498135E+04  0.12885498135E+04  0.25500000920E-02 0.  1.
    10030    2    1    2    0    0  0.00000000000E+00  0.00000000000E+00 -0.25763899892E+03  0.23194606280E+04  0.23051073188E+04 0.  0.
        3    1    3    3  502    0 -0.23883658826E+03 -0.18845934759E+03  0.98977706229E+03  0.10354798331E+04  0.10100000352E+00 0. -1.
       -3    1    3    3    0  502  0.23883658826E+03  0.18845934759E+03 -0.12474160612E+04  0.12839807949E+04  0.10100000352E+00 0.  1.
</event>
<event>
 5   0  0.7202572E-06  0.2310384E+04  0.7818609E-02  0.8473838E-01
       -1   -1    0    0    0  501  0.00000000000E+00  0.00000000000E+00  0.14757970126E+04  0.14757970126E+04  0.50400001928E-02 0. -1.
        1   -1    0    0  501    0  0.00000000000E+00  0.00000000000E+00 -0.90423610225E+03  0.90423610226E+03  0.50400001928E-02 0.  1.
    10030    2    1    2    0    0  0.00000000000E+00  0.00000000000E+00  0.57156091034E+03  0.23800331149E+04  0.23103843303E+04 0.  0.
        2    1    3    3  502    0  0.35389880326E+03 -0.88205470877E+03 -0.39067654147E+03  0.10275665586E+04  0.25500000920E-02 0.  1.
       -2    1    3    3    0  502 -0.35389880326E+03  0.88205470877E+03  0.96223745181E+03  0.13524665563E+04  0.25500000920E-02 0. -1.
</event>
<event>
 5   0  0.7202572E-06  0.2329199E+04  0.7818609E-02  0.8466496E-01
       -1   -1    0    0    0  501  0.00000000000E+00  0.00000000000E+00  0.85613906484E+03  0.85613906485E+03  0.50400001928E-02 0.  1.
        1   -1    0    0  501    0  0.00000000000E+00  0.00000000000E+00 -0.15841963689E+04  0.15841963689E+04  0.50400001928E-02 0. -1.
    10030    2    1    2    0    0  0.00000000000E+00  0.00000000000E+00 -0.72805730407E+03  0.24403354338E+04  0.23291993455E+04 0.  0.
        2    1    3    3  502    0  0.94074702456E+03  0.26030575182E+03  0.30152012828E+03  0.10216058126E+04  0.25500000920E-02 0.  1.
       -2    1    3    3    0  502 -0.94074702456E+03 -0.26030575182E+03 -0.10295774323E+04  0.14187296211E+04  0.25500000920E-02 0. -1.
</event>
<event>
 5   0  0.1697855E-05  0.2289705E+04  0.7818609E-02  0.8481991E-01
       -2   -1    0    0    0  501  0.00000000000E+00  0.00000000000E+00  0.14707813893E+04  0.14707813893E+04  0.25500000920E-02 0.  1.
        2   -1    0    0  501    0  0.00000000000E+00  0.00000000000E+00 -0.89115040292E+03  0.89115040293E+03  0.25500000920E-02 0. -1.
    10030    2    1    2    0    0  0.00000000000E+00  0.00000000000E+00  0.57963098636E+03  0.23619317922E+04  0.22897051580E+04 0.  0.
        5    1    3    3  502    0 -0.59957763862E+03 -0.97515926140E+03  0.27395492531E+03  0.11770736260E+04  0.46999998093E+01 0. -1.
       -5    1    3    3    0  502  0.59957763862E+03  0.97515926140E+03  0.30567606105E+03  0.11848581663E+04  0.46999998093E+01 0.  1.
</event>
<event>
 5   0  0.7391007E-06  0.2304133E+04  0.7818609E-02  0.8476293E-01
       -1   -1    0    0    0  501  0.00000000000E+00  0.00000000000E+00  0.12465584216E+04  0.12465584216E+04  0.50400001928E-02 0. -1.
        1   -1    0    0  501    0  0.00000000000E+00  0.00000000000E+00 -0.10647373809E+04  0.10647373809E+04  0.50400001928E-02 0.  1.
    10030    2    1    2    0    0  0.00000000000E+00  0.00000000000E+00  0.18182104069E+03  0.23112958026E+04  0.23041331117E+04 0.  0.
        1    1    3    3  502    0  0.45153108528E+03  0.10573703418E+04  0.16424721734E+03  0.11614170264E+04  0.50400001928E-02 0. -1.
       -1    1    3    3    0  502 -0.45153108528E+03 -0.10573703418E+04  0.17573823351E+02  0.11498787762E+04  0.50400001928E-02 0.  1.
</event>
<event>
 5   0  0.1602809E-05  0.2315147E+04  0.7818609E-02  0.8471973E-01
       -2   -1    0    0    0  501  0.00000000000E+00  0.00000000000E+00  0.98766831787E+03  0.98766831787E+03  0.25500000920E-02 0.  1.
        2   -1    0    0  501    0  0.00000000000E+00  0.00000000000E+00 -0.13567072316E+04  0.13567072316E+04  0.25500000920E-02 0. -1.
    10030    2    1    2    0    0  0.00000000000E+00  0.00000000000E+00 -0.36903891375E+03  0.23443755495E+04  0.23151472949E+04 0.  0.
        3    1    3    3  502    0 -0.57457050738E+03 -0.15976035994E+03 -0.11891749749E+04  0.13303352103E+04  0.10100000352E+00 0. -1.
       -3    1    3    3    0  502  0.57457050738E+03  0.15976035994E+03  0.82013606115E+03  0.10140403392E+04  0.10100000352E+00 0.  1.
</event>
<event>
 5   0  0.7202572E-06  0.2322560E+04  0.7818609E-02  0.8469079E-01
       -1   -1    0    0    0  501  0.00000000000E+00  0.00000000000E+00  0.11362741136E+04  0.11362741136E+04  0.50400001928E-02 0. -1.
        1   -1    0    0  501    0  0.00000000000E+00  0.00000000000E+00 -0.11868361932E+04  0.11868361932E+04  0.50400001928E-02 0.  1.
    10030    2    1    2    0    0  0.00000000000E+00  0.00000000000E+00 -0.50562079566E+02  0.23231103069E+04  0.23225600044E+04 0.  0.
        2    1    3    3  502    0 -0.14576431568E+03  0.40016589466E+03  0.10553412040E+04  0.11380356039E+04  0.25500000920E-02 0. -1.
       -2    1    3    3    0  502  0.14576431568E+03 -0.40016589466E+03 -0.11059032835E+04  0.11850747029E+04  0.25500000920E-02 0.  1.
</event>
<event>
 5   0  0.7416556E-06  0.2287860E+04  0.7818609E-02  0.8482723E-01
        1   -1    0    0  501    0  0.00000000000E+00  0.00000000000E+00  0.22497554687E+04  0.22497554687E+04  0.50400001928E-02 0.  1.
       -1   -1    0    0    0  501  0.00000000000E+00  0.00000000000E+00 -0.58165271123E+03  0.58165271125E+03  0.50400001928E-02 0. -1.
    10030    2    1    2    0    0  0.00000000000E+00  0.00000000000E+00  0.16681027574E+04  0.28314081799E+04  0.22878604573E+04 0.  0.
        4    1    3    3  502    0 -0.60751139775E+03  0.62184161489E+03 -0.86109797636E+02  0.87359807838E+03  0.12699999809E+01 0. -1.
       -4    1    3    3    0  502  0.60751139775E+03 -0.62184161489E+03  0.17542125551E+04  0.19578101015E+04  0.12699999809E+01 0.  1.
</event>
<event>
 5   0  0.5704875E-06  0.2305093E+04  0.7818609E-02  0.8475916E-01
        3   -1    0    0  501    0  0.00000000000E+00  0.00000000000E+00  0.11424394733E+04  0.11424394778E+04  0.10100000352E+00 0. -1.
       -3   -1    0    0    0  501  0.00000000000E+00  0.00000000000E+00 -0.11627433926E+04  0.11627433970E+04  0.10100000352E+00 0.  1.
    10030    2    1    2    0    0  0.00000000000E+00  0.00000000000E+00 -0.20303919230E+02  0.23051828748E+04  0.23050934551E+04 0.  0.
        4    1    3    3  502    0  0.14766196100E+03 -0.32743335971E+03 -0.11053408652E+04  0.11622377988E+04  0.12699999809E+01 0.  1.
       -4    1    3    3    0  502 -0.14766196100E+03  0.32743335971E+03  0.10850369459E+04  0.11429450760E+04  0.12699999809E+01 0. -1.
</event>
<event>
 5   0  0.1626636E-05  0.2259688E+04  0.7818609E-02  0.8493987E-01
        2   -1    0    0  501    0  0.00000000000E+00  0.00000000000E+00  0.12672469029E+04  0.12672469029E+04  0.25500000920E-02 0.  1.
       -2   -1    0    0    0  501  0.00000000000E+00  0.00000000000E+00 -0.10073394074E+04  0.10073394074E+04  0.25500000920E-02 0. -1.
    10030    2    1    2    0    0  0.00000000000E+00  0.00000000000E+00  0.25990749548E+03  0.22745863103E+04  0.22596882477E+04 0.  0.
        4    1    3    3  502    0 -0.39636958890E+03  0.26451041188E+02 -0.93472360437E+03  0.10156369125E+04  0.12699999809E+01 0. -1.
       -4    1    3    3    0  502  0.39636958890E+03 -0.26451041188E+02  0.11946310998E+04  0.12589493978E+04  0.12699999809E+01 0.  1.
</event>
<event>
 5   0  0.7278815E-06  0.2288259E+04  0.7818609E-02  0.8482565E-01
       -1   -1    0    0    0  501  0.00000000000E+00  0.00000000000E+00  0.90411953320E+03  0.90411953321E+03  0.50400001928E-02 0.  1.
        1   -1    0    0  501    0  0.00000000000E+00  0.00000000000E+00 -0.14478530480E+04  0.14478530480E+04  0.50400001928E-02 0. -1.
    10030    2    1    2    0    0  0.00000000000E+00  0.00000000000E+00 -0.54373351478E+03  0.23519725812E+04  0.22882589206E+04 0.  0.
        5    1    3    3  502    0  0.50078060892E+03 -0.90115678301E+03 -0.78181126965E+03  0.12938762372E+04  0.46999998093E+01 0. -1.
       -5    1    3    3    0  502 -0.50078060892E+03  0.90115678301E+03  0.23807775487E+03  0.10580963440E+04  0.46999998093E+01 0.  1.
</event>
<event>
 5   0  0.1635955E-05  0.2298040E+04  0.7818609E-02  0.8478694E-01
       -2   -1    0    0    0  501  0.00000000000E+00  0.00000000000E+00  0.71119150853E+03  0.71119150853E+03  0.25500000920E-02 0.  1.
        2   -1    0    0  501    0  0.00000000000E+00  0.00000000000E+00 -0.18563877436E+04  0.18563877436E+04  0.25500000920E-02 0. -1.
    10030    2    1    2    0    0  0.00000000000E+00  0.00000000000E+00 -0.11451962350E+04  0.25675792521E+04  0.22980402083E+04 0.  0.
        2    1    3    3  502    0 -0.86244937545E+03 -0.72831745544E+03 -0.33301292796E+03  0.11769294164E+04  0.25500000920E-02 0.  1.
       -2    1    3    3    0  502  0.86244937545E+03  0.72831745544E+03 -0.81218330708E+03  0.13906498357E+04  0.25500000920E-02 0. -1.
</event>
<event>
 5   0  0.7202572E-06  0.2293052E+04  0.7818609E-02  0.8480665E-01
        1   -1    0    0  501    0  0.00000000000E+00  0.00000000000E+00  0.14621281050E+04  0.14621281050E+04  0.50400001928E-02 0.  1.
       -1   -1    0    0    0  501  0.00000000000E+00  0.00000000000E+00 -0.89904736440E+03  0.89904736442E+03  0.50400001928E-02 0. -1.
    10030    2    1    2    0    0  0.00000000000E+00  0.00000000000E+00  0.56308074058E+03  0.23611754694E+04  0.22930524802E+04 0.  0.
        2    1    3    3  502    0  0.76580482927E+02  0.81827136728E+03  0.11047211423E+04  0.13768955673E+04  0.25500000920E-02 0.  1.
       -2    1    3    3    0  502 -0.76580482927E+02 -0.81827136728E+03 -0.54164040177E+03  0.98427990211E+03  0.25500000920E-02 0. -1.
</event>
<event>
 5   0  0.7391007E-06  0.2300205E+04  0.7818609E-02  0.8477840E-01
        1   -1    0    0  501    0  0.00000000000E+00  0.00000000000E+00  0.23531468239E+04  0.23531468239E+04  0.50400001928E-02 0. -1.
       -1   -1    0    0    0  501  0.00000000000E+00  0.00000000000E+00 -0.56211341672E+03  0.56211341674E+03  0.50400001928E-02 0.  1.
    10030    2    1    2    0    0  0.00000000000E+00  0.00000000000E+00  0.17910334072E+04  0.29152602407E+04  0.23002046876E+04 0.  0.
        1    1    3    3  502    0 -0.14209685541E+03 -0.28503667813E+03 -0.50510762049E+03  0.59713577393E+03  0.50400001928E-02 0.  1.
       -1    1    3    3    0  502  0.14209685541E+03  0.28503667813E+03  0.22961410277E+04  0.23181244667E+04  0.50400001928E-02 0. -1.
</event>
<event>
 5   0  0.1635955E-05  0.2299604E+04  0.7818609E-02  0.8478077E-01
       -2   -1    0    0    0  501  0.00000000000E+00  0.00000000000E+00  0.18156257102E+04  0.18156257102E+04  0.25500000920E-02 0.  1.
        2   -1    0    0  501    0  0.00000000000E+00  0.00000000000E+00 -0.72814840574E+03  0.72814840574E+03  0.25500000920E-02 0. -1.
    10030    2    1    2    0    0  0.00000000000E+00  0.00000000000E+00  0.10874773044E+04  0.25437741159E+04  0.22996042845E+04 0.  0.
        2    1    3    3  502    0 -0.98137517231E+03 -0.58167062983E+03  0.70253224952E+03  0.13397721866E+04  0.25500000920E-02 0. -1.
       -2    1    3    3    0  502  0.98137517231E+03  0.58167062983E+03  0.38494505492E+03  0.12040019293E+04  0.25500000920E-02 0.  1.
</event>
<event>
 5   0  0.1626636E-05  0.2299659E+04  0.7818609E-02  0.8478056E-01
       -2   -1    0    0    0  501  0.00000000000E+00  0.00000000000E+00  0.90330437505E+03  0.90330437506E+03  0.25500000920E-02 0.  1.
        2   -1    0    0  501    0  0.00000000000E+00  0.00000000000E+00 -0.14636346327E+04  0.14636346327E+04  0.25500000920E-02 0. -1.
    10030    2    1    2    0    0  0.00000000000E+00  0.00000000000E+00 -0.56033025766E+03  0.23669390078E+04  0.22996587288E+04 0.  0.
        4    1    3    3  502    0 -0.88770226128E+03 -0.64542334996E+03 -0.63300557642E+03  0.12669981365E+04  0.12699999809E+01 0.  1.
       -4    1    3    3    0  502  0.88770226128E+03  0.64542334996E+03  0.72675318751E+02  0.10999408712E+04  0.12699999809E+01 0. -1.
</event>
<event>
 5   0  0.7202572E-06  0.2275702E+04  0.7818609E-02  0.8487563E-01
       -1   -1    0    0    0  501  0.00000000000E+00  0.00000000000E+00  0.93202519422E+03  0.93202519423E+03  0.50400001928E-02 0. -1.
        1   -1    0    0  501    0  0.00000000000E+00  0.00000000000E+00 -0.13891313929E+04  0.13891313930E+04  0.50400001928E-02 0.  1.
    10030    2    1    2    0    0  0.00000000000E+00  0.00000000000E+00 -0.45710619873E+03  0.23211565872E+04  0.22757024905E+04 0.  0.
        2    1    3    3  502    0  0.37062261851E+03 -0.45632354903E+01 -0.13258302657E+04  0.13766654793E+04  0.25500000920E-02 0.  1.
       -2    1    3    3    0  502 -0.37062261851E+03  0.45632354903E+01  0.86872406693E+03  0.94449110792E+03  0.25500000920E-02 0. -1.
</event>
<event>
 5   0  0.7391007E-06  0.2297420E+04  0.7818609E-02  0.8478939E-01
        1   -1    0    0  501    0  0.00000000000E+00  0.00000000000E+00  0.15014685612E+04  0.15014685612E+04  0.50400001928E-02 0.  1.
       -1   -1    0    0    0  501  0.00000000000E+00  0.00000000000E+00 -0.87882906095E+03  0.87882906097E+03  0.50400001928E-02 0. -1.
    10030    2    1    2    0    0  0.00000000000E+00  0.00000000000E+00  0.62263950028E+03  0.23802976222E+04  0.22974196010E+04 0.  0.
        1    1    3    3  502    0  0.48767895691E+03  0.10395707441E+04  0.34401949110E+03  0.11987024265E+04  0.50400001928E-02 0. -1.
       -1    1    3    3    0  502 -0.48767895691E+03 -0.10395707441E+04  0.27862000918E+03  0.11815951957E+04  0.50400001928E-02 0.  1.
</event>
<event>
 5   0  0.7416556E-06  0.2297280E+04  0.7818609E-02  0.8478994E-01
       -1   -1    0    0    0  501  0.00000000000E+00  0.00000000000E+00  0.15451170325E+04  0.15451170325E+04  0.50400001928E-02 0. -1.
        1   -1    0    0  501    0  0.00000000000E+00  0.00000000000E+00 -0.85389882761E+03  0.85389882762E+03  0.50400001928E-02 0.  1.
    10030    2    1    2    0    0  0.00000000000E+00  0.00000000000E+00  0.69121820488E+03  0.23990158601E+04  0.22972798024E+04 0.  0.
        4    1    3    3  502    0  0.37129758431E+03  0.19672636561E+02  0.14805331721E+04  0.15265087603E+04  0.12699999809E+01 0. -1.
       -4    1    3    3    0  502 -0.37129758431E+03 -0.19672636561E+02 -0.78931496724E+03  0.87250709977E+03  0.12699999809E+01 0.  1.
</event>
<event>
 5   0  0.1626636E-05  0.2303531E+04  0.7818609E-02  0.8476530E-01
       -2   -1    0    0    0  501  0.00000000000E+00  0.00000000000E+00  0.15499753767E+04  0.15499753767E+04  0.25500000920E-02 0.  1.
        2   -1    0    0  501    0  0.00000000000E+00  0.00000000000E+00 -0.85586107393E+03  0.85586107393E+03  0.25500000920E-02 0. -1.
    10030    2    1    2    0    0  0.00000000000E+00  0.00000000000E+00  0.69411430274E+03  0.24058364506E+04  0.23035308467E+04 0.  0.
        4    1    3    3  502    0  0.90107586041E+01  0.67582857553E+03 -0.62695846846E+03  0.92190237626E+03  0.12699999809E+01 0. -1.
       -4    1    3    3    0  502 -0.90107586041E+01 -0.67582857553E+03  0.13210727712E+04  0.14839340743E+04  0.12699999809E+01 0.  1.
</event>
<event>
 5   0  0.7183014E-06  0.2308061E+04  0.7818609E-02  0.8474749E-01
        1   -1    0    0  501    0  0.00000000000E+00  0.00000000000E+00  0.14440713763E+04  0.14440713763E+04  0.50400001928E-02 0. -1.
       -1   -1    0    0    0  501  0.00000000000E+00  0.00000000000E+00 -0.92224450284E+03  0.92224450286E+03  0.50400001928E-02 0.  1.
    10030    2    1    2    0    0  0.00000000000E+00  0.00000000000E+00  0.52182687348E+03  0.23663158792E+04  0.23080614277E+04 0.  0.
        3    1    3    3  502    0  0.10076235688E+04 -0.63865774806E+01  0.83764220435E+03  0.13103398481E+04  0.10100000352E+00 0. -1.
       -3    1    3    3    0  502 -0.10076235688E+04  0.63865774806E+01 -0.31581533087E+03  0.10559760311E+04  0.10100000352E+00 0.  1.
</event>
<event>
 5   0  0.7391007E-06  0.2204335E+04  0.7818609E-02  0.8516626E-01
       -1   -1    0    0    0  501  0.00000000000E+00  0.00000000000E+00  0.64477970848E+03  0.64477970850E+03  0.50400001928E-02 0.  1.
        1   -1    0    0  501    0  0.00000000000E+00  0.00000000000E+00 -0.18840125364E+04  0.18840125364E+04  0.50400001928E-02 0. -1.
    10030    2    1    2    0    0  0.00000000000E+00  0.00000000000E+00 -0.12392328279E+04  0.25287922449E+04  0.22043348693E+04 0.  0.
        1    1    3    3  502    0 -0.46195187582E+03 -0.84685761547E+03 -0.12311945774E+04  0.15640995633E+04  0.50400001928E-02 0. -1.
       -1    1    3    3    0  502  0.46195187582E+03  0.84685761547E+03 -0.80382505102E+01  0.96469268161E+03  0.50400001928E-02 0.  1.
</event>
<event>
 5   0  0.7391007E-06  0.2296325E+04  0.7818609E-02  0.8479372E-01
        1   -1    0    0  501    0  0.00000000000E+00  0.00000000000E+00  0.13351507762E+04  0.13351507762E+04  0.50400001928E-02 0. -1.
       -1   -1    0    0    0  501  0.00000000000E+00  0.00000000000E+00 -0.98736175084E+03  0.98736175086E+03  0.50400001928E-02 0.  1.
    10030    2    1    2    0    0  0.00000000000E+00  0.00000000000E+00  0.34778902531E+03  0.23225125270E+04  0.22963247227E+04 0.  0.
        1    1    3    3  502    0  0.63257056647E+03 -0.89053870124E+03 -0.18379400465E+03  0.11076935209E+04  0.50400001928E-02 0. -1.
       -1    1    3    3    0  502 -0.63257056647E+03  0.89053870124E+03  0.53158302996E+03  0.12148190062E+04  0.50400001928E-02 0.  1.
</event>
<event>
 5   0  0.1626636E-05  0.2302042E+04  0.7818609E-02  0.8477116E-01
       -2   -1    0    0    0  501  0.00000000000E+00  0.00000000000E+00  0.77856486552E+03  0.77856486552E+03  0.25500000920E-02 0.  1.
        2   -1    0    0  501    0  0.00000000000E+00  0.00000000000E+00 -0.17016556247E+04  0.17016556247E+04  0.25500000920E-02 0. -1.
    10030    2    1    2    0    0  0.00000000000E+00  0.00000000000E+00 -0.92309075920E+03  0.24802204902E+04  0.23020419480E+04 0.  0.
        4    1    3    3  502    0 -0.91732633436E+03  0.66865702264E+03 -0.25639227459E+03  0.11637561725E+04  0.12699999809E+01 0.  1.
       -4    1    3    3    0  502  0.91732633436E+03 -0.66865702264E+03 -0.66669848460E+03  0.13164643178E+04  0.12699999809E+01 0. -1.
</event>
<event>
 5   0  0.1602809E-05  0.2301048E+04  0.7818609E-02  0.8477508E-01
        2   -1    0    0  501    0  0.00000000000E+00  0.00000000000E+00  0.71056376482E+03  0.71056376483E+03  0.25500000920E-02 0.  1.
       -2   -1    0    0    0  501  0.00000000000E+00  0.00000000000E+00 -0.18628948787E+04  0.18628948787E+04  0.25500000920E-02 0. -1.
    10030    2    1    2    0    0  0.00000000000E+00  0.00000000000E+00 -0.11523311138E+04  0.25734586435E+04  0.23010481077E+04 0.  0.
        3    1    3    3  502    0  0.74820615384E+03  0.36937634662E+02  0.40044093400E+03  0.84942909611E+03  0.10100000352E+00 0. -1.
       -3    1    3    3    0  502 -0.74820615384E+03 -0.36937634662E+02 -0.15527720478E+04  0.17240295474E+04  0.10100000352E+00 0.  1.
</event>
<event>
 5   0  0.1697855E-05  0.2452903E+04  0.7818609E-02  0.8419959E-01
       -2   -1    0    0    0  501  0.00000000000E+00  0.00000000000E+00  0.12061719627E+04  0.12061719627E+04  0.25500000920E-02 0.  1.
        2   -1    0    0  501    0  0.00000000000E+00  0.00000000000E+00 -0.12470723696E+04  0.12470723696E+04  0.25500000920E-02 0. -1.
    10030    2    1    2    0    0  0.00000000000E+00  0.00000000000E+00 -0.40900406863E+02  0.24532443323E+04  0.24529033635E+04 0.  0.
        5    1    3    3  502    0 -0.88379119939E+02  0.82158192251E+03 -0.92686196190E+03  0.12417338324E+04  0.46999998093E+01 0. -1.
       -5    1    3    3    0  502  0.88379119939E+02 -0.82158192251E+03  0.88596155503E+03  0.12115104998E+04  0.46999998093E+01 0.  1.
</event>
<event>
 5   0  0.1602809E-05  0.2291957E+04  0.7818609E-02  0.8481099E-01
        2   -1    0    0  501    0  0.00000000000E+00  0.00000000000E+00  0.14915219995E+04  0.14915219995E+04  0.25500000920E-02 0. -1.
       -2   -1    0    0    0  501  0.00000000000E+00  0.00000000000E+00 -0.88048803929E+03  0.88048803929E+03  0.25500000920E-02 0.  1.
    10030    2    1    2    0    0  0.00000000000E+00  0.00000000000E+00  0.61103396026E+03  0.23720100388E+04  0.22919574873E+04 0.  0.
        3    1    3    3  502    0  0.17814732324E+03  0.74796354950E+03 -0.57391655651E+03  0.95946139276E+03  0.10100000352E+00 0.  1.
       -3    1    3    3    0  502 -0.17814732324E+03 -0.74796354950E+03  0.11849505168E+04  0.14125486461E+04  0.10100000352E+00 0. -1.
</event>
<event>
 5   0  0.7278815E-06  0.2293437E+04  0.7818609E-02  0.8480513E-01
       -1   -1    0    0    0  501  0.00000000000E+00  0.00000000000E+00  0.85525336821E+03  0.85525336822E+03  0.50400001928E-02 0.  1.
        1   -1    0    0  501    0  0.00000000000E+00  0.00000000000E+00 -0.15375127117E+04  0.15375127117E+04  0.50400001928E-02 0. -1.
    10030    2    1    2    0    0  0.00000000000E+00  0.00000000000E+00 -0.68225934352E+03  0.23927660800E+04  0.22934366574E+04 0.  0.
        5    1    3    3  502    0 -0.52280564962E+03 -0.42211298200E+03  0.62832721238E+03  0.91995776678E+03  0.46999998093E+01 0.  1.
       -5    1    3    3    0  502  0.52280564962E+03  0.42211298200E+03 -0.13105865559E+04  0.14728083132E+04  0.46999998093E+01 0. -1.
</event>
<event>
 5   0  0.1697855E-05  0.2299783E+04  0.7818609E-02  0.8478007E-01
       -2   -1    0    0    0  501  0.00000000000E+00  0.00000000000E+00  0.68048119090E+03  0.68048119091E+03  0.25500000920E-02 0. -1.
        2   -1    0    0  501    0  0.00000000000E+00  0.00000000000E+00 -0.19431103704E+04  0.19431103704E+04  0.25500000920E-02 0.  1.
    10030    2    1    2    0    0  0.00000000000E+00  0.00000000000E+00 -0.12626291795E+04  0.26235915613E+04  0.22997826497E+04 0.  0.
        5    1    3    3  502    0  0.63041943936E+03 -0.70088582981E+03 -0.13824759004E+04  0.16732995312E+04  0.46999998093E+01 0. -1.
       -5    1    3    3    0  502 -0.63041943936E+03  0.70088582981E+03  0.11984672092E+03  0.95029203010E+03  0.46999998093E+01 0.  1.
</event>
<event>
 5   0  0.1635955E-05  0.2301307E+04  0.7818609E-02  0.8477406E-01
        2   -1    0    0  501    0  0.00000000000E+00  0.00000000000E+00  0.19215462405E+04  0.19215462405E+04  0.25500000920E-02 0. -1.
       -2   -1    0    0    0  501  0.00000000000E+00  0.00000000000E+00 -0.68903041869E+03  0.68903041869E+03  0.25500000920E-02 0.  1.
    10030    2    1    2    0    0  0.00000000000E+00  0.00000000000E+00  0.12325158218E+04  0.26105766592E+04  0.23013072899E+04 0.  0.
        2    1    3    3  502    0 -0.15253595323E+02  0.87908462865E+03 -0.22577736988E+03  0.90774328819E+03  0.25500000920E-02 0.  1.
       -2    1    3    3    0  502  0.15253595323E+02 -0.87908462865E+03  0.14582931917E+04  0.17028333710E+04  0.25500000920E-02 0. -1.
</event>
<event>
 5   0  0.1697855E-05  0.2297860E+04  0.7818609E-02  0.8478765E-01
        2   -1    0    0  501    0  0.00000000000E+00  0.00000000000E+00  0.19879429911E+04  0.19879429911E+04  0.25500000920E-02 0. -1.
       -2   -1    0    0    0  501  0.00000000000E+00  0.00000000000E+00 -0.66402341297E+03  0.66402341298E+03  0.25500000920E-02 0.  1.
    10030    2    1    2    0    0  0.00000000000E+00  0.00000000000E+00  0.13239195781E+04  0.26519664040E+04  0.22978604742E+04 0.  0.
        5    1    3    3  502    0 -0.10717390338E+04 -0.26550355884E+03  0.10285611245E+04  0.15089985994E+04  0.46999998093E+01 0.  1.
       -5    1    3    3    0  502  0.10717390338E+04  0.26550355884E+03  0.29535845361E+03  0.11429678046E+04  0.46999998093E+01 0. -1.
</event>
<event>
 5   0  0.7391007E-06  0.2296415E+04  0.7818609E-02  0.8479336E-01
       -1   -1    0    0    0  501  0.00000000000E+00  0.00000000000E+00  0.88079133823E+03  0.88079133825E+03  0.50400001928E-02 0.  1.
        1   -1    0    0  501    0  0.00000000000E+00  0.00000000000E+00 -0.14968137486E+04  0.14968137487E+04  0.50400001928E-02 0. -1.
    10030    2    1    2    0    0  0.00000000000E+00  0.00000000000E+00 -0.61602241041E+03  0.23776050869E+04  0.22964151060E+04 0.  0.
        1    1    3    3  502    0 -0.23489397425E+03 -0.84722541214E+03  0.45662114568E+03  0.99069114704E+03  0.50400001928E-02 0.  1.
       -1    1    3    3    0  502  0.23489397425E+03  0.84722541214E+03 -0.10726435561E+04  0.13869139399E+04  0.50400001928E-02 0. -1.
</event>
<event>
 5   0  0.1635955E-05  0.2302707E+04  0.7818609E-02  0.8476855E-01
        2   -1    0    0  501    0  0.00000000000E+00  0.00000000000E+00  0.78491010417E+03  0.78491010417E+03  0.25500000920E-02 0. -1.
       -2   -1    0    0    0  501  0.00000000000E+00  0.00000000000E+00 -0.16888748024E+04  0.16888748024E+04  0.25500000920E-02 0.  1.
    10030    2    1    2    0    0  0.00000000000E+00  0.00000000000E+00 -0.90396469826E+03  0.24737849066E+04  0.23027070132E+04 0.  0.
        2    1    3    3  502    0 -0.47784273838E+03  0.40719279073E+03 -0.14888155863E+04  0.16157696313E+04  0.25500000920E-02 0.  1.
       -2    1    3    3    0  502  0.47784273838E+03 -0.40719279073E+03  0.58485088802E+03  0.85801527531E+03  0.25500000920E-02 0. -1.
</event>
<event>
 5   0  0.7278815E-06  0.2294387E+04  0.7818609E-02  0.8480138E-01
        1   -1    0    0  501    0  0.00000000000E+00  0.00000000000E+00  0.11471555647E+04  0.11471555647E+04  0.50400001928E-02 0. -1.
       -1   -1    0    0    0  501  0.00000000000E+00  0.00000000000E+00 -0.11472313815E+04  0.11472313815E+04  0.50400001928E-02 0.  1.
    10030    2    1    2    0    0  0.00000000000E+00  0.00000000000E+00 -0.75816817203E-01  0.22943869462E+04  0.22943869449E+04 0.  0.
        5    1    3    3  502    0  0.70881754584E+03  0.83227481851E+03 -0.34778362960E+03  0.11472049642E+04  0.46999998093E+01 0.  1.
       -5    1    3    3    0  502 -0.70881754584E+03 -0.83227481851E+03  0.34770781278E+03  0.11471819820E+04  0.46999998093E+01 0. -1.
</event>
<event>
 5   0  0.7183014E-06  0.2301270E+04  0.7818609E-02  0.8477420E-01
       -1   -1    0    0    0  501  0.00000000000E+00  0.00000000000E+00  0.87571132272E+03  0.87571132273E+03  0.50400001928E-02 0. -1.
        1   -1    0    0  501    0  0.00000000000E+00  0.00000000000E+00 -0.15118696477E+04  0.15118696477E+04  0.50400001928E-02 0.  1.
    10030    2    1    2    0    0  0.00000000000E+00  0.00000000000E+00 -0.63615832498E+03  0.23875809704E+04  0.23012704048E+04 0.  0.
        3    1    3    3  502    0 -0.42686326021E+03 -0.46937723989E+03 -0.13139949157E+04  0.14591469716E+04  0.10100000352E+00 0.  1.
       -3    1    3    3    0  502  0.42686326021E+03  0.46937723989E+03  0.67783659069E+03  0.92843399880E+03  0.10100000352E+00 0. -1.
</event>
<event>
 5   0  0.1626636E-05  0.2263777E+04  0.7818609E-02  0.8492342E-01
        2   -1    0    0  501    0  0.00000000000E+00  0.00000000000E+00  0.18443188044E+04  0.18443188044E+04  0.25500000920E-02 0. -1.
       -2   -1    0    0    0  501  0.00000000000E+00  0.00000000000E+00 -0.69465865147E+03  0.69465865147E+03  0.25500000920E-02 0.  1.
    10030    2    1    2    0    0  0.00000000000E+00  0.00000000000E+00  0.11496601529E+04  0.25389774559E+04  0.22637773862E+04 0.  0.
        4    1    3    3  502    0 -0.28973889151E+03  0.57786577280E+03 -0.46725749925E+03  0.79762689281E+03  0.12699999809E+01 0.  1.
       -4    1    3    3    0  502  0.28973889151E+03 -0.57786577280E+03  0.16169176522E+04  0.17413505631E+04  0.12699999809E+01 0. -1.
</event>
<event>
 5   0  0.7278815E-06  0.2291646E+04  0.7818609E-02  0.8481222E-01
       -1   -1    0    0    0  501  0.00000000000E+00  0.00000000000E+00  0.69730634272E+03  0.69730634274E+03  0.50400001928E-02 0. -1.
        1   -1    0    0  501    0  0.00000000000E+00  0.00000000000E+00 -0.18828310325E+04  0.18828310325E+04  0.50400001928E-02 0.  1.
    10030    2    1    2    0    0  0.00000000000E+00  0.00000000000E+00 -0.11855246898E+04  0.25801373752E+04  0.22916457154E+04 0.  0.
        5    1    3    3  502    0 -0.86166382626E+03 -0.20977309724E+03 -0.14096474506E+04  0.16654120592E+04  0.46999998093E+01 0.  1.
       -5    1    3    3    0  502  0.86166382626E+03  0.20977309724E+03  0.22412276089E+03  0.91472531602E+03  0.46999998093E+01 0. -1.
</event>
<event>
 5   0  0.7391007E-06  0.2297206E+04  0.7818609E-02  0.8479024E-01
        1   -1    0    0  501    0  0.00000000000E+00  0.00000000000E+00  0.24072982559E+04  0.24072982560E+04  0.50400001928E-02 0.  1.
       -1   -1    0    0    0  501  0.00000000000E+00  0.00000000000E+00 -0.54803698571E+03  0.54803698573E+03  0.50400001928E-02 0. -1.
    10030    2    1    2    0    0  0.00000000000E+00  0.00000000000E+00  0.18592612702E+04  0.29553352417E+04  0.22972056764E+04 0.  0.
        1    1    3    3  502    0 -0.40861446461E+03 -0.99232145559E+03  0.14563397848E+04  0.18090310171E+04  0.50400001928E-02 0. -1.
       -1    1    3    3    0  502  0.40861446461E+03  0.99232145559E+03  0.40292148542E+03  0.11463042246E+04  0.50400001928E-02 0.  1.
</event>
<event>
 5   0  0.7183014E-06  0.2304288E+04  0.7818609E-02  0.8476232E-01
        1   -1    0    0  501    0  0.00000000000E+00  0.00000000000E+00  0.10879643440E+04  0.10879643441E+04  0.50400001928E-02 0.  1.
       -1   -1    0    0    0  501  0.00000000000E+00  0.00000000000E+00 -0.12201093554E+04  0.12201093554E+04  0.50400001928E-02 0. -1.
    10030    2    1    2    0    0  0.00000000000E+00  0.00000000000E+00 -0.13214501137E+03  0.23080736995E+04  0.23042877204E+04 0.  0.
        3    1    3    3  502    0 -0.69637032886E+03  0.80499556403E+03  0.37565770954E+03  0.11287463036E+04  0.10100000352E+00 0.  1.
       -3    1    3    3    0  502  0.69637032886E+03 -0.80499556403E+03 -0.50780272090E+03  0.11793273958E+04  0.10100000352E+00 0. -1.
</event>
<event>
 5   0  0.1602809E-05  0.2315807E+04  0.7818609E-02  0.8471715E-01
       -2   -1    0    0    0  501  0.00000000000E+00  0.00000000000E+00  0.13236143387E+04  0.13236143387E+04  0.25500000920E-02 0. -1.
        2   -1    0    0  501    0  0.00000000000E+00  0.00000000000E+00 -0.10129391676E+04  0.10129391676E+04  0.25500000920E-02 0.  1.
    10030    2    1    2    0    0  0.00000000000E+00  0.00000000000E+00  0.31067517106E+03  0.23365535063E+04  0.23158072514E+04 0.  0.
        3    1    3    3  502    0 -0.96890256024E+03  0.67189913768E+02  0.79142504571E+03  0.12528528521E+04  0.10100000352E+00 0. -1.
       -3    1    3    3    0  502  0.96890256024E+03 -0.67189913768E+02 -0.48074987465E+03  0.10837006542E+04  0.10100000352E+00 0.  1.
</event>
<event>
 5   0  0.7416556E-06  0.2279744E+04  0.7818609E-02  0.8485951E-01
        1   -1    0    0  501    0  0.00000000000E+00  0.00000000000E+00  0.13243944222E+04  0.13243944222E+04  0.50400001928E-02 0. -1.
       -1   -1    0    0    0  501  0.00000000000E+00  0.00000000000E+00 -0.98105865113E+03  0.98105865114E+03  0.50400001928E-02 0.  1.
    10030    2    1    2    0    0  0.00000000000E+00  0.00000000000E+00  0.34333577107E+03  0.23054530734E+04  0.22797443764E+04 0.  0.
        4    1    3    3  502    0  0.38985562051E+02 -0.31559093456E+03 -0.93529455355E+03  0.98787399339E+03  0.12699999809E+01 0.  1.
       -4    1    3    3    0  502 -0.38985562051E+02  0.31559093456E+03  0.12786303246E+04  0.13175790800E+04  0.12699999809E+01 0. -1.
</event>
<event>
 5   0  0.5704875E-06  0.2303162E+04  0.7818609E-02  0.8476676E-01
       -3   -1    0    0    0  501  0.00000000000E+00  0.00000000000E+00  0.10267239311E+04  0.10267239360E+04  0.10100000352E+00 0. -1.
        3   -1    0    0  501    0  0.00000000000E+00  0.00000000000E+00 -0.12916212583E+04  0.12916212623E+04  0.10100000352E+00 0.  1.
    10030    2    1    2    0    0  0.00000000000E+00  0.00000000000E+00 -0.26489732725E+03  0.23183451983E+04  0.23031617105E+04 0.  0.
        2    1    3    3  502    0  0.10688988851E+04 -0.34812605867E+03 -0.38389917976E+03  0.11879036827E+04  0.25500000920E-02 0.  1.
       -2    1    3    3    0  502 -0.10688988851E+04  0.34812605867E+03  0.11900185252E+03  0.11304415156E+04  0.25500000920E-02 0. -1.
</event>
<event>
 5   0  0.1697855E-05  0.2291765E+04  0.7818609E-02  0.8481175E-01
       -2   -1    0    0    0  501  0.00000000000E+00  0.00000000000E+00  0.37476658077E+03  0.37476658078E+03  0.25500000920E-02 0.  1.
        2   -1    0    0  501    0  0.00000000000E+00  0.00000000000E+00 -0.35036397747E+04  0.35036397747E+04  0.25500000920E-02 0. -1.
    10030    2    1    2    0    0  0.00000000000E+00  0.00000000000E+00 -0.31288731940E+04  0.38784063555E+04  0.22917653446E+04 0.  0.
        5    1    3    3  502    0 -0.72291151597E+03  0.48137478249E+03 -0.29948654001E+03  0.91871487349E+03  0.46999998093E+01 0.  1.
       -5    1    3    3    0  502  0.72291151597E+03 -0.48137478249E+03 -0.28293866540E+04  0.29596914820E+04  0.46999998093E+01 0. -1.
</event>
<event>
 5   0  0.7278815E-06  0.2297691E+04  0.7818609E-02  0.8478832E-01
       -1   -1    0    0    0  501  0.00000000000E+00  0.00000000000E+00  0.89535623857E+03  0.89535623859E+03  0.50400001928E-02 0. -1.
        1   -1    0    0  501    0  0.00000000000E+00  0.00000000000E+00 -0.14741013061E+04  0.14741013061E+04  0.50400001928E-02 0.  1.
    10030    2    1    2    0    0  0.00000000000E+00  0.00000000000E+00 -0.57874506750E+03  0.23694575447E+04  0.22976908414E+04 0.  0.
        5    1    3    3  502    0  0.87059857460E+03  0.15562213549E+03  0.46678563733E+03  0.10000355236E+04  0.46999998093E+01 0. -1.
       -5    1    3    3    0  502 -0.87059857460E+03 -0.15562213549E+03 -0.10455307048E+04  0.13694220211E+04  0.46999998093E+01 0.  1.
</event>
<event>
 5   0  0.1626636E-05  0.2300576E+04  0.7818609E-02  0.8477694E-01
        2   -1    0    0  501    0  0.00000000000E+00  0.00000000000E+00  0.10866182533E+04  0.10866182533E+04  0.25500000920E-02 0. -1.
       -2   -1    0    0    0  501  0.00000000000E+00  0.00000000000E+00 -0.12176882800E+04  0.12176882800E+04  0.25500000920E-02 0.  1.
    10030    2    1    2    0    0  0.00000000000E+00  0.00000000000E+00 -0.13107002669E+03  0.23043065333E+04  0.23005758513E+04 0.  0.
        4    1    3    3  502    0  0.85821775833E+03  0.52934903552E+03 -0.61997811957E+03  0.11836902482E+04  0.12699999809E+01 0. -1.
       -4    1    3    3    0  502 -0.85821775833E+03 -0.52934903552E+03  0.48890809288E+03  0.11206162850E+04  0.12699999809E+01 0.  1.
</event>
<event>
 5   0  0.7416556E-06  0.2295539E+04  0.7818609E-02  0.8479682E-01
       -1   -1    0    0    0  501  0.00000000000E+00  0.00000000000E+00  0.92760245404E+03  0.92760245405E+03  0.50400001928E-02 0. -1.
        1   -1    0    0  501    0  0.00000000000E+00  0.00000000000E+00 -0.14201929403E+04  0.14201929403E+04  0.50400001928E-02 0.  1.
    10030    2    1    2    0    0  0.00000000000E+00  0.00000000000E+00 -0.49259048627E+03  0.23477953944E+04  0.22955386790E+04 0.  0.
        4    1    3    3  502    0  0.63982605519E+03 -0.94598730181E+03 -0.36337156871E+03  0.11984614578E+04  0.12699999809E+01 0. -1.
       -4    1    3    3    0  502 -0.63982605519E+03  0.94598730181E+03 -0.12921891756E+03  0.11493339365E+04  0.12699999809E+01 0.  1.
</event>
<event>
 5   0  0.7202572E-06  0.2295083E+04  0.7818609E-02  0.8479862E-01
        1   -1    0    0  501    0  0.00000000000E+00  0.00000000000E+00  0.18598610104E+04  0.18598610104E+04  0.50400001928E-02 0. -1.
       -1   -1    0    0    0  501  0.00000000000E+00  0.00000000000E+00 -0.70803779891E+03  0.70803779893E+03  0.50400001928E-02 0.  1.
    10030    2    1    2    0    0  0.00000000000E+00  0.00000000000E+00  0.11518232115E+04  0.25678988093E+04  0.22950833502E+04 0.  0.
        2    1    3    3  502    0  0.88203686444E+03  0.36515646693E+03  0.12884159577E+04  0.16035410677E+04  0.25500000920E-02 0. -1.
       -2    1    3    3    0  502 -0.88203686444E+03 -0.36515646693E+03 -0.13659274625E+03  0.96435774166E+03  0.25500000920E-02 0.  1.
</event>
<event>
 5   0  0.7183014E-06  0.2256526E+04  0.7818609E-02  0.8495262E-01
        1   -1    0    0  501    0  0.00000000000E+00  0.00000000000E+00  0.15745203236E+04  0.15745203236E+04  0.50400001928E-02 0. -1.
       -1   -1    0    0    0  501  0.00000000000E+00  0.00000000000E+00 -0.80848588079E+03  0.80848588080E+03  0.50400001928E-02 0.  1.
    10030    2    1    2    0    0  0.00000000000E+00  0.00000000000E+00  0.76603444277E+03  0.23830062044E+04  0.22565260474E+04 0.  0.
        3    1    3    3  502    0  0.10711532306E+04 -0.91674210720E+02  0.74455701512E+03  0.13077226630E+04  0.10100000352E+00 0. -1.
       -3    1    3    3    0  502 -0.10711532306E+04  0.91674210720E+02  0.21477427649E+02  0.10752835414E+04  0.10100000352E+00 0.  1.
</event>
<event>
 5   0  0.1602809E-05  0.2298546E+04  0.7818609E-02  0.8478495E-01
       -2   -1    0    0    0  501  0.00000000000E+00  0.00000000000E+00  0.77764133134E+03  0.77764133134E+03  0.25500000920E-02 0. -1.
        2   -1    0    0  501    0  0.00000000000E+00  0.00000000000E+00 -0.16985054655E+04  0.16985054655E+04  0.25500000920E-02 0.  1.
    10030    2    1    2    0    0  0.00000000000E+00  0.00000000000E+00 -0.92086413420E+03  0.24761467969E+04  0.22985456720E+04 0.  0.
        3    1    3    3  502    0 -0.54165164365E+03  0.84941864815E+03  0.13541379507E+03  0.10164818980E+04  0.10100000352E+00 0. -1.
       -3    1    3    3    0  502  0.54165164365E+03 -0.84941864815E+03 -0.10562779293E+04  0.14596648989E+04  0.10100000352E+00 0.  1.
</event>
<event>
 5   0  0.7202572E-06  0.2297413E+04  0.7818609E-02  0.8478942E-01
        1   -1    0    0  501    0  0.00000000000E+00  0.00000000000E+00  0.11669949360E+04  0.11669949360E+04  0.50400001928E-02 0.  1.
       -1   -1    0    0    0  501  0.00000000000E+00  0.00000000000E+00 -0.11307051534E+04  0.11307051534E+04  0.50400001928E-02 0. -1.
    10030    2    1    2    0    0  0.00000000000E+00  0.00000000000E+00  0.36289782642E+02  0.22977000894E+04  0.22974134918E+04 0.  0.
        2    1    3    3  502    0  0.12598017065E+02  0.10836513414E+04  0.39907066424E+03  0.11548663710E+04  0.25500000920E-02 0.  1.
       -2    1    3    3    0  502 -0.12598017065E+02 -0.10836513414E+04 -0.36278088160E+03  0.11428337184E+04  0.25500000920E-02 0. -1.
</event>
<event>
 5   0  0.7202572E-06  0.2299983E+04  0.7818609E-02  0.8477928E-01
       -1   -1    0    0    0  501  0.00000000000E+00  0.00000000000E+00  0.11281038282E+04  0.11281038282E+04  0.50400001928E-02 0.  1.
        1   -1    0    0  501    0  0.00000000000E+00  0.00000000000E+00 -0.11723034512E+04  0.11723034512E+04  0.50400001928E-02 0. -1.
    10030    2    1    2    0    0  0.00000000000E+00  0.00000000000E+00 -0.44199623012E+02  0.23004072795E+04  0.22999826183E+04 0.  0.
        2    1    3    3  502    0  0.60575347710E+03 -0.86982258293E+03 -0.46822186275E+03  0.11587753508E+04  0.25500000920E-02 0. -1.
       -2    1    3    3    0  502 -0.60575347710E+03  0.86982258293E+03  0.42402223973E+03  0.11416319287E+04  0.25500000920E-02 0.  1.
</event>
<event>
 5   0  0.1697855E-05  0.2298008E+04  0.7818609E-02  0.8478707E-01
        2   -1    0    0  501    0  0.00000000000E+00  0.00000000000E+00  0.15519103726E+04  0.15519103726E+04  0.25500000920E-02 0.  1.
       -2   -1    0    0    0  501  0.00000000000E+00  0.00000000000E+00 -0.85069982023E+03  0.85069982024E+03  0.25500000920E-02 0. -1.
    10030    2    1    2    0    0  0.00000000000E+00  0.00000000000E+00  0.70121055234E+03  0.24026101928E+04  0.22980077241E+04 0.  0.
        5    1    3    3  502    0 -0.41290892510E+03 -0.10605570633E+04  0.51562748855E+03  0.12494674313E+04  0.46999998093E+01 0.  1.
       -5    1    3    3    0  502  0.41290892510E+03  0.10605570633E+04  0.18558306379E+03  0.11531427615E+04  0.46999998093E+01 0. -1.
</event>
<event>
 5   0  0.1626636E-05  0.2304174E+04  0.7818609E-02  0.8476277E-01
        2   -1    0    0  501    0  0.00000000000E+00  0.00000000000E+00  0.10338047042E+04  0.10338047042E+04  0.25500000920E-02 0. -1.
       -2   -1    0    0    0  501  0.00000000000E+00  0.00000000000E+00 -0.12839028342E+04  0.12839028342E+04  0.25500000920E-02 0.  1.
    10030    2    1    2    0    0  0.00000000000E+00  0.00000000000E+00 -0.25009812998E+03  0.23177075383E+04  0.23041742900E+04 0.  0.
        4    1    3    3  502    0 -0.54383669063E+03 -0.60565470210E+03  0.69504758145E+03  0.10703591536E+04  0.12699999809E+01 0. -1.
       -4    1    3    3    0  502  0.54383669063E+03  0.60565470210E+03 -0.94514571143E+03  0.12473483848E+04  0.12699999809E+01 0.  1.
</event>
<event>
 5   0  0.7202572E-06  0.2301167E+04  0.7818609E-02  0.8477461E-01
        1   -1    0    0  501    0  0.00000000000E+00  0.00000000000E+00  0.15704795830E+04  0.15704795830E+04  0.50400001928E-02 0. -1.
       -1   -1    0    0    0  501  0.00000000000E+00  0.00000000000E+00 -0.84295445111E+03  0.84295445112E+03  0.50400001928E-02 0.  1.
    10030    2    1    2    0    0  0.00000000000E+00  0.00000000000E+00  0.72752513187E+03  0.24134340341E+04  0.23011673167E+04 0.  0.
        2    1    3    3  502    0 -0.10887239473E+03 -0.17321938404E+03  0.15512489539E+04  0.15646825462E+04  0.25500000920E-02 0. -1.
       -2    1    3    3    0  502  0.10887239473E+03  0.17321938404E+03 -0.82372382201E+03  0.84875148795E+03  0.25500000920E-02 0.  1.
</event>
<event>
 5   0  0.7183014E-06  0.2290157E+04  0.7818609E-02  0.8481812E-01
       -1   -1    0    0    0  501  0.00000000000E+00  0.00000000000E+00  0.10543362343E+04  0.10543362343E+04  0.50400001928E-02 0. -1.
        1   -1    0    0  501    0  0.00000000000E+00  0.00000000000E+00 -0.12436301395E+04  0.12436301395E+04  0.50400001928E-02 0.  1.
    10030    2    1    2    0    0  0.00000000000E+00  0.00000000000E+00 -0.18929390519E+03  0.22979663738E+04  0.22901566044E+04 0.  0.
        3    1    3    3  502    0 -0.10752832777E+04 -0.38324165295E+03 -0.43622504023E+01  0.11415460268E+04  0.10100000352E+00 0. -1.
       -3    1    3    3    0  502  0.10752832777E+04  0.38324165295E+03 -0.18493165478E+03  0.11564203470E+04  0.10100000352E+00 0.  1.
</event>
<event>
 5   0  0.7183014E-06  0.2314790E+04  0.7818609E-02  0.8472112E-01
        1   -1    0    0  501    0  0.00000000000E+00  0.00000000000E+00  0.24923238669E+04  0.24923238669E+04  0.50400001928E-02 0. -1.
       -1   -1    0    0    0  501  0.00000000000E+00  0.00000000000E+00 -0.53747578944E+03  0.53747578946E+03  0.50400001928E-02 0.  1.
    10030    2    1    2    0    0  0.00000000000E+00  0.00000000000E+00  0.19548480775E+04  0.30297996564E+04  0.23147904769E+04 0.  0.
        3    1    3    3  502    0  0.48746177017E+03  0.12575647531E+03  0.23415144045E+04  0.23950205396E+04  0.10100000352E+00 0. -1.
       -3    1    3    3    0  502 -0.48746177017E+03 -0.12575647531E+03 -0.38666632702E+03  0.63477911679E+03  0.10100000352E+00 0.  1.
</event>
<event>
 5   0  0.1635955E-05  0.2299867E+04  0.7818609E-02  0.8477973E-01
       -2   -1    0    0    0  501  0.00000000000E+00  0.00000000000E+00  0.12133665916E+04  0.12133665916E+04  0.25500000920E-02 0. -1.
        2   -1    0    0  501    0  0.00000000000E+00  0.00000000000E+00 -0.10898168075E+04  0.10898168075E+04  0.25500000920E-02 0.  1.
    10030    2    1    2    0    0  0.00000000000E+00  0.00000000000E+00  0.12354978412E+03  0.23031833991E+04  0.22998672181E+04 0.  0.
        2    1    3    3  502    0 -0.68277090637E+02 -0.44489459991E+03 -0.99793535942E+03  0.10947456087E+04  0.25500000920E-02 0.  1.
       -2    1    3    3    0  502  0.68277090637E+02  0.44489459991E+03  0.11214851435E+04  0.12084377904E+04  0.25500000920E-02 0. -1.
</event>
<event>
 5   0  0.7391007E-06  0.2313155E+04  0.7818609E-02  0.8472752E-01
        1   -1    0    0  501    0  0.00000000000E+00  0.00000000000E+00  0.14590624119E+04  0.14590624120E+04  0.50400001928E-02 0.  1.
       -1   -1    0    0    0  501  0.00000000000E+00  0.00000000000E+00 -0.91680229514E+03  0.91680229516E+03  0.50400001928E-02 0. -1.
    10030    2    1    2    0    0  0.00000000000E+00  0.00000000000E+00  0.54226011680E+03  0.23758647071E+04  0.23131552201E+04 0.  0.
        1    1    3    3  502    0 -0.41295361082E+03  0.86786652844E+03 -0.38970066999E+03  0.10371063630E+04  0.50400001928E-02 0. -1.
       -1    1    3    3    0  502  0.41295361082E+03 -0.86786652844E+03  0.93196078680E+03  0.13387583441E+04  0.50400001928E-02 0.  1.
</event>
<event>
 5   0  0.1697855E-05  0.2306326E+04  0.7818609E-02  0.8475431E-01
       -2   -1    0    0    0  501  0.00000000000E+00  0.00000000000E+00  0.75920591640E+03  0.75920591640E+03  0.25500000920E-02 0. -1.
        2   -1    0    0  501    0  0.00000000000E+00  0.00000000000E+00 -0.17515474538E+04  0.17515474538E+04  0.25500000920E-02 0.  1.
    10030    2    1    2    0    0  0.00000000000E+00  0.00000000000E+00 -0.99234153738E+03  0.25107533702E+04  0.23063262473E+04 0.  0.
        5    1    3    3  502    0  0.10960497220E+04 -0.34963129023E+03 -0.41047854991E+03  0.12215079869E+04  0.46999998093E+01 0.  1.
       -5    1    3    3    0  502 -0.10960497220E+04  0.34963129023E+03 -0.58186298746E+03  0.12892453833E+04  0.46999998093E+01 0. -1.
</event>
<event>
 5   0  0.7183014E-06  0.2303294E+04  0.7818609E-02  0.8476623E-01
        1   -1    0    0  501    0  0.00000000000E+00  0.00000000000E+00  0.10968599065E+04  0.10968599065E+04  0.50400001928E-02 0. -1.
       -1   -1    0    0    0  501  0.00000000000E+00  0.00000000000E+00 -0.12091707260E+04  0.12091707260E+04  0.50400001928E-02 0.  1.
    10030    2    1    2    0    0  0.00000000000E+00  0.00000000000E+00 -0.11231081950E+03  0.23060306325E+04  0.23032940667E+04 0.  0.
        3    1    3    3  502    0  0.58724321468E+03 -0.33781304955E+03  0.87625050672E+03  0.11076042661E+04  0.10100000352E+00 0. -1.
       -3    1    3    3    0  502 -0.58724321468E+03  0.33781304955E+03 -0.98856132623E+03  0.11984263663E+04  0.10100000352E+00 0.  1.
</event>
<event>
 5   0  0.1635955E-05  0.2277178E+04  0.7818609E-02  0.8486974E-01
        2   -1    0    0  501    0  0.00000000000E+00  0.00000000000E+00  0.13968717176E+04  0.13968717176E+04  0.25500000920E-02 0.  1.
       -2   -1    0    0    0  501  0.00000000000E+00  0.00000000000E+00 -0.92806292500E+03  0.92806292500E+03  0.25500000920E-02 0. -1.
    10030    2    1    2    0    0  0.00000000000E+00  0.00000000000E+00  0.46880879262E+03  0.23249346426E+04  0.22771779483E+04 0.  0.
        2    1    3    3  502    0  0.68271431596E+03 -0.40246614934E+03 -0.60024058935E+03  0.99416628574E+03  0.25500000920E-02 0. -1.
       -2    1    3    3    0  502 -0.68271431596E+03  0.40246614934E+03  0.10690493820E+04  0.13307683569E+04  0.25500000920E-02 0.  1.
</event>
<event>
 5   0  0.5704875E-06  0.2309870E+04  0.7818609E-02  0.8474040E-01
        3   -1    0    0  501    0  0.00000000000E+00  0.00000000000E+00  0.19042139771E+04  0.19042139798E+04  0.10100000352E+00 0. -1.
       -3   -1    0    0    0  501  0.00000000000E+00  0.00000000000E+00 -0.70048579253E+03  0.70048579982E+03  0.10100000352E+00 0.  1.
    10030    2    1    2    0    0  0.00000000000E+00  0.00000000000E+00  0.12037281846E+04  0.26046997796E+04  0.23098699962E+04 0.  0.
        5    1    3    3  502    0  0.46750645470E+03  0.83002049370E+02  0.17890496820E+04  0.18509922961E+04  0.46999998093E+01 0. -1.
       -5    1    3    3    0  502 -0.46750645470E+03 -0.83002049370E+02 -0.58532149744E+03  0.75370748354E+03  0.46999998093E+01 0.  1.
</event>
<event>
 5   0  0.1697855E-05  0.2262079E+04  0.7818609E-02  0.8493025E-01
        2   -1    0    0  501    0  0.00000000000E+00  0.00000000000E+00  0.13537853574E+04  0.13537853574E+04  0.25500000920E-02 0.  1.
       -2   -1    0    0    0  501  0.00000000000E+00  0.00000000000E+00 -0.94494312543E+03  0.94494312543E+03  0.25500000920E-02 0. -1.
    10030    2    1    2    0    0  0.00000000000E+00  0.00000000000E+00  0.40884223196E+03  0.22987284828E+04  0.22620788375E+04 0.  0.
        5    1    3    3  502    0  0.24450124019E+03 -0.81278405731E+03 -0.55523934583E+03  0.10142542095E+04  0.46999998093E+01 0. -1.
       -5    1    3    3    0  502 -0.24450124019E+03  0.81278405731E+03  0.96408157779E+03  0.12844742734E+04  0.46999998093E+01 0.  1.
</event>
<event>
 5   0  0.7391007E-06  0.2305410E+04  0.7818609E-02  0.8475791E-01
        1   -1    0    0  501    0  0.00000000000E+00  0.00000000000E+00  0.12132769809E+04  0.12132769809E+04  0.50400001928E-02 0. -1.
       -1   -1    0    0    0  501  0.00000000000E+00  0.00000000000E+00 -0.10951573003E+04  0.10951573003E+04  0.50400001928E-02 0.  1.
    10030    2    1    2    0    0  0.00000000000E+00  0.00000000000E+00  0.11811968056E+03  0.23084342812E+04  0.23054102827E+04 0.  0.
        1    1    3    3  502    0  0.81095876898E+03 -0.68143823005E+03  0.51431758267E+03  0.11775121070E+04  0.50400001928E-02 0. -1.
       -1    1    3    3    0  502 -0.81095876898E+03  0.68143823005E+03 -0.39619790211E+03  0.11309221742E+04  0.50400001928E-02 0.  1.
</event>
<event>
 5   0  0.7416556E-06  0.2301487E+04  0.7818609E-02  0.8477335E-01
       -1   -1    0    0    0  501  0.00000000000E+00  0.00000000000E+00  0.93687187223E+03  0.93687187224E+03  0.50400001928E-02 0. -1.
        1   -1    0    0  501    0  0.00000000000E+00  0.00000000000E+00 -0.14134379549E+04  0.14134379550E+04  0.50400001928E-02 0.  1.
    10030    2    1    2    0    0  0.00000000000E+00  0.00000000000E+00 -0.47656608272E+03  0.23503098272E+04  0.23014867049E+04 0.  0.
        4    1    3    3  502    0  0.75637551024E+03  0.86073037437E+03 -0.12997678723E+03  0.11531939420E+04  0.12699999809E+01 0. -1.
       -4    1    3    3    0  502 -0.75637551024E+03 -0.86073037437E+03 -0.34658929549E+03  0.11971158852E+04  0.12699999809E+01 0.  1.
</event>
<event>
 5   0  0.1602809E-05  0.2300988E+04  0.7818609E-02  0.8477531E-01
        2   -1    0    0  501    0  0.00000000000E+00  0.00000000000E+00  0.12160156754E+04  0.12160156754E+04  0.25500000920E-02 0. -1.
       -2   -1    0    0    0  501  0.00000000000E+00  0.00000000000E+00 -0.10885032139E+04  0.10885032139E+04  0.25500000920E-02 0.  1.
    10030    2    1    2    0    0  0.00000000000E+00  0.00000000000E+00  0.12751246151E+03  0.23045188894E+04  0.23009884579E+04 0.  0.
        3    1    3    3  502    0 -0.10043411063E+01 -0.57465683012E+03 -0.93447029848E+03  0.10970260845E+04  0.10100000352E+00 0.  1.
       -3    1    3    3    0  502  0.10043411063E+01  0.57465683012E+03  0.10619827600E+04  0.12074928049E+04  0.10100000352E+00 0. -1.
</event>
<event>
 5   0  0.7278815E-06  0.2302199E+04  0.7818609E-02  0.8477055E-01
        1   -1    0    0  501    0  0.00000000000E+00  0.00000000000E+00  0.14532825190E+04  0.14532825190E+04  0.50400001928E-02 0.  1.
       -1   -1    0    0    0  501  0.00000000000E+00  0.00000000000E+00 -0.91174958095E+03  0.91174958096E+03  0.50400001928E-02 0. -1.
    10030    2    1    2    0    0  0.00000000000E+00  0.00000000000E+00  0.54153293808E+03  0.23650321000E+04  0.23021987123E+04 0.  0.
        5    1    3    3  502    0  0.95006544017E+03 -0.48221996809E+03 -0.17683997531E+03  0.10800254187E+04  0.46999998093E+01 0. -1.
       -5    1    3    3    0  502 -0.95006544017E+03  0.48221996809E+03  0.71837291339E+03  0.12850066813E+04  0.46999998093E+01 0.  1.
</event>
<event>
 5   0  0.1588969E-05  0.2297175E+04  0.7818609E-02  0.8479036E-01
        2   -1    0    0  501    0  0.00000000000E+00  0.00000000000E+00  0.17774800407E+04  0.17774800407E+04  0.25500000920E-02 0.  1.
       -2   -1    0    0    0  501  0.00000000000E+00  0.00000000000E+00 -0.74220445387E+03  0.74220445387E+03  0.25500000920E-02 0. -1.
    10030    2    1    2    0    0  0.00000000000E+00  0.00000000000E+00  0.10352755868E+04  0.25196844945E+04  0.22971753114E+04 0.  0.
        1    1    3    3  502    0  0.21248030988E+03 -0.74920283235E+03 -0.40841580528E+03  0.87934989402E+03  0.50400001928E-02 0. -1.
       -1    1    3    3    0  502 -0.21248030988E+03  0.74920283235E+03  0.14436913921E+04  0.16403346005E+04  0.50400001928E-02 0.  1.
</event>
<event>
 5   0  0.7391007E-06  0.2296587E+04  0.7818609E-02  0.8479268E-01
        1   -1    0    0  501    0  0.00000000000E+00  0.00000000000E+00  0.96770771711E+03  0.96770771713E+03  0.50400001928E-02 0.  1.
       -1   -1    0    0    0  501  0.00000000000E+00  0.00000000000E+00 -0.13625785571E+04  0.13625785571E+04  0.50400001928E-02 0. -1.
    10030    2    1    2    0    0  0.00000000000E+00  0.00000000000E+00 -0.39487084002E+03  0.23302862743E+04  0.22965868457E+04 0.  0.
        1    1    3    3  502    0 -0.15875224654E+03  0.44468947347E+03 -0.12595166261E+04  0.13451145435E+04  0.50400001928E-02 0. -1.
       -1    1    3    3    0  502  0.15875224654E+03 -0.44468947347E+03  0.86464578613E+03  0.98517173076E+03  0.50400001928E-02 0.  1.
</event>
<event>
 5   0  0.1635955E-05  0.2295390E+04  0.7818609E-02  0.8479741E-01
        2   -1    0    0  501    0  0.00000000000E+00  0.00000000000E+00  0.14218772261E+04  0.14218772261E+04  0.25500000920E-02 0. -1.
       -2   -1    0    0    0  501  0.00000000000E+00  0.00000000000E+00 -0.92638376274E+03  0.92638376274E+03  0.25500000920E-02 0.  1.
    10030    2    1    2    0    0  0.00000000000E+00  0.00000000000E+00  0.49549346336E+03  0.23482609888E+04  0.22953901410E+04 0.  0.
        2    1    3    3  502    0  0.48472518976E+02  0.78476491515E+03  0.11030653933E+04  0.13546065181E+04  0.25500000920E-02 0. -1.
       -2    1    3    3    0  502 -0.48472518976E+02 -0.78476491515E+03 -0.60757192990E+03  0.99365447071E+03  0.25500000920E-02 0.  1.
</event>
<event>
 5   0  0.7183014E-06  0.2302131E+04  0.7818609E-02  0.8477081E-01
        1   -1    0    0  501    0  0.00000000000E+00  0.00000000000E+00  0.16893830636E+04  0.16893830636E+04  0.50400001928E-02 0. -1.
       -1   -1    0    0    0  501  0.00000000000E+00  0.00000000000E+00 -0.78428136021E+03  0.78428136022E+03  0.50400001928E-02 0.  1.
    10030    2    1    2    0    0  0.00000000000E+00  0.00000000000E+00  0.90510170340E+03  0.24736644238E+04  0.23021308799E+04 0.  0.
        3    1    3    3  502    0 -0.18184657340E+03  0.87587136648E+03 -0.32580802538E+03  0.95203450908E+03  0.10100000352E+00 0.  1.
       -3    1    3    3    0  502  0.18184657340E+03 -0.87587136648E+03  0.12309097288E+04  0.15216299148E+04  0.10100000352E+00 0. -1.
</event>
<event>
 5   0  0.1626636E-05  0.2271090E+04  0.7818609E-02  0.8489408E-01
        2   -1    0    0  501    0  0.00000000000E+00  0.00000000000E+00  0.12644152738E+04  0.12644152738E+04  0.25500000920E-02 0. -1.
       -2   -1    0    0    0  501  0.00000000000E+00  0.00000000000E+00 -0.10198089174E+04  0.10198089174E+04  0.25500000920E-02 0.  1.
    10030    2    1    2    0    0  0.00000000000E+00  0.00000000000E+00  0.24460635642E+03  0.22842241912E+04  0.22710895812E+04 0.  0.
        4    1    3    3  502    0 -0.53067187532E+03 -0.10477539855E+03  0.11265112064E+04  0.12496478041E+04  0.12699999809E+01 0. -1.
       -4    1    3    3    0  502  0.53067187532E+03  0.10477539855E+03 -0.88190484994E+03  0.10345763871E+04  0.12699999809E+01 0.  1.
</event>
<event>
 5   0  0.1588969E-05  0.2286243E+04  0.7818609E-02  0.8483365E-01
        2   -1    0    0  501    0  0.00000000000E+00  0.00000000000E+00  0.14601188481E+04  0.14601188481E+04  0.25500000920E-02 0.  1.
       -2   -1    0    0    0  501  0.00000000000E+00  0.00000000000E+00 -0.89494515371E+03  0.89494515371E+03  0.25500000920E-02 0. -1.
    10030    2    1    2    0    0  0.00000000000E+00  0.00000000000E+00  0.56517369439E+03  0.23550640018E+04  0.22862425829E+04 0.  0.
        1    1    3    3  502    0  0.39796919655E+03 -0.90182181033E+02 -0.81736477692E+03  0.91356307158E+03  0.50400001928E-02 0. -1.
       -1    1    3    3    0  502 -0.39796919655E+03  0.90182181033E+02  0.13825384713E+04  0.14415009302E+04  0.50400001928E-02 0.  1.
</event>
<event>
 5   0  0.7183014E-06  0.2298693E+04  0.7818609E-02  0.8478437E-01
        1   -1    0    0  501    0  0.00000000000E+00  0.00000000000E+00  0.13356873411E+04  0.13356873411E+04  0.50400001928E-02 0.  1.
       -1   -1    0    0    0  501  0.00000000000E+00  0.00000000000E+00 -0.98900196648E+03  0.98900196649E+03  0.50400001928E-02 0. -1.
    10030    2    1    2    0    0  0.00000000000E+00  0.00000000000E+00  0.34668537458E+03  0.23246893076E+04  0.22986930260E+04 0.  0.
        3    1    3    3  502    0 -0.63795439867E+03  0.79577677118E+03  0.70919428262E+03  0.12422572298E+04  0.10100000352E+00 0.  1.
       -3    1    3    3    0  502  0.63795439867E+03 -0.79577677118E+03 -0.36250890804E+03  0.10824320777E+04  0.10100000352E+00 0. -1.
</event>
<event>
 5   0  0.7278815E-06  0.2294756E+04  0.7818609E-02  0.8479992E-01
        1   -1    0    0  501    0  0.00000000000E+00  0.00000000000E+00  0.19488448328E+04  0.19488448328E+04  0.50400001928E-02 0.  1.
       -1   -1    0    0    0  501  0.00000000000E+00  0.00000000000E+00 -0.67551624769E+03  0.67551624771E+03  0.50400001928E-02 0. -1.
    10030    2    1    2    0    0  0.00000000000E+00  0.00000000000E+00  0.12733285851E+04  0.26243610805E+04  0.22947560644E+04 0.  0.
        5    1    3    3  502    0 -0.81949904641E+03 -0.10592543498E+03 -0.27369666396E+03  0.87047736255E+03  0.46999998093E+01 0. -1.
       -5    1    3    3    0  502  0.81949904641E+03  0.10592543498E+03  0.15470252490E+04  0.17538837179E+04  0.46999998093E+01 0.  1.
</event>
<event>
 5   0  0.7183014E-06  0.2304252E+04  0.7818609E-02  0.8476247E-01
        1   -1    0    0  501    0  0.00000000000E+00  0.00000000000E+00  0.12926728688E+04  0.12926728688E+04  0.50400001928E-02 0.  1.
       -1   -1    0    0    0  501  0.00000000000E+00  0.00000000000E+00 -0.10268601589E+04  0.10268601590E+04  0.50400001928E-02 0. -1.
    10030    2    1    2    0    0  0.00000000000E+00  0.00000000000E+00  0.26581270981E+03  0.23195330277E+04  0.23042519545E+04 0.  0.
        3    1    3    3  502    0  0.18923312450E+03  0.42919508609E+02  0.12761062754E+04  0.12907743784E+04  0.10100000352E+00 0.  1.
       -3    1    3    3    0  502 -0.18923312450E+03 -0.42919508609E+02 -0.10102935656E+04  0.10287586493E+04  0.10100000352E+00 0. -1.
</event>
<event>
 5   0  0.7278815E-06  0.2302024E+04  0.7818609E-02  0.8477124E-01
        1   -1    0    0  501    0  0.00000000000E+00  0.00000000000E+00  0.11212094999E+04  0.11212094999E+04  0.50400001928E-02 0.  1.
       -1   -1    0    0    0  501  0.00000000000E+00  0.00000000000E+00 -0.11816064349E+04  0.11816064349E+04  0.50400001928E-02 0. -1.
    10030    2    1    2    0    0  0.00000000000E+00  0.00000000000E+00 -0.60396935006E+02  0.23028159348E+04  0.23020237705E+04 0.  0.
        5    1    3    3  502    0  0.33623969465E+03  0.10858090934E+00 -0.11313720393E+04  0.11802889160E+04  0.46999998093E+01 0. -1.
       -5    1    3    3    0  502 -0.33623969465E+03 -0.10858090934E+00  0.10709751043E+04  0.11225270188E+04  0.46999998093E+01 0.  1.
</event>
<event>
 5   0  0.1635955E-05  0.2305595E+04  0.7818609E-02  0.8475718E-01
       -2   -1    0    0    0  501  0.00000000000E+00  0.00000000000E+00  0.86615062214E+03  0.86615062214E+03  0.25500000920E-02 0.  1.
        2   -1    0    0  501    0  0.00000000000E+00  0.00000000000E+00 -0.15343083407E+04  0.15343083407E+04  0.25500000920E-02 0. -1.
    10030    2    1    2    0    0  0.00000000000E+00  0.00000000000E+00 -0.66815771861E+03  0.24004589629E+04  0.23055950415E+04 0.  0.
        2    1    3    3  502    0 -0.18553399665E+03  0.63840475221E+03  0.64645577606E+03  0.92730176424E+03  0.25500000920E-02 0.  1.
       -2    1    3    3    0  502  0.18553399665E+03 -0.63840475221E+03 -0.13146134947E+04  0.14731571986E+04  0.25500000920E-02 0. -1.
</event>
<event>
 5   0  0.7183014E-06  0.2285485E+04  0.7818609E-02  0.8483666E-01
        1   -1    0    0  501    0  0.00000000000E+00  0.00000000000E+00  0.13310541273E+04  0.13310541273E+04  0.50400001928E-02 0.  1.
       -1   -1    0    0    0  501  0.00000000000E+00  0.00000000000E+00 -0.98107240884E+03  0.98107240885E+03  0.50400001928E-02 0. -1.
    10030    2    1    2    0    0  0.00000000000E+00  0.00000000000E+00  0.34998171845E+03  0.23121265361E+04  0.22854850505E+04 0.  0.
        3    1    3    3  502    0 -0.39772223769E+02 -0.83601186543E+03  0.96211109569E+03  0.12752079986E+04  0.10100000352E+00 0.  1.
       -3    1    3    3    0  502  0.39772223769E+02  0.83601186543E+03 -0.61212937724E+03  0.10369185376E+04  0.10100000352E+00 0. -1.
</event>
<event>
 5   0  0.1588969E-05  0.2330258E+04  0.7818609E-02  0.8466086E-01
       -2   -1    0    0    0  501  0.00000000000E+00  0.00000000000E+00  0.15289989510E+04  0.15289989510E+04  0.25500000920E-02 0.  1.
        2   -1    0    0  501    0  0.00000000000E+00  0.00000000000E+00 -0.88785226915E+03  0.88785226915E+03  0.25500000920E-02 0. -1.
    10030    2    1    2    0    0  0.00000000000E+00  0.00000000000E+00  0.64114668181E+03  0.24168512201E+04  0.23302576580E+04 0.  0.
        1    1    3    3  502    0 -0.45738472542E+03  0.10613394605E+04  0.16714735848E+03  0.11677244867E+04  0.50400001928E-02 0.  1.
       -1    1    3    3    0  502  0.45738472542E+03 -0.10613394605E+04  0.47399932333E+03  0.12491267334E+04  0.50400001928E-02 0. -1.
</event>
<event>
 5   0  0.1626636E-05  0.2302602E+04  0.7818609E-02  0.8476896E-01
        2   -1    0    0  501    0  0.00000000000E+00  0.00000000000E+00  0.17931086252E+04  0.17931086252E+04  0.25500000920E-02 0. -1.
       -2   -1    0    0    0  501  0.00000000000E+00  0.00000000000E+00 -0.73921574046E+03  0.73921574046E+03  0.25500000920E-02 0.  1.
    10030    2    1    2    0    0  0.00000000000E+00  0.00000000000E+00  0.10538928848E+04  0.25323243657E+04  0.23026021108E+04 0.  0.
        4    1    3    3  502    0 -0.62005961174E+03 -0.39006251934E+03  0.15037407161E+04  0.16726806166E+04  0.12699999809E+01 0. -1.
       -4    1    3    3    0  502  0.62005961174E+03  0.39006251934E+03 -0.44984783130E+03  0.85964374908E+03  0.12699999809E+01 0.  1.
</event>
<event>
 5   0  0.7278815E-06  0.2233441E+04  0.7818609E-02  0.8504637E-01
        1   -1    0    0  501    0  0.00000000000E+00  0.00000000000E+00  0.85203706589E+03  0.85203706590E+03  0.50400001928E-02 0.  1.
       -1   -1    0    0    0  501  0.00000000000E+00  0.00000000000E+00 -0.14636271141E+04  0.14636271141E+04  0.50400001928E-02 0. -1.
    10030    2    1    2    0    0  0.00000000000E+00  0.00000000000E+00 -0.61159004817E+03  0.23156641800E+04  0.22334408896E+04 0.  0.
        5    1    3    3  502    0  0.46458649173E+03 -0.99851164796E+03 -0.11412071513E+03  0.11072089898E+04  0.46999998093E+01 0. -1.
       -5    1    3    3    0  502 -0.46458649173E+03  0.99851164796E+03 -0.49746933304E+03  0.12084551902E+04  0.46999998093E+01 0.  1.
</event>
<event>
 5   0  0.1602809E-05  0.2300987E+04  0.7818609E-02  0.8477532E-01
        2   -1    0    0  501    0  0.00000000000E+00  0.00000000000E+00  0.11572932293E+04  0.11572932293E+04  0.25500000920E-02 0.  1.
       -2   -1    0    0    0  501  0.00000000000E+00  0.00000000000E+00 -0.11437341060E+04  0.11437341060E+04  0.25500000920E-02 0. -1.
    10030    2    1    2    0    0  0.00000000000E+00  0.00000000000E+00  0.13559123337E+02  0.23010273353E+04  0.23009873854E+04 0.  0.
        3    1    3    3  502    0  0.21621819972E+03  0.10595893752E+04 -0.38585401543E+03  0.11482000197E+04  0.10100000352E+00 0. -1.
       -3    1    3    3    0  502 -0.21621819972E+03 -0.10595893752E+04  0.39941313877E+03  0.11528273155E+04  0.10100000352E+00 0.  1.
</event>
<event>
 5   0  0.1588969E-05  0.2303398E+04  0.7818609E-02  0.8476583E-01
        2   -1    0    0  501    0  0.00000000000E+00  0.00000000000E+00  0.14208504394E+04  0.14208504394E+04  0.25500000920E-02 0.  1.
       -2   -1    0    0    0  501  0.00000000000E+00  0.00000000000E+00 -0.93353281047E+03  0.93353281048E+03  0.25500000920E-02 0. -1.
    10030    2    1    2    0    0  0.00000000000E+00  0.00000000000E+00  0.48731762894E+03  0.23543832499E+04  0.23033979283E+04 0.  0.
        1    1    3    3  502    0 -0.22179033829E+03  0.10998215809E+04  0.50943753571E+03  0.12322033382E+04  0.50400001928E-02 0. -1.
       -1    1    3    3    0  502  0.22179033829E+03 -0.10998215809E+04 -0.22119906762E+02  0.11221799117E+04  0.50400001928E-02 0.  1.
</event>
<event>
 5   0  0.7202572E-06  0.2303785E+04  0.7818609E-02  0.8476430E-01
        1   -1    0    0  501    0  0.00000000000E+00  0.00000000000E+00  0.15530149811E+04  0.15530149811E+04  0.50400001928E-02 0. -1.
       -1   -1    0    0    0  501  0.00000000000E+00  0.00000000000E+00 -0.85437410626E+03  0.85437410627E+03  0.50400001928E-02 0.  1.
    10030    2    1    2    0    0  0.00000000000E+00  0.00000000000E+00  0.69864087487E+03  0.24073890874E+04  0.23037845268E+04 0.  0.
        2    1    3    3  502    0  0.45383428977E+03 -0.89949824374E+03 -0.23417532155E+03  0.10343600603E+04  0.25500000920E-02 0.  1.
       -2    1    3    3    0  502 -0.45383428977E+03  0.89949824374E+03  0.93281619642E+03  0.13730290271E+04  0.25500000920E-02 0. -1.
</event>
<event>
 5   0  0.7278815E-06  0.2155973E+04  0.7818609E-02  0.8536980E-01
       -1   -1    0    0    0  501  0.00000000000E+00  0.00000000000E+00  0.80029731831E+03  0.80029731833E+03  0.50400001928E-02 0.  1.
        1   -1    0    0  501    0  0.00000000000E+00  0.00000000000E+00 -0.14520295850E+04  0.14520295850E+04  0.50400001928E-02 0. -1.
    10030    2    1    2    0    0  0.00000000000E+00  0.00000000000E+00 -0.65173226668E+03  0.22523269033E+04  0.21559734535E+04 0.  0.
        5    1    3    3  502    0  0.52147522749E+03  0.33416914310E+03  0.59585002677E+03  0.85945609166E+03  0.46999998093E+01 0.  1.
       -5    1    3    3    0  502 -0.52147522749E+03 -0.33416914310E+03 -0.12475822934E+04  0.13928708117E+04  0.46999998093E+01 0. -1.
</event>
<event>
 5   0  0.7391007E-06  0.2288866E+04  0.7818609E-02  0.8482324E-01
        1   -1    0    0  501    0  0.00000000000E+00  0.00000000000E+00  0.13986694705E+04  0.13986694705E+04  0.50400001928E-02 0.  1.
       -1   -1    0    0    0  501  0.00000000000E+00  0.00000000000E+00 -0.93640943441E+03  0.93640943443E+03  0.50400001928E-02 0. -1.
    10030    2    1    2    0    0  0.00000000000E+00  0.00000000000E+00  0.46226003604E+03  0.23350789049E+04  0.22888663463E+04 0.  0.
        1    1    3    3  502    0 -0.35468642458E+03 -0.25220391108E+03 -0.84869102519E+03  0.95377446433E+03  0.50400001928E-02 0. -1.
       -1    1    3    3    0  502  0.35468642458E+03  0.25220391108E+03  0.13109510612E+04  0.13813044406E+04  0.50400001928E-02 0.  1.
</event>
<event>
 5   0  0.1697855E-05  0.2232251E+04  0.7818609E-02  0.8505123E-01
       -2   -1    0    0    0  501  0.00000000000E+00  0.00000000000E+00  0.11648552062E+04  0.11648552062E+04  0.25500000920E-02 0.  1.
        2   -1    0    0  501    0  0.00000000000E+00  0.00000000000E+00 -0.10694339185E+04  0.10694339185E+04  0.25500000920E-02 0. -1.
    10030    2    1    2    0    0  0.00000000000E+00  0.00000000000E+00  0.95421287730E+02  0.22342891247E+04  0.22322505842E+04 0.  0.
        5    1    3    3  502    0 -0.82017220337E+03 -0.29982597637E+03  0.74342491089E+03  0.11468568993E+04  0.46999998093E+01 0.  1.
       -5    1    3    3    0  502  0.82017220337E+03  0.29982597637E+03 -0.64800362316E+03  0.10874322254E+04  0.46999998093E+01 0. -1.
</event>
<event>
 5   0  0.1602809E-05  0.2300966E+04  0.7818609E-02  0.8477540E-01
        2   -1    0    0  501    0  0.00000000000E+00  0.00000000000E+00  0.29282981412E+04  0.29282981412E+04  0.25500000920E-02 0. -1.
       -2   -1    0    0    0  501  0.00000000000E+00  0.00000000000E+00 -0.45200688771E+03  0.45200688772E+03  0.25500000920E-02 0.  1.
    10030    2    1    2    0    0  0.00000000000E+00  0.00000000000E+00  0.24762912535E+04  0.33803050289E+04  0.23009658225E+04 0.  0.
        3    1    3    3  502    0  0.49922259126E+03 -0.67619939918E+03  0.84059264210E+02  0.84470988699E+03  0.10100000352E+00 0.  1.
       -3    1    3    3    0  502 -0.49922259126E+03  0.67619939918E+03  0.23922319892E+04  0.25355951419E+04  0.10100000352E+00 0. -1.
</event>
<event>
 5   0  0.1626636E-05  0.2296652E+04  0.7818609E-02  0.8479242E-01
       -2   -1    0    0    0  501  0.00000000000E+00  0.00000000000E+00  0.96045113498E+03  0.96045113498E+03  0.25500000920E-02 0. -1.
        2   -1    0    0  501    0  0.00000000000E+00  0.00000000000E+00 -0.13729508044E+04  0.13729508044E+04  0.25500000920E-02 0.  1.
    10030    2    1    2    0    0  0.00000000000E+00  0.00000000000E+00 -0.41249966943E+03  0.23334019394E+04  0.22966516134E+04 0.  0.
        4    1    3    3  502    0  0.41137178693E+03 -0.72511660576E+03  0.59608903273E+03  0.10248632040E+04  0.12699999809E+01 0. -1.
       -4    1    3    3    0  502 -0.41137178693E+03  0.72511660576E+03 -0.10085887022E+04  0.13085387354E+04  0.12699999809E+01 0.  1.
</event>
<event>
 5   0  0.1602809E-05  0.2301512E+04  0.7818609E-02  0.8477325E-01
        2   -1    0    0  501    0  0.00000000000E+00  0.00000000000E+00  0.62886856555E+03  0.62886856556E+03  0.25500000920E-02 0.  1.
       -2   -1    0    0    0  501  0.00000000000E+00  0.00000000000E+00 -0.21057496910E+04  0.21057496910E+04  0.25500000920E-02 0. -1.
    10030    2    1    2    0    0  0.00000000000E+00  0.00000000000E+00 -0.14768811255E+04  0.27346182566E+04  0.23015123616E+04 0.  0.
        3    1    3    3  502    0 -0.88134506345E+03  0.71922680649E+03 -0.53201290278E+03  0.12558240557E+04  0.10100000352E+00 0.  1.
       -3    1    3    3    0  502  0.88134506345E+03 -0.71922680649E+03 -0.94486822271E+03  0.14787942009E+04  0.10100000352E+00 0. -1.
</event>
<event>
 5   0  0.7278815E-06  0.2296976E+04  0.7818609E-02  0.8479114E-01
        1   -1    0    0  501    0  0.00000000000E+00  0.00000000000E+00  0.12364379298E+04  0.12364379298E+04  0.50400001928E-02 0.  1.
       -1   -1    0    0    0  501  0.00000000000E+00  0.00000000000E+00 -0.10667938550E+04  0.10667938551E+04  0.50400001928E-02 0. -1.
    10030    2    1    2    0    0  0.00000000000E+00  0.00000000000E+00  0.16964407477E+03  0.23032317849E+04  0.22969757384E+04 0.  0.
        5    1    3    3  502    0 -0.70246048117E+03 -0.66254750149E+03  0.70827294699E+03  0.11975360440E+04  0.46999998093E+01 0.  1.
       -5    1    3    3    0  502  0.70246048117E+03  0.66254750149E+03 -0.53862887222E+03  0.11056957408E+04  0.46999998093E+01 0. -1.
</event>
<event>
 5   0  0.7416556E-06  0.2303326E+04  0.7818609E-02  0.8476611E-01
       -1   -1    0    0    0  501  0.00000000000E+00  0.00000000000E+00  0.13688084253E+04  0.13688084253E+04  0.50400001928E-02 0.  1.
        1   -1    0    0  501    0  0.00000000000E+00  0.00000000000E+00 -0.96896527963E+03  0.96896527964E+03  0.50400001928E-02 0. -1.
    10030    2    1    2    0    0  0.00000000000E+00  0.00000000000E+00  0.39984314568E+03  0.23377737050E+04  0.23033261503E+04 0.  0.
        4    1    3    3  502    0  0.21884800878E+03  0.67646623350E+03  0.11194652750E+04  0.13261618041E+04  0.12699999809E+01 0.  1.
       -4    1    3    3    0  502 -0.21884800878E+03 -0.67646623350E+03 -0.71962212928E+03  0.10116119008E+04  0.12699999809E+01 0. -1.
</event>
<event>
 5   0  0.7278815E-06  0.2290629E+04  0.7818609E-02  0.8481625E-01
        1   -1    0    0  501    0  0.00000000000E+00  0.00000000000E+00  0.16903318172E+04  0.16903318172E+04  0.50400001928E-02 0.  1.
       -1   -1    0    0    0  501  0.00000000000E+00  0.00000000000E+00 -0.77602822563E+03  0.77602822565E+03  0.50400001928E-02 0. -1.
    10030    2    1    2    0    0  0.00000000000E+00  0.00000000000E+00  0.91430359157E+03  0.24663600429E+04  0.22906289100E+04 0.  0.
        5    1    3    3  502    0  0.96120342336E+03  0.37056381570E+02 -0.21218022630E+03  0.98505214833E+03  0.46999998093E+01 0. -1.
       -5    1    3    3    0  502 -0.96120342336E+03 -0.37056381570E+02  0.11264838179E+04  0.14813078945E+04  0.46999998093E+01 0.  1.
</event>
<event>
 5   0  0.7416556E-06  0.2308010E+04  0.7818609E-02  0.8474770E-01
       -1   -1    0    0    0  501  0.00000000000E+00  0.00000000000E+00  0.82479664610E+03  0.82479664612E+03  0.50400001928E-02 0.  1.
        1   -1    0    0  501    0  0.00000000000E+00  0.00000000000E+00 -0.16146126140E+04  0.16146126140E+04  0.50400001928E-02 0. -1.
    10030    2    1    2    0    0  0.00000000000E+00  0.00000000000E+00 -0.78981596789E+03  0.24394092601E+04  0.23080095917E+04 0.  0.
        4    1    3    3  502    0  0.95953862469E+03  0.42030519539E+03 -0.90657076189E+03  0.13853674562E+04  0.12699999809E+01 0.  1.
       -4    1    3    3    0  502 -0.95953862469E+03 -0.42030519539E+03  0.11675479400E+03  0.10540418039E+04  0.12699999809E+01 0. -1.
</event>
<event>
 5   0  0.1602809E-05  0.2299584E+04  0.7818609E-02  0.8478085E-01
       -2   -1    0    0    0  501  0.00000000000E+00  0.00000000000E+00  0.11029133788E+04  0.11029133788E+04  0.25500000920E-02 0.  1.
        2   -1    0    0  501    0  0.00000000000E+00  0.00000000000E+00 -0.11986631428E+04  0.11986631428E+04  0.25500000920E-02 0. -1.
    10030    2    1    2    0    0  0.00000000000E+00  0.00000000000E+00 -0.95749764038E+02  0.23015765216E+04  0.22995839771E+04 0.  0.
        3    1    3    3  502    0 -0.70645133685E+03  0.41523346410E+03  0.75937793827E+03  0.11172050771E+04  0.10100000352E+00 0.  1.
       -3    1    3    3    0  502  0.70645133685E+03 -0.41523346410E+03 -0.85512770231E+03  0.11843714445E+04  0.10100000352E+00 0. -1.
</event>
<event>
 5   0  0.7183014E-06  0.2296500E+04  0.7818609E-02  0.8479302E-01
       -1   -1    0    0    0  501  0.00000000000E+00  0.00000000000E+00  0.86343348712E+03  0.86343348714E+03  0.50400001928E-02 0.  1.
        1   -1    0    0  501    0  0.00000000000E+00  0.00000000000E+00 -0.15270177882E+04  0.15270177882E+04  0.50400001928E-02 0. -1.
    10030    2    1    2    0    0  0.00000000000E+00  0.00000000000E+00 -0.66358430108E+03  0.23904512753E+04  0.22965002014E+04 0.  0.
        3    1    3    3  502    0 -0.18510615856E+03  0.54008008776E+03 -0.13688062966E+04  0.14830986073E+04  0.10100000352E+00 0. -1.
       -3    1    3    3    0  502  0.18510615856E+03 -0.54008008776E+03  0.70522199550E+03  0.90735266808E+03  0.10100000352E+00 0.  1.
</event>
<event>
 5   0  0.1697855E-05  0.2301376E+04  0.7818609E-02  0.8477379E-01
        2   -1    0    0  501    0  0.00000000000E+00  0.00000000000E+00  0.21871053083E+04  0.21871053083E+04  0.25500000920E-02 0.  1.
       -2   -1    0    0    0  501  0.00000000000E+00  0.00000000000E+00 -0.60540419953E+03  0.60540419953E+03  0.25500000920E-02 0. -1.
    10030    2    1    2    0    0  0.00000000000E+00  0.00000000000E+00  0.15817011088E+04  0.27925095078E+04  0.23013758828E+04 0.  0.
        5    1    3    3  502    0  0.19085460074E+03  0.96878639676E+03  0.73924081556E+02  0.99018150912E+03  0.46999998093E+01 0. -1.
       -5    1    3    3    0  502 -0.19085460074E+03 -0.96878639676E+03  0.15077770272E+04  0.18023279987E+04  0.46999998093E+01 0.  1.
</event>
<event>
 5   0  0.1602809E-05  0.2285791E+04  0.7818609E-02  0.8483545E-01
       -2   -1    0    0    0  501  0.00000000000E+00  0.00000000000E+00  0.12677965312E+04  0.12677965312E+04  0.25500000920E-02 0. -1.
        2   -1    0    0  501    0  0.00000000000E+00  0.00000000000E+00 -0.10302993218E+04  0.10302993218E+04  0.25500000920E-02 0.  1.
    10030    2    1    2    0    0  0.00000000000E+00  0.00000000000E+00  0.23749720940E+03  0.22980958530E+04  0.22857908096E+04 0.  0.
        3    1    3    3  502    0  0.50221010436E+03 -0.42459859552E+03  0.10585055490E+04  0.12461673097E+04  0.10100000352E+00 0. -1.
       -3    1    3    3    0  502 -0.50221010436E+03  0.42459859552E+03 -0.82100833963E+03  0.10519285433E+04  0.10100000352E+00 0.  1.
</event>
<event>
 5   0  0.7183014E-06  0.2319648E+04  0.7818609E-02  0.8470214E-01
        1   -1    0    0  501    0  0.00000000000E+00  0.00000000000E+00  0.97518481749E+03  0.97518481750E+03  0.50400001928E-02 0.  1.
       -1   -1    0    0    0  501  0.00000000000E+00  0.00000000000E+00 -0.13794226838E+04  0.13794226838E+04  0.50400001928E-02 0. -1.
    10030    2    1    2    0    0  0.00000000000E+00  0.00000000000E+00 -0.40423786633E+03  0.23546075013E+04  0.23196482994E+04 0.  0.
        3    1    3    3  502    0 -0.64911005408E+03  0.52897802020E+03  0.61249076761E+03  0.10374519549E+04  0.10100000352E+00 0.  1.
       -3    1    3    3    0  502  0.64911005408E+03 -0.52897802020E+03 -0.10167286339E+04  0.13171555464E+04  0.10100000352E+00 0. -1.
</event>
<event>
 5   0  0.1626636E-05  0.2298178E+04  0.7818609E-02  0.8478640E-01
       -2   -1    0    0    0  501  0.00000000000E+00  0.00000000000E+00  0.89788923164E+03  0.89788923165E+03  0.25500000920E-02 0. -1.
        2   -1    0    0  501    0  0.00000000000E+00  0.00000000000E+00 -0.14705665716E+04  0.14705665716E+04  0.25500000920E-02 0.  1.
    10030    2    1    2    0    0  0.00000000000E+00  0.00000000000E+00 -0.57267733993E+03  0.23684558032E+04  0.22981783125E+04 0.  0.
        4    1    3    3  502    0 -0.73924875502E+03 -0.30136793714E+02  0.61975556762E+03  0.96514015803E+03  0.12699999809E+01 0. -1.
       -4    1    3    3    0  502  0.73924875502E+03  0.30136793714E+02 -0.11924329075E+04  0.14033156452E+04  0.12699999809E+01 0.  1.
</event>
<event>
 5   0  0.1697855E-05  0.2252894E+04  0.7818609E-02  0.8496730E-01
        2   -1    0    0  501    0  0.00000000000E+00  0.00000000000E+00  0.93954239885E+03  0.93954239885E+03  0.25500000920E-02 0.  1.
       -2   -1    0    0    0  501  0.00000000000E+00  0.00000000000E+00 -0.13505322889E+04  0.13505322889E+04  0.25500000920E-02 0. -1.
    10030    2    1    2    0    0  0.00000000000E+00  0.00000000000E+00 -0.41098989010E+03  0.22900746878E+04  0.22528935585E+04 0.  0.
        5    1    3    3  502    0  0.59907134117E+03  0.30618639259E+03  0.71286634136E+03  0.98022297946E+03  0.46999998093E+01 0.  1.
       -5    1    3    3    0  502 -0.59907134117E+03 -0.30618639259E+03 -0.11238562315E+04  0.13098517083E+04  0.46999998093E+01 0. -1.
</event>
<event>
 5   0  0.7202572E-06  0.2293042E+04  0.7818609E-02  0.8480670E-01
       -1   -1    0    0    0  501  0.00000000000E+00  0.00000000000E+00  0.42147554410E+03  0.42147554413E+03  0.50400001928E-02 0. -1.
        1   -1    0    0  501    0  0.00000000000E+00  0.00000000000E+00 -0.31188292357E+04  0.31188292357E+04  0.50400001928E-02 0.  1.
    10030    2    1    2    0    0  0.00000000000E+00  0.00000000000E+00 -0.26973536916E+04  0.35403047798E+04  0.22930418654E+04 0.  0.
        2    1    3    3  502    0 -0.48229299790E+03 -0.12824865865E+03 -0.29423396122E+04  0.29843620169E+04  0.25500000920E-02 0.  1.
       -2    1    3    3    0  502  0.48229299790E+03  0.12824865865E+03  0.24498592067E+03  0.55594276288E+03  0.25500000920E-02 0. -1.
</event>
<event>
 5   0  0.7416556E-06  0.2420064E+04  0.7818609E-02  0.8432030E-01
        1   -1    0    0  501    0  0.00000000000E+00  0.00000000000E+00  0.98059549149E+03  0.98059549150E+03  0.50400001928E-02 0. -1.
       -1   -1    0    0    0  501  0.00000000000E+00  0.00000000000E+00 -0.14931517091E+04  0.14931517091E+04  0.50400001928E-02 0.  1.
    10030    2    1    2    0    0  0.00000000000E+00  0.00000000000E+00 -0.51255621764E+03  0.24737472006E+04  0.24200643248E+04 0.  0.
        4    1    3    3  502    0 -0.15375287210E+03 -0.10175221796E+04  0.39438326616E+03  0.11020576687E+04  0.12699999809E+01 0. -1.
       -4    1    3    3    0  502  0.15375287210E+03  0.10175221796E+04 -0.90693948380E+03  0.13716895319E+04  0.12699999809E+01 0.  1.
</event>
<event>
 5   0  0.7183014E-06  0.2304956E+04  0.7818609E-02  0.8475969E-01
       -1   -1    0    0    0  501  0.00000000000E+00  0.00000000000E+00  0.15719116557E+04  0.15719116557E+04  0.50400001928E-02 0.  1.
        1   -1    0    0  501    0  0.00000000000E+00  0.00000000000E+00 -0.84496228414E+03  0.84496228416E+03  0.50400001928E-02 0. -1.
    10030    2    1    2    0    0  0.00000000000E+00  0.00000000000E+00  0.72694937154E+03  0.24168739398E+04  0.23049564535E+04 0.  0.
        3    1    3    3  502    0  0.93981728453E+02 -0.11069487266E+02  0.15678309684E+04  0.15706842631E+04  0.10100000352E+00 0.  1.
       -3    1    3    3    0  502 -0.93981728453E+02  0.11069487266E+02 -0.84088159685E+03  0.84618967670E+03  0.10100000352E+00 0. -1.
</event>
<event>
 5   0  0.7278815E-06  0.2304166E+04  0.7818609E-02  0.8476280E-01
       -1   -1    0    0    0  501  0.00000000000E+00  0.00000000000E+00  0.10073125877E+04  0.10073125877E+04  0.50400001928E-02 0.  1.
        1   -1    0    0  501    0  0.00000000000E+00  0.00000000000E+00 -0.13176598853E+04  0.13176598853E+04  0.50400001928E-02 0. -1.
    10030    2    1    2    0    0  0.00000000000E+00  0.00000000000E+00 -0.31034729761E+03  0.23249724730E+04  0.23041661301E+04 0.  0.
        5    1    3    3  502    0  0.87249364248E+03 -0.10419995928E+03  0.59665214539E+03  0.10621293049E+04  0.46999998093E+01 0.  1.
       -5    1    3    3    0  502 -0.87249364248E+03  0.10419995928E+03 -0.90699944299E+03  0.12628431681E+04  0.46999998093E+01 0. -1.
</event>
<event>
 5   0  0.1588969E-05  0.2352646E+04  0.7818609E-02  0.8457448E-01
        2   -1    0    0  501    0  0.00000000000E+00  0.00000000000E+00  0.94595446724E+03  0.94595446724E+03  0.25500000920E-02 0.  1.
       -2   -1    0    0    0  501  0.00000000000E+00  0.00000000000E+00 -0.14627936904E+04  0.14627936904E+04  0.25500000920E-02 0. -1.
    10030    2    1    2    0    0  0.00000000000E+00  0.00000000000E+00 -0.51683922318E+03  0.24087481577E+04  0.23526463619E+04 0.  0.
        1    1    3    3  502    0 -0.85268474348E+03  0.44145616266E+03 -0.95416921505E+03  0.13536593760E+04  0.50400001928E-02 0. -1.
       -1    1    3    3    0  502  0.85268474348E+03 -0.44145616266E+03  0.43732999187E+03  0.10550887816E+04  0.50400001928E-02 0.  1.
</event>
<event>
 5   0  0.7391007E-06  0.2314918E+04  0.7818609E-02  0.8472062E-01
       -1   -1    0    0    0  501  0.00000000000E+00  0.00000000000E+00  0.12863043614E+04  0.12863043614E+04  0.50400001928E-02 0.  1.
        1   -1    0    0  501    0  0.00000000000E+00  0.00000000000E+00 -0.10415199976E+04  0.10415199976E+04  0.50400001928E-02 0. -1.
    10030    2    1    2    0    0  0.00000000000E+00  0.00000000000E+00  0.24478436383E+03  0.23278243590E+04  0.23149183272E+04 0.  0.
        1    1    3    3  502    0  0.82407599479E+03  0.79525454963E+02  0.93578139039E+03  0.12494448182E+04  0.50400001928E-02 0.  1.
       -1    1    3    3    0  502 -0.82407599479E+03 -0.79525454963E+02 -0.69099702656E+03  0.10783795408E+04  0.50400001928E-02 0. -1.
</event>
<event>
 5   0  0.1588969E-05  0.2308729E+04  0.7818609E-02  0.8474487E-01
       -2   -1    0    0    0  501  0.00000000000E+00  0.00000000000E+00  0.17811400668E+04  0.17811400668E+04  0.25500000920E-02 0.  1.
        2   -1    0    0  501    0  0.00000000000E+00  0.00000000000E+00 -0.74814880351E+03  0.74814880351E+03  0.25500000920E-02 0. -1.
    10030    2    1    2    0    0  0.00000000000E+00  0.00000000000E+00  0.10329912633E+04  0.25292888703E+04  0.23087293560E+04 0.  0.
        1    1    3    3  502    0  0.29355874948E+03  0.17435938158E+02  0.17394150977E+04  0.17640990996E+04  0.50400001928E-02 0.  1.
       -1    1    3    3    0  502 -0.29355874948E+03 -0.17435938158E+02 -0.70642383438E+03  0.76518977067E+03  0.50400001928E-02 0. -1.
</event>
<event>
 5   0  0.7183014E-06  0.2294598E+04  0.7818609E-02  0.8480054E-01
        1   -1    0    0  501    0  0.00000000000E+00  0.00000000000E+00  0.22664566190E+04  0.22664566190E+04  0.50400001928E-02 0.  1.
       -1   -1    0    0    0  501  0.00000000000E+00  0.00000000000E+00 -0.58077223471E+03  0.58077223473E+03  0.50400001928E-02 0. -1.
    10030    2    1    2    0    0  0.00000000000E+00  0.00000000000E+00  0.16856843843E+04  0.28472288538E+04  0.22945980699E+04 0.  0.
        3    1    3    3  502    0 -0.38475259550E+03  0.61344893891E+03 -0.26139441346E+03  0.76985791545E+03  0.10100000352E+00 0. -1.
       -3    1    3    3    0  502  0.38475259550E+03 -0.61344893891E+03  0.19470787978E+04  0.20773709383E+04  0.10100000352E+00 0.  1.
</event>
<event>
 5   0  0.7202572E-06  0.2318008E+04  0.7818609E-02  0.8470855E-01
        1   -1    0    0  501    0  0.00000000000E+00  0.00000000000E+00  0.15558778451E+04  0.15558778451E+04  0.50400001928E-02 0.  1.
       -1   -1    0    0    0  501  0.00000000000E+00  0.00000000000E+00 -0.86336464730E+03  0.86336464732E+03  0.50400001928E-02 0. -1.
    10030    2    1    2    0    0  0.00000000000E+00  0.00000000000E+00  0.69251319782E+03  0.24192424925E+04  0.23180077023E+04 0.  0.
        2    1    3    3  502    0 -0.36458455370E+03  0.57169342927E+03  0.13272731196E+04  0.14904392667E+04  0.25500000920E-02 0.  1.
       -2    1    3    3    0  502  0.36458455370E+03 -0.57169342927E+03 -0.63475992174E+03  0.92880322573E+03  0.25500000920E-02 0. -1.
</event>
<event>
 5   0  0.7278815E-06  0.2299997E+04  0.7818609E-02  0.8477922E-01
       -1   -1    0    0    0  501  0.00000000000E+00  0.00000000000E+00  0.11080877117E+04  0.11080877118E+04  0.50400001928E-02 0.  1.
        1   -1    0    0  501    0  0.00000000000E+00  0.00000000000E+00 -0.11934947717E+04  0.11934947717E+04  0.50400001928E-02 0. -1.
    10030    2    1    2    0    0  0.00000000000E+00  0.00000000000E+00 -0.85407059929E+02  0.23015824834E+04  0.22999972961E+04 0.  0.
        5    1    3    3  502    0 -0.66746186695E+03 -0.89817124756E+02 -0.97549529161E+03  0.11854052529E+04  0.46999998093E+01 0. -1.
       -5    1    3    3    0  502  0.66746186695E+03  0.89817124756E+02  0.89008823168E+03  0.11161772305E+04  0.46999998093E+01 0.  1.
</event>
<event>
 5   0  0.1697855E-05  0.2311861E+04  0.7818609E-02  0.8473259E-01
        2   -1    0    0  501    0  0.00000000000E+00  0.00000000000E+00  0.13476178084E+04  0.13476178084E+04  0.25500000920E-02 0. -1.
       -2   -1    0    0    0  501  0.00000000000E+00  0.00000000000E+00 -0.99150893930E+03  0.99150893931E+03  0.25500000920E-02 0.  1.
    10030    2    1    2    0    0  0.00000000000E+00  0.00000000000E+00  0.35610886913E+03  0.23391267477E+04  0.23118608123E+04 0.  0.
        5    1    3    3  502    0  0.74382777592E+03 -0.66853068857E+03 -0.40838465728E+03  0.10802838331E+04  0.46999998093E+01 0.  1.
       -5    1    3    3    0  502 -0.74382777592E+03  0.66853068857E+03  0.76449352641E+03  0.12588429146E+04  0.46999998093E+01 0. -1.
</event>
<event>
 5   0  0.1697855E-05  0.2290966E+04  0.7818609E-02  0.8481492E-01
        2   -1    0    0  501    0  0.00000000000E+00  0.00000000000E+00  0.19535273020E+04  0.19535273020E+04  0.25500000920E-02 0.  1.
       -2   -1    0    0    0  501  0.00000000000E+00  0.00000000000E+00 -0.67167302745E+03  0.67167302746E+03  0.25500000920E-02 0. -1.
    10030    2    1    2    0    0  0.00000000000E+00  0.00000000000E+00  0.12818542746E+04  0.26252003295E+04  0.22909662566E+04 0.  0.
        5    1    3    3  502    0  0.16966693271E+03  0.18290646664E+03 -0.64015155675E+03  0.68706458882E+03  0.46999998093E+01 0. -1.
       -5    1    3    3    0  502 -0.16966693271E+03 -0.18290646664E+03  0.19220058313E+04  0.19381357407E+04  0.46999998093E+01 0.  1.
</event>
<event>
 5   0  0.1697855E-05  0.2297500E+04  0.7818609E-02  0.8478908E-01
        2   -1    0    0  501    0  0.00000000000E+00  0.00000000000E+00  0.11720711437E+04  0.11720711437E+04  0.25500000920E-02 0. -1.
       -2   -1    0    0    0  501  0.00000000000E+00  0.00000000000E+00 -0.11258927922E+04  0.11258927922E+04  0.25500000920E-02 0.  1.
    10030    2    1    2    0    0  0.00000000000E+00  0.00000000000E+00  0.46178351563E+02  0.22979639359E+04  0.22974999044E+04 0.  0.
        5    1    3    3  502    0  0.20594225130E+03  0.29941150150E+03 -0.10668762620E+04  0.11270787490E+04  0.46999998093E+01 0.  1.
       -5    1    3    3    0  502 -0.20594225130E+03 -0.29941150150E+03  0.11130546135E+04  0.11708851869E+04  0.46999998093E+01 0. -1.
</event>
<event>
 5   0  0.7416556E-06  0.2221093E+04  0.7818609E-02  0.8509700E-01
       -1   -1    0    0    0  501  0.00000000000E+00  0.00000000000E+00  0.56713436148E+03  0.56713436150E+03  0.50400001928E-02 0.  1.
        1   -1    0    0  501    0  0.00000000000E+00  0.00000000000E+00 -0.21746400832E+04  0.21746400832E+04  0.50400001928E-02 0. -1.
    10030    2    1    2    0    0  0.00000000000E+00  0.00000000000E+00 -0.16075057217E+04  0.27417744447E+04  0.22210926276E+04 0.  0.
        4    1    3    3  502    0 -0.44679971302E+03 -0.28926058382E+03  0.39942298265E+03  0.66546374873E+03  0.12699999809E+01 0.  1.
       -4    1    3    3    0  502  0.44679971302E+03  0.28926058382E+03 -0.20069287043E+04  0.20763106960E+04  0.12699999809E+01 0. -1.
</event>
<event>
 5   0  0.1635955E-05  0.2301232E+04  0.7818609E-02  0.8477436E-01
        2   -1    0    0  501    0  0.00000000000E+00  0.00000000000E+00  0.87388406427E+03  0.87388406427E+03  0.25500000920E-02 0. -1.
       -2   -1    0    0    0  501  0.00000000000E+00  0.00000000000E+00 -0.15149799824E+04  0.15149799824E+04  0.25500000920E-02 0.  1.
    10030    2    1    2    0    0  0.00000000000E+00  0.00000000000E+00 -0.64109591813E+03  0.23888640467E+04  0.23012317261E+04 0.  0.
        2    1    3    3  502    0  0.87699126805E+03 -0.46266516062E+03  0.28541387635E+03  0.10318109400E+04  0.25500000920E-02 0. -1.
       -2    1    3    3    0  502 -0.87699126805E+03  0.46266516062E+03 -0.92650979448E+03  0.13570531067E+04  0.25500000920E-02 0.  1.
</event>
<event>
 5   0  0.1602809E-05  0.2296809E+04  0.7818609E-02  0.8479181E-01
       -2   -1    0    0    0  501  0.00000000000E+00  0.00000000000E+00  0.19831569417E+04  0.19831569417E+04  0.25500000920E-02 0. -1.
        2   -1    0    0  501    0  0.00000000000E+00  0.00000000000E+00 -0.66501663154E+03  0.66501663154E+03  0.25500000920E-02 0.  1.
    10030    2    1    2    0    0  0.00000000000E+00  0.00000000000E+00  0.13181403102E+04  0.26481735733E+04  0.22968085242E+04 0.  0.
        3    1    3    3  502    0  0.11232695864E+04  0.18981905889E+03  0.82641712471E+03  0.14073844937E+04  0.10100000352E+00 0.  1.
       -3    1    3    3    0  502 -0.11232695864E+04 -0.18981905889E+03  0.49172318550E+03  0.12407890796E+04  0.10100000352E+00 0. -1.
</event>
<event>
 5   0  0.7183014E-06  0.2303194E+04  0.7818609E-02  0.8476663E-01
        1   -1    0    0  501    0  0.00000000000E+00  0.00000000000E+00  0.77867954098E+03  0.77867954100E+03  0.50400001928E-02 0. -1.
       -1   -1    0    0    0  501  0.00000000000E+00  0.00000000000E+00 -0.17031086884E+04  0.17031086884E+04  0.50400001928E-02 0.  1.
    10030    2    1    2    0    0  0.00000000000E+00  0.00000000000E+00 -0.92442914745E+03  0.24817882294E+04  0.23031942096E+04 0.  0.
        3    1    3    3  502    0 -0.55118551763E+02  0.90714646552E+03 -0.12243217295E+04  0.15247676781E+04  0.10100000352E+00 0.  1.
       -3    1    3    3    0  502  0.55118551763E+02 -0.90714646552E+03  0.29989258207E+03  0.95702055131E+03  0.10100000352E+00 0. -1.
</event>
<event>
 5   0  0.1602809E-05  0.2286419E+04  0.7818609E-02  0.8483295E-01
       -2   -1    0    0    0  501  0.00000000000E+00  0.00000000000E+00  0.48924896782E+03  0.48924896783E+03  0.25500000920E-02 0. -1.
        2   -1    0    0  501    0  0.00000000000E+00  0.00000000000E+00 -0.26712939516E+04  0.26712939516E+04  0.25500000920E-02 0.  1.
    10030    2    1    2    0    0  0.00000000000E+00  0.00000000000E+00 -0.21820449838E+04  0.31605429195E+04  0.22864188668E+04 0.  0.
        3    1    3    3  502    0 -0.77559244098E+03  0.75878537414E+03 -0.15887101240E+04  0.19238759697E+04  0.10100000352E+00 0. -1.
       -3    1    3    3    0  502  0.77559244098E+03 -0.75878537414E+03 -0.59333485980E+03  0.12366669497E+04  0.10100000352E+00 0.  1.
</event>
<event>
 5   0  0.7416556E-06  0.2291568E+04  0.7818609E-02  0.8481253E-01
       -1   -1    0    0    0  501  0.00000000000E+00  0.00000000000E+00  0.67030547724E+03  0.67030547726E+03  0.50400001928E-02 0.  1.
        1   -1    0    0  501    0  0.00000000000E+00  0.00000000000E+00 -0.19585411070E+04  0.19585411070E+04  0.50400001928E-02 0. -1.
    10030    2    1    2    0    0  0.00000000000E+00  0.00000000000E+00 -0.12882356298E+04  0.26288465843E+04  0.22915678750E+04 0.  0.
        4    1    3    3  502    0  0.21973008330E+03  0.11184511304E+04 -0.51031001202E+03  0.12488523379E+04  0.12699999809E+01 0. -1.
       -4    1    3    3    0  502 -0.21973008330E+03 -0.11184511304E+04 -0.77792561774E+03  0.13799942464E+04  0.12699999809E+01 0.  1.
</event>
<event>
 5   0  0.1697855E-05  0.2301775E+04  0.7818609E-02  0.8477221E-01
       -2   -1    0    0    0  501  0.00000000000E+00  0.00000000000E+00  0.73728504514E+03  0.73728504515E+03  0.25500000920E-02 0.  1.
        2   -1    0    0  501    0  0.00000000000E+00  0.00000000000E+00 -0.17965134628E+04  0.17965134628E+04  0.25500000920E-02 0. -1.
    10030    2    1    2    0    0  0.00000000000E+00  0.00000000000E+00 -0.10592284176E+04  0.25337985079E+04  0.23017754100E+04 0.  0.
        5    1    3    3  502    0  0.89890974387E+03 -0.53731998164E+03 -0.42549749324E+01  0.10472782272E+04  0.46999998093E+01 0.  1.
       -5    1    3    3    0  502 -0.89890974387E+03  0.53731998164E+03 -0.10549734427E+04  0.14865202807E+04  0.46999998093E+01 0. -1.
</event>
<event>
 5   0  0.7183014E-06  0.2305917E+04  0.7818609E-02  0.8475592E-01
        1   -1    0    0  501    0  0.00000000000E+00  0.00000000000E+00  0.93785074245E+03  0.93785074246E+03  0.50400001928E-02 0. -1.
       -1   -1    0    0    0  501  0.00000000000E+00  0.00000000000E+00 -0.14174039532E+04  0.14174039532E+04  0.50400001928E-02 0.  1.
    10030    2    1    2    0    0  0.00000000000E+00  0.00000000000E+00 -0.47955321072E+03  0.23552546956E+04  0.23059170409E+04 0.  0.
        3    1    3    3  502    0  0.10348358509E+02  0.40850426155E+03 -0.13409583934E+04  0.14018388792E+04  0.10100000352E+00 0.  1.
       -3    1    3    3    0  502 -0.10348358509E+02 -0.40850426155E+03  0.86140518264E+03  0.95341581647E+03  0.10100000352E+00 0. -1.
</event>
<event>
 5   0  0.1635955E-05  0.2299875E+04  0.7818609E-02  0.8477971E-01
       -2   -1    0    0    0  501  0.00000000000E+00  0.00000000000E+00  0.84701158503E+03  0.84701158503E+03  0.25500000920E-02 0.  1.
        2   -1    0    0  501    0  0.00000000000E+00  0.00000000000E+00 -0.15612017253E+04  0.15612017253E+04  0.25500000920E-02 0. -1.
    10030    2    1    2    0    0  0.00000000000E+00  0.00000000000E+00 -0.71419014028E+03  0.24082133103E+04  0.22998747339E+04 0.  0.
        2    1    3    3  502    0 -0.86100015213E+03 -0.32893412769E+03 -0.10771183008E+04  0.14176398542E+04  0.25500000920E-02 0. -1.
       -2    1    3    3    0  502  0.86100015213E+03  0.32893412769E+03  0.36292816050E+03  0.99057345615E+03  0.25500000920E-02 0.  1.
</event>
<event>
 5   0  0.7278815E-06  0.2303289E+04  0.7818609E-02  0.8476625E-01
        1   -1    0    0  501    0  0.00000000000E+00  0.00000000000E+00  0.30681445997E+04  0.30681445997E+04  0.50400001928E-02 0. -1.
       -1   -1    0    0    0  501  0.00000000000E+00  0.00000000000E+00 -0.43227590619E+03  0.43227590622E+03  0.50400001928E-02 0.  1.
    10030    2    1    2    0    0  0.00000000000E+00  0.00000000000E+00  0.26358686935E+04  0.35004205059E+04  0.23032889417E+04 0.  0.
        5    1    3    3  502    0 -0.37848759568E+03  0.10798860516E+04  0.15152452225E+04  0.18987882765E+04  0.46999998093E+01 0. -1.
       -5    1    3    3    0  502  0.37848759568E+03 -0.10798860516E+04  0.11206234709E+04  0.16016322294E+04  0.46999998093E+01 0.  1.
</event>
<event>
 5   0  0.7202572E-06  0.2301485E+04  0.7818609E-02  0.8477336E-01
       -1   -1    0    0    0  501  0.00000000000E+00  0.00000000000E+00  0.73446574432E+03  0.73446574434E+03  0.50400001928E-02 0.  1.
        1   -1    0    0  501    0  0.00000000000E+00  0.00000000000E+00 -0.18029542823E+04  0.18029542823E+04  0.50400001928E-02 0. -1.
    10030    2    1    2    0    0  0.00000000000E+00  0.00000000000E+00 -0.10684885380E+04  0.25374200267E+04  0.23014848763E+04 0.  0.
        2    1    3    3  502    0  0.10314423632E+03  0.72954561543E+03 -0.15087899835E+04  0.16790839029E+04  0.25500000920E-02 0. -1.
       -2    1    3    3    0  502 -0.10314423632E+03 -0.72954561543E+03  0.44030144553E+03  0.85833612380E+03  0.25500000920E-02 0.  1.
</event>
<event>
 5   0  0.7278815E-06  0.2313071E+04  0.7818609E-02  0.8472785E-01
       -1   -1    0    0    0  501  0.00000000000E+00  0.00000000000E+00  0.30479577695E+04  0.30479577695E+04  0.50400001928E-02 0.  1.
        1   -1    0    0  501    0  0.00000000000E+00  0.00000000000E+00 -0.43884263106E+03  0.43884263109E+03  0.50400001928E-02 0. -1.
    10030    2    1    2    0    0  0.00000000000E+00  0.00000000000E+00  0.26091151385E+04  0.34868004006E+04  0.23130705195E+04 0.  0.
        5    1    3    3  502    0  0.16894695391E+03 -0.49442247881E+03 -0.25077145764E+03  0.57957318326E+03  0.46999998093E+01 0. -1.
       -5    1    3    3    0  502 -0.16894695391E+03  0.49442247881E+03  0.28598865961E+04  0.29072272174E+04  0.46999998093E+01 0.  1.
</event>
<event>
 5   0  0.1602809E-05  0.2307789E+04  0.7818609E-02  0.8474856E-01
        2   -1    0    0  501    0  0.00000000000E+00  0.00000000000E+00  0.10688606634E+04  0.10688606634E+04  0.25500000920E-02 0.  1.
       -2   -1    0    0    0  501  0.00000000000E+00  0.00000000000E+00 -0.12456936734E+04  0.12456936734E+04  0.25500000920E-02 0. -1.
    10030    2    1    2    0    0  0.00000000000E+00  0.00000000000E+00 -0.17683300993E+03  0.23145543368E+04  0.23077893891E+04 0.  0.
        3    1    3    3  502    0 -0.10588236259E+04 -0.38552798305E+03  0.16077441864E+03  0.11382388679E+04  0.10100000352E+00 0. -1.
       -3    1    3    3    0  502  0.10588236259E+04  0.38552798305E+03 -0.33760742858E+03  0.11763154689E+04  0.10100000352E+00 0.  1.
</event>
<event>
 5   0  0.7278815E-06  0.2296668E+04  0.7818609E-02  0.8479236E-01
        1   -1    0    0  501    0  0.00000000000E+00  0.00000000000E+00  0.12169820667E+04  0.12169820668E+04  0.50400001928E-02 0.  1.
       -1   -1    0    0    0  501  0.00000000000E+00  0.00000000000E+00 -0.10835581485E+04  0.10835581485E+04  0.50400001928E-02 0. -1.
    10030    2    1    2    0    0  0.00000000000E+00  0.00000000000E+00  0.13342391828E+03  0.23005402152E+04  0.22966678776E+04 0.  0.
        5    1    3    3  502    0  0.45580214987E+03  0.68754116460E+03  0.86692076739E+03  0.11966796396E+04  0.46999998093E+01 0.  1.
       -5    1    3    3    0  502 -0.45580214987E+03 -0.68754116460E+03 -0.73349684910E+03  0.11038605757E+04  0.46999998093E+01 0. -1.
</event>
<event>
 5   0  0.1588969E-05  0.2222607E+04  0.7818609E-02  0.8509077E-01
       -2   -1    0    0    0  501  0.00000000000E+00  0.00000000000E+00  0.15439670598E+04  0.15439670598E+04  0.25500000920E-02 0. -1.
        2   -1    0    0  501    0  0.00000000000E+00  0.00000000000E+00 -0.79988469868E+03  0.79988469868E+03  0.25500000920E-02 0.  1.
    10030    2    1    2    0    0  0.00000000000E+00  0.00000000000E+00  0.74408236110E+03  0.23438517585E+04  0.22226071415E+04 0.  0.
        1    1    3    3  502    0 -0.32674045304E+03 -0.10450467680E+04  0.57244341451E+03  0.12355458445E+04  0.50400001928E-02 0. -1.
       -1    1    3    3    0  502  0.32674045304E+03  0.10450467680E+04  0.17163894659E+03  0.11083059140E+04  0.50400001928E-02 0.  1.
</event>
<event>
 5   0  0.1697855E-05  0.2300198E+04  0.7818609E-02  0.8477843E-01
       -2   -1    0    0    0  501  0.00000000000E+00  0.00000000000E+00  0.17568700124E+04  0.17568700124E+04  0.25500000920E-02 0. -1.
        2   -1    0    0  501    0  0.00000000000E+00  0.00000000000E+00 -0.75288883477E+03  0.75288883477E+03  0.25500000920E-02 0.  1.
    10030    2    1    2    0    0  0.00000000000E+00  0.00000000000E+00  0.10039811776E+04  0.25097588471E+04  0.23001980927E+04 0.  0.
        5    1    3    3  502    0  0.90764221043E+03 -0.70620416605E+03  0.51609163052E+03  0.12605202765E+04  0.46999998093E+01 0. -1.
       -5    1    3    3    0  502 -0.90764221043E+03  0.70620416605E+03  0.48788954709E+03  0.12492385707E+04  0.46999998093E+01 0.  1.
</event>
<event>
 5   0  0.1697855E-05  0.2295524E+04  0.7818609E-02  0.8479688E-01
        2   -1    0    0  501    0  0.00000000000E+00  0.00000000000E+00  0.86643940940E+03  0.86643940941E+03  0.25500000920E-02 0. -1.
       -2   -1    0    0    0  501  0.00000000000E+00  0.00000000000E+00 -0.15204260873E+04  0.15204260873E+04  0.25500000920E-02 0.  1.
    10030    2    1    2    0    0  0.00000000000E+00  0.00000000000E+00 -0.65398667788E+03  0.23868654967E+04  0.22955235404E+04 0.  0.
        5    1    3    3  502    0  0.79247017758E+03  0.10407144370E+03  0.52949127866E+03  0.95876115479E+03  0.46999998093E+01 0. -1.
       -5    1    3    3    0  502 -0.79247017758E+03 -0.10407144370E+03 -0.11834779565E+04  0.14281043419E+04  0.46999998093E+01 0.  1.
</event>
<event>
 5   0  0.7278815E-06  0.2293589E+04  0.7818609E-02  0.8480453E-01
        1   -1    0    0  501    0  0.00000000000E+00  0.00000000000E+00  0.10375435079E+04  0.10375435079E+04  0.50400001928E-02 0. -1.
       -1   -1    0    0    0  501  0.00000000000E+00  0.00000000000E+00 -0.12675489520E+04  0.12675489520E+04  0.50400001928E-02 0.  1.
    10030    2    1    2    0    0  0.00000000000E+00  0.00000000000E+00 -0.23000544407E+03  0.23050924600E+04  0.22935886171E+04 0.  0.
        5    1    3    3  502    0 -0.43882384335E+02  0.34097688054E+03  0.98452491345E+03  0.10428337796E+04  0.46999998093E+01 0. -1.
       -5    1    3    3    0  502  0.43882384335E+02 -0.34097688054E+03 -0.12145303575E+04  0.12622586803E+04  0.46999998093E+01 0.  1.
</event>
<event>
 5   0  0.7278815E-06  0.2308775E+04  0.7818609E-02  0.8474469E-01
        1   -1    0    0  501    0  0.00000000000E+00  0.00000000000E+00  0.86168391837E+03  0.86168391839E+03  0.50400001928E-02 0. -1.
       -1   -1    0    0    0  501  0.00000000000E+00  0.00000000000E+00 -0.15465185109E+04  0.15465185109E+04  0.50400001928E-02 0.  1.
    10030    2    1    2    0    0  0.00000000000E+00  0.00000000000E+00 -0.68483459249E+03  0.24082024293E+04  0.23087746796E+04 0.  0.
        5    1    3    3  502    0 -0.44310175105E+03 -0.62797746856E+03 -0.12408429161E+04  0.14595917564E+04  0.46999998093E+01 0.  1.
       -5    1    3    3    0  502  0.44310175105E+03  0.62797746856E+03  0.55600832361E+03  0.94861067289E+03  0.46999998093E+01 0. -1.
</event>
<event>
 5   0  0.1697855E-05  0.2304957E+04  0.7818609E-02  0.8475969E-01
        2   -1    0    0  501    0  0.00000000000E+00  0.00000000000E+00  0.16238449304E+04  0.16238449304E+04  0.25500000920E-02 0.  1.
       -2   -1    0    0    0  501  0.00000000000E+00  0.00000000000E+00 -0.81793905322E+03  0.81793905322E+03  0.25500000920E-02 0. -1.
    10030    2    1    2    0    0  0.00000000000E+00  0.00000000000E+00  0.80590587716E+03  0.24417839836E+04  0.23049565592E+04 0.  0.
        5    1    3    3  502    0  0.42553482662E+03 -0.99494996480E+03 -0.17039473506E+02  0.10822743436E+04  0.46999998093E+01 0. -1.
       -5    1    3    3    0  502 -0.42553482662E+03  0.99494996480E+03  0.82294535067E+03  0.13595096400E+04  0.46999998093E+01 0.  1.
</event>
<event>
 5   0  0.7416556E-06  0.2317672E+04  0.7818609E-02  0.8470986E-01
        1   -1    0    0  501    0  0.00000000000E+00  0.00000000000E+00  0.99720050417E+03  0.99720050419E+03  0.50400001928E-02 0.  1.
       -1   -1    0    0    0  501  0.00000000000E+00  0.00000000000E+00 -0.13466703822E+04  0.13466703822E+04  0.50400001928E-02 0. -1.
    10030    2    1    2    0    0  0.00000000000E+00  0.00000000000E+00 -0.34946987800E+03  0.23438708864E+04  0.23176715765E+04 0.  0.
        4    1    3    3  502    0 -0.59006505458E+03  0.34137060843E+03 -0.11224451641E+04  0.13132385238E+04  0.12699999809E+01 0. -1.
       -4    1    3    3    0  502  0.59006505458E+03 -0.34137060843E+03  0.77297528614E+03  0.10306323626E+04  0.12699999809E+01 0.  1.
</event>
<event>
 5   0  0.1588969E-05  0.2302690E+04  0.7818609E-02  0.8476861E-01
        2   -1    0    0  501    0  0.00000000000E+00  0.00000000000E+00  0.17704803780E+04  0.17704803780E+04  0.25500000920E-02 0. -1.
       -2   -1    0    0    0  501  0.00000000000E+00  0.00000000000E+00 -0.74872076475E+03  0.74872076476E+03  0.25500000920E-02 0.  1.
    10030    2    1    2    0    0  0.00000000000E+00  0.00000000000E+00  0.10217596133E+04  0.25192011428E+04  0.23026900987E+04 0.  0.
        1    1    3    3  502    0  0.28684874882E+03  0.75501661393E+03 -0.38679650963E+03  0.89551316679E+03  0.50400001928E-02 0.  1.
       -1    1    3    3    0  502 -0.28684874882E+03 -0.75501661393E+03  0.14085561229E+04  0.16236879760E+04  0.50400001928E-02 0. -1.
</event>
<event>
 5   0  0.7278815E-06  0.2301851E+04  0.7818609E-02  0.8477192E-01
       -1   -1    0    0    0  501  0.00000000000E+00  0.00000000000E+00  0.66278971235E+03  0.66278971237E+03  0.50400001928E-02 0.  1.
        1   -1    0    0  501    0  0.00000000000E+00  0.00000000000E+00 -0.19985661874E+04  0.19985661874E+04  0.50400001928E-02 0. -1.
    10030    2    1    2    0    0  0.00000000000E+00  0.00000000000E+00 -0.13357764750E+04  0.26613558998E+04  0.23018506541E+04 0.  0.
        5    1    3    3  502    0 -0.11457099081E+04  0.49629109740E+02 -0.55524050915E+03  0.12741382794E+04  0.46999998093E+01 0. -1.
       -5    1    3    3    0  502  0.11457099081E+04 -0.49629109740E+02 -0.78053596589E+03  0.13872176203E+04  0.46999998093E+01 0.  1.
</event>
<event>
 5   0  0.7391007E-06  0.2301857E+04  0.7818609E-02  0.8477189E-01
        1   -1    0    0  501    0  0.00000000000E+00  0.00000000000E+00  0.11549432490E+04  0.11549432490E+04  0.50400001928E-02 0. -1.
       -1   -1    0    0    0  501  0.00000000000E+00  0.00000000000E+00 -0.11469272365E+04  0.11469272365E+04  0.50400001928E-02 0.  1.
    10030    2    1    2    0    0  0.00000000000E+00  0.00000000000E+00  0.80160125468E+01  0.23018704855E+04  0.23018565280E+04 0.  0.
        1    1    3    3  502    0  0.18128063953E+03  0.99309356692E+03 -0.54875059499E+03  0.11490103213E+04  0.50400001928E-02 0.  1.
       -1    1    3    3    0  502 -0.18128063953E+03 -0.99309356692E+03  0.55676660753E+03  0.11528601642E+04  0.50400001928E-02 0. -1.
</event>
<event>
 5   0  0.7391007E-06  0.2311816E+04  0.7818609E-02  0.8473277E-01
        1   -1    0    0  501    0  0.00000000000E+00  0.00000000000E+00  0.11266419906E+04  0.11266419907E+04  0.50400001928E-02 0.  1.
       -1   -1    0    0    0  501  0.00000000000E+00  0.00000000000E+00 -0.11859340278E+04  0.11859340278E+04  0.50400001928E-02 0. -1.
    10030    2    1    2    0    0  0.00000000000E+00  0.00000000000E+00 -0.59292037145E+02  0.23125760185E+04  0.23118158005E+04 0.  0.
        1    1    3    3  502    0  0.32713176084E+03 -0.47395070716E+03  0.97292036156E+03  0.11305832529E+04  0.50400001928E-02 0.  1.
       -1    1    3    3    0  502 -0.32713176084E+03  0.47395070716E+03 -0.10322123987E+04  0.11819927656E+04  0.50400001928E-02 0. -1.
</event>
<event>
 5   0  0.7416556E-06  0.2356358E+04  0.7818609E-02  0.8456026E-01
        1   -1    0    0  501    0  0.00000000000E+00  0.00000000000E+00  0.10783467427E+04  0.10783467427E+04  0.50400001928E-02 0.  1.
       -1   -1    0    0    0  501  0.00000000000E+00  0.00000000000E+00 -0.12872532372E+04  0.12872532372E+04  0.50400001928E-02 0. -1.
    10030    2    1    2    0    0  0.00000000000E+00  0.00000000000E+00 -0.20890649452E+03  0.23655999799E+04  0.23563576429E+04 0.  0.
        4    1    3    3  502    0 -0.10499286022E+04 -0.31294950368E+03  0.33062432397E+03  0.11443782234E+04  0.12699999809E+01 0.  1.
       -4    1    3    3    0  502  0.10499286022E+04  0.31294950368E+03 -0.53953081849E+03  0.12212217565E+04  0.12699999809E+01 0. -1.
</event>
<event>
 5   0  0.1626636E-05  0.2311511E+04  0.7818609E-02  0.8473396E-01
       -2   -1    0    0    0  501  0.00000000000E+00  0.00000000000E+00  0.78860328233E+03  0.78860328234E+03  0.25500000920E-02 0.  1.
        2   -1    0    0  501    0  0.00000000000E+00  0.00000000000E+00 -0.16938431576E+04  0.16938431576E+04  0.25500000920E-02 0. -1.
    10030    2    1    2    0    0  0.00000000000E+00  0.00000000000E+00 -0.90523987529E+03  0.24824464400E+04  0.23115105657E+04 0.  0.
        4    1    3    3  502    0 -0.64405800446E+03 -0.85219443329E+03 -0.92652590723E+03  0.14140360444E+04  0.12699999809E+01 0. -1.
       -4    1    3    3    0  502  0.64405800446E+03  0.85219443329E+03  0.21286031941E+02  0.10684103955E+04  0.12699999809E+01 0.  1.
</event>
<event>
 5   0  0.1588969E-05  0.2304046E+04  0.7818609E-02  0.8476327E-01
        2   -1    0    0  501    0  0.00000000000E+00  0.00000000000E+00  0.19647350523E+04  0.19647350523E+04  0.25500000920E-02 0.  1.
       -2   -1    0    0    0  501  0.00000000000E+00  0.00000000000E+00 -0.67548913703E+03  0.67548913704E+03  0.25500000920E-02 0. -1.
    10030    2    1    2    0    0  0.00000000000E+00  0.00000000000E+00  0.12892459152E+04  0.26402241893E+04  0.23040461670E+04 0.  0.
        1    1    3    3  502    0 -0.30039017227E+03  0.91965302036E+03  0.13613066824E+04  0.16700753926E+04  0.50400001928E-02 0.  1.
       -1    1    3    3    0  502  0.30039017227E+03 -0.91965302036E+03 -0.72060767211E+02  0.97014879665E+03  0.50400001928E-02 0. -1.
</event>
<event>
 5   0  0.7416556E-06  0.2296068E+04  0.7818609E-02  0.8479473E-01
       -1   -1    0    0    0  501  0.00000000000E+00  0.00000000000E+00  0.63705601021E+03  0.63705601023E+03  0.50400001928E-02 0. -1.
        1   -1    0    0  501    0  0.00000000000E+00  0.00000000000E+00 -0.20688635496E+04  0.20688635496E+04  0.50400001928E-02 0.  1.
    10030    2    1    2    0    0  0.00000000000E+00  0.00000000000E+00 -0.14318075394E+04  0.27059195599E+04  0.22960679072E+04 0.  0.
        4    1    3    3  502    0  0.36600077407E+03  0.42645697793E+03  0.46386881859E+03  0.72869610566E+03  0.12699999809E+01 0. -1.
       -4    1    3    3    0  502 -0.36600077407E+03 -0.42645697793E+03 -0.18956763580E+04  0.19772234542E+04  0.12699999809E+01 0.  1.
</event>
<event>
 5   0  0.1697855E-05  0.2331853E+04  0.7818609E-02  0.8465467E-01
        2   -1    0    0  501    0  0.00000000000E+00  0.00000000000E+00  0.14380014431E+04  0.14380014431E+04  0.25500000920E-02 0. -1.
       -2   -1    0    0    0  501  0.00000000000E+00  0.00000000000E+00 -0.94532888933E+03  0.94532888934E+03  0.25500000920E-02 0.  1.
    10030    2    1    2    0    0  0.00000000000E+00  0.00000000000E+00  0.49267255377E+03  0.23833303324E+04  0.23318527458E+04 0.  0.
        5    1    3    3  502    0  0.87414213946E+03 -0.58136449118E+02 -0.53997017547E+03  0.10291230282E+04  0.46999998093E+01 0.  1.
       -5    1    3    3    0  502 -0.87414213946E+03  0.58136449118E+02  0.10326427292E+04  0.13542073043E+04  0.46999998093E+01 0. -1.
</event>
<event>
 5   0  0.1602809E-05  0.2282997E+04  0.7818609E-02  0.8484656E-01
        2   -1    0    0  501    0  0.00000000000E+00  0.00000000000E+00  0.14158156965E+04  0.14158156965E+04  0.25500000920E-02 0.  1.
       -2   -1    0    0    0  501  0.00000000000E+00  0.00000000000E+00 -0.92033052771E+03  0.92033052772E+03  0.25500000920E-02 0. -1.
    10030    2    1    2    0    0  0.00000000000E+00  0.00000000000E+00  0.49548516879E+03  0.23361462242E+04  0.22829966335E+04 0.  0.
        3    1    3    3  502    0 -0.23441270751E+03  0.21919106168E+03 -0.87321655523E+03  0.93032317046E+03  0.10100000352E+00 0. -1.
       -3    1    3    3    0  502  0.23441270751E+03 -0.21919106168E+03  0.13687017240E+04  0.14058230538E+04  0.10100000352E+00 0.  1.
</event>
<event>
 5   0  0.1626636E-05  0.2297240E+04  0.7818609E-02  0.8479010E-01
       -2   -1    0    0    0  501  0.00000000000E+00  0.00000000000E+00  0.10197359989E+04  0.10197359989E+04  0.25500000920E-02 0.  1.
        2   -1    0    0  501    0  0.00000000000E+00  0.00000000000E+00 -0.12937941562E+04  0.12937941562E+04  0.25500000920E-02 0. -1.
    10030    2    1    2    0    0  0.00000000000E+00  0.00000000000E+00 -0.27405815736E+03  0.23135301551E+04  0.22972404978E+04 0.  0.
        4    1    3    3  502    0 -0.10471626175E+04  0.45959239010E+03 -0.24527215484E+03  0.11695874295E+04  0.12699999809E+01 0. -1.
       -4    1    3    3    0  502  0.10471626175E+04 -0.45959239010E+03 -0.28786002517E+02  0.11439427255E+04  0.12699999809E+01 0.  1.
</event>
<event>
 5   0  0.1635955E-05  0.2307978E+04  0.7818609E-02  0.8474782E-01
       -2   -1    0    0    0  501  0.00000000000E+00  0.00000000000E+00  0.72961535717E+03  0.72961535717E+03  0.25500000920E-02 0.  1.
        2   -1    0    0  501    0  0.00000000000E+00  0.00000000000E+00 -0.18251946918E+04  0.18251946918E+04  0.25500000920E-02 0. -1.
    10030    2    1    2    0    0  0.00000000000E+00  0.00000000000E+00 -0.10955793346E+04  0.25548100489E+04  0.23079775362E+04 0.  0.
        2    1    3    3  502    0 -0.28616461318E+03 -0.93694816777E+03 -0.12228716053E+04  0.15669004493E+04  0.25500000920E-02 0. -1.
       -2    1    3    3    0  502  0.28616461318E+03  0.93694816777E+03  0.12729227069E+03  0.98790959966E+03  0.25500000920E-02 0.  1.
</event>
<event>
 5   0  0.1635955E-05  0.2257735E+04  0.7818609E-02  0.8494774E-01
       -2   -1    0    0    0  501  0.00000000000E+00  0.00000000000E+00  0.81544585098E+03  0.81544585098E+03  0.25500000920E-02 0.  1.
        2   -1    0    0  501    0  0.00000000000E+00  0.00000000000E+00 -0.15627548269E+04  0.15627548269E+04  0.25500000920E-02 0. -1.
    10030    2    1    2    0    0  0.00000000000E+00  0.00000000000E+00 -0.74730897590E+03  0.23782006779E+04  0.22577350949E+04 0.  0.
        2    1    3    3  502    0 -0.86792425653E+03  0.68057282419E+03 -0.62705206882E+03  0.12687262042E+04  0.25500000920E-02 0. -1.
       -2    1    3    3    0  502  0.86792425653E+03 -0.68057282419E+03 -0.12025690708E+03  0.11094744737E+04  0.25500000920E-02 0.  1.
</event>
<event>
 5   0  0.1635955E-05  0.2287056E+04  0.7818609E-02  0.8483042E-01
        2   -1    0    0  501    0  0.00000000000E+00  0.00000000000E+00  0.30121828376E+04  0.30121828376E+04  0.25500000920E-02 0.  1.
       -2   -1    0    0    0  501  0.00000000000E+00  0.00000000000E+00 -0.43412246100E+03  0.43412246100E+03  0.25500000920E-02 0. -1.
    10030    2    1    2    0    0  0.00000000000E+00  0.00000000000E+00  0.25780603766E+04  0.34463052986E+04  0.22870559472E+04 0.  0.
        2    1    3    3  502    0  0.10260978671E+04  0.31856266160E+03  0.69904093022E+03  0.12818023344E+04  0.25500000920E-02 0. -1.
       -2    1    3    3    0  502 -0.10260978671E+04 -0.31856266160E+03  0.18790194464E+04  0.21645029642E+04  0.25500000920E-02 0.  1.
</event>
<event>
 5   0  0.1602809E-05  0.2304495E+04  0.7818609E-02  0.8476151E-01
       -2   -1    0    0    0  501  0.00000000000E+00  0.00000000000E+00  0.65807584031E+03  0.65807584031E+03  0.25500000920E-02 0. -1.
        2   -1    0    0  501    0  0.00000000000E+00  0.00000000000E+00 -0.20175095519E+04  0.20175095519E+04  0.25500000920E-02 0.  1.
    10030    2    1    2    0    0  0.00000000000E+00  0.00000000000E+00 -0.13594337116E+04  0.26755853922E+04  0.23044949934E+04 0.  0.
        3    1    3    3  502    0  0.73168364270E+03 -0.73856532694E+02  0.35017442044E+03  0.81451695829E+03  0.10100000352E+00 0. -1.
       -3    1    3    3    0  502 -0.73168364270E+03  0.73856532694E+02 -0.17096081320E+04  0.18610684339E+04  0.10100000352E+00 0.  1.
</event>
<event>
 5   0  0.1626636E-05  0.2311937E+04  0.7818609E-02  0.8473229E-01
        2   -1    0    0  501    0  0.00000000000E+00  0.00000000000E+00  0.13415120062E+04  0.13415120062E+04  0.25500000920E-02 0. -1.
       -2   -1    0    0    0  501  0.00000000000E+00  0.00000000000E+00 -0.99608754068E+03  0.99608754068E+03  0.25500000920E-02 0.  1.
    10030    2    1    2    0    0  0.00000000000E+00  0.00000000000E+00  0.34542446554E+03  0.23375995469E+04  0.23119371921E+04 0.  0.
        4    1    3    3  502    0  0.83910655168E+03  0.25373707498E+03 -0.58916312500E+03  0.10562183056E+04  0.12699999809E+01 0.  1.
       -4    1    3    3    0  502 -0.83910655168E+03 -0.25373707498E+03  0.93458759054E+03  0.12813812413E+04  0.12699999809E+01 0. -1.
</event>
<event>
 5   0  0.1588969E-05  0.2301308E+04  0.7818609E-02  0.8477406E-01
        2   -1    0    0  501    0  0.00000000000E+00  0.00000000000E+00  0.17866880603E+04  0.17866880603E+04  0.25500000920E-02 0. -1.
       -2   -1    0    0    0  501  0.00000000000E+00  0.00000000000E+00 -0.74103825092E+03  0.74103825093E+03  0.25500000920E-02 0.  1.
    10030    2    1    2    0    0  0.00000000000E+00  0.00000000000E+00  0.10456498094E+04  0.25277263112E+04  0.23013076241E+04 0.  0.
        1    1    3    3  502    0  0.92646026900E+03 -0.28313403458E+03  0.12048079562E+04  0.15459805054E+04  0.50400001928E-02 0.  1.
       -1    1    3    3    0  502 -0.92646026900E+03  0.28313403458E+03 -0.15915814685E+03  0.98174580585E+03  0.50400001928E-02 0. -1.
</event>
<event>
 5   0  0.7391007E-06  0.2290258E+04  0.7818609E-02  0.8481772E-01
       -1   -1    0    0    0  501  0.00000000000E+00  0.00000000000E+00  0.76860345204E+03  0.76860345206E+03  0.50400001928E-02 0. -1.
        1   -1    0    0  501    0  0.00000000000E+00  0.00000000000E+00 -0.17061078754E+04  0.17061078754E+04  0.50400001928E-02 0.  1.
    10030    2    1    2    0    0  0.00000000000E+00  0.00000000000E+00 -0.93750442334E+03  0.24747113274E+04  0.22902579790E+04 0.  0.
        1    1    3    3  502    0 -0.49914988562E+03  0.81447544341E+03  0.21361392958E+03  0.97885227035E+03  0.50400001928E-02 0. -1.
       -1    1    3    3    0  502  0.49914988562E+03 -0.81447544341E+03 -0.11511183529E+04  0.14958590571E+04  0.50400001928E-02 0.  1.
</event>
<event>
 5   0  0.7183014E-06  0.2292093E+04  0.7818609E-02  0.8481045E-01
       -1   -1    0    0    0  501  0.00000000000E+00  0.00000000000E+00  0.45244776394E+03  0.45244776397E+03  0.50400001928E-02 0. -1.
        1   -1    0    0  501    0  0.00000000000E+00  0.00000000000E+00 -0.29029262207E+04  0.29029262207E+04  0.50400001928E-02 0.  1.
    10030    2    1    2    0    0  0.00000000000E+00  0.00000000000E+00 -0.24504784567E+04  0.33553739847E+04  0.22920929104E+04 0.  0.
        3    1    3    3  502    0  0.25073577515E+03 -0.10791121001E+04 -0.79576468526E+03  0.13640354827E+04  0.10100000352E+00 0. -1.
       -3    1    3    3    0  502 -0.25073577515E+03  0.10791121001E+04 -0.16547137715E+04  0.19913385019E+04  0.10100000352E+00 0.  1.
</event>
<event>
 5   0  0.7391007E-06  0.2435540E+04  0.7818609E-02  0.8426316E-01
        1   -1    0    0  501    0  0.00000000000E+00  0.00000000000E+00  0.10825885901E+04  0.10825885901E+04  0.50400001928E-02 0. -1.
       -1   -1    0    0    0  501  0.00000000000E+00  0.00000000000E+00 -0.13698316023E+04  0.13698316023E+04  0.50400001928E-02 0.  1.
    10030    2    1    2    0    0  0.00000000000E+00  0.00000000000E+00 -0.28724301214E+03  0.24524201924E+04  0.24355402383E+04 0.  0.
        1    1    3    3  502    0 -0.65864062214E+03 -0.86768778604E+03  0.40446197272E+03  0.11620150819E+04  0.50400001928E-02 0. -1.
       -1    1    3    3    0  502  0.65864062214E+03  0.86768778604E+03 -0.69170498487E+03  0.12904051105E+04  0.50400001928E-02 0.  1.
</event>
<event>
 5   0  0.1626636E-05  0.2307060E+04  0.7818609E-02  0.8475143E-01
       -2   -1    0    0    0  501  0.00000000000E+00  0.00000000000E+00  0.71563442164E+03  0.71563442165E+03  0.25500000920E-02 0.  1.
        2   -1    0    0  501    0  0.00000000000E+00  0.00000000000E+00 -0.18593730669E+04  0.18593730669E+04  0.25500000920E-02 0. -1.
    10030    2    1    2    0    0  0.00000000000E+00  0.00000000000E+00 -0.11437386452E+04  0.25750074885E+04  0.23070599206E+04 0.  0.
        4    1    3    3  502    0  0.81353118897E+03  0.53762879222E+03 -0.12596812161E+04  0.15930085037E+04  0.12699999809E+01 0. -1.
       -4    1    3    3    0  502 -0.81353118897E+03 -0.53762879222E+03  0.11594257086E+03  0.98199898487E+03  0.12699999809E+01 0.  1.
</event>
<event>
 5   0  0.1635955E-05  0.2321428E+04  0.7818609E-02  0.8469520E-01
        2   -1    0    0  501    0  0.00000000000E+00  0.00000000000E+00  0.93639748022E+03  0.93639748022E+03  0.25500000920E-02 0. -1.
       -2   -1    0    0    0  501  0.00000000000E+00  0.00000000000E+00 -0.14387656107E+04  0.14387656108E+04  0.25500000920E-02 0.  1.
    10030    2    1    2    0    0  0.00000000000E+00  0.00000000000E+00 -0.50236813053E+03  0.23751630910E+04  0.23214275716E+04 0.  0.
        2    1    3    3  502    0  0.15605564195E+03  0.10189674635E+04  0.29465194419E+03  0.10721323720E+04  0.25500000920E-02 0. -1.
       -2    1    3    3    0  502 -0.15605564195E+03 -0.10189674635E+04 -0.79702007471E+03  0.13030307189E+04  0.25500000920E-02 0.  1.
</event>
<event>
 5   0  0.1635955E-05  0.2297761E+04  0.7818609E-02  0.8478804E-01
       -2   -1    0    0    0  501  0.00000000000E+00  0.00000000000E+00  0.71277528445E+03  0.71277528445E+03  0.25500000920E-02 0. -1.
        2   -1    0    0  501    0  0.00000000000E+00  0.00000000000E+00 -0.18518126911E+04  0.18518126911E+04  0.25500000920E-02 0.  1.
    10030    2    1    2    0    0  0.00000000000E+00  0.00000000000E+00 -0.11390374066E+04  0.25645879755E+04  0.22977609254E+04 0.  0.
        2    1    3    3  502    0  0.70399621001E+03  0.33953126753E+03  0.37030489418E+03  0.86488025761E+03  0.25500000920E-02 0. -1.
       -2    1    3    3    0  502 -0.70399621001E+03 -0.33953126753E+03 -0.15093423008E+04  0.16997077179E+04  0.25500000920E-02 0.  1.
</event>
<event>
 5   0  0.1588969E-05  0.2296767E+04  0.7818609E-02  0.8479197E-01
       -2   -1    0    0    0  501  0.00000000000E+00  0.00000000000E+00  0.89333632308E+03  0.89333632309E+03  0.25500000920E-02 0. -1.
        2   -1    0    0  501    0  0.00000000000E+00  0.00000000000E+00 -0.14762459926E+04  0.14762459926E+04  0.25500000920E-02 0.  1.
    10030    2    1    2    0    0  0.00000000000E+00  0.00000000000E+00 -0.58290966951E+03  0.23695823157E+04  0.22967665680E+04 0.  0.
        1    1    3    3  502    0  0.56241738412E+02 -0.48031713090E+03 -0.13660703257E+04  0.14491431310E+04  0.50400001928E-02 0.  1.
       -1    1    3    3    0  502 -0.56241738412E+02  0.48031713090E+03  0.78316065615E+03  0.92043918471E+03  0.50400001928E-02 0. -1.
</event>
<event>
 5   0  0.1697855E-05  0.2291142E+04  0.7818609E-02  0.8481422E-01
        2   -1    0    0  501    0  0.00000000000E+00  0.00000000000E+00  0.75994702835E+03  0.75994702836E+03  0.25500000920E-02 0.  1.
       -2   -1    0    0    0  501  0.00000000000E+00  0.00000000000E+00 -0.17268749268E+04  0.17268749268E+04  0.25500000920E-02 0. -1.
    10030    2    1    2    0    0  0.00000000000E+00  0.00000000000E+00 -0.96692789846E+03  0.24868219552E+04  0.22911424827E+04 0.  0.
        5    1    3    3  502    0  0.16772070366E+03 -0.87399079963E+03  0.29947584346E+03  0.93898776514E+03  0.46999998093E+01 0.  1.
       -5    1    3    3    0  502 -0.16772070366E+03  0.87399079963E+03 -0.12664037419E+04  0.15478341900E+04  0.46999998093E+01 0. -1.
</event>
<event>
 5   0  0.7202572E-06  0.2340213E+04  0.7818609E-02  0.8462232E-01
        1   -1    0    0  501    0  0.00000000000E+00  0.00000000000E+00  0.95136937901E+03  0.95136937903E+03  0.50400001928E-02 0.  1.
       -1   -1    0    0    0  501  0.00000000000E+00  0.00000000000E+00 -0.14391356697E+04  0.14391356697E+04  0.50400001928E-02 0. -1.
    10030    2    1    2    0    0  0.00000000000E+00  0.00000000000E+00 -0.48776629072E+03  0.23905050488E+04  0.23402133308E+04 0.  0.
        2    1    3    3  502    0  0.69708471013E+03 -0.18773431172E+03  0.69676368587E+03  0.10033199384E+04  0.25500000920E-02 0.  1.
       -2    1    3    3    0  502 -0.69708471013E+03  0.18773431172E+03 -0.11845299766E+04  0.13871851103E+04  0.25500000920E-02 0. -1.
</event>
<event>
 5   0  0.7183014E-06  0.2292049E+04  0.7818609E-02  0.8481063E-01
       -1   -1    0    0    0  501  0.00000000000E+00  0.00000000000E+00  0.82210997945E+03  0.82210997947E+03  0.50400001928E-02 0.  1.
        1   -1    0    0  501    0  0.00000000000E+00  0.00000000000E+00 -0.15975626187E+04  0.15975626187E+04  0.50400001928E-02 0. -1.
    10030    2    1    2    0    0  0.00000000000E+00  0.00000000000E+00 -0.77545263921E+03  0.24196725981E+04  0.22920490149E+04 0.  0.
        3    1    3    3  502    0 -0.85459251058E+03  0.12116000761E+03 -0.11836034174E+04  0.14648976642E+04  0.10100000352E+00 0. -1.
       -3    1    3    3    0  502  0.85459251058E+03 -0.12116000761E+03  0.40815077820E+03  0.95477493397E+03  0.10100000352E+00 0.  1.
</event>
<event>
 5   0  0.7391007E-06  0.2313453E+04  0.7818609E-02  0.8472636E-01
        1   -1    0    0  501    0  0.00000000000E+00  0.00000000000E+00  0.17525609539E+04  0.17525609539E+04  0.50400001928E-02 0. -1.
       -1   -1    0    0    0  501  0.00000000000E+00  0.00000000000E+00 -0.76346360565E+03  0.76346360567E+03  0.50400001928E-02 0.  1.
    10030    2    1    2    0    0  0.00000000000E+00  0.00000000000E+00  0.98909734823E+03  0.25160245596E+04  0.23134532673E+04 0.  0.
        1    1    3    3  502    0 -0.23163661770E+03  0.88955135566E+03  0.12582151964E+04  0.15582241872E+04  0.50400001928E-02 0. -1.
       -1    1    3    3    0  502  0.23163661770E+03 -0.88955135566E+03 -0.26911784822E+03  0.95780037234E+03  0.50400001928E-02 0.  1.
</event>
<event>
 5   0  0.7202572E-06  0.2312238E+04  0.7818609E-02  0.8473111E-01
        1   -1    0    0  501    0  0.00000000000E+00  0.00000000000E+00  0.86046704213E+03  0.86046704214E+03  0.50400001928E-02 0.  1.
       -1   -1    0    0    0  501  0.00000000000E+00  0.00000000000E+00 -0.15533555692E+04  0.15533555692E+04  0.50400001928E-02 0. -1.
    10030    2    1    2    0    0  0.00000000000E+00  0.00000000000E+00 -0.69288852709E+03  0.24138226114E+04  0.23122381123E+04 0.  0.
        2    1    3    3  502    0 -0.11788097808E+03 -0.54068443752E+03  0.71322563290E+03  0.90273273420E+03  0.25500000920E-02 0.  1.
       -2    1    3    3    0  502  0.11788097808E+03  0.54068443752E+03 -0.14061141600E+04  0.15110898772E+04  0.25500000920E-02 0. -1.
</event>
<event>
 5   0  0.1602809E-05  0.2306109E+04  0.7818609E-02  0.8475516E-01
        2   -1    0    0  501    0  0.00000000000E+00  0.00000000000E+00  0.16053446729E+04  0.16053446729E+04  0.25500000920E-02 0.  1.
       -2   -1    0    0    0  501  0.00000000000E+00  0.00000000000E+00 -0.82819251249E+03  0.82819251249E+03  0.25500000920E-02 0. -1.
    10030    2    1    2    0    0  0.00000000000E+00  0.00000000000E+00  0.77715216038E+03  0.24335371854E+04  0.23061087902E+04 0.  0.
        3    1    3    3  502    0 -0.24390789667E+03 -0.10451702233E+04 -0.56215098699E+02  0.10747241531E+04  0.10100000352E+00 0. -1.
       -3    1    3    3    0  502  0.24390789667E+03  0.10451702233E+04  0.83336725908E+03  0.13588130322E+04  0.10100000352E+00 0.  1.
</event>
<event>
 5   0  0.7202572E-06  0.2309089E+04  0.7818609E-02  0.8474346E-01
        1   -1    0    0  501    0  0.00000000000E+00  0.00000000000E+00  0.17845357195E+04  0.17845357195E+04  0.50400001928E-02 0.  1.
       -1   -1    0    0    0  501  0.00000000000E+00  0.00000000000E+00 -0.74695770358E+03  0.74695770360E+03  0.50400001928E-02 0. -1.
    10030    2    1    2    0    0  0.00000000000E+00  0.00000000000E+00  0.10375780159E+04  0.25314934231E+04  0.23090887406E+04 0.  0.
        2    1    3    3  502    0  0.27289446438E+03 -0.77144892281E+03 -0.37413273320E+03  0.89976670935E+03  0.25500000920E-02 0. -1.
       -2    1    3    3    0  502 -0.27289446438E+03  0.77144892281E+03  0.14117107491E+04  0.16317267137E+04  0.25500000920E-02 0.  1.
</event>
<event>
 5   0  0.1697855E-05  0.2350696E+04  0.7818609E-02  0.8458196E-01
        2   -1    0    0  501    0  0.00000000000E+00  0.00000000000E+00  0.14752970394E+04  0.14752970394E+04  0.25500000920E-02 0. -1.
       -2   -1    0    0    0  501  0.00000000000E+00  0.00000000000E+00 -0.93638264362E+03  0.93638264363E+03  0.25500000920E-02 0.  1.
    10030    2    1    2    0    0  0.00000000000E+00  0.00000000000E+00  0.53891439576E+03  0.24116796830E+04  0.23506956773E+04 0.  0.
        5    1    3    3  502    0  0.34362947903E+03 -0.50853910204E+03 -0.75890783015E+03  0.97604119884E+03  0.46999998093E+01 0.  1.
       -5    1    3    3    0  502 -0.34362947903E+03  0.50853910204E+03  0.12978222259E+04  0.14356384842E+04  0.46999998093E+01 0. -1.
</event>
<event>
 5   0  0.1588969E-05  0.2259372E+04  0.7818609E-02  0.8494115E-01
       -2   -1    0    0    0  501  0.00000000000E+00  0.00000000000E+00  0.12470542144E+04  0.12470542144E+04  0.25500000920E-02 0.  1.
        2   -1    0    0  501    0  0.00000000000E+00  0.00000000000E+00 -0.10233638168E+04  0.10233638168E+04  0.25500000920E-02 0. -1.
    10030    2    1    2    0    0  0.00000000000E+00  0.00000000000E+00  0.22369039765E+03  0.22704180312E+04  0.22593717362E+04 0.  0.
        1    1    3    3  502    0  0.45740731556E+03  0.33323503940E+03  0.10943385446E+04  0.12320080738E+04  0.50400001928E-02 0.  1.
       -1    1    3    3    0  502 -0.45740731556E+03 -0.33323503940E+03 -0.87064814691E+03  0.10384099574E+04  0.50400001928E-02 0. -1.
</event>
<event>
 5   0  0.7278815E-06  0.2165778E+04  0.7818609E-02  0.8532809E-01
        1   -1    0    0  501    0  0.00000000000E+00  0.00000000000E+00  0.18839434747E+04  0.18839434747E+04  0.50400001928E-02 0. -1.
       -1   -1    0    0    0  501  0.00000000000E+00  0.00000000000E+00 -0.62244366921E+03  0.62244366923E+03  0.50400001928E-02 0.  1.
    10030    2    1    2    0    0  0.00000000000E+00  0.00000000000E+00  0.12614998055E+04  0.25063871439E+04  0.21657780948E+04 0.  0.
        5    1    3    3  502    0  0.24343265912E+03 -0.68021318037E+01 -0.59033081318E+03  0.63860652010E+03  0.46999998093E+01 0.  1.
       -5    1    3    3    0  502 -0.24343265912E+03  0.68021318037E+01  0.18518306187E+04  0.18677806238E+04  0.46999998093E+01 0. -1.
</event>
<event>
 5   0  0.7183014E-06  0.2289924E+04  0.7818609E-02  0.8481905E-01
       -1   -1    0    0    0  501  0.00000000000E+00  0.00000000000E+00  0.85884291181E+03  0.85884291183E+03  0.50400001928E-02 0.  1.
        1   -1    0    0  501    0  0.00000000000E+00  0.00000000000E+00 -0.15264001219E+04  0.15264001219E+04  0.50400001928E-02 0. -1.
    10030    2    1    2    0    0  0.00000000000E+00  0.00000000000E+00 -0.66755721010E+03  0.23852430337E+04  0.22899239510E+04 0.  0.
        3    1    3    3  502    0 -0.24178925760E+01  0.24185220424E+03 -0.14994871194E+04  0.15188679885E+04  0.10100000352E+00 0. -1.
       -3    1    3    3    0  502  0.24178925760E+01 -0.24185220424E+03  0.83192990930E+03  0.86637504529E+03  0.10100000352E+00 0.  1.
</event>
<event>
 5   0  0.7391007E-06  0.2296220E+04  0.7818609E-02  0.8479413E-01
        1   -1    0    0  501    0  0.00000000000E+00  0.00000000000E+00  0.11209299581E+04  0.11209299581E+04  0.50400001928E-02 0.  1.
       -1   -1    0    0    0  501  0.00000000000E+00  0.00000000000E+00 -0.11759490965E+04  0.11759490965E+04  0.50400001928E-02 0. -1.
    10030    2    1    2    0    0  0.00000000000E+00  0.00000000000E+00 -0.55019138316E+02  0.22968790546E+04  0.22962199995E+04 0.  0.
        1    1    3    3  502    0  0.10170289934E+04  0.51304282880E+03 -0.17106261915E+03  0.11518781782E+04  0.50400001928E-02 0. -1.
       -1    1    3    3    0  502 -0.10170289934E+04 -0.51304282880E+03  0.11604348083E+03  0.11450008765E+04  0.50400001928E-02 0.  1.
</event>
<event>
 5   0  0.7278815E-06  0.2329162E+04  0.7818609E-02  0.8466511E-01
       -1   -1    0    0    0  501  0.00000000000E+00  0.00000000000E+00  0.59467152183E+03  0.59467152185E+03  0.50400001928E-02 0. -1.
        1   -1    0    0  501    0  0.00000000000E+00  0.00000000000E+00 -0.22806686624E+04  0.22806686624E+04  0.50400001928E-02 0.  1.
    10030    2    1    2    0    0  0.00000000000E+00  0.00000000000E+00 -0.16859971406E+04  0.28753401843E+04  0.23291618272E+04 0.  0.
        5    1    3    3  502    0  0.11415849306E+04  0.22742209526E+03 -0.79866571755E+03  0.14116748852E+04  0.46999998093E+01 0. -1.
       -5    1    3    3    0  502 -0.11415849306E+04 -0.22742209526E+03 -0.88733142305E+03  0.14636652990E+04  0.46999998093E+01 0.  1.
</event>
<event>
 5   0  0.1635955E-05  0.2298946E+04  0.7818609E-02  0.8478337E-01
        2   -1    0    0  501    0  0.00000000000E+00  0.00000000000E+00  0.14201859822E+04  0.14201859822E+04  0.25500000920E-02 0.  1.
       -2   -1    0    0    0  501  0.00000000000E+00  0.00000000000E+00 -0.93036310331E+03  0.93036310331E+03  0.25500000920E-02 0. -1.
    10030    2    1    2    0    0  0.00000000000E+00  0.00000000000E+00  0.48982287892E+03  0.23505490855E+04  0.22989464002E+04 0.  0.
        2    1    3    3  502    0  0.26724031670E+03  0.85962423792E+03 -0.48591766508E+03  0.10229795670E+04  0.25500000920E-02 0. -1.
       -2    1    3    3    0  502 -0.26724031670E+03 -0.85962423792E+03  0.97574054399E+03  0.13275695185E+04  0.25500000920E-02 0.  1.
</event>
<event>
 5   0  0.7202572E-06  0.2280016E+04  0.7818609E-02  0.8485843E-01
        1   -1    0    0  501    0  0.00000000000E+00  0.00000000000E+00  0.10650201275E+04  0.10650201275E+04  0.50400001928E-02 0. -1.
       -1   -1    0    0    0  501  0.00000000000E+00  0.00000000000E+00 -0.12202752493E+04  0.12202752493E+04  0.50400001928E-02 0.  1.
    10030    2    1    2    0    0  0.00000000000E+00  0.00000000000E+00 -0.15525512181E+03  0.22852953768E+04  0.22800155277E+04 0.  0.
        2    1    3    3  502    0  0.81672995080E+03  0.61027432248E+03 -0.58884310173E+03  0.11773779171E+04  0.25500000920E-02 0.  1.
       -2    1    3    3    0  502 -0.81672995080E+03 -0.61027432248E+03  0.43358797992E+03  0.11079174597E+04  0.25500000920E-02 0. -1.
</event>
<event>
 5   0  0.1697855E-05  0.2298565E+04  0.7818609E-02  0.8478487E-01
       -2   -1    0    0    0  501  0.00000000000E+00  0.00000000000E+00  0.64133339389E+03  0.64133339390E+03  0.25500000920E-02 0.  1.
        2   -1    0    0  501    0  0.00000000000E+00  0.00000000000E+00 -0.20595369186E+04  0.20595369186E+04  0.25500000920E-02 0. -1.
    10030    2    1    2    0    0  0.00000000000E+00  0.00000000000E+00 -0.14182035247E+04  0.27008703125E+04  0.22985645972E+04 0.  0.
        5    1    3    3  502    0  0.65055681627E+02  0.11133823249E+04 -0.38309799066E+03  0.11792534094E+04  0.46999998093E+01 0. -1.
       -5    1    3    3    0  502 -0.65055681627E+02 -0.11133823249E+04 -0.10351055340E+04  0.15216169031E+04  0.46999998093E+01 0.  1.
</event>
<event>
 5   0  0.7391007E-06  0.2302973E+04  0.7818609E-02  0.8476750E-01
       -1   -1    0    0    0  501  0.00000000000E+00  0.00000000000E+00  0.49280417061E+03  0.49280417063E+03  0.50400001928E-02 0. -1.
        1   -1    0    0  501    0  0.00000000000E+00  0.00000000000E+00 -0.26905649385E+04  0.26905649385E+04  0.50400001928E-02 0.  1.
    10030    2    1    2    0    0  0.00000000000E+00  0.00000000000E+00 -0.21977607679E+04  0.31833691091E+04  0.23029734024E+04 0.  0.
        1    1    3    3  502    0 -0.65506669696E+03 -0.93313140078E+03 -0.87567199101E+03  0.14375840930E+04  0.50400001928E-02 0. -1.
       -1    1    3    3    0  502  0.65506669696E+03  0.93313140078E+03 -0.13220887769E+04  0.17457850161E+04  0.50400001928E-02 0.  1.
</event>
<event>
 5   0  0.1602809E-05  0.2303661E+04  0.7818609E-02  0.8476479E-01
       -2   -1    0    0    0  501  0.00000000000E+00  0.00000000000E+00  0.10478485526E+04  0.10478485526E+04  0.25500000920E-02 0. -1.
        2   -1    0    0  501    0  0.00000000000E+00  0.00000000000E+00 -0.12661308754E+04  0.12661308754E+04  0.25500000920E-02 0.  1.
    10030    2    1    2    0    0  0.00000000000E+00  0.00000000000E+00 -0.21828232284E+03  0.23139794280E+04  0.23036609171E+04 0.  0.
        3    1    3    3  502    0 -0.48972347168E+03 -0.68373780724E+03 -0.89967771630E+03  0.12315626136E+04  0.10100000352E+00 0.  1.
       -3    1    3    3    0  502  0.48972347168E+03  0.68373780724E+03  0.68139539346E+03  0.10824168144E+04  0.10100000352E+00 0. -1.
</event>
<event>
 5   0  0.1697855E-05  0.2286750E+04  0.7818609E-02  0.8483164E-01
       -2   -1    0    0    0  501  0.00000000000E+00  0.00000000000E+00  0.77648104412E+03  0.77648104413E+03  0.25500000920E-02 0.  1.
        2   -1    0    0  501    0  0.00000000000E+00  0.00000000000E+00 -0.16836296225E+04  0.16836296225E+04  0.25500000920E-02 0. -1.
    10030    2    1    2    0    0  0.00000000000E+00  0.00000000000E+00 -0.90714857833E+03  0.24601106666E+04  0.22867500844E+04 0.  0.
        5    1    3    3  502    0 -0.45316288129E+03  0.27684474101E+03 -0.15429011119E+04  0.16317369698E+04  0.46999998093E+01 0. -1.
       -5    1    3    3    0  502  0.45316288129E+03 -0.27684474101E+03  0.63575253354E+03  0.82837369677E+03  0.46999998093E+01 0.  1.
</event>
<event>
 5   0  0.1697855E-05  0.2285600E+04  0.7818609E-02  0.8483620E-01
       -2   -1    0    0    0  501  0.00000000000E+00  0.00000000000E+00  0.60937425237E+03  0.60937425237E+03  0.25500000920E-02 0.  1.
        2   -1    0    0  501    0  0.00000000000E+00  0.00000000000E+00 -0.21431692604E+04  0.21431692604E+04  0.25500000920E-02 0. -1.
    10030    2    1    2    0    0  0.00000000000E+00  0.00000000000E+00 -0.15337950080E+04  0.27525435127E+04  0.22856002850E+04 0.  0.
        5    1    3    3  502    0 -0.48632775125E+03 -0.30795758971E+03 -0.19558130832E+04  0.20387691054E+04  0.46999998093E+01 0. -1.
       -5    1    3    3    0  502  0.48632775125E+03  0.30795758971E+03  0.42201807524E+03  0.71377440731E+03  0.46999998093E+01 0.  1.
</event>
<event>
 5   0  0.1602809E-05  0.2317199E+04  0.7818609E-02  0.8471170E-01
       -2   -1    0    0    0  501  0.00000000000E+00  0.00000000000E+00  0.11717922918E+04  0.11717922918E+04  0.25500000920E-02 0. -1.
        2   -1    0    0  501    0  0.00000000000E+00  0.00000000000E+00 -0.11455555238E+04  0.11455555238E+04  0.25500000920E-02 0.  1.
    10030    2    1    2    0    0  0.00000000000E+00  0.00000000000E+00  0.26236767975E+02  0.23173478156E+04  0.23171992859E+04 0.  0.
        3    1    3    3  502    0 -0.21462737140E+03 -0.62344161905E+02  0.11500295975E+04  0.11715458969E+04  0.10100000352E+00 0. -1.
       -3    1    3    3    0  502  0.21462737140E+03  0.62344161905E+02 -0.11237928295E+04  0.11458019187E+04  0.10100000352E+00 0.  1.
</event>
<event>
 5   0  0.7391007E-06  0.2400824E+04  0.7818609E-02  0.8439195E-01
        1   -1    0    0  501    0  0.00000000000E+00  0.00000000000E+00  0.16348786111E+04  0.16348786111E+04  0.50400001928E-02 0. -1.
       -1   -1    0    0    0  501  0.00000000000E+00  0.00000000000E+00 -0.88140404216E+03  0.88140404218E+03  0.50400001928E-02 0.  1.
    10030    2    1    2    0    0  0.00000000000E+00  0.00000000000E+00  0.75347456890E+03  0.25162826532E+04  0.24008237055E+04 0.  0.
        1    1    3    3  502    0 -0.26896763093E+03  0.25139939247E+03 -0.82077002334E+03  0.89956026605E+03  0.50400001928E-02 0.  1.
       -1    1    3    3    0  502  0.26896763093E+03 -0.25139939247E+03  0.15742445922E+04  0.16167223872E+04  0.50400001928E-02 0. -1.
</event>
<event>
 5   0  0.7416556E-06  0.2305041E+04  0.7818609E-02  0.8475936E-01
       -1   -1    0    0    0  501  0.00000000000E+00  0.00000000000E+00  0.93246171026E+03  0.93246171028E+03  0.50400001928E-02 0.  1.
        1   -1    0    0  501    0  0.00000000000E+00  0.00000000000E+00 -0.14245126595E+04  0.14245126595E+04  0.50400001928E-02 0. -1.
    10030    2    1    2    0    0  0.00000000000E+00  0.00000000000E+00 -0.49205094924E+03  0.23569743698E+04  0.23050410068E+04 0.  0.
        4    1    3    3  502    0  0.20925445501E+03  0.15337752580E+02 -0.14048186600E+04  0.14204012651E+04  0.12699999809E+01 0. -1.
       -4    1    3    3    0  502 -0.20925445501E+03 -0.15337752580E+02  0.91276771078E+03  0.93657310464E+03  0.12699999809E+01 0.  1.
</event>
<event>
 5   0  0.7278815E-06  0.2296789E+04  0.7818609E-02  0.8479188E-01
        1   -1    0    0  501    0  0.00000000000E+00  0.00000000000E+00  0.10657515770E+04  0.10657515770E+04  0.50400001928E-02 0. -1.
       -1   -1    0    0    0  501  0.00000000000E+00  0.00000000000E+00 -0.12374453755E+04  0.12374453755E+04  0.50400001928E-02 0.  1.
    10030    2    1    2    0    0  0.00000000000E+00  0.00000000000E+00 -0.17169379855E+03  0.23031969525E+04  0.22967885061E+04 0.  0.
        5    1    3    3  502    0  0.92978249447E+03 -0.56642086050E+03  0.28049308035E+03  0.11242893473E+04  0.46999998093E+01 0.  1.
       -5    1    3    3    0  502 -0.92978249447E+03  0.56642086050E+03 -0.45218687890E+03  0.11789076052E+04  0.46999998093E+01 0. -1.
</event>
<event>
 5   0  0.1635955E-05  0.2303022E+04  0.7818609E-02  0.8476731E-01
        2   -1    0    0  501    0  0.00000000000E+00  0.00000000000E+00  0.10219451101E+04  0.10219451101E+04  0.25500000920E-02 0. -1.
       -2   -1    0    0    0  501  0.00000000000E+00  0.00000000000E+00 -0.12975036451E+04  0.12975036451E+04  0.25500000920E-02 0.  1.
    10030    2    1    2    0    0  0.00000000000E+00  0.00000000000E+00 -0.27555853501E+03  0.23194487553E+04  0.23030219326E+04 0.  0.
        2    1    3    3  502    0  0.10926695205E+04 -0.32069405858E+03 -0.30989629176E+03  0.11801724755E+04  0.25500000920E-02 0.  1.
       -2    1    3    3    0  502 -0.10926695205E+04  0.32069405858E+03  0.34337756752E+02  0.11392762798E+04  0.25500000920E-02 0. -1.
</event>
<event>
 5   0  0.7183014E-06  0.2297373E+04  0.7818609E-02  0.8478958E-01
       -1   -1    0    0    0  501  0.00000000000E+00  0.00000000000E+00  0.10930308627E+04  0.10930308627E+04  0.50400001928E-02 0. -1.
        1   -1    0    0  501    0  0.00000000000E+00  0.00000000000E+00 -0.12071758041E+04  0.12071758041E+04  0.50400001928E-02 0.  1.
    10030    2    1    2    0    0  0.00000000000E+00  0.00000000000E+00 -0.11414494143E+03  0.23002066668E+04  0.22973727696E+04 0.  0.
        3    1    3    3  502    0  0.11917326562E+03 -0.77425248490E+03  0.78408957494E+03  0.11083616961E+04  0.10100000352E+00 0. -1.
       -3    1    3    3    0  502 -0.11917326562E+03  0.77425248490E+03 -0.89823451637E+03  0.11918449707E+04  0.10100000352E+00 0.  1.
</event>
<event>
 5   0  0.7416556E-06  0.2300920E+04  0.7818609E-02  0.8477559E-01
       -1   -1    0    0    0  501  0.00000000000E+00  0.00000000000E+00  0.77620378916E+03  0.77620378918E+03  0.50400001928E-02 0. -1.
        1   -1    0    0  501    0  0.00000000000E+00  0.00000000000E+00 -0.17051682525E+04  0.17051682525E+04  0.50400001928E-02 0.  1.
    10030    2    1    2    0    0  0.00000000000E+00  0.00000000000E+00 -0.92896446334E+03  0.24813720417E+04  0.23009198672E+04 0.  0.
        4    1    3    3  502    0 -0.10994660276E+04 -0.30648969830E+03 -0.30896823379E+03  0.11824654174E+04  0.12699999809E+01 0.  1.
       -4    1    3    3    0  502  0.10994660276E+04  0.30648969830E+03 -0.61999622955E+03  0.12989066243E+04  0.12699999809E+01 0. -1.
</event>
<event>
 5   0  0.1626636E-05  0.2298421E+04  0.7818609E-02  0.8478544E-01
        2   -1    0    0  501    0  0.00000000000E+00  0.00000000000E+00  0.12674495775E+04  0.12674495776E+04  0.25500000920E-02 0.  1.
       -2   -1    0    0    0  501  0.00000000000E+00  0.00000000000E+00 -0.10420019822E+04  0.10420019822E+04  0.25500000920E-02 0. -1.
    10030    2    1    2    0    0  0.00000000000E+00  0.00000000000E+00  0.22544759533E+03  0.23094515598E+04  0.22984211730E+04 0.  0.
        4    1    3    3  502    0 -0.84040939562E+03  0.53790992490E+02 -0.67301493485E+03  0.10780223275E+04  0.12699999809E+01 0. -1.
       -4    1    3    3    0  502  0.84040939562E+03 -0.53790992490E+02  0.89846253018E+03  0.12314292323E+04  0.12699999809E+01 0.  1.
</event>
<event>
 5   0  0.7416556E-06  0.2298245E+04  0.7818609E-02  0.8478614E-01
        1   -1    0    0  501    0  0.00000000000E+00  0.00000000000E+00  0.16304798457E+04  0.16304798457E+04  0.50400001928E-02 0. -1.
       -1   -1    0    0    0  501  0.00000000000E+00  0.00000000000E+00 -0.80987325714E+03  0.80987325715E+03  0.50400001928E-02 0.  1.
    10030    2    1    2    0    0  0.00000000000E+00  0.00000000000E+00  0.82060658855E+03  0.24403531029E+04  0.22982445678E+04 0.  0.
        4    1    3    3  502    0  0.45536277153E+03  0.75429662967E+03  0.11935894205E+04  0.14835686626E+04  0.12699999809E+01 0. -1.
       -4    1    3    3    0  502 -0.45536277153E+03 -0.75429662967E+03 -0.37298283192E+03  0.95678444021E+03  0.12699999809E+01 0.  1.
</event>
<event>
 5   0  0.7416556E-06  0.2306851E+04  0.7818609E-02  0.8475225E-01
       -1   -1    0    0    0  501  0.00000000000E+00  0.00000000000E+00  0.10557739521E+04  0.10557739521E+04  0.50400001928E-02 0.  1.
        1   -1    0    0  501    0  0.00000000000E+00  0.00000000000E+00 -0.12601095829E+04  0.12601095829E+04  0.50400001928E-02 0. -1.
    10030    2    1    2    0    0  0.00000000000E+00  0.00000000000E+00 -0.20433563087E+03  0.23158835350E+04  0.23068514251E+04 0.  0.
        4    1    3    3  502    0 -0.56406958476E+03 -0.30542474646E+03  0.86019408571E+03  0.10730304051E+04  0.12699999809E+01 0.  1.
       -4    1    3    3    0  502  0.56406958476E+03  0.30542474646E+03 -0.10645297166E+04  0.12428531299E+04  0.12699999809E+01 0. -1.
</event>
<event>
 5   0  0.7391007E-06  0.2225130E+04  0.7818609E-02  0.8508041E-01
        1   -1    0    0  501    0  0.00000000000E+00  0.00000000000E+00  0.16315240361E+04  0.16315240362E+04  0.50400001928E-02 0.  1.
       -1   -1    0    0    0  501  0.00000000000E+00  0.00000000000E+00 -0.75867790184E+03  0.75867790186E+03  0.50400001928E-02 0. -1.
    10030    2    1    2    0    0  0.00000000000E+00  0.00000000000E+00  0.87284613431E+03  0.23902019380E+04  0.22251303176E+04 0.  0.
        1    1    3    3  502    0  0.63370910298E+03  0.80166533482E+03  0.90899946153E+03  0.13676748727E+04  0.50400001928E-02 0.  1.
       -1    1    3    3    0  502 -0.63370910298E+03 -0.80166533482E+03 -0.36153327224E+02  0.10225270653E+04  0.50400001928E-02 0. -1.
</event>
<event>
 5   0  0.1588969E-05  0.2280806E+04  0.7818609E-02  0.8485528E-01
       -2   -1    0    0    0  501  0.00000000000E+00  0.00000000000E+00  0.63639799341E+03  0.63639799341E+03  0.25500000920E-02 0. -1.
        2   -1    0    0  501    0  0.00000000000E+00  0.00000000000E+00 -0.20435627123E+04  0.20435627123E+04  0.25500000920E-02 0.  1.
    10030    2    1    2    0    0  0.00000000000E+00  0.00000000000E+00 -0.14071647189E+04  0.26799607057E+04  0.22808061816E+04 0.  0.
        1    1    3    3  502    0  0.47031416034E+03 -0.18253677763E+03  0.49814719925E+03  0.70898922189E+03  0.50400001928E-02 0. -1.
       -1    1    3    3    0  502 -0.47031416034E+03  0.18253677763E+03 -0.19053119181E+04  0.19709714838E+04  0.50400001928E-02 0.  1.
</event>
<event>
 5   0  0.7183014E-06  0.2298440E+04  0.7818609E-02  0.8478537E-01
       -1   -1    0    0    0  501  0.00000000000E+00  0.00000000000E+00  0.15446560145E+04  0.15446560145E+04  0.50400001928E-02 0.  1.
        1   -1    0    0  501    0  0.00000000000E+00  0.00000000000E+00 -0.85501649239E+03  0.85501649240E+03  0.50400001928E-02 0. -1.
    10030    2    1    2    0    0  0.00000000000E+00  0.00000000000E+00  0.68963952207E+03  0.23996725069E+04  0.22984397903E+04 0.  0.
        3    1    3    3  502    0 -0.28668113446E+03  0.45055187541E+03 -0.71760645892E+03  0.89450662680E+03  0.10100000352E+00 0. -1.
       -3    1    3    3    0  502  0.28668113446E+03 -0.45055187541E+03  0.14072459810E+04  0.15051658801E+04  0.10100000352E+00 0.  1.
</event>
<event>
 5   0  0.1635955E-05  0.2307252E+04  0.7818609E-02  0.8475067E-01
        2   -1    0    0  501    0  0.00000000000E+00  0.00000000000E+00  0.12780683203E+04  0.12780683203E+04  0.25500000920E-02 0.  1.
       -2   -1    0    0    0  501  0.00000000000E+00  0.00000000000E+00 -0.10413006896E+04  0.10413006896E+04  0.25500000920E-02 0. -1.
    10030    2    1    2    0    0  0.00000000000E+00  0.00000000000E+00  0.23676763071E+03  0.23193690099E+04  0.23072524121E+04 0.  0.
        2    1    3    3  502    0 -0.85924791217E+03  0.27368975207E+03 -0.60486679724E+03  0.10858530736E+04  0.25500000920E-02 0. -1.
       -2    1    3    3    0  502  0.85924791217E+03 -0.27368975207E+03  0.84163442795E+03  0.12335159364E+04  0.25500000920E-02 0.  1.
</event>
<event>
 5   0  0.1602809E-05  0.2306278E+04  0.7818609E-02  0.8475450E-01
       -2   -1    0    0    0  501  0.00000000000E+00  0.00000000000E+00  0.66367444951E+03  0.66367444951E+03  0.25500000920E-02 0. -1.
        2   -1    0    0  501    0  0.00000000000E+00  0.00000000000E+00 -0.20035867435E+04  0.20035867435E+04  0.25500000920E-02 0.  1.
    10030    2    1    2    0    0  0.00000000000E+00  0.00000000000E+00 -0.13399122940E+04  0.26672611931E+04  0.23062778055E+04 0.  0.
        3    1    3    3  502    0  0.61902909310E+03  0.92833275638E+03 -0.33330968646E+03  0.11645145263E+04  0.10100000352E+00 0. -1.
       -3    1    3    3    0  502 -0.61902909310E+03 -0.92833275638E+03 -0.10066026076E+04  0.15027466668E+04  0.10100000352E+00 0.  1.
</event>
<event>
 5   0  0.7278815E-06  0.2274120E+04  0.7818609E-02  0.8488196E-01
       -1   -1    0    0    0  501  0.00000000000E+00  0.00000000000E+00  0.89397246124E+03  0.89397246125E+03  0.50400001928E-02 0. -1.
        1   -1    0    0  501    0  0.00000000000E+00  0.00000000000E+00 -0.14462474917E+04  0.14462474917E+04  0.50400001928E-02 0.  1.
    10030    2    1    2    0    0  0.00000000000E+00  0.00000000000E+00 -0.55227503042E+03  0.23402199529E+04  0.22741199878E+04 0.  0.
        5    1    3    3  502    0  0.10107943477E+04 -0.34705318365E+03  0.12338967566E+03  0.10758244409E+04  0.46999998093E+01 0. -1.
       -5    1    3    3    0  502 -0.10107943477E+04  0.34705318365E+03 -0.67566470609E+03  0.12643955120E+04  0.46999998093E+01 0.  1.
</event>
<event>
 5   0  0.1626636E-05  0.2340352E+04  0.7818609E-02  0.8462179E-01
       -2   -1    0    0    0  501  0.00000000000E+00  0.00000000000E+00  0.19948313027E+04  0.19948313027E+04  0.25500000920E-02 0. -1.
        2   -1    0    0  501    0  0.00000000000E+00  0.00000000000E+00 -0.68642993334E+03  0.68642993334E+03  0.25500000920E-02 0.  1.
    10030    2    1    2    0    0  0.00000000000E+00  0.00000000000E+00  0.13084013694E+04  0.26812612361E+04  0.23403520403E+04 0.  0.
        4    1    3    3  502    0  0.74130571970E+01 -0.87622108676E+02  0.19910398407E+04  0.19929811458E+04  0.12699999809E+01 0. -1.
       -4    1    3    3    0  502 -0.74130571970E+01  0.87622108676E+02 -0.68263847128E+03  0.68828009031E+03  0.12699999809E+01 0.  1.
</event>
<event>
 5   0  0.1626636E-05  0.2298412E+04  0.7818609E-02  0.8478548E-01
        2   -1    0    0  501    0  0.00000000000E+00  0.00000000000E+00  0.57595210358E+03  0.57595210358E+03  0.25500000920E-02 0. -1.
       -2   -1    0    0    0  501  0.00000000000E+00  0.00000000000E+00 -0.22930277674E+04  0.22930277674E+04  0.25500000920E-02 0.  1.
    10030    2    1    2    0    0  0.00000000000E+00  0.00000000000E+00 -0.17170756638E+04  0.28689798710E+04  0.22984117701E+04 0.  0.
        4    1    3    3  502    0  0.95175873458E+03  0.46932881709E+03 -0.30795257942E+03  0.11049663486E+04  0.12699999809E+01 0. -1.
       -4    1    3    3    0  502 -0.95175873458E+03 -0.46932881709E+03 -0.14091230844E+04  0.17640135224E+04  0.12699999809E+01 0.  1.
</event>
<event>
 5   0  0.1635955E-05  0.2285907E+04  0.7818609E-02  0.8483499E-01
       -2   -1    0    0    0  501  0.00000000000E+00  0.00000000000E+00  0.57329821973E+03  0.57329821973E+03  0.25500000920E-02 0.  1.
        2   -1    0    0  501    0  0.00000000000E+00  0.00000000000E+00 -0.22786442170E+04  0.22786442170E+04  0.25500000920E-02 0. -1.
    10030    2    1    2    0    0  0.00000000000E+00  0.00000000000E+00 -0.17053459972E+04  0.28519424367E+04  0.22859069736E+04 0.  0.
        2    1    3    3  502    0  0.59179124146E+03 -0.43695957698E+03  0.23868553743E+03  0.77338304298E+03  0.25500000920E-02 0.  1.
       -2    1    3    3    0  502 -0.59179124146E+03  0.43695957698E+03 -0.19440315347E+04  0.20785593937E+04  0.25500000920E-02 0. -1.
</event>
<event>
 5   0  0.7278815E-06  0.2279010E+04  0.7818609E-02  0.8486243E-01
        1   -1    0    0  501    0  0.00000000000E+00  0.00000000000E+00  0.12314575589E+04  0.12314575589E+04  0.50400001928E-02 0. -1.
       -1   -1    0    0    0  501  0.00000000000E+00  0.00000000000E+00 -0.10544183611E+04  0.10544183611E+04  0.50400001928E-02 0.  1.
    10030    2    1    2    0    0  0.00000000000E+00  0.00000000000E+00  0.17703919781E+03  0.22858759201E+04  0.22790098386E+04 0.  0.
        5    1    3    3  502    0  0.49648575470E+03  0.51457364244E+03  0.97841590646E+03  0.12118596924E+04  0.46999998093E+01 0. -1.
       -5    1    3    3    0  502 -0.49648575470E+03 -0.51457364244E+03 -0.80137670865E+03  0.10740162277E+04  0.46999998093E+01 0.  1.
</event>
<event>
 5   0  0.1602809E-05  0.2301577E+04  0.7818609E-02  0.8477300E-01
       -2   -1    0    0    0  501  0.00000000000E+00  0.00000000000E+00  0.81690838086E+03  0.81690838087E+03  0.25500000920E-02 0.  1.
        2   -1    0    0  501    0  0.00000000000E+00  0.00000000000E+00 -0.16211296071E+04  0.16211296071E+04  0.25500000920E-02 0. -1.
    10030    2    1    2    0    0  0.00000000000E+00  0.00000000000E+00 -0.80422122624E+03  0.24380379880E+04  0.23015771658E+04 0.  0.
        3    1    3    3  502    0  0.91362304270E+03  0.24950019908E+03 -0.10945955133E+04  0.14474449079E+04  0.10100000352E+00 0. -1.
       -3    1    3    3    0  502 -0.91362304270E+03 -0.24950019908E+03  0.29037428705E+03  0.99059308007E+03  0.10100000352E+00 0.  1.
</event>
<event>
 5   0  0.5704875E-06  0.2298985E+04  0.7818609E-02  0.8478321E-01
       -3   -1    0    0    0  501  0.00000000000E+00  0.00000000000E+00  0.69231525138E+03  0.69231525875E+03  0.10100000352E+00 0. -1.
        3   -1    0    0  501    0  0.00000000000E+00  0.00000000000E+00 -0.19085713781E+04  0.19085713808E+04  0.10100000352E+00 0.  1.
    10030    2    1    2    0    0  0.00000000000E+00  0.00000000000E+00 -0.12162561267E+04  0.26008866395E+04  0.22989850686E+04 0.  0.
        1    1    3    3  502    0 -0.34396111229E+03  0.47753496848E+03  0.50895138167E+03  0.77806195243E+03  0.50400001928E-02 0. -1.
       -1    1    3    3    0  502  0.34396111229E+03 -0.47753496848E+03 -0.17252075084E+04  0.18228246871E+04  0.50400001928E-02 0.  1.
</event>
<event>
 5   0  0.7183014E-06  0.2298042E+04  0.7818609E-02  0.8478694E-01
       -1   -1    0    0    0  501  0.00000000000E+00  0.00000000000E+00  0.13327121870E+04  0.13327121870E+04  0.50400001928E-02 0. -1.
        1   -1    0    0  501    0  0.00000000000E+00  0.00000000000E+00 -0.99064848827E+03  0.99064848828E+03  0.50400001928E-02 0.  1.
    10030    2    1    2    0    0  0.00000000000E+00  0.00000000000E+00  0.34206369870E+03  0.23233606753E+04  0.22980420478E+04 0.  0.
        3    1    3    3  502    0  0.95845920886E+03  0.44134281111E+03  0.63081895746E+03  0.12293738647E+04  0.10100000352E+00 0. -1.
       -3    1    3    3    0  502 -0.95845920886E+03 -0.44134281111E+03 -0.28875525876E+03  0.10939868105E+04  0.10100000352E+00 0.  1.
</event>
<event>
 5   0  0.5704875E-06  0.2314573E+04  0.7818609E-02  0.8472197E-01
       -3   -1    0    0    0  501  0.00000000000E+00  0.00000000000E+00  0.16509145857E+04  0.16509145888E+04  0.10100000352E+00 0.  1.
        3   -1    0    0  501    0  0.00000000000E+00  0.00000000000E+00 -0.81125428146E+03  0.81125428774E+03  0.10100000352E+00 0. -1.
    10030    2    1    2    0    0  0.00000000000E+00  0.00000000000E+00  0.83966030429E+03  0.24621688766E+04  0.23145725632E+04 0.  0.
        3    1    3    3  502    0 -0.29065801119E+03 -0.71353446361E+02 -0.76937435740E+03  0.82553637461E+03  0.10100000352E+00 0. -1.
       -3    1    3    3    0  502  0.29065801119E+03  0.71353446361E+02  0.16090346617E+04  0.16366325020E+04  0.10100000352E+00 0.  1.
</event>
<event>
 5   0  0.1626636E-05  0.2298844E+04  0.7818609E-02  0.8478377E-01
       -2   -1    0    0    0  501  0.00000000000E+00  0.00000000000E+00  0.53390471322E+03  0.53390471323E+03  0.25500000920E-02 0. -1.
        2   -1    0    0  501    0  0.00000000000E+00  0.00000000000E+00 -0.24745436324E+04  0.24745436324E+04  0.25500000920E-02 0.  1.
    10030    2    1    2    0    0  0.00000000000E+00  0.00000000000E+00 -0.19406389192E+04  0.30084483457E+04  0.22988436297E+04 0.  0.
        4    1    3    3  502    0 -0.44087987687E+03  0.30218287428E+03  0.36137271375E+03  0.64519873410E+03  0.12699999809E+01 0. -1.
       -4    1    3    3    0  502  0.44087987687E+03 -0.30218287428E+03 -0.23020116330E+04  0.23632496116E+04  0.12699999809E+01 0.  1.
</event>
<event>
 5   0  0.7416556E-06  0.2283732E+04  0.7818609E-02  0.8484363E-01
        1   -1    0    0  501    0  0.00000000000E+00  0.00000000000E+00  0.13197074187E+04  0.13197074187E+04  0.50400001928E-02 0. -1.
       -1   -1    0    0    0  501  0.00000000000E+00  0.00000000000E+00 -0.98799013581E+03  0.98799013582E+03  0.50400001928E-02 0.  1.
    10030    2    1    2    0    0  0.00000000000E+00  0.00000000000E+00  0.33171728285E+03  0.23076975545E+04  0.22837319561E+04 0.  0.
        4    1    3    3  502    0  0.20786097827E+03 -0.58484764680E+02  0.12988877497E+04  0.13167147197E+04  0.12699999809E+01 0. -1.
       -4    1    3    3    0  502 -0.20786097827E+03  0.58484764680E+02 -0.96717046683E+03  0.99098283476E+03  0.12699999809E+01 0.  1.
</event>
<event>
 5   0  0.7183014E-06  0.2303273E+04  0.7818609E-02  0.8476632E-01
       -1   -1    0    0    0  501  0.00000000000E+00  0.00000000000E+00  0.95349217738E+03  0.95349217739E+03  0.50400001928E-02 0.  1.
        1   -1    0    0  501    0  0.00000000000E+00  0.00000000000E+00 -0.13909570072E+04  0.13909570072E+04  0.50400001928E-02 0. -1.
    10030    2    1    2    0    0  0.00000000000E+00  0.00000000000E+00 -0.43746482985E+03  0.23444491846E+04  0.23032729977E+04 0.  0.
        3    1    3    3  502    0  0.44784106365E+03 -0.10545031966E+04 -0.33799360152E+03  0.11944782522E+04  0.10100000352E+00 0. -1.
       -3    1    3    3    0  502 -0.44784106365E+03  0.10545031966E+04 -0.99471228327E+02  0.11499709325E+04  0.10100000352E+00 0.  1.
</event>
<event>
 5   0  0.1635955E-05  0.2353006E+04  0.7818609E-02  0.8457310E-01
        2   -1    0    0  501    0  0.00000000000E+00  0.00000000000E+00  0.16478241694E+04  0.16478241694E+04  0.25500000920E-02 0.  1.
       -2   -1    0    0    0  501  0.00000000000E+00  0.00000000000E+00 -0.83999239503E+03  0.83999239503E+03  0.25500000920E-02 0. -1.
    10030    2    1    2    0    0  0.00000000000E+00  0.00000000000E+00  0.80783177433E+03  0.24878165644E+04  0.23530063923E+04 0.  0.
        2    1    3    3  502    0  0.13050685457E+03  0.70461859387E+03 -0.58262399789E+03  0.92356381741E+03  0.25500000920E-02 0. -1.
       -2    1    3    3    0  502 -0.13050685457E+03 -0.70461859387E+03  0.13904557722E+04  0.15642527470E+04  0.25500000920E-02 0.  1.
</event>
<event>
 5   0  0.7183014E-06  0.2294201E+04  0.7818609E-02  0.8480211E-01
       -1   -1    0    0    0  501  0.00000000000E+00  0.00000000000E+00  0.12341640546E+04  0.12341640546E+04  0.50400001928E-02 0. -1.
        1   -1    0    0  501    0  0.00000000000E+00  0.00000000000E+00 -0.10661784991E+04  0.10661784991E+04  0.50400001928E-02 0.  1.
    10030    2    1    2    0    0  0.00000000000E+00  0.00000000000E+00  0.16798555550E+03  0.23003425537E+04  0.22942006707E+04 0.  0.
        3    1    3    3  502    0  0.45416670440E+03 -0.96561852509E+03  0.50601461396E+03  0.11809899793E+04  0.10100000352E+00 0.  1.
       -3    1    3    3    0  502 -0.45416670440E+03  0.96561852509E+03 -0.33802905845E+03  0.11193525745E+04  0.10100000352E+00 0. -1.
</event>
<event>
 5   0  0.1626636E-05  0.2303728E+04  0.7818609E-02  0.8476453E-01
        2   -1    0    0  501    0  0.00000000000E+00  0.00000000000E+00  0.11326355913E+04  0.11326355913E+04  0.25500000920E-02 0. -1.
       -2   -1    0    0    0  501  0.00000000000E+00  0.00000000000E+00 -0.11714189671E+04  0.11714189671E+04  0.25500000920E-02 0.  1.
    10030    2    1    2    0    0  0.00000000000E+00  0.00000000000E+00 -0.38783375819E+02  0.23040545584E+04  0.23037281216E+04 0.  0.
        4    1    3    3  502    0 -0.67181680722E+03  0.82835914668E+03  0.41572455709E+03  0.11447031137E+04  0.12699999809E+01 0. -1.
       -4    1    3    3    0  502  0.67181680722E+03 -0.82835914668E+03 -0.45450793291E+03  0.11593514447E+04  0.12699999809E+01 0.  1.
</event>
<event>
 5   0  0.1588969E-05  0.2298297E+04  0.7818609E-02  0.8478593E-01
       -2   -1    0    0    0  501  0.00000000000E+00  0.00000000000E+00  0.97401328674E+03  0.97401328675E+03  0.25500000920E-02 0. -1.
        2   -1    0    0  501    0  0.00000000000E+00  0.00000000000E+00 -0.13557749546E+04  0.13557749546E+04  0.25500000920E-02 0.  1.
    10030    2    1    2    0    0  0.00000000000E+00  0.00000000000E+00 -0.38176166789E+03  0.23297882414E+04  0.22982974739E+04 0.  0.
        1    1    3    3  502    0 -0.10234471353E+04 -0.49492958839E+03 -0.36093964372E+03  0.11927601446E+04  0.50400001928E-02 0.  1.
       -1    1    3    3    0  502  0.10234471353E+04  0.49492958839E+03 -0.20822024167E+02  0.11370280968E+04  0.50400001928E-02 0. -1.
</event>
<event>
 5   0  0.1588969E-05  0.2302973E+04  0.7818609E-02  0.8476750E-01
       -2   -1    0    0    0  501  0.00000000000E+00  0.00000000000E+00  0.62110365803E+03  0.62110365804E+03  0.25500000920E-02 0.  1.
        2   -1    0    0  501    0  0.00000000000E+00  0.00000000000E+00 -0.21347820309E+04  0.21347820309E+04  0.25500000920E-02 0. -1.
    10030    2    1    2    0    0  0.00000000000E+00  0.00000000000E+00 -0.15136783729E+04  0.27558856890E+04  0.23029727993E+04 0.  0.
        1    1    3    3  502    0  0.11356858546E+04 -0.74196474116E+02 -0.54739401305E+03  0.12629044630E+04  0.50400001928E-02 0.  1.
       -1    1    3    3    0  502 -0.11356858546E+04  0.74196474116E+02 -0.96628435986E+03  0.14929812260E+04  0.50400001928E-02 0. -1.
</event>
<event>
 5   0  0.1602809E-05  0.2209072E+04  0.7818609E-02  0.8514662E-01
        2   -1    0    0  501    0  0.00000000000E+00  0.00000000000E+00  0.17493168156E+04  0.17493168156E+04  0.25500000920E-02 0.  1.
       -2   -1    0    0    0  501  0.00000000000E+00  0.00000000000E+00 -0.69741491046E+03  0.69741491047E+03  0.25500000920E-02 0. -1.
    10030    2    1    2    0    0  0.00000000000E+00  0.00000000000E+00  0.10519019051E+04  0.24467317261E+04  0.22090718688E+04 0.  0.
        3    1    3    3  502    0  0.39709190668E+03 -0.36208898819E+03 -0.54285813499E+03  0.76386214898E+03  0.10100000352E+00 0. -1.
       -3    1    3    3    0  502 -0.39709190668E+03  0.36208898819E+03  0.15947600401E+04  0.16828695771E+04  0.10100000352E+00 0.  1.
</event>
<event>
 5   0  0.1697855E-05  0.2290666E+04  0.7818609E-02  0.8481610E-01
       -2   -1    0    0    0  501  0.00000000000E+00  0.00000000000E+00  0.11558223110E+04  0.11558223110E+04  0.25500000920E-02 0. -1.
        2   -1    0    0  501    0  0.00000000000E+00  0.00000000000E+00 -0.11349389002E+04  0.11349389002E+04  0.25500000920E-02 0.  1.
    10030    2    1    2    0    0  0.00000000000E+00  0.00000000000E+00  0.20883410790E+02  0.22907612111E+04  0.22906660188E+04 0.  0.
        5    1    3    3  502    0  0.97632643547E+02 -0.31390156261E+03 -0.10867361898E+04  0.11353783336E+04  0.46999998093E+01 0.  1.
       -5    1    3    3    0  502 -0.97632643547E+02  0.31390156261E+03  0.11076196006E+04  0.11553828776E+04  0.46999998093E+01 0. -1.
</event>
<event>
 5   0  0.7183014E-06  0.2299774E+04  0.7818609E-02  0.8478010E-01
        1   -1    0    0  501    0  0.00000000000E+00  0.00000000000E+00  0.11760018730E+04  0.11760018731E+04  0.50400001928E-02 0. -1.
       -1   -1    0    0    0  501  0.00000000000E+00  0.00000000000E+00 -0.11243516546E+04  0.11243516546E+04  0.50400001928E-02 0.  1.
    10030    2    1    2    0    0  0.00000000000E+00  0.00000000000E+00  0.51650218462E+02  0.23003535276E+04  0.22997735991E+04 0.  0.
        3    1    3    3  502    0  0.11082720843E+03  0.42621924522E+03  0.10883048675E+04  0.11740327977E+04  0.10100000352E+00 0. -1.
       -3    1    3    3    0  502 -0.11082720843E+03 -0.42621924522E+03 -0.10366546491E+04  0.11263207300E+04  0.10100000352E+00 0.  1.
</event>
<event>
 5   0  0.7416556E-06  0.2312608E+04  0.7818609E-02  0.8472966E-01
        1   -1    0    0  501    0  0.00000000000E+00  0.00000000000E+00  0.18502235559E+04  0.18502235559E+04  0.50400001928E-02 0.  1.
       -1   -1    0    0    0  501  0.00000000000E+00  0.00000000000E+00 -0.72263650651E+03  0.72263650653E+03  0.50400001928E-02 0. -1.
    10030    2    1    2    0    0  0.00000000000E+00  0.00000000000E+00  0.11275870494E+04  0.25728600624E+04  0.23126081265E+04 0.  0.
        4    1    3    3  502    0 -0.80421989738E+03  0.55350323680E+03 -0.12553191104E+03  0.98432481939E+03  0.12699999809E+01 0. -1.
       -4    1    3    3    0  502  0.80421989738E+03 -0.55350323680E+03  0.12531189604E+04  0.15885352430E+04  0.12699999809E+01 0.  1.
</event>
<event>
 5   0  0.1626636E-05  0.2299861E+04  0.7818609E-02  0.8477976E-01
        2   -1    0    0  501    0  0.00000000000E+00  0.00000000000E+00  0.13306342652E+04  0.13306342652E+04  0.25500000920E-02 0. -1.
       -2   -1    0    0    0  501  0.00000000000E+00  0.00000000000E+00 -0.99376676133E+03  0.99376676133E+03  0.25500000920E-02 0.  1.
    10030    2    1    2    0    0  0.00000000000E+00  0.00000000000E+00  0.33686750392E+03  0.23244010266E+04  0.22998609561E+04 0.  0.
        4    1    3    3  502    0 -0.47733192562E+03  0.91389108744E+03 -0.34621061434E+03  0.10876148626E+04  0.12699999809E+01 0.  1.
       -4    1    3    3    0  502  0.47733192562E+03 -0.91389108744E+03  0.68307811826E+03  0.12367861640E+04  0.12699999809E+01 0. -1.
</event>
<event>
 5   0  0.7183014E-06  0.2299298E+04  0.7818609E-02  0.8478198E-01
       -1   -1    0    0    0  501  0.00000000000E+00  0.00000000000E+00  0.72976744125E+03  0.72976744126E+03  0.50400001928E-02 0. -1.
        1   -1    0    0  501    0  0.00000000000E+00  0.00000000000E+00 -0.18111155326E+04  0.18111155326E+04  0.50400001928E-02 0.  1.
    10030    2    1    2    0    0  0.00000000000E+00  0.00000000000E+00 -0.10813480914E+04  0.25408829739E+04  0.22992982826E+04 0.  0.
        3    1    3    3  502    0 -0.10470635666E+04  0.47467890535E+03 -0.54682305325E+03  0.12730583794E+04  0.10100000352E+00 0.  1.
       -3    1    3    3    0  502  0.10470635666E+04 -0.47467890535E+03 -0.53452503811E+03  0.12678245944E+04  0.10100000352E+00 0. -1.
</event>
<event>
 5   0  0.7202572E-06  0.2297232E+04  0.7818609E-02  0.8479013E-01
       -1   -1    0    0    0  501  0.00000000000E+00  0.00000000000E+00  0.18728155379E+04  0.18728155379E+04  0.50400001928E-02 0.  1.
        1   -1    0    0  501    0  0.00000000000E+00  0.00000000000E+00 -0.70445731159E+03  0.70445731161E+03  0.50400001928E-02 0. -1.
    10030    2    1    2    0    0  0.00000000000E+00  0.00000000000E+00  0.11683582263E+04  0.25772728496E+04  0.22972318986E+04 0.  0.
        2    1    3    3  502    0  0.87242270483E+03  0.48966896367E+03 -0.48898231798E+02  0.10016427042E+04  0.25500000920E-02 0. -1.
       -2    1    3    3    0  502 -0.87242270483E+03 -0.48966896367E+03  0.12172564581E+04  0.15756301453E+04  0.25500000920E-02 0.  1.
</event>
<event>
 5   0  0.7183014E-06  0.2281685E+04  0.7818609E-02  0.8485178E-01
       -1   -1    0    0    0  501  0.00000000000E+00  0.00000000000E+00  0.83157981194E+03  0.83157981196E+03  0.50400001928E-02 0.  1.
        1   -1    0    0  501    0  0.00000000000E+00  0.00000000000E+00 -0.15651195830E+04  0.15651195830E+04  0.50400001928E-02 0. -1.
    10030    2    1    2    0    0  0.00000000000E+00  0.00000000000E+00 -0.73353977104E+03  0.23966993949E+04  0.22816852092E+04 0.  0.
        3    1    3    3  502    0 -0.43018176102E+03 -0.43139808197E+03 -0.13799429393E+04  0.15084439594E+04  0.10100000352E+00 0. -1.
       -3    1    3    3    0  502  0.43018176102E+03  0.43139808197E+03  0.64640316828E+03  0.88825543556E+03  0.10100000352E+00 0.  1.
</event>
<event>
 5   0  0.7183014E-06  0.2299167E+04  0.7818609E-02  0.8478250E-01
        1   -1    0    0  501    0  0.00000000000E+00  0.00000000000E+00  0.21614628231E+04  0.21614628231E+04  0.50400001928E-02 0.  1.
       -1   -1    0    0    0  501  0.00000000000E+00  0.00000000000E+00 -0.61141118484E+03  0.61141118486E+03  0.50400001928E-02 0. -1.
    10030    2    1    2    0    0  0.00000000000E+00  0.00000000000E+00  0.15500516383E+04  0.27728740080E+04  0.22991672803E+04 0.  0.
        3    1    3    3  502    0 -0.15485326484E+03 -0.35126136205E+02 -0.59812174566E+03  0.61884005358E+03  0.10100000352E+00 0. -1.
       -3    1    3    3    0  502  0.15485326484E+03  0.35126136205E+02  0.21481733839E+04  0.21540339544E+04  0.10100000352E+00 0.  1.
</event>
<event>
 5   0  0.7278815E-06  0.2289754E+04  0.7818609E-02  0.8481972E-01
        1   -1    0    0  501    0  0.00000000000E+00  0.00000000000E+00  0.11178237613E+04  0.11178237613E+04  0.50400001928E-02 0. -1.
       -1   -1    0    0    0  501  0.00000000000E+00  0.00000000000E+00 -0.11725850624E+04  0.11725850624E+04  0.50400001928E-02 0.  1.
    10030    2    1    2    0    0  0.00000000000E+00  0.00000000000E+00 -0.54761301132E+02  0.22904088237E+04  0.22897540871E+04 0.  0.
        5    1    3    3  502    0 -0.33210213118E+03 -0.62864081046E+03 -0.92498904536E+03  0.11666652982E+04  0.46999998093E+01 0.  1.
       -5    1    3    3    0  502  0.33210213118E+03  0.62864081046E+03  0.87022774423E+03  0.11237435254E+04  0.46999998093E+01 0. -1.
</event>
<event>
 5   0  0.7202572E-06  0.2301187E+04  0.7818609E-02  0.8477453E-01
       -1   -1    0    0    0  501  0.00000000000E+00  0.00000000000E+00  0.10005840313E+04  0.10005840313E+04  0.50400001928E-02 0.  1.
        1   -1    0    0  501    0  0.00000000000E+00  0.00000000000E+00 -0.13230929777E+04  0.13230929778E+04  0.50400001928E-02 0. -1.
    10030    2    1    2    0    0  0.00000000000E+00  0.00000000000E+00 -0.32250894649E+03  0.23236770090E+04  0.23011872635E+04 0.  0.
        2    1    3    3  502    0 -0.30003671997E+03  0.29412255716E+03 -0.12428603362E+04  0.13119572887E+04  0.25500000920E-02 0. -1.
       -2    1    3    3    0  502  0.30003671997E+03 -0.29412255716E+03  0.92035138973E+03  0.10117197203E+04  0.25500000920E-02 0.  1.
</event>
<event>
 5   0  0.7202572E-06  0.2329928E+04  0.7818609E-02  0.8466213E-01
        1   -1    0    0  501    0  0.00000000000E+00  0.00000000000E+00  0.18525703173E+04  0.18525703173E+04  0.50400001928E-02 0.  1.
       -1   -1    0    0    0  501  0.00000000000E+00  0.00000000000E+00 -0.73257220760E+03  0.73257220762E+03  0.50400001928E-02 0. -1.
    10030    2    1    2    0    0  0.00000000000E+00  0.00000000000E+00  0.11199981097E+04  0.25851425250E+04  0.23299283484E+04 0.  0.
        2    1    3    3  502    0  0.11219178084E+04  0.25998126804E+03  0.36511268517E+03  0.12081378653E+04  0.25500000920E-02 0. -1.
       -2    1    3    3    0  502 -0.11219178084E+04 -0.25998126804E+03  0.75488542456E+03  0.13770046597E+04  0.25500000920E-02 0.  1.
</event>
<event>
 5   0  0.1697855E-05  0.2294670E+04  0.7818609E-02  0.8480025E-01
       -2   -1    0    0    0  501  0.00000000000E+00  0.00000000000E+00  0.74452659437E+03  0.74452659437E+03  0.25500000920E-02 0.  1.
        2   -1    0    0  501    0  0.00000000000E+00  0.00000000000E+00 -0.17680737827E+04  0.17680737827E+04  0.25500000920E-02 0. -1.
    10030    2    1    2    0    0  0.00000000000E+00  0.00000000000E+00 -0.10235471883E+04  0.25126003770E+04  0.22946703049E+04 0.  0.
        5    1    3    3  502    0  0.39718495210E+03 -0.41575750243E+03 -0.15989138191E+04  0.16991638172E+04  0.46999998093E+01 0. -1.
       -5    1    3    3    0  502 -0.39718495210E+03  0.41575750243E+03  0.57536663078E+03  0.81343655979E+03  0.46999998093E+01 0.  1.
</event>
<event>
 5   0  0.7183014E-06  0.2293213E+04  0.7818609E-02  0.8480602E-01
       -1   -1    0    0    0  501  0.00000000000E+00  0.00000000000E+00  0.73393267776E+03  0.73393267778E+03  0.50400001928E-02 0. -1.
        1   -1    0    0  501    0  0.00000000000E+00  0.00000000000E+00 -0.17913170204E+04  0.17913170204E+04  0.50400001928E-02 0.  1.
    10030    2    1    2    0    0  0.00000000000E+00  0.00000000000E+00 -0.10573843426E+04  0.25252496982E+04  0.22932126788E+04 0.  0.
        3    1    3    3  502    0 -0.75374792629E+03 -0.85769684732E+03 -0.64379763492E+03  0.13108223462E+04  0.10100000352E+00 0.  1.
       -3    1    3    3    0  502  0.75374792629E+03  0.85769684732E+03 -0.41358670771E+03  0.12144273520E+04  0.10100000352E+00 0. -1.
</event>
<event>
 5   0  0.1697855E-05  0.2301223E+04  0.7818609E-02  0.8477439E-01
       -2   -1    0    0    0  501  0.00000000000E+00  0.00000000000E+00  0.68775461464E+03  0.68775461465E+03  0.25500000920E-02 0. -1.
        2   -1    0    0  501    0  0.00000000000E+00  0.00000000000E+00 -0.19249694159E+04  0.19249694159E+04  0.25500000920E-02 0.  1.
    10030    2    1    2    0    0  0.00000000000E+00  0.00000000000E+00 -0.12372148012E+04  0.26127240305E+04  0.23012228044E+04 0.  0.
        5    1    3    3  502    0 -0.57226180327E+03 -0.44686699639E+03 -0.16320175036E+04  0.17862465972E+04  0.46999998093E+01 0.  1.
       -5    1    3    3    0  502  0.57226180327E+03  0.44686699639E+03  0.39480270239E+03  0.82647743331E+03  0.46999998093E+01 0. -1.
</event>
<event>
 5   0  0.7183014E-06  0.2258722E+04  0.7818609E-02  0.8494377E-01
       -1   -1    0    0    0  501  0.00000000000E+00  0.00000000000E+00  0.87532824729E+03  0.87532824730E+03  0.50400001928E-02 0. -1.
        1   -1    0    0  501    0  0.00000000000E+00  0.00000000000E+00 -0.14571174315E+04  0.14571174315E+04  0.50400001928E-02 0.  1.
    10030    2    1    2    0    0  0.00000000000E+00  0.00000000000E+00 -0.58178918417E+03  0.23324456788E+04  0.22587218044E+04 0.  0.
        3    1    3    3  502    0  0.10157902390E+04  0.30517808746E+03 -0.69149031880E+03  0.12661446781E+04  0.10100000352E+00 0.  1.
       -3    1    3    3    0  502 -0.10157902390E+04 -0.30517808746E+03  0.10970113463E+03  0.10663010006E+04  0.10100000352E+00 0. -1.
</event>
<event>
 5   0  0.1626636E-05  0.2301269E+04  0.7818609E-02  0.8477421E-01
        2   -1    0    0  501    0  0.00000000000E+00  0.00000000000E+00  0.14585281897E+04  0.14585281897E+04  0.25500000920E-02 0. -1.
       -2   -1    0    0    0  501  0.00000000000E+00  0.00000000000E+00 -0.90773708993E+03  0.90773708993E+03  0.25500000920E-02 0.  1.
    10030    2    1    2    0    0  0.00000000000E+00  0.00000000000E+00  0.55079109980E+03  0.23662652797E+04  0.23012693319E+04 0.  0.
        4    1    3    3  502    0  0.47923909717E+03  0.44790176042E+03  0.12474378394E+04  0.14093930876E+04  0.12699999809E+01 0. -1.
       -4    1    3    3    0  502 -0.47923909717E+03 -0.44790176042E+03 -0.69664673962E+03  0.95687219207E+03  0.12699999809E+01 0.  1.
</event>
<event>
 5   0  0.7416556E-06  0.2282403E+04  0.7818609E-02  0.8484892E-01
       -1   -1    0    0    0  501  0.00000000000E+00  0.00000000000E+00  0.60267557586E+03  0.60267557588E+03  0.50400001928E-02 0.  1.
        1   -1    0    0  501    0  0.00000000000E+00  0.00000000000E+00 -0.21609319608E+04  0.21609319608E+04  0.50400001928E-02 0. -1.
    10030    2    1    2    0    0  0.00000000000E+00  0.00000000000E+00 -0.15582563850E+04  0.27636075367E+04  0.22824030441E+04 0.  0.
        4    1    3    3  502    0 -0.39729684612E+03 -0.69116904347E+03  0.20959625023E+03  0.82431282387E+03  0.12699999809E+01 0.  1.
       -4    1    3    3    0  502  0.39729684612E+03  0.69116904347E+03 -0.17678526352E+04  0.19392947129E+04  0.12699999809E+01 0. -1.
</event>
<event>
 5   0  0.1626636E-05  0.2332363E+04  0.7818609E-02  0.8465269E-01
       -2   -1    0    0    0  501  0.00000000000E+00  0.00000000000E+00  0.79394824300E+03  0.79394824300E+03  0.25500000920E-02 0. -1.
        2   -1    0    0  501    0  0.00000000000E+00  0.00000000000E+00 -0.17129324506E+04  0.17129324506E+04  0.25500000920E-02 0.  1.
    10030    2    1    2    0    0  0.00000000000E+00  0.00000000000E+00 -0.91898420758E+03  0.25068806936E+04  0.23323633589E+04 0.  0.
        4    1    3    3  502    0  0.77101683299E+03 -0.71920692791E+03  0.76038508555E+02  0.10571229964E+04  0.12699999809E+01 0. -1.
       -4    1    3    3    0  502 -0.77101683299E+03  0.71920692791E+03 -0.99502271613E+03  0.14497576971E+04  0.12699999809E+01 0.  1.
</event>
<event>
 5   0  0.1635955E-05  0.2303469E+04  0.7818609E-02  0.8476555E-01
        2   -1    0    0  501    0  0.00000000000E+00  0.00000000000E+00  0.14468903006E+04  0.14468903006E+04  0.25500000920E-02 0.  1.
       -2   -1    0    0    0  501  0.00000000000E+00  0.00000000000E+00 -0.91678857918E+03  0.91678857919E+03  0.25500000920E-02 0. -1.
    10030    2    1    2    0    0  0.00000000000E+00  0.00000000000E+00  0.53010172144E+03  0.23636788798E+04  0.23034691254E+04 0.  0.
        2    1    3    3  502    0 -0.60704879642E+03 -0.38384034556E+02 -0.73852694230E+03  0.95676727570E+03  0.25500000920E-02 0. -1.
       -2    1    3    3    0  502  0.60704879642E+03  0.38384034556E+02  0.12686286637E+04  0.14069116041E+04  0.25500000920E-02 0.  1.
</event>
<event>
 5   0  0.7391007E-06  0.2297426E+04  0.7818609E-02  0.8478937E-01
       -1   -1    0    0    0  501  0.00000000000E+00  0.00000000000E+00  0.91221408007E+03  0.91221408008E+03  0.50400001928E-02 0.  1.
        1   -1    0    0  501    0  0.00000000000E+00  0.00000000000E+00 -0.14465259656E+04  0.14465259656E+04  0.50400001928E-02 0. -1.
    10030    2    1    2    0    0  0.00000000000E+00  0.00000000000E+00 -0.53431188554E+03  0.23587400457E+04  0.22974258230E+04 0.  0.
        1    1    3    3  502    0  0.20500316126E+03  0.57680075631E+03  0.73080188494E+03  0.95330834658E+03  0.50400001928E-02 0.  1.
       -1    1    3    3    0  502 -0.20500316126E+03 -0.57680075631E+03 -0.12651137705E+04  0.14054316991E+04  0.50400001928E-02 0. -1.
</event>
<event>
 5   0  0.5704875E-06  0.2300682E+04  0.7818609E-02  0.8477652E-01
        3   -1    0    0  501    0  0.00000000000E+00  0.00000000000E+00  0.14297401246E+04  0.14297401282E+04  0.10100000352E+00 0.  1.
       -3   -1    0    0    0  501  0.00000000000E+00  0.00000000000E+00 -0.92554155828E+03  0.92554156379E+03  0.10100000352E+00 0. -1.
    10030    2    1    2    0    0  0.00000000000E+00  0.00000000000E+00  0.50419856632E+03  0.23552816920E+04  0.23006815630E+04 0.  0.
        3    1    3    3  502    0  0.79029046509E+03  0.67791956608E+03  0.75273460512E+03  0.12848125751E+04  0.10100000352E+00 0.  1.
       -3    1    3    3    0  502 -0.79029046509E+03 -0.67791956608E+03 -0.24853603880E+03  0.10704691168E+04  0.10100000352E+00 0. -1.
</event>
<event>
 5   0  0.7391007E-06  0.2298709E+04  0.7818609E-02  0.8478430E-01
        1   -1    0    0  501    0  0.00000000000E+00  0.00000000000E+00  0.11435241804E+04  0.11435241804E+04  0.50400001928E-02 0.  1.
       -1   -1    0    0    0  501  0.00000000000E+00  0.00000000000E+00 -0.11552144129E+04  0.11552144129E+04  0.50400001928E-02 0. -1.
    10030    2    1    2    0    0  0.00000000000E+00  0.00000000000E+00 -0.11690232495E+02  0.22987385934E+04  0.22987088679E+04 0.  0.
        1    1    3    3  502    0 -0.46195085393E+03 -0.12059417018E+03 -0.10513604627E+04  0.11546862638E+04  0.50400001928E-02 0. -1.
       -1    1    3    3    0  502  0.46195085393E+03  0.12059417018E+03  0.10396702302E+04  0.11440523296E+04  0.50400001928E-02 0.  1.
</event>
<event>
 5   0  0.1697855E-05  0.2301456E+04  0.7818609E-02  0.8477347E-01
        2   -1    0    0  501    0  0.00000000000E+00  0.00000000000E+00  0.20114324042E+04  0.20114324042E+04  0.25500000920E-02 0. -1.
       -2   -1    0    0    0  501  0.00000000000E+00  0.00000000000E+00 -0.65832455486E+03  0.65832455486E+03  0.25500000920E-02 0.  1.
    10030    2    1    2    0    0  0.00000000000E+00  0.00000000000E+00  0.13531078493E+04  0.26697569591E+04  0.23014563582E+04 0.  0.
        5    1    3    3  502    0 -0.88146689287E+03 -0.90029033292E+02 -0.17515109202E+03  0.90321044342E+03  0.46999998093E+01 0.  1.
       -5    1    3    3    0  502  0.88146689287E+03  0.90029033292E+02  0.15282589414E+04  0.17665465156E+04  0.46999998093E+01 0. -1.
</event>
<event>
 5   0  0.1602809E-05  0.2304788E+04  0.7818609E-02  0.8476036E-01
       -2   -1    0    0    0  501  0.00000000000E+00  0.00000000000E+00  0.70560870415E+03  0.70560870415E+03  0.25500000920E-02 0.  1.
        2   -1    0    0  501    0  0.00000000000E+00  0.00000000000E+00 -0.18820799908E+04  0.18820799908E+04  0.25500000920E-02 0. -1.
    10030    2    1    2    0    0  0.00000000000E+00  0.00000000000E+00 -0.11764712867E+04  0.25876886950E+04  0.23047880800E+04 0.  0.
        3    1    3    3  502    0 -0.90685783161E+03  0.41704737606E+03  0.58383818431E+02  0.99986415132E+03  0.10100000352E+00 0.  1.
       -3    1    3    3    0  502  0.90685783161E+03 -0.41704737606E+03 -0.12348551051E+04  0.15878245437E+04  0.10100000352E+00 0. -1.
</event>
<event>
 5   0  0.1602809E-05  0.2301130E+04  0.7818609E-02  0.8477476E-01
        2   -1    0    0  501    0  0.00000000000E+00  0.00000000000E+00  0.22328283410E+04  0.22328283410E+04  0.25500000920E-02 0.  1.
       -2   -1    0    0    0  501  0.00000000000E+00  0.00000000000E+00 -0.59288042463E+03  0.59288042464E+03  0.25500000920E-02 0. -1.
    10030    2    1    2    0    0  0.00000000000E+00  0.00000000000E+00  0.16399479163E+04  0.28257087656E+04  0.23011303439E+04 0.  0.
        3    1    3    3  502    0 -0.76113035613E+03  0.14810564308E+03  0.18637775359E+04  0.20186434589E+04  0.10100000352E+00 0.  1.
       -3    1    3    3    0  502  0.76113035613E+03 -0.14810564308E+03 -0.22382961956E+03  0.80706530674E+03  0.10100000352E+00 0. -1.
</event>
<event>
 5   0  0.7202572E-06  0.2333838E+04  0.7818609E-02  0.8464697E-01
       -1   -1    0    0    0  501  0.00000000000E+00  0.00000000000E+00  0.78054750990E+03  0.78054750991E+03  0.50400001928E-02 0.  1.
        1   -1    0    0  501    0  0.00000000000E+00  0.00000000000E+00 -0.17445447281E+04  0.17445447281E+04  0.50400001928E-02 0. -1.
    10030    2    1    2    0    0  0.00000000000E+00  0.00000000000E+00 -0.96399721823E+03  0.25250922380E+04  0.23338380779E+04 0.  0.
        2    1    3    3  502    0  0.86025154423E+03  0.78499981886E+03 -0.40217891238E+03  0.12320735824E+04  0.25500000920E-02 0. -1.
       -2    1    3    3    0  502 -0.86025154423E+03 -0.78499981886E+03 -0.56181830585E+03  0.12930186556E+04  0.25500000920E-02 0.  1.
</event>
<event>
 5   0  0.1626636E-05  0.2299437E+04  0.7818609E-02  0.8478143E-01
        2   -1    0    0  501    0  0.00000000000E+00  0.00000000000E+00  0.70969499785E+03  0.70969499785E+03  0.25500000920E-02 0.  1.
       -2   -1    0    0    0  501  0.00000000000E+00  0.00000000000E+00 -0.18625650285E+04  0.18625650285E+04  0.25500000920E-02 0. -1.
    10030    2    1    2    0    0  0.00000000000E+00  0.00000000000E+00 -0.11528700306E+04  0.25722600263E+04  0.22994373954E+04 0.  0.
        4    1    3    3  502    0  0.27377372047E+03 -0.26348818254E+03 -0.17902956595E+04  0.18301743725E+04  0.12699999809E+01 0. -1.
       -4    1    3    3    0  502 -0.27377372047E+03  0.26348818254E+03  0.63742562889E+03  0.74208565383E+03  0.12699999809E+01 0.  1.
</event>
<event>
 5   0  0.7391007E-06  0.2300077E+04  0.7818609E-02  0.8477891E-01
       -1   -1    0    0    0  501  0.00000000000E+00  0.00000000000E+00  0.94817498791E+03  0.94817498792E+03  0.50400001928E-02 0. -1.
        1   -1    0    0  501    0  0.00000000000E+00  0.00000000000E+00 -0.13948780225E+04  0.13948780225E+04  0.50400001928E-02 0.  1.
    10030    2    1    2    0    0  0.00000000000E+00  0.00000000000E+00 -0.44670303461E+03  0.23430530105E+04  0.23000769136E+04 0.  0.
        1    1    3    3  502    0  0.67008557795E+03 -0.43855975755E+03  0.61744236252E+03  0.10112291599E+04  0.50400001928E-02 0. -1.
       -1    1    3    3    0  502 -0.67008557795E+03  0.43855975755E+03 -0.10641453971E+04  0.13318238506E+04  0.50400001928E-02 0.  1.
</event>
<event>
 5   0  0.1602809E-05  0.2294516E+04  0.7818609E-02  0.8480086E-01
       -2   -1    0    0    0  501  0.00000000000E+00  0.00000000000E+00  0.15045623955E+04  0.15045623955E+04  0.25500000920E-02 0.  1.
        2   -1    0    0  501    0  0.00000000000E+00  0.00000000000E+00 -0.87480676035E+03  0.87480676035E+03  0.25500000920E-02 0. -1.
    10030    2    1    2    0    0  0.00000000000E+00  0.00000000000E+00  0.62975563511E+03  0.23793691558E+04  0.22945163803E+04 0.  0.
        3    1    3    3  502    0  0.11142214804E+04  0.33971167695E+01  0.31456946115E+02  0.11146706229E+04  0.10100000352E+00 0. -1.
       -3    1    3    3    0  502 -0.11142214804E+04 -0.33971167695E+01  0.59829868899E+03  0.12646985329E+04  0.10100000352E+00 0.  1.
</event>
<event>
 5   0  0.7391007E-06  0.2303278E+04  0.7818609E-02  0.8476630E-01
        1   -1    0    0  501    0  0.00000000000E+00  0.00000000000E+00  0.14439576829E+04  0.14439576829E+04  0.50400001928E-02 0. -1.
       -1   -1    0    0    0  501  0.00000000000E+00  0.00000000000E+00 -0.91849810913E+03  0.91849810914E+03  0.50400001928E-02 0.  1.
    10030    2    1    2    0    0  0.00000000000E+00  0.00000000000E+00  0.52545957379E+03  0.23624557921E+04  0.23032780131E+04 0.  0.
        1    1    3    3  502    0 -0.20931385297E+03 -0.98527685519E+03  0.83536560041E+03  0.13085940764E+04  0.50400001928E-02 0.  1.
       -1    1    3    3    0  502  0.20931385297E+03  0.98527685519E+03 -0.30990602662E+03  0.10538617157E+04  0.50400001928E-02 0. -1.
</event>
<event>
 5   0  0.1697855E-05  0.2305839E+04  0.7818609E-02  0.8475622E-01
       -2   -1    0    0    0  501  0.00000000000E+00  0.00000000000E+00  0.11268216157E+04  0.11268216157E+04  0.25500000920E-02 0. -1.
        2   -1    0    0  501    0  0.00000000000E+00  0.00000000000E+00 -0.11796217676E+04  0.11796217676E+04  0.25500000920E-02 0.  1.
    10030    2    1    2    0    0  0.00000000000E+00  0.00000000000E+00 -0.52800151810E+02  0.23064433833E+04  0.23058389415E+04 0.  0.
        5    1    3    3  502    0  0.11753593782E+03  0.50653961608E+03  0.10028517443E+04  0.11296595905E+04  0.46999998093E+01 0. -1.
       -5    1    3    3    0  502 -0.11753593782E+03 -0.50653961608E+03 -0.10556518961E+04  0.11767837928E+04  0.46999998093E+01 0.  1.
</event>
<event>
 5   0  0.7416556E-06  0.2299842E+04  0.7818609E-02  0.8477983E-01
       -1   -1    0    0    0  501  0.00000000000E+00  0.00000000000E+00  0.81412113111E+03  0.81412113113E+03  0.50400001928E-02 0.  1.
        1   -1    0    0  501    0  0.00000000000E+00  0.00000000000E+00 -0.16242281023E+04  0.16242281023E+04  0.50400001928E-02 0. -1.
    10030    2    1    2    0    0  0.00000000000E+00  0.00000000000E+00 -0.81010697118E+03  0.24383492334E+04  0.22998420988E+04 0.  0.
        4    1    3    3  502    0 -0.62304409755E+03  0.86587174268E+02  0.61553898547E+03  0.88009723427E+03  0.12699999809E+01 0.  1.
       -4    1    3    3    0  502  0.62304409755E+03 -0.86587174268E+02 -0.14256459566E+04  0.15582519991E+04  0.12699999809E+01 0. -1.
</event>
<event>
 5   0  0.1635955E-05  0.2294909E+04  0.7818609E-02  0.8479931E-01
        2   -1    0    0  501    0  0.00000000000E+00  0.00000000000E+00  0.17647734413E+04  0.17647734413E+04  0.25500000920E-02 0. -1.
       -2   -1    0    0    0  501  0.00000000000E+00  0.00000000000E+00 -0.74607437286E+03  0.74607437286E+03  0.25500000920E-02 0.  1.
    10030    2    1    2    0    0  0.00000000000E+00  0.00000000000E+00  0.10186990684E+04  0.25108478141E+04  0.22949093563E+04 0.  0.
        2    1    3    3  502    0  0.54750702897E+03 -0.52265909862E+02  0.16111611770E+04  0.17024500023E+04  0.25500000920E-02 0. -1.
       -2    1    3    3    0  502 -0.54750702897E+03  0.52265909862E+02 -0.59246210856E+03  0.80839781185E+03  0.25500000920E-02 0.  1.
</event>
<event>
 5   0  0.1602809E-05  0.2326969E+04  0.7818609E-02  0.8467363E-01
       -2   -1    0    0    0  501  0.00000000000E+00  0.00000000000E+00  0.11043759260E+04  0.11043759260E+04  0.25500000920E-02 0.  1.
        2   -1    0    0  501    0  0.00000000000E+00  0.00000000000E+00 -0.12257568937E+04  0.12257568937E+04  0.25500000920E-02 0. -1.
    10030    2    1    2    0    0  0.00000000000E+00  0.00000000000E+00 -0.12138096764E+03  0.23301328197E+04  0.23269691915E+04 0.  0.
        3    1    3    3  502    0  0.90356263920E+03 -0.48392264620E+03  0.49059393908E+03  0.11363489753E+04  0.10100000352E+00 0.  1.
       -3    1    3    3    0  502 -0.90356263920E+03  0.48392264620E+03 -0.61197490672E+03  0.11937838444E+04  0.10100000352E+00 0. -1.
</event>
<event>
 5   0  0.7278815E-06  0.2306069E+04  0.7818609E-02  0.8475532E-01
        1   -1    0    0  501    0  0.00000000000E+00  0.00000000000E+00  0.19731643305E+04  0.19731643306E+04  0.50400001928E-02 0. -1.
       -1   -1    0    0    0  501  0.00000000000E+00  0.00000000000E+00 -0.67378523721E+03  0.67378523723E+03  0.50400001928E-02 0.  1.
    10030    2    1    2    0    0  0.00000000000E+00  0.00000000000E+00  0.12993790933E+04  0.26469495678E+04  0.23060693802E+04 0.  0.
        5    1    3    3  502    0 -0.71602280061E+03  0.88404497539E+03  0.86517011495E+03  0.14292535070E+04  0.46999998093E+01 0. -1.
       -5    1    3    3    0  502  0.71602280061E+03 -0.88404497539E+03  0.43420897838E+03  0.12176960608E+04  0.46999998093E+01 0.  1.
</event>
<event>
 5   0  0.5704875E-06  0.2302230E+04  0.7818609E-02  0.8477042E-01
        4   -1    0    0  501    0  0.00000000000E+00  0.00000000000E+00  0.18095937020E+04  0.18095941477E+04  0.12699999809E+01 0.  1.
       -4   -1    0    0    0  501  0.00000000000E+00  0.00000000000E+00 -0.73224365335E+03  0.73224475469E+03  0.12699999809E+01 0. -1.
    10030    2    1    2    0    0  0.00000000000E+00  0.00000000000E+00  0.10773500486E+04  0.25418389023E+04  0.23022297622E+04 0.  0.
        4    1    3    3  502    0  0.97406654418E+03 -0.17834895167E+03  0.11866561774E+04  0.15455641291E+04  0.12699999809E+01 0.  1.
       -4    1    3    3    0  502 -0.97406654418E+03  0.17834895167E+03 -0.10930612873E+03  0.99627477320E+03  0.12699999809E+01 0. -1.
</event>
<event>
 5   0  0.1626636E-05  0.2258290E+04  0.7818609E-02  0.8494551E-01
       -2   -1    0    0    0  501  0.00000000000E+00  0.00000000000E+00  0.18117225446E+04  0.18117225446E+04  0.25500000920E-02 0.  1.
        2   -1    0    0  501    0  0.00000000000E+00  0.00000000000E+00 -0.70373262760E+03  0.70373262760E+03  0.25500000920E-02 0. -1.
    10030    2    1    2    0    0  0.00000000000E+00  0.00000000000E+00  0.11079899170E+04  0.25154551722E+04  0.22582898546E+04 0.  0.
        4    1    3    3  502    0  0.14635270454E+03  0.43429239116E+03 -0.59547861497E+03  0.75141559003E+03  0.12699999809E+01 0. -1.
       -4    1    3    3    0  502 -0.14635270454E+03 -0.43429239116E+03  0.17034685320E+04  0.17640395822E+04  0.12699999809E+01 0.  1.
</event>
<event>
 5   0  0.1635955E-05  0.2278387E+04  0.7818609E-02  0.8486492E-01
        2   -1    0    0  501    0  0.00000000000E+00  0.00000000000E+00  0.20968807094E+04  0.20968807094E+04  0.25500000920E-02 0.  1.
       -2   -1    0    0    0  501  0.00000000000E+00  0.00000000000E+00 -0.61890135245E+03  0.61890135246E+03  0.25500000920E-02 0. -1.
    10030    2    1    2    0    0  0.00000000000E+00  0.00000000000E+00  0.14779793570E+04  0.27157820619E+04  0.22783874183E+04 0.  0.
        2    1    3    3  502    0  0.97102432147E+02 -0.42802234576E+03  0.19920560764E+04  0.20398331849E+04  0.25500000920E-02 0.  1.
       -2    1    3    3    0  502 -0.97102432147E+02  0.42802234576E+03 -0.51407671942E+03  0.67594887696E+03  0.25500000920E-02 0. -1.
</event>
<event>
 5   0  0.7202572E-06  0.2282633E+04  0.7818609E-02  0.8484800E-01
       -1   -1    0    0    0  501  0.00000000000E+00  0.00000000000E+00  0.11987787940E+04  0.11987787940E+04  0.50400001928E-02 0. -1.
        1   -1    0    0  501    0  0.00000000000E+00  0.00000000000E+00 -0.10866085002E+04  0.10866085002E+04  0.50400001928E-02 0.  1.
    10030    2    1    2    0    0  0.00000000000E+00  0.00000000000E+00  0.11217029382E+03  0.22853872942E+04  0.22826328899E+04 0.  0.
        2    1    3    3  502    0  0.10586776758E+04 -0.12251665192E+03  0.46498275480E+03  0.11627629653E+04  0.25500000920E-02 0. -1.
       -2    1    3    3    0  502 -0.10586776758E+04  0.12251665192E+03 -0.35281246098E+03  0.11226243289E+04  0.25500000920E-02 0.  1.
</event>
<event>
 5   0  0.1635955E-05  0.2295427E+04  0.7818609E-02  0.8479726E-01
        2   -1    0    0  501    0  0.00000000000E+00  0.00000000000E+00  0.19156492765E+04  0.19156492765E+04  0.25500000920E-02 0.  1.
       -2   -1    0    0    0  501  0.00000000000E+00  0.00000000000E+00 -0.68762413161E+03  0.68762413161E+03  0.25500000920E-02 0. -1.
    10030    2    1    2    0    0  0.00000000000E+00  0.00000000000E+00  0.12280251449E+04  0.26032734081E+04  0.22954273417E+04 0.  0.
        2    1    3    3  502    0  0.88700480978E+03 -0.30857426581E+03  0.13622271246E+04  0.16545870630E+04  0.25500000920E-02 0.  1.
       -2    1    3    3    0  502 -0.88700480978E+03  0.30857426581E+03 -0.13420197967E+03  0.94868634514E+03  0.25500000920E-02 0. -1.
</event>
<event>
 5   0  0.1697855E-05  0.2292507E+04  0.7818609E-02  0.8480881E-01
       -2   -1    0    0    0  501  0.00000000000E+00  0.00000000000E+00  0.89566138892E+03  0.89566138893E+03  0.25500000920E-02 0. -1.
        2   -1    0    0  501    0  0.00000000000E+00  0.00000000000E+00 -0.14669569735E+04  0.14669569735E+04  0.25500000920E-02 0.  1.
    10030    2    1    2    0    0  0.00000000000E+00  0.00000000000E+00 -0.57129558459E+03  0.23626183624E+04  0.22925066808E+04 0.  0.
        5    1    3    3  502    0 -0.63854551207E+03 -0.44548109868E+02  0.69430045932E+03  0.94435169449E+03  0.46999998093E+01 0. -1.
       -5    1    3    3    0  502  0.63854551207E+03  0.44548109868E+02 -0.12655960439E+04  0.14182666680E+04  0.46999998093E+01 0.  1.
</event>
<event>
 5   0  0.1626636E-05  0.2342512E+04  0.7818609E-02  0.8461345E-01
       -2   -1    0    0    0  501  0.00000000000E+00  0.00000000000E+00  0.86521387225E+03  0.86521387225E+03  0.25500000920E-02 0. -1.
        2   -1    0    0  501    0  0.00000000000E+00  0.00000000000E+00 -0.15855505150E+04  0.15855505150E+04  0.25500000920E-02 0.  1.
    10030    2    1    2    0    0  0.00000000000E+00  0.00000000000E+00 -0.72033664273E+03  0.24507643872E+04  0.23425117295E+04 0.  0.
        4    1    3    3  502    0  0.87042896721E+03  0.24957820929E+03 -0.11374010723E+04  0.14538289727E+04  0.12699999809E+01 0.  1.
       -4    1    3    3    0  502 -0.87042896721E+03 -0.24957820929E+03  0.41706442959E+03  0.99693541458E+03  0.12699999809E+01 0. -1.
</event>
<event>
 5   0  0.1635955E-05  0.2296575E+04  0.7818609E-02  0.8479273E-01
        2   -1    0    0  501    0  0.00000000000E+00  0.00000000000E+00  0.12503987843E+04  0.12503987843E+04  0.25500000920E-02 0.  1.
       -2   -1    0    0    0  501  0.00000000000E+00  0.00000000000E+00 -0.10545149508E+04  0.10545149508E+04  0.25500000920E-02 0. -1.
    10030    2    1    2    0    0  0.00000000000E+00  0.00000000000E+00  0.19588383353E+03  0.23049137351E+04  0.22965750260E+04 0.  0.
        2    1    3    3  502    0 -0.11531083443E+03 -0.91447195388E+02 -0.10450104365E+04  0.10553226950E+04  0.25500000920E-02 0. -1.
       -2    1    3    3    0  502  0.11531083443E+03  0.91447195388E+02  0.12408942700E+04  0.12495910401E+04  0.25500000920E-02 0.  1.
</event>
<event>
 5   0  0.1697855E-05  0.2299170E+04  0.7818609E-02  0.8478248E-01
       -2   -1    0    0    0  501  0.00000000000E+00  0.00000000000E+00  0.71219640722E+03  0.71219640723E+03  0.25500000920E-02 0. -1.
        2   -1    0    0  501    0  0.00000000000E+00  0.00000000000E+00 -0.18555913710E+04  0.18555913710E+04  0.25500000920E-02 0.  1.
    10030    2    1    2    0    0  0.00000000000E+00  0.00000000000E+00 -0.11433949638E+04  0.25677877782E+04  0.22991698569E+04 0.  0.
        5    1    3    3  502    0 -0.81057678498E+03  0.32193802119E+03 -0.14080884671E+04  0.16563254617E+04  0.46999998093E+01 0.  1.
       -5    1    3    3    0  502  0.81057678498E+03 -0.32193802119E+03  0.26469350330E+03  0.91146231657E+03  0.46999998093E+01 0. -1.
</event>
<event>
 5   0  0.7391007E-06  0.2306623E+04  0.7818609E-02  0.8475314E-01
       -1   -1    0    0    0  501  0.00000000000E+00  0.00000000000E+00  0.61096284059E+03  0.61096284061E+03  0.50400001928E-02 0. -1.
        1   -1    0    0  501    0  0.00000000000E+00  0.00000000000E+00 -0.21770997522E+04  0.21770997522E+04  0.50400001928E-02 0.  1.
    10030    2    1    2    0    0  0.00000000000E+00  0.00000000000E+00 -0.15661369116E+04  0.27880625928E+04  0.23066226817E+04 0.  0.
        1    1    3    3  502    0 -0.59830408355E+03  0.23798007933E+03 -0.19396093857E+04  0.20436944154E+04  0.50400001928E-02 0.  1.
       -1    1    3    3    0  502  0.59830408355E+03 -0.23798007933E+03  0.37347247410E+03  0.74436817737E+03  0.50400001928E-02 0. -1.
</event>
<event>
 5   0  0.1602809E-05  0.2304095E+04  0.7818609E-02  0.8476308E-01
       -2   -1    0    0    0  501  0.00000000000E+00  0.00000000000E+00  0.10441518361E+04  0.10441518361E+04  0.25500000920E-02 0. -1.
        2   -1    0    0  501    0  0.00000000000E+00  0.00000000000E+00 -0.12710920590E+04  0.12710920590E+04  0.25500000920E-02 0.  1.
    10030    2    1    2    0    0  0.00000000000E+00  0.00000000000E+00 -0.22694022284E+03  0.23152438951E+04  0.23040947092E+04 0.  0.
        3    1    3    3  502    0 -0.76665508927E+02  0.11488267970E+04 -0.74133688277E+02  0.11537661911E+04  0.10100000352E+00 0.  1.
       -3    1    3    3    0  502  0.76665508927E+02 -0.11488267970E+04 -0.15280653456E+03  0.11614777040E+04  0.10100000352E+00 0. -1.
</event>
<event>
 5   0  0.7391007E-06  0.2304949E+04  0.7818609E-02  0.8475972E-01
       -1   -1    0    0    0  501  0.00000000000E+00  0.00000000000E+00  0.80093381699E+03  0.80093381701E+03  0.50400001928E-02 0.  1.
        1   -1    0    0  501    0  0.00000000000E+00  0.00000000000E+00 -0.16583113976E+04  0.16583113976E+04  0.50400001928E-02 0. -1.
    10030    2    1    2    0    0  0.00000000000E+00  0.00000000000E+00 -0.85737758063E+03  0.24592452146E+04  0.23049491773E+04 0.  0.
        1    1    3    3  502    0 -0.24683409538E+03  0.20184847109E+03 -0.16103124532E+04  0.16415773125E+04  0.50400001928E-02 0. -1.
       -1    1    3    3    0  502  0.24683409538E+03 -0.20184847109E+03  0.75293487255E+03  0.81766790217E+03  0.50400001928E-02 0.  1.
</event>
<event>
 5   0  0.1635955E-05  0.2298701E+04  0.7818609E-02  0.8478433E-01
        2   -1    0    0  501    0  0.00000000000E+00  0.00000000000E+00  0.30950145276E+04  0.30950145276E+04  0.25500000920E-02 0.  1.
       -2   -1    0    0    0  501  0.00000000000E+00  0.00000000000E+00 -0.42681755096E+03  0.42681755096E+03  0.25500000920E-02 0. -1.
    10030    2    1    2    0    0  0.00000000000E+00  0.00000000000E+00  0.26681969767E+04  0.35218320786E+04  0.22987009557E+04 0.  0.
        2    1    3    3  502    0  0.28250821718E+03 -0.92930537798E+03  0.39265389152E+03  0.10476623773E+04  0.25500000920E-02 0. -1.
       -2    1    3    3    0  502 -0.28250821718E+03  0.92930537798E+03  0.22755430852E+04  0.24741697013E+04  0.25500000920E-02 0.  1.
</event>
<event>
 5   0  0.1697855E-05  0.2244680E+04  0.7818609E-02  0.8500058E-01
       -2   -1    0    0    0  501  0.00000000000E+00  0.00000000000E+00  0.72764963106E+03  0.72764963106E+03  0.25500000920E-02 0.  1.
        2   -1    0    0  501    0  0.00000000000E+00  0.00000000000E+00 -0.17311169787E+04  0.17311169787E+04  0.25500000920E-02 0. -1.
    10030    2    1    2    0    0  0.00000000000E+00  0.00000000000E+00 -0.10034673477E+04  0.24587666098E+04  0.22446796038E+04 0.  0.
        5    1    3    3  502    0  0.28948253132E+03 -0.27769357988E+03 -0.16498995082E+04  0.16979706527E+04  0.46999998093E+01 0. -1.
       -5    1    3    3    0  502 -0.28948253132E+03  0.27769357988E+03  0.64643216050E+03  0.76079595712E+03  0.46999998093E+01 0.  1.
</event>
<event>
 5   0  0.7183014E-06  0.2137736E+04  0.7818609E-02  0.8544800E-01
        1   -1    0    0  501    0  0.00000000000E+00  0.00000000000E+00  0.17196339435E+04  0.17196339436E+04  0.50400001928E-02 0. -1.
       -1   -1    0    0    0  501  0.00000000000E+00  0.00000000000E+00 -0.66437349450E+03  0.66437349451E+03  0.50400001928E-02 0.  1.
    10030    2    1    2    0    0  0.00000000000E+00  0.00000000000E+00  0.10552604491E+04  0.23840074381E+04  0.21377363845E+04 0.  0.
        3    1    3    3  502    0 -0.20826335832E+03  0.46358777495E+03  0.15762709870E+04  0.16561755602E+04  0.10100000352E+00 0. -1.
       -3    1    3    3    0  502  0.20826335832E+03 -0.46358777495E+03 -0.52101053799E+03  0.72783187784E+03  0.10100000352E+00 0.  1.
</event>
<event>
 5   0  0.7391007E-06  0.2220684E+04  0.7818609E-02  0.8509868E-01
       -1   -1    0    0    0  501  0.00000000000E+00  0.00000000000E+00  0.13702513653E+04  0.13702513653E+04  0.50400001928E-02 0.  1.
        1   -1    0    0  501    0  0.00000000000E+00  0.00000000000E+00 -0.89973216862E+03  0.89973216864E+03  0.50400001928E-02 0. -1.
    10030    2    1    2    0    0  0.00000000000E+00  0.00000000000E+00  0.47051919663E+03  0.22699835339E+04  0.22206838879E+04 0.  0.
        1    1    3    3  502    0  0.26047120689E+03 -0.10372751808E+04  0.54033829811E+03  0.11982280780E+04  0.50400001928E-02 0.  1.
       -1    1    3    3    0  502 -0.26047120689E+03  0.10372751808E+04 -0.69819101474E+02  0.10717554559E+04  0.50400001928E-02 0. -1.
</event>
<event>
 5   0  0.7278815E-06  0.2286666E+04  0.7818609E-02  0.8483197E-01
       -1   -1    0    0    0  501  0.00000000000E+00  0.00000000000E+00  0.10372199378E+04  0.10372199378E+04  0.50400001928E-02 0. -1.
        1   -1    0    0  501    0  0.00000000000E+00  0.00000000000E+00 -0.12603017194E+04  0.12603017194E+04  0.50400001928E-02 0.  1.
    10030    2    1    2    0    0  0.00000000000E+00  0.00000000000E+00 -0.22308178160E+03  0.22975216573E+04  0.22866657570E+04 0.  0.
        5    1    3    3  502    0 -0.31668477259E+03  0.42783150670E+02 -0.12145085125E+04  0.12558553499E+04  0.46999998093E+01 0.  1.
       -5    1    3    3    0  502  0.31668477259E+03 -0.42783150670E+02  0.99142673085E+03  0.10416663073E+04  0.46999998093E+01 0. -1.
</event>
<event>
 5   0  0.5704875E-06  0.2300104E+04  0.7818609E-02  0.8477880E-01
        3   -1    0    0  501    0  0.00000000000E+00  0.00000000000E+00  0.24575793492E+04  0.24575793513E+04  0.10100000352E+00 0. -1.
       -3   -1    0    0    0  501  0.00000000000E+00  0.00000000000E+00 -0.53817957910E+03  0.53817958857E+03  0.10100000352E+00 0.  1.
    10030    2    1    2    0    0  0.00000000000E+00  0.00000000000E+00  0.19193997701E+04  0.29957589399E+04  0.23001035082E+04 0.  0.
        1    1    3    3  502    0  0.89430734943E+03  0.72175615153E+03  0.10164939594E+04  0.15342677560E+04  0.50400001928E-02 0.  1.
       -1    1    3    3    0  502 -0.89430734943E+03 -0.72175615153E+03  0.90290581072E+03  0.14614911839E+04  0.50400001928E-02 0. -1.
</event>
<event>
 5   0  0.7183014E-06  0.2334160E+04  0.7818609E-02  0.8464573E-01
       -1   -1    0    0    0  501  0.00000000000E+00  0.00000000000E+00  0.11574243470E+04  0.11574243470E+04  0.50400001928E-02 0.  1.
        1   -1    0    0  501    0  0.00000000000E+00  0.00000000000E+00 -0.11768157136E+04  0.11768157136E+04  0.50400001928E-02 0. -1.
    10030    2    1    2    0    0  0.00000000000E+00  0.00000000000E+00 -0.19391366658E+02  0.23342400606E+04  0.23341595137E+04 0.  0.
        3    1    3    3  502    0  0.49189601436E+03  0.45320733460E+03  0.94674548191E+03  0.11591745316E+04  0.10100000352E+00 0.  1.
       -3    1    3    3    0  502 -0.49189601436E+03 -0.45320733460E+03 -0.96613684857E+03  0.11750655290E+04  0.10100000352E+00 0. -1.
</event>
<event>
 5   0  0.1697855E-05  0.2304768E+04  0.7818609E-02  0.8476043E-01
        2   -1    0    0  501    0  0.00000000000E+00  0.00000000000E+00  0.15096155213E+04  0.15096155213E+04  0.25500000920E-02 0.  1.
       -2   -1    0    0    0  501  0.00000000000E+00  0.00000000000E+00 -0.87968693046E+03  0.87968693047E+03  0.25500000920E-02 0. -1.
    10030    2    1    2    0    0  0.00000000000E+00  0.00000000000E+00  0.62992859079E+03  0.23893024517E+04  0.23047681394E+04 0.  0.
        5    1    3    3  502    0 -0.66147400701E+03 -0.27361158509E+03 -0.62124020694E+03  0.94782521921E+03  0.46999998093E+01 0. -1.
       -5    1    3    3    0  502  0.66147400701E+03  0.27361158509E+03  0.12511687977E+04  0.14414772325E+04  0.46999998093E+01 0.  1.
</event>
<event>
 5   0  0.5704875E-06  0.2281983E+04  0.7818609E-02  0.8485059E-01
        3   -1    0    0  501    0  0.00000000000E+00  0.00000000000E+00  0.11850033732E+04  0.11850033775E+04  0.10100000352E+00 0.  1.
       -3   -1    0    0    0  501  0.00000000000E+00  0.00000000000E+00 -0.10986142257E+04  0.10986142303E+04  0.10100000352E+00 0. -1.
    10030    2    1    2    0    0  0.00000000000E+00  0.00000000000E+00  0.86389147534E+02  0.22836176078E+04  0.22819829741E+04 0.  0.
        4    1    3    3  502    0  0.24192539747E+03 -0.10272122563E+04  0.47728755456E+03  0.11582305211E+04  0.12699999809E+01 0.  1.
       -4    1    3    3    0  502 -0.24192539747E+03  0.10272122563E+04 -0.39089840702E+03  0.11253870867E+04  0.12699999809E+01 0. -1.
</event>
<event>
 5   0  0.1697855E-05  0.2290608E+04  0.7818609E-02  0.8481634E-01
        2   -1    0    0  501    0  0.00000000000E+00  0.00000000000E+00  0.13569186360E+04  0.13569186360E+04  0.25500000920E-02 0.  1.
       -2   -1    0    0    0  501  0.00000000000E+00  0.00000000000E+00 -0.96669089411E+03  0.96669089412E+03  0.25500000920E-02 0. -1.
    10030    2    1    2    0    0  0.00000000000E+00  0.00000000000E+00  0.39022774193E+03  0.23236095302E+04  0.22906076831E+04 0.  0.
        5    1    3    3  502    0 -0.14003501808E+03 -0.98888660253E+03  0.76371823851E+03  0.12572963679E+04  0.46999998093E+01 0.  1.
       -5    1    3    3    0  502  0.14003501808E+03  0.98888660253E+03 -0.37349049657E+03  0.10663131622E+04  0.46999998093E+01 0. -1.
</event>
<event>
 5   0  0.7391007E-06  0.2310237E+04  0.7818609E-02  0.8473896E-01
        1   -1    0    0  501    0  0.00000000000E+00  0.00000000000E+00  0.13325855779E+04  0.13325855779E+04  0.50400001928E-02 0. -1.
       -1   -1    0    0    0  501  0.00000000000E+00  0.00000000000E+00 -0.10012853463E+04  0.10012853463E+04  0.50400001928E-02 0.  1.
    10030    2    1    2    0    0  0.00000000000E+00  0.00000000000E+00  0.33130023168E+03  0.23338709242E+04  0.23102367081E+04 0.  0.
        1    1    3    3  502    0 -0.88540767121E+02  0.11465305837E+04  0.27597615893E+03  0.11825965868E+04  0.50400001928E-02 0. -1.
       -1    1    3    3    0  502  0.88540767121E+02 -0.11465305837E+04  0.55324072750E+02  0.11512743374E+04  0.50400001928E-02 0.  1.
</event>
<event>
 5   0  0.7278815E-06  0.2315231E+04  0.7818609E-02  0.8471940E-01
       -1   -1    0    0    0  501  0.00000000000E+00  0.00000000000E+00  0.13015909088E+04  0.13015909088E+04  0.50400001928E-02 0. -1.
        1   -1    0    0  501    0  0.00000000000E+00  0.00000000000E+00 -0.10295662734E+04  0.10295662734E+04  0.50400001928E-02 0.  1.
    10030    2    1    2    0    0  0.00000000000E+00  0.00000000000E+00  0.27202463534E+03  0.23311571822E+04  0.23152313936E+04 0.  0.
        5    1    3    3  502    0 -0.49673363005E+03  0.68422759674E+03  0.93210916879E+03  0.12584757828E+04  0.46999998093E+01 0.  1.
       -5    1    3    3    0  502  0.49673363005E+03 -0.68422759674E+03 -0.66008453345E+03  0.10726813994E+04  0.46999998093E+01 0. -1.
</event>
<event>
 5   0  0.1602809E-05  0.2292299E+04  0.7818609E-02  0.8480964E-01
       -2   -1    0    0    0  501  0.00000000000E+00  0.00000000000E+00  0.54122757504E+03  0.54122757504E+03  0.25500000920E-02 0.  1.
        2   -1    0    0  501    0  0.00000000000E+00  0.00000000000E+00 -0.24271840308E+04  0.24271840308E+04  0.25500000920E-02 0. -1.
    10030    2    1    2    0    0  0.00000000000E+00  0.00000000000E+00 -0.18859564558E+04  0.29684116059E+04  0.22922992189E+04 0.  0.
        3    1    3    3  502    0  0.71364316784E+03  0.69581069688E+03 -0.21019264022E+03  0.10186363694E+04  0.10100000352E+00 0.  1.
       -3    1    3    3    0  502 -0.71364316784E+03 -0.69581069688E+03 -0.16757638156E+04  0.19497752365E+04  0.10100000352E+00 0. -1.
</event>
<event>
 5   0  0.1697855E-05  0.2296285E+04  0.7818609E-02  0.8479387E-01
       -2   -1    0    0    0  501  0.00000000000E+00  0.00000000000E+00  0.85288757028E+03  0.85288757028E+03  0.25500000920E-02 0. -1.
        2   -1    0    0  501    0  0.00000000000E+00  0.00000000000E+00 -0.15456095580E+04  0.15456095580E+04  0.25500000920E-02 0.  1.
    10030    2    1    2    0    0  0.00000000000E+00  0.00000000000E+00 -0.69272198767E+03  0.23984971282E+04  0.22962849827E+04 0.  0.
        5    1    3    3  502    0 -0.73727352652E+03 -0.56580939949E+03 -0.10505329382E+04  0.14026239959E+04  0.46999998093E+01 0.  1.
       -5    1    3    3    0  502  0.73727352652E+03  0.56580939949E+03  0.35781095055E+03  0.99587313238E+03  0.46999998093E+01 0. -1.
</event>
<event>
 5   0  0.5704875E-06  0.2300690E+04  0.7818609E-02  0.8477649E-01
        3   -1    0    0  501    0  0.00000000000E+00  0.00000000000E+00  0.10740166127E+04  0.10740166174E+04  0.10100000352E+00 0.  1.
       -3   -1    0    0    0  501  0.00000000000E+00  0.00000000000E+00 -0.12320975147E+04  0.12320975189E+04  0.10100000352E+00 0. -1.
    10030    2    1    2    0    0  0.00000000000E+00  0.00000000000E+00 -0.15808090204E+03  0.23061141363E+04  0.23006896440E+04 0.  0.
        3    1    3    3  502    0 -0.10010250623E+04 -0.27281183223E+03 -0.57701732663E+03  0.11871926872E+04  0.10100000352E+00 0. -1.
       -3    1    3    3    0  502  0.10010250623E+04  0.27281183223E+03  0.41893642459E+03  0.11189214491E+04  0.10100000352E+00 0.  1.
</event>
<event>
 5   0  0.1626636E-05  0.2302296E+04  0.7818609E-02  0.8477016E-01
       -2   -1    0    0    0  501  0.00000000000E+00  0.00000000000E+00  0.73155694637E+03  0.73155694638E+03  0.25500000920E-02 0. -1.
        2   -1    0    0  501    0  0.00000000000E+00  0.00000000000E+00 -0.18113988563E+04  0.18113988563E+04  0.25500000920E-02 0.  1.
    10030    2    1    2    0    0  0.00000000000E+00  0.00000000000E+00 -0.10798419099E+04  0.25429558026E+04  0.23022957377E+04 0.  0.
        4    1    3    3  502    0 -0.99636716798E+03  0.18422485189E+03 -0.11433358433E+04  0.15277122742E+04  0.12699999809E+01 0.  1.
       -4    1    3    3    0  502  0.99636716798E+03 -0.18422485189E+03  0.63493933370E+02  0.10152435284E+04  0.12699999809E+01 0. -1.
</event>
<event>
 5   0  0.7183014E-06  0.2300934E+04  0.7818609E-02  0.8477553E-01
       -1   -1    0    0    0  501  0.00000000000E+00  0.00000000000E+00  0.90647817990E+03  0.90647817991E+03  0.50400001928E-02 0. -1.
        1   -1    0    0  501    0  0.00000000000E+00  0.00000000000E+00 -0.14601275447E+04  0.14601275447E+04  0.50400001928E-02 0.  1.
    10030    2    1    2    0    0  0.00000000000E+00  0.00000000000E+00 -0.55364936483E+03  0.23666057246E+04  0.23009335142E+04 0.  0.
        3    1    3    3  502    0 -0.37501705950E+03 -0.72594220295E+03  0.55619484174E+03  0.98842429610E+03  0.10100000352E+00 0. -1.
       -3    1    3    3    0  502  0.37501705950E+03  0.72594220295E+03 -0.11098442066E+04  0.13781814286E+04  0.10100000352E+00 0.  1.
</event>
<event>
 5   0  0.7416556E-06  0.2286695E+04  0.7818609E-02  0.8483186E-01
       -1   -1    0    0    0  501  0.00000000000E+00  0.00000000000E+00  0.12319665605E+04  0.12319665605E+04  0.50400001928E-02 0. -1.
        1   -1    0    0  501    0  0.00000000000E+00  0.00000000000E+00 -0.10611031268E+04  0.10611031268E+04  0.50400001928E-02 0.  1.
    10030    2    1    2    0    0  0.00000000000E+00  0.00000000000E+00  0.17086343378E+03  0.22930696873E+04  0.22866950557E+04 0.  0.
        4    1    3    3  502    0 -0.62257026165E+03  0.49646574206E+02 -0.87493500748E+03  0.10749750663E+04  0.12699999809E+01 0.  1.
       -4    1    3    3    0  502  0.62257026165E+03 -0.49646574206E+02  0.10457984413E+04  0.12180946210E+04  0.12699999809E+01 0. -1.
</event>
<event>
 5   0  0.7416556E-06  0.2281438E+04  0.7818609E-02  0.8485276E-01
        1   -1    0    0  501    0  0.00000000000E+00  0.00000000000E+00  0.15815389577E+04  0.15815389577E+04  0.50400001928E-02 0.  1.
       -1   -1    0    0    0  501  0.00000000000E+00  0.00000000000E+00 -0.82276776557E+03  0.82276776558E+03  0.50400001928E-02 0. -1.
    10030    2    1    2    0    0  0.00000000000E+00  0.00000000000E+00  0.75877119211E+03  0.24043067233E+04  0.22814375068E+04 0.  0.
        4    1    3    3  502    0 -0.74064446447E+03 -0.13178787170E+03 -0.52430158823E+03  0.91696021407E+03  0.12699999809E+01 0. -1.
       -4    1    3    3    0  502  0.74064446447E+03  0.13178787170E+03  0.12830727803E+04  0.14873465092E+04  0.12699999809E+01 0.  1.
</event>
<event>
 5   0  0.7416556E-06  0.2295285E+04  0.7818609E-02  0.8479783E-01
       -1   -1    0    0    0  501  0.00000000000E+00  0.00000000000E+00  0.82280429944E+03  0.82280429945E+03  0.50400001928E-02 0.  1.
        1   -1    0    0  501    0  0.00000000000E+00  0.00000000000E+00 -0.16007242363E+04  0.16007242363E+04  0.50400001928E-02 0. -1.
    10030    2    1    2    0    0  0.00000000000E+00  0.00000000000E+00 -0.77791993684E+03  0.24235285357E+04  0.22952845435E+04 0.  0.
        4    1    3    3  502    0  0.97773573562E+03  0.17905676839E+03  0.21672154592E+03  0.10173486798E+04  0.12699999809E+01 0.  1.
       -4    1    3    3    0  502 -0.97773573562E+03 -0.17905676839E+03 -0.99464148276E+03  0.14061798559E+04  0.12699999809E+01 0. -1.
</event>
<event>
 5   0  0.7391007E-06  0.2304800E+04  0.7818609E-02  0.8476031E-01
       -1   -1    0    0    0  501  0.00000000000E+00  0.00000000000E+00  0.12429541369E+04  0.12429541369E+04  0.50400001928E-02 0.  1.
        1   -1    0    0  501    0  0.00000000000E+00  0.00000000000E+00 -0.10684433991E+04  0.10684433992E+04  0.50400001928E-02 0. -1.
    10030    2    1    2    0    0  0.00000000000E+00  0.00000000000E+00  0.17451073774E+03  0.23113975360E+04  0.23048003324E+04 0.  0.
        1    1    3    3  502    0  0.89057185023E+03  0.35412769353E+03  0.72901011047E+03  0.12041513131E+04  0.50400001928E-02 0.  1.
       -1    1    3    3    0  502 -0.89057185023E+03 -0.35412769353E+03 -0.55449937274E+03  0.11072462229E+04  0.50400001928E-02 0. -1.
</event>
<event>
 5   0  0.7278815E-06  0.2302072E+04  0.7818609E-02  0.8477105E-01
       -1   -1    0    0    0  501  0.00000000000E+00  0.00000000000E+00  0.79645548959E+03  0.79645548960E+03  0.50400001928E-02 0. -1.
        1   -1    0    0  501    0  0.00000000000E+00  0.00000000000E+00 -0.16634744413E+04  0.16634744413E+04  0.50400001928E-02 0.  1.
    10030    2    1    2    0    0  0.00000000000E+00  0.00000000000E+00 -0.86701895169E+03  0.24599299309E+04  0.23020715459E+04 0.  0.
        5    1    3    3  502    0  0.89551680342E+03  0.66217032539E+03 -0.12299520151E+03  0.11205221081E+04  0.46999998093E+01 0. -1.
       -5    1    3    3    0  502 -0.89551680342E+03 -0.66217032539E+03 -0.74402375017E+03  0.13394078228E+04  0.46999998093E+01 0.  1.
</event>
<event>
 5   0  0.1626636E-05  0.2304671E+04  0.7818609E-02  0.8476082E-01
        2   -1    0    0  501    0  0.00000000000E+00  0.00000000000E+00  0.13176887001E+04  0.13176887001E+04  0.25500000920E-02 0.  1.
       -2   -1    0    0    0  501  0.00000000000E+00  0.00000000000E+00 -0.10077321104E+04  0.10077321104E+04  0.25500000920E-02 0. -1.
    10030    2    1    2    0    0  0.00000000000E+00  0.00000000000E+00  0.30995658963E+03  0.23254208105E+04  0.23046710955E+04 0.  0.
        4    1    3    3  502    0  0.10335202091E+04  0.88392376511E+02  0.66139179595E+03  0.12302105330E+04  0.12699999809E+01 0.  1.
       -4    1    3    3    0  502 -0.10335202091E+04 -0.88392376511E+02 -0.35143520633E+03  0.10952102775E+04  0.12699999809E+01 0. -1.
</event>
<event>
 5   0  0.7278815E-06  0.2300586E+04  0.7818609E-02  0.8477690E-01
       -1   -1    0    0    0  501  0.00000000000E+00  0.00000000000E+00  0.66309283158E+03  0.66309283160E+03  0.50400001928E-02 0. -1.
        1   -1    0    0  501    0  0.00000000000E+00  0.00000000000E+00 -0.19954588717E+04  0.19954588717E+04  0.50400001928E-02 0.  1.
    10030    2    1    2    0    0  0.00000000000E+00  0.00000000000E+00 -0.13323660401E+04  0.26585517033E+04  0.23005864240E+04 0.  0.
        5    1    3    3  502    0  0.34134713784E+03  0.18229106000E+03 -0.19179699999E+04  0.19566243660E+04  0.46999998093E+01 0.  1.
       -5    1    3    3    0  502 -0.34134713784E+03 -0.18229106000E+03  0.58560395982E+03  0.70192733728E+03  0.46999998093E+01 0. -1.
</event>
<event>
 5   0  0.1626636E-05  0.2276510E+04  0.7818609E-02  0.8487241E-01
       -2   -1    0    0    0  501  0.00000000000E+00  0.00000000000E+00  0.12871854126E+04  0.12871854126E+04  0.25500000920E-02 0. -1.
        2   -1    0    0  501    0  0.00000000000E+00  0.00000000000E+00 -0.10065565984E+04  0.10065565985E+04  0.25500000920E-02 0.  1.
    10030    2    1    2    0    0  0.00000000000E+00  0.00000000000E+00  0.28062881414E+03  0.22937420110E+04  0.22765104616E+04 0.  0.
        4    1    3    3  502    0  0.99438773492E+03  0.41103242734E+02  0.69687849040E+03  0.12149640683E+04  0.12699999809E+01 0. -1.
       -4    1    3    3    0  502 -0.99438773492E+03 -0.41103242734E+02 -0.41624967626E+03  0.10787779428E+04  0.12699999809E+01 0.  1.
</event>
<event>
 5   0  0.7391007E-06  0.2297359E+04  0.7818609E-02  0.8478963E-01
        1   -1    0    0  501    0  0.00000000000E+00  0.00000000000E+00  0.10398299540E+04  0.10398299540E+04  0.50400001928E-02 0. -1.
       -1   -1    0    0    0  501  0.00000000000E+00  0.00000000000E+00 -0.12689239766E+04  0.12689239766E+04  0.50400001928E-02 0.  1.
    10030    2    1    2    0    0  0.00000000000E+00  0.00000000000E+00 -0.22909402262E+03  0.23087539307E+04  0.22973594932E+04 0.  0.
        1    1    3    3  502    0 -0.64537279830E+03  0.94239627110E+03 -0.23700530976E+03  0.11665283098E+04  0.50400001928E-02 0. -1.
       -1    1    3    3    0  502  0.64537279830E+03 -0.94239627110E+03  0.79112871444E+01  0.11422256209E+04  0.50400001928E-02 0.  1.
</event>
<event>
 5   0  0.1588969E-05  0.2298181E+04  0.7818609E-02  0.8478639E-01
       -2   -1    0    0    0  501  0.00000000000E+00  0.00000000000E+00  0.65977568039E+03  0.65977568039E+03  0.25500000920E-02 0.  1.
        2   -1    0    0  501    0  0.00000000000E+00  0.00000000000E+00 -0.20013002226E+04  0.20013002226E+04  0.25500000920E-02 0. -1.
    10030    2    1    2    0    0  0.00000000000E+00  0.00000000000E+00 -0.13415245422E+04  0.26610759030E+04  0.22981812079E+04 0.  0.
        1    1    3    3  502    0 -0.82807114746E+03  0.27601497763E+03  0.19459126363E+03  0.89428846187E+03  0.50400001928E-02 0.  1.
       -1    1    3    3    0  502  0.82807114746E+03 -0.27601497763E+03 -0.15361158058E+04  0.17667874411E+04  0.50400001928E-02 0. -1.
</event>
<event>
 5   0  0.7183014E-06  0.2235230E+04  0.7818609E-02  0.8503906E-01
        1   -1    0    0  501    0  0.00000000000E+00  0.00000000000E+00  0.17713409144E+04  0.17713409144E+04  0.50400001928E-02 0. -1.
       -1   -1    0    0    0  501  0.00000000000E+00  0.00000000000E+00 -0.70515137815E+03  0.70515137816E+03  0.50400001928E-02 0.  1.
    10030    2    1    2    0    0  0.00000000000E+00  0.00000000000E+00  0.10661895362E+04  0.24764922925E+04  0.22352301778E+04 0.  0.
        3    1    3    3  502    0 -0.10466715459E+04 -0.38233935465E+03  0.43805238197E+03  0.11973281116E+04  0.10100000352E+00 0. -1.
       -3    1    3    3    0  502  0.10466715459E+04  0.38233935465E+03  0.62813715426E+03  0.12791641810E+04  0.10100000352E+00 0.  1.
</event>
<event>
 5   0  0.1635955E-05  0.2307718E+04  0.7818609E-02  0.8474884E-01
        2   -1    0    0  501    0  0.00000000000E+00  0.00000000000E+00  0.15333912065E+04  0.15333912065E+04  0.25500000920E-02 0. -1.
       -2   -1    0    0    0  501  0.00000000000E+00  0.00000000000E+00 -0.86826554873E+03  0.86826554874E+03  0.25500000920E-02 0.  1.
    10030    2    1    2    0    0  0.00000000000E+00  0.00000000000E+00  0.66512565778E+03  0.24016567552E+04  0.23077181434E+04 0.  0.
        2    1    3    3  502    0 -0.11309873376E+04  0.19567416632E+02  0.56959614214E+03  0.12664734529E+04  0.25500000920E-02 0. -1.
       -2    1    3    3    0  502  0.11309873376E+04 -0.19567416632E+02  0.95529515636E+02  0.11351833024E+04  0.25500000920E-02 0.  1.
</event>
<event>
 5   0  0.7391007E-06  0.2294030E+04  0.7818609E-02  0.8480279E-01
       -1   -1    0    0    0  501  0.00000000000E+00  0.00000000000E+00  0.19880710069E+04  0.19880710069E+04  0.50400001928E-02 0.  1.
        1   -1    0    0  501    0  0.00000000000E+00  0.00000000000E+00 -0.66176878541E+03  0.66176878543E+03  0.50400001928E-02 0. -1.
    10030    2    1    2    0    0  0.00000000000E+00  0.00000000000E+00  0.13263022215E+04  0.26498397924E+04  0.22940299349E+04 0.  0.
        1    1    3    3  502    0  0.72250664776E+03 -0.49634508352E+03  0.15176686396E+04  0.17526244314E+04  0.50400001928E-02 0.  1.
       -1    1    3    3    0  502 -0.72250664776E+03  0.49634508352E+03 -0.19136641804E+03  0.89721536097E+03  0.50400001928E-02 0. -1.
</event>
<event>
 5   0  0.7183014E-06  0.2294163E+04  0.7818609E-02  0.8480226E-01
       -1   -1    0    0    0  501  0.00000000000E+00  0.00000000000E+00  0.98295278203E+03  0.98295278204E+03  0.50400001928E-02 0.  1.
        1   -1    0    0  501    0  0.00000000000E+00  0.00000000000E+00 -0.13386158472E+04  0.13386158472E+04  0.50400001928E-02 0. -1.
    10030    2    1    2    0    0  0.00000000000E+00  0.00000000000E+00 -0.35566306519E+03  0.23215686293E+04  0.22941631774E+04 0.  0.
        3    1    3    3  502    0  0.74476957731E+03  0.79278128936E+03  0.19067828967E+03  0.11043288081E+04  0.10100000352E+00 0.  1.
       -3    1    3    3    0  502 -0.74476957731E+03 -0.79278128936E+03 -0.54634135485E+03  0.12172398212E+04  0.10100000352E+00 0. -1.
</event>
<event>
 5   0  0.7391007E-06  0.2289690E+04  0.7818609E-02  0.8481997E-01
        1   -1    0    0  501    0  0.00000000000E+00  0.00000000000E+00  0.20235650921E+04  0.20235650922E+04  0.50400001928E-02 0.  1.
       -1   -1    0    0    0  501  0.00000000000E+00  0.00000000000E+00 -0.64770324522E+03  0.64770324524E+03  0.50400001928E-02 0. -1.
    10030    2    1    2    0    0  0.00000000000E+00  0.00000000000E+00  0.13758618469E+04  0.26712683374E+04  0.22896896533E+04 0.  0.
        1    1    3    3  502    0  0.71089362286E+03  0.71896379235E+03  0.13144463166E+04  0.16583268064E+04  0.50400001928E-02 0.  1.
       -1    1    3    3    0  502 -0.71089362286E+03 -0.71896379235E+03  0.61415530321E+02  0.10129415309E+04  0.50400001928E-02 0. -1.
</event>
<event>
 5   0  0.1697855E-05  0.2303081E+04  0.7818609E-02  0.8476707E-01
       -2   -1    0    0    0  501  0.00000000000E+00  0.00000000000E+00  0.14938287381E+04  0.14938287381E+04  0.25500000920E-02 0.  1.
        2   -1    0    0  501    0  0.00000000000E+00  0.00000000000E+00 -0.88768278287E+03  0.88768278288E+03  0.25500000920E-02 0. -1.
    10030    2    1    2    0    0  0.00000000000E+00  0.00000000000E+00  0.60614595524E+03  0.23815115210E+04  0.23030814587E+04 0.  0.
        5    1    3    3  502    0  0.10317662379E+04 -0.15327523579E+03  0.80752737879E+03  0.13191502663E+04  0.46999998093E+01 0.  1.
       -5    1    3    3    0  502 -0.10317662379E+04  0.15327523579E+03 -0.20138142355E+03  0.10623612547E+04  0.46999998093E+01 0. -1.
</event>
<event>
 5   0  0.1602809E-05  0.2293222E+04  0.7818609E-02  0.8480598E-01
       -2   -1    0    0    0  501  0.00000000000E+00  0.00000000000E+00  0.49218525942E+03  0.49218525943E+03  0.25500000920E-02 0. -1.
        2   -1    0    0  501    0  0.00000000000E+00  0.00000000000E+00 -0.26711828455E+04  0.26711828455E+04  0.25500000920E-02 0.  1.
    10030    2    1    2    0    0  0.00000000000E+00  0.00000000000E+00 -0.21789975861E+04  0.31633681049E+04  0.22932220318E+04 0.  0.
        3    1    3    3  502    0 -0.30855263542E+03  0.38340807878E+02  0.43292221928E+03  0.53300694604E+03  0.10100000352E+00 0. -1.
       -3    1    3    3    0  502  0.30855263542E+03 -0.38340807878E+02 -0.26119198054E+04  0.26303611589E+04  0.10100000352E+00 0.  1.
</event>
<event>
 5   0  0.1588969E-05  0.2301503E+04  0.7818609E-02  0.8477329E-01
       -2   -1    0    0    0  501  0.00000000000E+00  0.00000000000E+00  0.71923776952E+03  0.71923776953E+03  0.25500000920E-02 0.  1.
        2   -1    0    0  501    0  0.00000000000E+00  0.00000000000E+00 -0.18411561061E+04  0.18411561061E+04  0.25500000920E-02 0. -1.
    10030    2    1    2    0    0  0.00000000000E+00  0.00000000000E+00 -0.11219183366E+04  0.25603938756E+04  0.23015029968E+04 0.  0.
        1    1    3    3  502    0 -0.77176684269E+03  0.22123676181E+03 -0.14781101810E+04  0.16820759410E+04  0.50400001928E-02 0. -1.
       -1    1    3    3    0  502  0.77176684269E+03 -0.22123676181E+03  0.35619184438E+03  0.87831793462E+03  0.50400001928E-02 0.  1.
</event>
<event>
 5   0  0.7202572E-06  0.2301058E+04  0.7818609E-02  0.8477504E-01
        1   -1    0    0  501    0  0.00000000000E+00  0.00000000000E+00  0.11390647890E+04  0.11390647890E+04  0.50400001928E-02 0. -1.
       -1   -1    0    0    0  501  0.00000000000E+00  0.00000000000E+00 -0.11621085200E+04  0.11621085200E+04  0.50400001928E-02 0.  1.
    10030    2    1    2    0    0  0.00000000000E+00  0.00000000000E+00 -0.23043731045E+02  0.23011733091E+04  0.23010579273E+04 0.  0.
        2    1    3    3  502    0  0.82381554461E+03  0.67267227996E+03 -0.45035686825E+03  0.11549811066E+04  0.25500000920E-02 0. -1.
       -2    1    3    3    0  502 -0.82381554461E+03 -0.67267227996E+03  0.42731313721E+03  0.11461922025E+04  0.25500000920E-02 0.  1.
</event>
<event>
 5   0  0.7391007E-06  0.2298298E+04  0.7818609E-02  0.8478593E-01
       -1   -1    0    0    0  501  0.00000000000E+00  0.00000000000E+00  0.68435291271E+03  0.68435291272E+03  0.50400001928E-02 0.  1.
        1   -1    0    0  501    0  0.00000000000E+00  0.00000000000E+00 -0.19296226811E+04  0.19296226811E+04  0.50400001928E-02 0. -1.
    10030    2    1    2    0    0  0.00000000000E+00  0.00000000000E+00 -0.12452697684E+04  0.26139755938E+04  0.22982975458E+04 0.  0.
        1    1    3    3  502    0 -0.49443825909E+03  0.43596693209E+02  0.55614413890E+03  0.74543018920E+03  0.50400001928E-02 0.  1.
       -1    1    3    3    0  502  0.49443825909E+03 -0.43596693209E+02 -0.18014139073E+04  0.18685454046E+04  0.50400001928E-02 0. -1.
</event>
<event>
 5   0  0.1697855E-05  0.2307147E+04  0.7818609E-02  0.8475109E-01
       -2   -1    0    0    0  501  0.00000000000E+00  0.00000000000E+00  0.10193476501E+04  0.10193476501E+04  0.25500000920E-02 0.  1.
        2   -1    0    0  501    0  0.00000000000E+00  0.00000000000E+00 -0.13054734233E+04  0.13054734233E+04  0.25500000920E-02 0. -1.
    10030    2    1    2    0    0  0.00000000000E+00  0.00000000000E+00 -0.28612577315E+03  0.23248210734E+04  0.23071465201E+04 0.  0.
        5    1    3    3  502    0  0.92672420955E+03  0.25014623137E+03  0.50161819674E+03  0.10830668506E+04  0.46999998093E+01 0.  1.
       -5    1    3    3    0  502 -0.92672420955E+03 -0.25014623137E+03 -0.78774396990E+03  0.12417542228E+04  0.46999998093E+01 0. -1.
</event>
<event>
 5   0  0.7278815E-06  0.2302641E+04  0.7818609E-02  0.8476880E-01
       -1   -1    0    0    0  501  0.00000000000E+00  0.00000000000E+00  0.12059705909E+04  0.12059705909E+04  0.50400001928E-02 0.  1.
        1   -1    0    0  501    0  0.00000000000E+00  0.00000000000E+00 -0.10991472476E+04  0.10991472476E+04  0.50400001928E-02 0. -1.
    10030    2    1    2    0    0  0.00000000000E+00  0.00000000000E+00  0.10682334333E+03  0.23051178385E+04  0.23026413144E+04 0.  0.
        5    1    3    3  502    0  0.50922609430E+03 -0.10310140857E+04  0.11018161901E+03  0.11551897416E+04  0.46999998093E+01 0.  1.
       -5    1    3    3    0  502 -0.50922609430E+03  0.10310140857E+04 -0.33582756760E+01  0.11499280969E+04  0.46999998093E+01 0. -1.
</event>
<event>
 5   0  0.7416556E-06  0.2315867E+04  0.7818609E-02  0.8471691E-01
       -1   -1    0    0    0  501  0.00000000000E+00  0.00000000000E+00  0.77134901766E+03  0.77134901768E+03  0.50400001928E-02 0. -1.
        1   -1    0    0  501    0  0.00000000000E+00  0.00000000000E+00 -0.17382663969E+04  0.17382663969E+04  0.50400001928E-02 0.  1.
    10030    2    1    2    0    0  0.00000000000E+00  0.00000000000E+00 -0.96691737923E+03  0.25096154146E+04  0.23158670754E+04 0.  0.
        4    1    3    3  502    0  0.87712766089E+02 -0.23916229685E+03 -0.17075241482E+04  0.17264218671E+04  0.12699999809E+01 0.  1.
       -4    1    3    3    0  502 -0.87712766089E+02  0.23916229685E+03  0.74060676901E+03  0.78319354745E+03  0.12699999809E+01 0. -1.
</event>
<event>
 5   0  0.1602809E-05  0.2258181E+04  0.7818609E-02  0.8494595E-01
        2   -1    0    0  501    0  0.00000000000E+00  0.00000000000E+00  0.14342469617E+04  0.14342469617E+04  0.25500000920E-02 0.  1.
       -2   -1    0    0    0  501  0.00000000000E+00  0.00000000000E+00 -0.88886063395E+03  0.88886063396E+03  0.25500000920E-02 0. -1.
    10030    2    1    2    0    0  0.00000000000E+00  0.00000000000E+00  0.54538632776E+03  0.23231075957E+04  0.22581812714E+04 0.  0.
        3    1    3    3  502    0  0.97364182550E+03 -0.48495107505E+03  0.58420231451E+03  0.12346855082E+04  0.10100000352E+00 0. -1.
       -3    1    3    3    0  502 -0.97364182550E+03  0.48495107505E+03 -0.38815986750E+02  0.10884220875E+04  0.10100000352E+00 0.  1.
</event>
<event>
 5   0  0.5704875E-06  0.2304926E+04  0.7818609E-02  0.8475981E-01
        3   -1    0    0  501    0  0.00000000000E+00  0.00000000000E+00  0.14527830382E+04  0.14527830417E+04  0.10100000352E+00 0.  1.
       -3   -1    0    0    0  501  0.00000000000E+00  0.00000000000E+00 -0.91422537678E+03  0.91422538236E+03  0.10100000352E+00 0. -1.
    10030    2    1    2    0    0  0.00000000000E+00  0.00000000000E+00  0.53855766138E+03  0.23670084240E+04  0.23049261430E+04 0.  0.
        2    1    3    3  502    0 -0.37980876990E+03 -0.87596367926E+03  0.93211246815E+03  0.13343165750E+04  0.25500000920E-02 0.  1.
       -2    1    3    3    0  502  0.37980876990E+03  0.87596367926E+03 -0.39355480678E+03  0.10326918490E+04  0.25500000920E-02 0. -1.
</event>
<event>
 5   0  0.1697855E-05  0.2302226E+04  0.7818609E-02  0.8477044E-01
       -2   -1    0    0    0  501  0.00000000000E+00  0.00000000000E+00  0.11780992019E+04  0.11780992019E+04  0.25500000920E-02 0.  1.
        2   -1    0    0  501    0  0.00000000000E+00  0.00000000000E+00 -0.11247449638E+04  0.11247449638E+04  0.25500000920E-02 0. -1.
    10030    2    1    2    0    0  0.00000000000E+00  0.00000000000E+00  0.53354238099E+02  0.23028441656E+04  0.23022260047E+04 0.  0.
        5    1    3    3  502    0  0.64938047150E+03  0.48534802250E+03 -0.79072119810E+03  0.11324839084E+04  0.46999998093E+01 0. -1.
       -5    1    3    3    0  502 -0.64938047150E+03 -0.48534802250E+03  0.84407543620E+03  0.11703602572E+04  0.46999998093E+01 0.  1.
</event>
<event>
 5   0  0.1626636E-05  0.2305108E+04  0.7818609E-02  0.8475910E-01
        2   -1    0    0  501    0  0.00000000000E+00  0.00000000000E+00  0.81153916756E+03  0.81153916756E+03  0.25500000920E-02 0. -1.
       -2   -1    0    0    0  501  0.00000000000E+00  0.00000000000E+00 -0.16368662764E+04  0.16368662764E+04  0.25500000920E-02 0.  1.
    10030    2    1    2    0    0  0.00000000000E+00  0.00000000000E+00 -0.82532710880E+03  0.24484054439E+04  0.23051083231E+04 0.  0.
        4    1    3    3  502    0 -0.19409967254E+03  0.57030750842E+03 -0.14563206339E+04  0.15760065795E+04  0.12699999809E+01 0.  1.
       -4    1    3    3    0  502  0.19409967254E+03 -0.57030750842E+03  0.63099352509E+03  0.87239886442E+03  0.12699999809E+01 0. -1.
</event>
<event>
 5   0  0.1588969E-05  0.2299392E+04  0.7818609E-02  0.8478161E-01
        2   -1    0    0  501    0  0.00000000000E+00  0.00000000000E+00  0.13171652847E+04  0.13171652847E+04  0.25500000920E-02 0.  1.
       -2   -1    0    0    0  501  0.00000000000E+00  0.00000000000E+00 -0.10035198078E+04  0.10035198078E+04  0.25500000920E-02 0. -1.
    10030    2    1    2    0    0  0.00000000000E+00  0.00000000000E+00  0.31364547695E+03  0.23206850925E+04  0.22993924879E+04 0.  0.
        1    1    3    3  502    0  0.54794253680E+03  0.73540813688E+03  0.85659401448E+03  0.12549181077E+04  0.50400001928E-02 0.  1.
       -1    1    3    3    0  502 -0.54794253680E+03 -0.73540813688E+03 -0.54294853753E+03  0.10657669848E+04  0.50400001928E-02 0. -1.
</event>
<event>
 5   0  0.1588969E-05  0.2318618E+04  0.7818609E-02  0.8470616E-01
        2   -1    0    0  501    0  0.00000000000E+00  0.00000000000E+00  0.91373466218E+03  0.91373466218E+03  0.25500000920E-02 0. -1.
       -2   -1    0    0    0  501  0.00000000000E+00  0.00000000000E+00 -0.14708831965E+04  0.14708831965E+04  0.25500000920E-02 0.  1.
    10030    2    1    2    0    0  0.00000000000E+00  0.00000000000E+00 -0.55714853435E+03  0.23846178587E+04  0.23186176577E+04 0.  0.
        1    1    3    3  502    0  0.13152982099E+03 -0.12224457793E+02 -0.14631178501E+04  0.14690688801E+04  0.50400001928E-02 0.  1.
       -1    1    3    3    0  502 -0.13152982099E+03  0.12224457793E+02  0.90596931573E+03  0.91554897862E+03  0.50400001928E-02 0. -1.
</event>
<event>
 5   0  0.7202572E-06  0.2291850E+04  0.7818609E-02  0.8481142E-01
       -1   -1    0    0    0  501  0.00000000000E+00  0.00000000000E+00  0.11128958888E+04  0.11128958888E+04  0.50400001928E-02 0.  1.
        1   -1    0    0  501    0  0.00000000000E+00  0.00000000000E+00 -0.11799339608E+04  0.11799339608E+04  0.50400001928E-02 0. -1.
    10030    2    1    2    0    0  0.00000000000E+00  0.00000000000E+00 -0.67038072028E+02  0.22928298496E+04  0.22918496059E+04 0.  0.
        2    1    3    3  502    0 -0.41964334314E+03 -0.26031082213E+02 -0.10999794318E+04  0.11775962394E+04  0.25500000920E-02 0. -1.
       -2    1    3    3    0  502  0.41964334314E+03  0.26031082213E+02  0.10329413597E+04  0.11152336102E+04  0.25500000920E-02 0.  1.
</event>
<event>
 5   0  0.1588969E-05  0.2306115E+04  0.7818609E-02  0.8475514E-01
       -2   -1    0    0    0  501  0.00000000000E+00  0.00000000000E+00  0.90968426418E+03  0.90968426419E+03  0.25500000920E-02 0.  1.
        2   -1    0    0  501    0  0.00000000000E+00  0.00000000000E+00 -0.14615414224E+04  0.14615414224E+04  0.25500000920E-02 0. -1.
    10030    2    1    2    0    0  0.00000000000E+00  0.00000000000E+00 -0.55185715819E+03  0.23712256866E+04  0.23061146835E+04 0.  0.
        1    1    3    3  502    0 -0.14198370941E+02  0.10939768677E+04 -0.65028804789E+03  0.12727378073E+04  0.50400001928E-02 0. -1.
       -1    1    3    3    0  502  0.14198370941E+02 -0.10939768677E+04  0.98430889699E+02  0.10984878793E+04  0.50400001928E-02 0.  1.
</event>
<event>
 5   0  0.7278815E-06  0.2283830E+04  0.7818609E-02  0.8484324E-01
        1   -1    0    0  501    0  0.00000000000E+00  0.00000000000E+00  0.17320784343E+04  0.17320784343E+04  0.50400001928E-02 0.  1.
       -1   -1    0    0    0  501  0.00000000000E+00  0.00000000000E+00 -0.75283522046E+03  0.75283522048E+03  0.50400001928E-02 0. -1.
    10030    2    1    2    0    0  0.00000000000E+00  0.00000000000E+00  0.97924321388E+03  0.24849136548E+04  0.22838298098E+04 0.  0.
        5    1    3    3  502    0  0.26487939486E+02  0.10615271453E+04  0.32634101425E+02  0.10623693170E+04  0.46999998093E+01 0. -1.
       -5    1    3    3    0  502 -0.26487939486E+02 -0.10615271453E+04  0.94660911246E+03  0.14225443378E+04  0.46999998093E+01 0.  1.
</event>
<event>
 5   0  0.7183014E-06  0.2290337E+04  0.7818609E-02  0.8481741E-01
        1   -1    0    0  501    0  0.00000000000E+00  0.00000000000E+00  0.24908466775E+04  0.24908466775E+04  0.50400001928E-02 0.  1.
       -1   -1    0    0    0  501  0.00000000000E+00  0.00000000000E+00 -0.52649189673E+03  0.52649189676E+03  0.50400001928E-02 0. -1.
    10030    2    1    2    0    0  0.00000000000E+00  0.00000000000E+00  0.19643547808E+04  0.30173385743E+04  0.22903367366E+04 0.  0.
        3    1    3    3  502    0  0.39376413175E+03 -0.24600492181E+03  0.23612866368E+04  0.24065001983E+04  0.10100000352E+00 0.  1.
       -3    1    3    3    0  502 -0.39376413175E+03  0.24600492181E+03 -0.39693185604E+03  0.61083837596E+03  0.10100000352E+00 0. -1.
</event>
<event>
 5   0  0.1626636E-05  0.2305287E+04  0.7818609E-02  0.8475839E-01
       -2   -1    0    0    0  501  0.00000000000E+00  0.00000000000E+00  0.13007049127E+04  0.13007049127E+04  0.25500000920E-02 0. -1.
        2   -1    0    0  501    0  0.00000000000E+00  0.00000000000E+00 -0.10214361062E+04  0.10214361062E+04  0.25500000920E-02 0.  1.
    10030    2    1    2    0    0  0.00000000000E+00  0.00000000000E+00  0.27926880647E+03  0.23221410189E+04  0.23052869334E+04 0.  0.
        4    1    3    3  502    0  0.14392249772E+03 -0.27789898377E+02 -0.10120086877E+04  0.10225698805E+04  0.12699999809E+01 0.  1.
       -4    1    3    3    0  502 -0.14392249772E+03  0.27789898377E+02  0.12912774941E+04  0.12995711383E+04  0.12699999809E+01 0. -1.
</event>
<event>
 5   0  0.7416556E-06  0.2290556E+04  0.7818609E-02  0.8481654E-01
        1   -1    0    0  501    0  0.00000000000E+00  0.00000000000E+00  0.71187044987E+03  0.71187044989E+03  0.50400001928E-02 0. -1.
       -1   -1    0    0    0  501  0.00000000000E+00  0.00000000000E+00 -0.18425569969E+04  0.18425569969E+04  0.50400001928E-02 0.  1.
    10030    2    1    2    0    0  0.00000000000E+00  0.00000000000E+00 -0.11306865471E+04  0.25544274468E+04  0.22905561581E+04 0.  0.
        4    1    3    3  502    0  0.42832985735E+03  0.57719458980E+03 -0.15597113509E+04  0.17173587780E+04  0.12699999809E+01 0.  1.
       -4    1    3    3    0  502 -0.42832985735E+03 -0.57719458980E+03  0.42902480384E+03  0.83706866887E+03  0.12699999809E+01 0. -1.
</event>
<event>
 5   0  0.1602809E-05  0.2290803E+04  0.7818609E-02  0.8481556E-01
       -2   -1    0    0    0  501  0.00000000000E+00  0.00000000000E+00  0.93169812526E+03  0.93169812527E+03  0.25500000920E-02 0.  1.
        2   -1    0    0  501    0  0.00000000000E+00  0.00000000000E+00 -0.14081225319E+04  0.14081225319E+04  0.25500000920E-02 0. -1.
    10030    2    1    2    0    0  0.00000000000E+00  0.00000000000E+00 -0.47642440663E+03  0.23398206572E+04  0.22908034600E+04 0.  0.
        3    1    3    3  502    0 -0.11309751970E+04  0.23764756355E+02 -0.54714381388E+02  0.11325472766E+04  0.10100000352E+00 0. -1.
       -3    1    3    3    0  502  0.11309751970E+04 -0.23764756355E+02 -0.42171002524E+03  0.12072733806E+04  0.10100000352E+00 0.  1.
</event>
<event>
 5   0  0.1602809E-05  0.2305361E+04  0.7818609E-02  0.8475810E-01
        2   -1    0    0  501    0  0.00000000000E+00  0.00000000000E+00  0.14702616698E+04  0.14702616698E+04  0.25500000920E-02 0. -1.
       -2   -1    0    0    0  501  0.00000000000E+00  0.00000000000E+00 -0.90369805076E+03  0.90369805077E+03  0.25500000920E-02 0.  1.
    10030    2    1    2    0    0  0.00000000000E+00  0.00000000000E+00  0.56656361908E+03  0.23739597206E+04  0.23053612343E+04 0.  0.
        3    1    3    3  502    0 -0.10049591808E+04 -0.19644194648E+03  0.82831390611E+03  0.13170559330E+04  0.10100000352E+00 0. -1.
       -3    1    3    3    0  502  0.10049591808E+04  0.19644194648E+03 -0.26175028704E+03  0.10569037876E+04  0.10100000352E+00 0.  1.
</event>
<event>
 5   0  0.1602809E-05  0.2291924E+04  0.7818609E-02  0.8481112E-01
        2   -1    0    0  501    0  0.00000000000E+00  0.00000000000E+00  0.84790899626E+03  0.84790899626E+03  0.25500000920E-02 0.  1.
       -2   -1    0    0    0  501  0.00000000000E+00  0.00000000000E+00 -0.15487855473E+04  0.15487855473E+04  0.25500000920E-02 0. -1.
    10030    2    1    2    0    0  0.00000000000E+00  0.00000000000E+00 -0.70087655101E+03  0.23966945435E+04  0.22919242560E+04 0.  0.
        3    1    3    3  502    0  0.10360068831E+04 -0.45839324222E+03 -0.16993672730E+03  0.11455623631E+04  0.10100000352E+00 0.  1.
       -3    1    3    3    0  502 -0.10360068831E+04  0.45839324222E+03 -0.53093982370E+03  0.12511321804E+04  0.10100000352E+00 0. -1.
</event>
<event>
 5   0  0.7202572E-06  0.2297111E+04  0.7818609E-02  0.8479061E-01
        1   -1    0    0  501    0  0.00000000000E+00  0.00000000000E+00  0.17305912335E+04  0.17305912336E+04  0.50400001928E-02 0. -1.
       -1   -1    0    0    0  501  0.00000000000E+00  0.00000000000E+00 -0.76227099911E+03  0.76227099913E+03  0.50400001928E-02 0.  1.
    10030    2    1    2    0    0  0.00000000000E+00  0.00000000000E+00  0.96832023443E+03  0.24928622327E+04  0.22971108016E+04 0.  0.
        2    1    3    3  502    0 -0.71668143856E+03 -0.42583008655E+03  0.13415606892E+04  0.15794773280E+04  0.25500000920E-02 0. -1.
       -2    1    3    3    0  502  0.71668143856E+03  0.42583008655E+03 -0.37324045474E+03  0.91338490465E+03  0.25500000920E-02 0.  1.
</event>
<event>
 5   0  0.1697855E-05  0.2296733E+04  0.7818609E-02  0.8479210E-01
        2   -1    0    0  501    0  0.00000000000E+00  0.00000000000E+00  0.15258786698E+04  0.15258786698E+04  0.25500000920E-02 0.  1.
       -2   -1    0    0    0  501  0.00000000000E+00  0.00000000000E+00 -0.86425314808E+03  0.86425314809E+03  0.25500000920E-02 0. -1.
    10030    2    1    2    0    0  0.00000000000E+00  0.00000000000E+00  0.66162552170E+03  0.23901318179E+04  0.22967328482E+04 0.  0.
        5    1    3    3  502    0  0.27318492234E+03 -0.17417420398E+03  0.14773210302E+04  0.15124371627E+04  0.46999998093E+01 0.  1.
       -5    1    3    3    0  502 -0.27318492234E+03  0.17417420398E+03 -0.81569550845E+03  0.87769465513E+03  0.46999998093E+01 0. -1.
</event>
<event>
 5   0  0.1697855E-05  0.2302641E+04  0.7818609E-02  0.8476880E-01
        2   -1    0    0  501    0  0.00000000000E+00  0.00000000000E+00  0.10751448063E+04  0.10751448063E+04  0.25500000920E-02 0.  1.
       -2   -1    0    0    0  501  0.00000000000E+00  0.00000000000E+00 -0.12328937973E+04  0.12328937973E+04  0.25500000920E-02 0. -1.
    10030    2    1    2    0    0  0.00000000000E+00  0.00000000000E+00 -0.15774899102E+03  0.23080386036E+04  0.23026414075E+04 0.  0.
        5    1    3    3  502    0 -0.88450585893E+03  0.21143634377E+03 -0.78654728116E+03  0.12023870664E+04  0.46999998093E+01 0. -1.
       -5    1    3    3    0  502  0.88450585893E+03 -0.21143634377E+03  0.62879829014E+03  0.11056515372E+04  0.46999998093E+01 0.  1.
</event>
<event>
 5   0  0.1626636E-05  0.2298803E+04  0.7818609E-02  0.8478393E-01
       -2   -1    0    0    0  501  0.00000000000E+00  0.00000000000E+00  0.89446997343E+03  0.89446997343E+03  0.25500000920E-02 0.  1.
        2   -1    0    0  501    0  0.00000000000E+00  0.00000000000E+00 -0.14769904546E+04  0.14769904546E+04  0.25500000920E-02 0. -1.
    10030    2    1    2    0    0  0.00000000000E+00  0.00000000000E+00 -0.58252048120E+03  0.23714604281E+04  0.22988028299E+04 0.  0.
        4    1    3    3  502    0  0.18307394327E+03 -0.10859440163E+04  0.48280261504E+02  0.11023262093E+04  0.12699999809E+01 0.  1.
       -4    1    3    3    0  502 -0.18307394327E+03  0.10859440163E+04 -0.63080074270E+03  0.12691342187E+04  0.12699999809E+01 0. -1.
</event>
<event>
 5   0  0.1626636E-05  0.2289388E+04  0.7818609E-02  0.8482117E-01
       -2   -1    0    0    0  501  0.00000000000E+00  0.00000000000E+00  0.12743567898E+04  0.12743567898E+04  0.25500000920E-02 0. -1.
        2   -1    0    0  501    0  0.00000000000E+00  0.00000000000E+00 -0.10282245106E+04  0.10282245106E+04  0.25500000920E-02 0.  1.
    10030    2    1    2    0    0  0.00000000000E+00  0.00000000000E+00  0.24613227922E+03  0.23025813003E+04  0.22893884655E+04 0.  0.
        4    1    3    3  502    0  0.85553028709E+03  0.72540940333E+03  0.35279517358E+03  0.11758473209E+04  0.12699999809E+01 0.  1.
       -4    1    3    3    0  502 -0.85553028709E+03 -0.72540940333E+03 -0.10666289436E+03  0.11267339795E+04  0.12699999809E+01 0. -1.
</event>
<event>
 5   0  0.7202572E-06  0.2303375E+04  0.7818609E-02  0.8476592E-01
       -1   -1    0    0    0  501  0.00000000000E+00  0.00000000000E+00  0.12272985485E+04  0.12272985485E+04  0.50400001928E-02 0. -1.
        1   -1    0    0  501    0  0.00000000000E+00  0.00000000000E+00 -0.10807345695E+04  0.10807345695E+04  0.50400001928E-02 0.  1.
    10030    2    1    2    0    0  0.00000000000E+00  0.00000000000E+00  0.14656397897E+03  0.23080331180E+04  0.23033748878E+04 0.  0.
        2    1    3    3  502    0  0.10699763376E+04 -0.42432699736E+03  0.11184624475E+03  0.11564654540E+04  0.25500000920E-02 0. -1.
       -2    1    3    3    0  502 -0.10699763376E+04  0.42432699736E+03  0.34717734220E+02  0.11515676640E+04  0.25500000920E-02 0.  1.
</event>
<event>
 5   0  0.1602809E-05  0.2333199E+04  0.7818609E-02  0.8464945E-01
       -2   -1    0    0    0  501  0.00000000000E+00  0.00000000000E+00  0.63347984978E+03  0.63347984978E+03  0.25500000920E-02 0.  1.
        2   -1    0    0  501    0  0.00000000000E+00  0.00000000000E+00 -0.21483785530E+04  0.21483785531E+04  0.25500000920E-02 0. -1.
    10030    2    1    2    0    0  0.00000000000E+00  0.00000000000E+00 -0.15148987033E+04  0.27818584028E+04  0.23331991111E+04 0.  0.
        3    1    3    3  502    0 -0.66474658475E+03  0.79904234118E+03 -0.12587371186E+03  0.10469961253E+04  0.10100000352E+00 0.  1.
       -3    1    3    3    0  502  0.66474658475E+03 -0.79904234118E+03 -0.13890249914E+04  0.17348622775E+04  0.10100000352E+00 0. -1.
</event>
<event>
 5   0  0.7416556E-06  0.2161522E+04  0.7818609E-02  0.8534616E-01
        1   -1    0    0  501    0  0.00000000000E+00  0.00000000000E+00  0.23485536015E+04  0.23485536015E+04  0.50400001928E-02 0.  1.
       -1   -1    0    0    0  501  0.00000000000E+00  0.00000000000E+00 -0.49734610074E+03  0.49734610076E+03  0.50400001928E-02 0. -1.
    10030    2    1    2    0    0  0.00000000000E+00  0.00000000000E+00  0.18512075008E+04  0.28458997023E+04  0.21615216641E+04 0.  0.
        4    1    3    3  502    0  0.55650447508E+03  0.33201576372E+03 -0.21318435057E+03  0.68218830126E+03  0.12699999809E+01 0. -1.
       -4    1    3    3    0  502 -0.55650447508E+03 -0.33201576372E+03  0.20643918514E+04  0.21637114010E+04  0.12699999809E+01 0.  1.
</event>
<event>
 5   0  0.1588969E-05  0.2294987E+04  0.7818609E-02  0.8479900E-01
        2   -1    0    0  501    0  0.00000000000E+00  0.00000000000E+00  0.17355091748E+04  0.17355091748E+04  0.25500000920E-02 0. -1.
       -2   -1    0    0    0  501  0.00000000000E+00  0.00000000000E+00 -0.75870574526E+03  0.75870574527E+03  0.25500000920E-02 0.  1.
    10030    2    1    2    0    0  0.00000000000E+00  0.00000000000E+00  0.97680342954E+03  0.24942149201E+04  0.22949865201E+04 0.  0.
        1    1    3    3  502    0 -0.11002013470E+04 -0.49564855070E+02  0.13818378184E+03  0.11099524478E+04  0.50400001928E-02 0. -1.
       -1    1    3    3    0  502  0.11002013470E+04  0.49564855070E+02  0.83861964769E+03  0.13842624723E+04  0.50400001928E-02 0.  1.
</event>
<event>
 5   0  0.1635955E-05  0.2281306E+04  0.7818609E-02  0.8485329E-01
        2   -1    0    0  501    0  0.00000000000E+00  0.00000000000E+00  0.13201257311E+04  0.13201257311E+04  0.25500000920E-02 0.  1.
       -2   -1    0    0    0  501  0.00000000000E+00  0.00000000000E+00 -0.98557943980E+03  0.98557943980E+03  0.25500000920E-02 0. -1.
    10030    2    1    2    0    0  0.00000000000E+00  0.00000000000E+00  0.33454629126E+03  0.23057051709E+04  0.22813055722E+04 0.  0.
        2    1    3    3  502    0  0.92915690866E+03  0.50645326214E+03  0.59757465598E+03  0.12152871830E+04  0.25500000920E-02 0.  1.
       -2    1    3    3    0  502 -0.92915690866E+03 -0.50645326214E+03 -0.26302836472E+03  0.10904179879E+04  0.25500000920E-02 0. -1.
</event>
<event>
 5   0  0.7416556E-06  0.2302394E+04  0.7818609E-02  0.8476978E-01
       -1   -1    0    0    0  501  0.00000000000E+00  0.00000000000E+00  0.24583832923E+04  0.24583832923E+04  0.50400001928E-02 0. -1.
        1   -1    0    0  501    0  0.00000000000E+00  0.00000000000E+00 -0.53907585328E+03  0.53907585330E+03  0.50400001928E-02 0.  1.
    10030    2    1    2    0    0  0.00000000000E+00  0.00000000000E+00  0.19193074391E+04  0.29974591456E+04  0.23023944675E+04 0.  0.
        4    1    3    3  502    0 -0.17634500638E+03 -0.65761753482E+03  0.21681639878E+04  0.22725525460E+04  0.12699999809E+01 0. -1.
       -4    1    3    3    0  502  0.17634500638E+03  0.65761753482E+03 -0.24885654879E+03  0.72490659961E+03  0.12699999809E+01 0.  1.
</event>
<event>
 5   0  0.7202572E-06  0.2298225E+04  0.7818609E-02  0.8478621E-01
       -1   -1    0    0    0  501  0.00000000000E+00  0.00000000000E+00  0.16911570742E+04  0.16911570742E+04  0.50400001928E-02 0. -1.
        1   -1    0    0  501    0  0.00000000000E+00  0.00000000000E+00 -0.78080247434E+03  0.78080247435E+03  0.50400001928E-02 0.  1.
    10030    2    1    2    0    0  0.00000000000E+00  0.00000000000E+00  0.91035459988E+03  0.24719595486E+04  0.22982250787E+04 0.  0.
        2    1    3    3  502    0 -0.26187253502E+03  0.16007658895E+03 -0.73589934082E+03  0.79733906135E+03  0.25500000920E-02 0.  1.
       -2    1    3    3    0  502  0.26187253502E+03 -0.16007658895E+03  0.16462539407E+04  0.16746204872E+04  0.25500000920E-02 0. -1.
</event>
<event>
 5   0  0.1626636E-05  0.2299839E+04  0.7818609E-02  0.8477985E-01
        2   -1    0    0  501    0  0.00000000000E+00  0.00000000000E+00  0.12280827855E+04  0.12280827855E+04  0.25500000920E-02 0.  1.
       -2   -1    0    0    0  501  0.00000000000E+00  0.00000000000E+00 -0.10767309780E+04  0.10767309780E+04  0.25500000920E-02 0. -1.
    10030    2    1    2    0    0  0.00000000000E+00  0.00000000000E+00  0.15135180742E+03  0.23048137635E+04  0.22998389324E+04 0.  0.
        4    1    3    3  502    0 -0.10999034245E+03 -0.73442684940E+03  0.95554572862E+03  0.12101859051E+04  0.12699999809E+01 0.  1.
       -4    1    3    3    0  502  0.10999034245E+03  0.73442684940E+03 -0.80419392120E+03  0.10946278584E+04  0.12699999809E+01 0. -1.
</event>
<event>
 5   0  0.1626636E-05  0.2300201E+04  0.7818609E-02  0.8477842E-01
       -2   -1    0    0    0  501  0.00000000000E+00  0.00000000000E+00  0.68127590783E+03  0.68127590783E+03  0.25500000920E-02 0. -1.
        2   -1    0    0  501    0  0.00000000000E+00  0.00000000000E+00 -0.19415496287E+04  0.19415496287E+04  0.25500000920E-02 0.  1.
    10030    2    1    2    0    0  0.00000000000E+00  0.00000000000E+00 -0.12602737209E+04  0.26228255365E+04  0.23002008485E+04 0.  0.
        4    1    3    3  502    0  0.31225970807E+03 -0.93947422784E+03 -0.12975650773E+04  0.16321135662E+04  0.12699999809E+01 0. -1.
       -4    1    3    3    0  502 -0.31225970807E+03  0.93947422784E+03  0.37291356456E+02  0.99071197037E+03  0.12699999809E+01 0.  1.
</event>
<event>
 5   0  0.7416556E-06  0.2303626E+04  0.7818609E-02  0.8476493E-01
        1   -1    0    0  501    0  0.00000000000E+00  0.00000000000E+00  0.10648856752E+04  0.10648856752E+04  0.50400001928E-02 0.  1.
       -1   -1    0    0    0  501  0.00000000000E+00  0.00000000000E+00 -0.12458367883E+04  0.12458367884E+04  0.50400001928E-02 0. -1.
    10030    2    1    2    0    0  0.00000000000E+00  0.00000000000E+00 -0.18095111314E+03  0.23107224636E+04  0.23036264885E+04 0.  0.
        4    1    3    3  502    0 -0.48647524265E+03 -0.85288545464E+03  0.51354239738E+03  0.11080609944E+04  0.12699999809E+01 0.  1.
       -4    1    3    3    0  502  0.48647524265E+03  0.85288545464E+03 -0.69449351052E+03  0.12026614692E+04  0.12699999809E+01 0. -1.
</event>
<event>
 5   0  0.7202572E-06  0.2278691E+04  0.7818609E-02  0.8486371E-01
       -1   -1    0    0    0  501  0.00000000000E+00  0.00000000000E+00  0.64806839418E+03  0.64806839420E+03  0.50400001928E-02 0. -1.
        1   -1    0    0  501    0  0.00000000000E+00  0.00000000000E+00 -0.20030415757E+04  0.20030415757E+04  0.50400001928E-02 0.  1.
    10030    2    1    2    0    0  0.00000000000E+00  0.00000000000E+00 -0.13549731815E+04  0.26511099699E+04  0.22786907973E+04 0.  0.
        2    1    3    3  502    0  0.11242071550E+04  0.11673925399E+03 -0.84462558958E+03  0.14109791520E+04  0.25500000920E-02 0.  1.
       -2    1    3    3    0  502 -0.11242071550E+04 -0.11673925399E+03 -0.51034759193E+03  0.12401308179E+04  0.25500000920E-02 0. -1.
</event>
<event>
 5   0  0.1697855E-05  0.2292907E+04  0.7818609E-02  0.8480723E-01
        2   -1    0    0  501    0  0.00000000000E+00  0.00000000000E+00  0.26950658588E+04  0.26950658588E+04  0.25500000920E-02 0. -1.
       -2   -1    0    0    0  501  0.00000000000E+00  0.00000000000E+00 -0.48768970361E+03  0.48768970362E+03  0.25500000920E-02 0.  1.
    10030    2    1    2    0    0  0.00000000000E+00  0.00000000000E+00  0.22073761552E+04  0.31827555624E+04  0.22929072113E+04 0.  0.
        5    1    3    3  502    0  0.81880122728E+03 -0.78121731115E+03  0.84925562585E+03  0.14149180701E+04  0.46999998093E+01 0.  1.
       -5    1    3    3    0  502 -0.81880122728E+03  0.78121731115E+03  0.13581205294E+04  0.17678374923E+04  0.46999998093E+01 0. -1.
</event>
<event>
 5   0  0.1697855E-05  0.2302621E+04  0.7818609E-02  0.8476888E-01
       -2   -1    0    0    0  501  0.00000000000E+00  0.00000000000E+00  0.62133116169E+03  0.62133116169E+03  0.25500000920E-02 0.  1.
        2   -1    0    0  501    0  0.00000000000E+00  0.00000000000E+00 -0.21333482549E+04  0.21333482549E+04  0.25500000920E-02 0. -1.
    10030    2    1    2    0    0  0.00000000000E+00  0.00000000000E+00 -0.15120170932E+04  0.27546794166E+04  0.23026208976E+04 0.  0.
        5    1    3    3  502    0  0.10325981571E+04  0.17629805849E+03 -0.18457941079E+03  0.10636877400E+04  0.46999998093E+01 0. -1.
       -5    1    3    3    0  502 -0.10325981571E+04 -0.17629805849E+03 -0.13274376824E+04  0.16909916765E+04  0.46999998093E+01 0.  1.
</event>
<event>
 5   0  0.7278815E-06  0.2206198E+04  0.7818609E-02  0.8515853E-01
       -1   -1    0    0    0  501  0.00000000000E+00  0.00000000000E+00  0.85182761148E+03  0.85182761149E+03  0.50400001928E-02 0.  1.
        1   -1    0    0  501    0  0.00000000000E+00  0.00000000000E+00 -0.14284908011E+04  0.14284908011E+04  0.50400001928E-02 0. -1.
    10030    2    1    2    0    0  0.00000000000E+00  0.00000000000E+00 -0.57666318958E+03  0.22803184126E+04  0.22061984563E+04 0.  0.
        5    1    3    3  502    0  0.25657824008E+03  0.99262292874E+03 -0.70903591923E+03  0.12465499175E+04  0.46999998093E+01 0. -1.
       -5    1    3    3    0  502 -0.25657824008E+03 -0.99262292874E+03  0.13237272965E+03  0.10337684951E+04  0.46999998093E+01 0.  1.
</event>
<event>
 5   0  0.1635955E-05  0.2297230E+04  0.7818609E-02  0.8479014E-01
        2   -1    0    0  501    0  0.00000000000E+00  0.00000000000E+00  0.82966013163E+03  0.82966013164E+03  0.25500000920E-02 0.  1.
       -2   -1    0    0    0  501  0.00000000000E+00  0.00000000000E+00 -0.15901886364E+04  0.15901886364E+04  0.25500000920E-02 0. -1.
    10030    2    1    2    0    0  0.00000000000E+00  0.00000000000E+00 -0.76052850480E+03  0.24198487681E+04  0.22972297346E+04 0.  0.
        2    1    3    3  502    0  0.37182011472E+01 -0.27086121771E+03 -0.15560596298E+04  0.15794623122E+04  0.25500000920E-02 0. -1.
       -2    1    3    3    0  502 -0.37182011472E+01  0.27086121771E+03  0.79553112501E+03  0.84038645583E+03  0.25500000920E-02 0.  1.
</event>
<event>
 5   0  0.7416556E-06  0.2283665E+04  0.7818609E-02  0.8484390E-01
        1   -1    0    0  501    0  0.00000000000E+00  0.00000000000E+00  0.72670595929E+03  0.72670595930E+03  0.50400001928E-02 0. -1.
       -1   -1    0    0    0  501  0.00000000000E+00  0.00000000000E+00 -0.17940976059E+04  0.17940976060E+04  0.50400001928E-02 0.  1.
    10030    2    1    2    0    0  0.00000000000E+00  0.00000000000E+00 -0.10673916467E+04  0.25208035653E+04  0.22836649683E+04 0.  0.
        4    1    3    3  502    0  0.64575422388E+02  0.83120734374E+03 -0.13949071936E+04  0.16250671756E+04  0.12699999809E+01 0. -1.
       -4    1    3    3    0  502 -0.64575422388E+02 -0.83120734374E+03  0.32751554692E+03  0.89573638970E+03  0.12699999809E+01 0.  1.
</event>
<event>
 5   0  0.1602809E-05  0.2304170E+04  0.7818609E-02  0.8476279E-01
        2   -1    0    0  501    0  0.00000000000E+00  0.00000000000E+00  0.14706907670E+04  0.14706907670E+04  0.25500000920E-02 0. -1.
       -2   -1    0    0    0  501  0.00000000000E+00  0.00000000000E+00 -0.90250061352E+03  0.90250061352E+03  0.25500000920E-02 0.  1.
    10030    2    1    2    0    0  0.00000000000E+00  0.00000000000E+00  0.56819015351E+03  0.23731913806E+04  0.23041695420E+04 0.  0.
        3    1    3    3  502    0  0.10226658438E+04  0.39093446392E+03  0.65348032679E+03  0.12750340116E+04  0.10100000352E+00 0. -1.
       -3    1    3    3    0  502 -0.10226658438E+04 -0.39093446392E+03 -0.85290173286E+02  0.10981573689E+04  0.10100000352E+00 0.  1.
</event>
<event>
 5   0  0.1697855E-05  0.2318618E+04  0.7818609E-02  0.8470616E-01
        2   -1    0    0  501    0  0.00000000000E+00  0.00000000000E+00  0.13358284079E+04  0.13358284079E+04  0.25500000920E-02 0. -1.
       -2   -1    0    0    0  501  0.00000000000E+00  0.00000000000E+00 -0.10061148987E+04  0.10061148987E+04  0.25500000920E-02 0.  1.
    10030    2    1    2    0    0  0.00000000000E+00  0.00000000000E+00  0.32971350916E+03  0.23419433066E+04  0.23186175738E+04 0.  0.
        5    1    3    3  502    0  0.31478692633E+03 -0.11000298279E+04  0.35333068980E+03  0.11975061994E+04  0.46999998093E+01 0. -1.
       -5    1    3    3    0  502 -0.31478692633E+03  0.11000298279E+04 -0.23617180640E+02  0.11444371073E+04  0.46999998093E+01 0.  1.
</event>
<event>
 5   0  0.1635955E-05  0.2223336E+04  0.7818609E-02  0.8508778E-01
       -2   -1    0    0    0  501  0.00000000000E+00  0.00000000000E+00  0.10295623208E+04  0.10295623208E+04  0.25500000920E-02 0. -1.
        2   -1    0    0  501    0  0.00000000000E+00  0.00000000000E+00 -0.12003212293E+04  0.12003212293E+04  0.25500000920E-02 0.  1.
    10030    2    1    2    0    0  0.00000000000E+00  0.00000000000E+00 -0.17075890851E+03  0.22298835502E+04  0.22233357917E+04 0.  0.
        2    1    3    3  502    0  0.57736597248E+03 -0.46762382013E+03  0.74396693606E+03  0.10514325015E+04  0.25500000920E-02 0. -1.
       -2    1    3    3    0  502 -0.57736597248E+03  0.46762382013E+03 -0.91472584457E+03  0.11784510487E+04  0.25500000920E-02 0.  1.
</event>
<event>
 5   0  0.7183014E-06  0.2297832E+04  0.7818609E-02  0.8478776E-01
       -1   -1    0    0    0  501  0.00000000000E+00  0.00000000000E+00  0.14160112483E+04  0.14160112483E+04  0.50400001928E-02 0. -1.
        1   -1    0    0  501    0  0.00000000000E+00  0.00000000000E+00 -0.93220191296E+03  0.93220191297E+03  0.50400001928E-02 0.  1.
    10030    2    1    2    0    0  0.00000000000E+00  0.00000000000E+00  0.48380933530E+03  0.23482131612E+04  0.22978323650E+04 0.  0.
        3    1    3    3  502    0  0.85099487259E+03  0.44151638892E+03  0.88893708456E+03  0.13074165921E+04  0.10100000352E+00 0. -1.
       -3    1    3    3    0  502 -0.85099487259E+03 -0.44151638892E+03 -0.40512774927E+03  0.10407965691E+04  0.10100000352E+00 0.  1.
</event>
<event>
 5   0  0.1635955E-05  0.2299731E+04  0.7818609E-02  0.8478027E-01
        2   -1    0    0  501    0  0.00000000000E+00  0.00000000000E+00  0.12462192018E+04  0.12462192018E+04  0.25500000920E-02 0.  1.
       -2   -1    0    0    0  501  0.00000000000E+00  0.00000000000E+00 -0.10609612378E+04  0.10609612378E+04  0.25500000920E-02 0. -1.
    10030    2    1    2    0    0  0.00000000000E+00  0.00000000000E+00  0.18525796402E+03  0.23071804396E+04  0.22997306511E+04 0.  0.
        2    1    3    3  502    0  0.93665961656E+03  0.16360953551E+03 -0.55606515195E+03  0.11015025060E+04  0.25500000920E-02 0. -1.
       -2    1    3    3    0  502 -0.93665961656E+03 -0.16360953551E+03  0.74132311597E+03  0.12056779336E+04  0.25500000920E-02 0.  1.
</event>
<event>
 5   0  0.7278815E-06  0.2297102E+04  0.7818609E-02  0.8479064E-01
        1   -1    0    0  501    0  0.00000000000E+00  0.00000000000E+00  0.12361446414E+04  0.12361446414E+04  0.50400001928E-02 0. -1.
       -1   -1    0    0    0  501  0.00000000000E+00  0.00000000000E+00 -0.10671647034E+04  0.10671647034E+04  0.50400001928E-02 0.  1.
    10030    2    1    2    0    0  0.00000000000E+00  0.00000000000E+00  0.16897993797E+03  0.23033093448E+04  0.22971024615E+04 0.  0.
        5    1    3    3  502    0 -0.52859543990E+03 -0.48936971217E+03  0.98147517965E+03  0.12174610764E+04  0.46999998093E+01 0. -1.
       -5    1    3    3    0  502  0.52859543990E+03  0.48936971217E+03 -0.81249524168E+03  0.10858482684E+04  0.46999998093E+01 0.  1.
</event>
<event>
 5   0  0.7416556E-06  0.2298322E+04  0.7818609E-02  0.8478583E-01
       -1   -1    0    0    0  501  0.00000000000E+00  0.00000000000E+00  0.69334849212E+03  0.69334849213E+03  0.50400001928E-02 0.  1.
        1   -1    0    0  501    0  0.00000000000E+00  0.00000000000E+00 -0.19046286500E+04  0.19046286500E+04  0.50400001928E-02 0. -1.
    10030    2    1    2    0    0  0.00000000000E+00  0.00000000000E+00 -0.12112801579E+04  0.25979771421E+04  0.22983223469E+04 0.  0.
        4    1    3    3  502    0  0.93791852705E+03  0.66398517551E+03 -0.60735920584E+03  0.12997900963E+04  0.12699999809E+01 0.  1.
       -4    1    3    3    0  502 -0.93791852705E+03 -0.66398517551E+03 -0.60392095202E+03  0.12981870458E+04  0.12699999809E+01 0. -1.
</event>
<event>
 5   0  0.1602809E-05  0.2300654E+04  0.7818609E-02  0.8477663E-01
        2   -1    0    0  501    0  0.00000000000E+00  0.00000000000E+00  0.34843795984E+04  0.34843795984E+04  0.25500000920E-02 0.  1.
       -2   -1    0    0    0  501  0.00000000000E+00  0.00000000000E+00 -0.37976707499E+03  0.37976707500E+03  0.25500000920E-02 0. -1.
    10030    2    1    2    0    0  0.00000000000E+00  0.00000000000E+00  0.31046125234E+04  0.38641466734E+04  0.23006543837E+04 0.  0.
        3    1    3    3  502    0 -0.47077707556E+02 -0.82109632233E+03  0.29031331634E+04  0.30173825836E+04  0.10100000352E+00 0.  1.
       -3    1    3    3    0  502  0.47077707556E+02  0.82109632233E+03  0.20147935999E+03  0.84676408981E+03  0.10100000352E+00 0. -1.
</event>
<event>
 5   0  0.7183014E-06  0.2295439E+04  0.7818609E-02  0.8479722E-01
       -1   -1    0    0    0  501  0.00000000000E+00  0.00000000000E+00  0.17104987117E+04  0.17104987117E+04  0.50400001928E-02 0. -1.
        1   -1    0    0  501    0  0.00000000000E+00  0.00000000000E+00 -0.77010273316E+03  0.77010273317E+03  0.50400001928E-02 0.  1.
    10030    2    1    2    0    0  0.00000000000E+00  0.00000000000E+00  0.94039597852E+03  0.24806014449E+04  0.22954387232E+04 0.  0.
        3    1    3    3  502    0  0.13208235564E+03 -0.10960943998E+04  0.13122189937E+03  0.11117948907E+04  0.10100000352E+00 0.  1.
       -3    1    3    3    0  502 -0.13208235564E+03  0.10960943998E+04  0.80917407915E+03  0.13688065541E+04  0.10100000352E+00 0. -1.
</event>
<event>
 5   0  0.7202572E-06  0.2296874E+04  0.7818609E-02  0.8479155E-01
       -1   -1    0    0    0  501  0.00000000000E+00  0.00000000000E+00  0.21703162107E+04  0.21703162107E+04  0.50400001928E-02 0.  1.
        1   -1    0    0  501    0  0.00000000000E+00  0.00000000000E+00 -0.60770300315E+03  0.60770300317E+03  0.50400001928E-02 0. -1.
    10030    2    1    2    0    0  0.00000000000E+00  0.00000000000E+00  0.15626132075E+04  0.27780192139E+04  0.22968741185E+04 0.  0.
        2    1    3    3  502    0  0.67110371926E+03  0.76607223424E+03  0.13941563957E+03  0.10279511616E+04  0.25500000920E-02 0. -1.
       -2    1    3    3    0  502 -0.67110371926E+03 -0.76607223424E+03  0.14231975679E+04  0.17500680522E+04  0.25500000920E-02 0.  1.
</event>
<event>
 5   0  0.7202572E-06  0.2293535E+04  0.7818609E-02  0.8480474E-01
        1   -1    0    0  501    0  0.00000000000E+00  0.00000000000E+00  0.11020518397E+04  0.11020518397E+04  0.50400001928E-02 0.  1.
       -1   -1    0    0    0  501  0.00000000000E+00  0.00000000000E+00 -0.11932976669E+04  0.11932976669E+04  0.50400001928E-02 0. -1.
    10030    2    1    2    0    0  0.00000000000E+00  0.00000000000E+00 -0.91245827132E+02  0.22953495066E+04  0.22935351657E+04 0.  0.
        2    1    3    3  502    0  0.41595506887E+03  0.75784020764E+03  0.70845538397E+03  0.11176982736E+04  0.25500000920E-02 0.  1.
       -2    1    3    3    0  502 -0.41595506887E+03 -0.75784020764E+03 -0.79970121110E+03  0.11776512330E+04  0.25500000920E-02 0. -1.
</event>
<event>
 5   0  0.1626636E-05  0.2296742E+04  0.7818609E-02  0.8479207E-01
       -2   -1    0    0    0  501  0.00000000000E+00  0.00000000000E+00  0.44251997509E+03  0.44251997510E+03  0.25500000920E-02 0.  1.
        2   -1    0    0  501    0  0.00000000000E+00  0.00000000000E+00 -0.29801048542E+04  0.29801048542E+04  0.25500000920E-02 0. -1.
    10030    2    1    2    0    0  0.00000000000E+00  0.00000000000E+00 -0.25375848791E+04  0.34226248293E+04  0.22967419758E+04 0.  0.
        4    1    3    3  502    0  0.85271292722E+03 -0.75884430196E+03 -0.14560512707E+04  0.18501488931E+04  0.12699999809E+01 0. -1.
       -4    1    3    3    0  502 -0.85271292722E+03  0.75884430196E+03 -0.10815336084E+04  0.15724759362E+04  0.12699999809E+01 0.  1.
</event>
<event>
 5   0  0.7391007E-06  0.2301493E+04  0.7818609E-02  0.8477333E-01
        1   -1    0    0  501    0  0.00000000000E+00  0.00000000000E+00  0.16638795413E+04  0.16638795413E+04  0.50400001928E-02 0. -1.
       -1   -1    0    0    0  501  0.00000000000E+00  0.00000000000E+00 -0.79586142733E+03  0.79586142734E+03  0.50400001928E-02 0.  1.
    10030    2    1    2    0    0  0.00000000000E+00  0.00000000000E+00  0.86801811399E+03  0.24597409687E+04  0.23014930343E+04 0.  0.
        1    1    3    3  502    0 -0.82264285716E+02 -0.13268187616E+03 -0.78449113810E+03  0.79987388928E+03  0.50400001928E-02 0.  1.
       -1    1    3    3    0  502  0.82264285716E+02  0.13268187616E+03  0.16525092521E+04  0.16598670794E+04  0.50400001928E-02 0. -1.
</event>
<event>
 5   0  0.7391007E-06  0.2270918E+04  0.7818609E-02  0.8489477E-01
        1   -1    0    0  501    0  0.00000000000E+00  0.00000000000E+00  0.12294308748E+04  0.12294308748E+04  0.50400001928E-02 0.  1.
       -1   -1    0    0    0  501  0.00000000000E+00  0.00000000000E+00 -0.10486699484E+04  0.10486699484E+04  0.50400001928E-02 0. -1.
    10030    2    1    2    0    0  0.00000000000E+00  0.00000000000E+00  0.18076092644E+03  0.22781008232E+04  0.22709180629E+04 0.  0.
        1    1    3    3  502    0 -0.27705915070E+03  0.21172846404E+03  0.11743891080E+04  0.12250634646E+04  0.50400001928E-02 0.  1.
       -1    1    3    3    0  502  0.27705915070E+03 -0.21172846404E+03 -0.99362818152E+03  0.10530373586E+04  0.50400001928E-02 0. -1.
</event>
<event>
 5   0  0.1697855E-05  0.2313404E+04  0.7818609E-02  0.8472655E-01
       -2   -1    0    0    0  501  0.00000000000E+00  0.00000000000E+00  0.88076331952E+03  0.88076331953E+03  0.25500000920E-02 0.  1.
        2   -1    0    0  501    0  0.00000000000E+00  0.00000000000E+00 -0.15190910728E+04  0.15190910728E+04  0.25500000920E-02 0. -1.
    10030    2    1    2    0    0  0.00000000000E+00  0.00000000000E+00 -0.63832775332E+03  0.23998543924E+04  0.23134041549E+04 0.  0.
        5    1    3    3  502    0  0.11059191255E+04  0.12145894644E+03  0.90913311067E+01  0.11126158952E+04  0.46999998093E+01 0.  1.
       -5    1    3    3    0  502 -0.11059191255E+04 -0.12145894644E+03 -0.64741908443E+03  0.12872384972E+04  0.46999998093E+01 0. -1.
</event>
<event>
 5   0  0.1588969E-05  0.2295959E+04  0.7818609E-02  0.8479516E-01
       -2   -1    0    0    0  501  0.00000000000E+00  0.00000000000E+00  0.39212392663E+03  0.39212392664E+03  0.25500000920E-02 0.  1.
        2   -1    0    0  501    0  0.00000000000E+00  0.00000000000E+00 -0.33608174797E+04  0.33608174797E+04  0.25500000920E-02 0. -1.
    10030    2    1    2    0    0  0.00000000000E+00  0.00000000000E+00 -0.29686935531E+04  0.37529414064E+04  0.22959590126E+04 0.  0.
        1    1    3    3  502    0  0.63600377449E+03  0.53916103501E+03 -0.19451322927E+03  0.85617219017E+03  0.50400001928E-02 0.  1.
       -1    1    3    3    0  502 -0.63600377449E+03 -0.53916103501E+03 -0.27741803238E+04  0.28967692162E+04  0.50400001928E-02 0. -1.
</event>
<event>
 5   0  0.1588969E-05  0.2323364E+04  0.7818609E-02  0.8468766E-01
       -2   -1    0    0    0  501  0.00000000000E+00  0.00000000000E+00  0.15660163916E+04  0.15660163916E+04  0.25500000920E-02 0. -1.
        2   -1    0    0  501    0  0.00000000000E+00  0.00000000000E+00 -0.86174384624E+03  0.86174384625E+03  0.25500000920E-02 0.  1.
    10030    2    1    2    0    0  0.00000000000E+00  0.00000000000E+00  0.70427254531E+03  0.24277602378E+04  0.23233639306E+04 0.  0.
        1    1    3    3  502    0  0.76789107324E+02 -0.17795846481E+03 -0.84472938805E+03  0.86667959550E+03  0.50400001928E-02 0.  1.
       -1    1    3    3    0  502 -0.76789107324E+02  0.17795846481E+03  0.15490019334E+04  0.15610806423E+04  0.50400001928E-02 0. -1.
</event>
<event>
 5   0  0.7183014E-06  0.2303579E+04  0.7818609E-02  0.8476511E-01
       -1   -1    0    0    0  501  0.00000000000E+00  0.00000000000E+00  0.83862871775E+03  0.83862871776E+03  0.50400001928E-02 0. -1.
        1   -1    0    0  501    0  0.00000000000E+00  0.00000000000E+00 -0.15818911279E+04  0.15818911279E+04  0.50400001928E-02 0.  1.
    10030    2    1    2    0    0  0.00000000000E+00  0.00000000000E+00 -0.74326241014E+03  0.24205198457E+04  0.23035792396E+04 0.  0.
        3    1    3    3  502    0  0.91724320859E+03  0.28682869612E+03 -0.10386918149E+04  0.14150924002E+04  0.10100000352E+00 0.  1.
       -3    1    3    3    0  502 -0.91724320859E+03 -0.28682869612E+03  0.29542940477E+03  0.10054274454E+04  0.10100000352E+00 0. -1.
</event>
<event>
 5   0  0.1697855E-05  0.2249968E+04  0.7818609E-02  0.8497914E-01
        2   -1    0    0  501    0  0.00000000000E+00  0.00000000000E+00  0.11979579469E+04  0.11979579469E+04  0.25500000920E-02 0.  1.
       -2   -1    0    0    0  501  0.00000000000E+00  0.00000000000E+00 -0.10564548342E+04  0.10564548342E+04  0.25500000920E-02 0. -1.
    10030    2    1    2    0    0  0.00000000000E+00  0.00000000000E+00  0.14150311273E+03  0.22544127811E+04  0.22499675234E+04 0.  0.
        5    1    3    3  502    0  0.26052942903E+03 -0.92266139803E+03 -0.51895752357E+03  0.10901920198E+04  0.46999998093E+01 0. -1.
       -5    1    3    3    0  502 -0.26052942903E+03  0.92266139803E+03  0.66046063630E+03  0.11642207612E+04  0.46999998093E+01 0.  1.
</event>
<event>
 5   0  0.1635955E-05  0.2302799E+04  0.7818609E-02  0.8476818E-01
        2   -1    0    0  501    0  0.00000000000E+00  0.00000000000E+00  0.99753476674E+03  0.99753476674E+03  0.25500000920E-02 0.  1.
       -2   -1    0    0    0  501  0.00000000000E+00  0.00000000000E+00 -0.13289967344E+04  0.13289967344E+04  0.25500000920E-02 0. -1.
    10030    2    1    2    0    0  0.00000000000E+00  0.00000000000E+00 -0.33146196770E+03  0.23265315012E+04  0.23027986864E+04 0.  0.
        2    1    3    3  502    0 -0.24090492829E+03 -0.71814185646E+03 -0.10418227982E+04  0.12880829373E+04  0.25500000920E-02 0. -1.
       -2    1    3    3    0  502  0.24090492829E+03  0.71814185646E+03  0.71036083046E+03  0.10384485639E+04  0.25500000920E-02 0.  1.
</event>
<event>
 5   0  0.7278815E-06  0.2308508E+04  0.7818609E-02  0.8474574E-01
       -1   -1    0    0    0  501  0.00000000000E+00  0.00000000000E+00  0.80792141303E+03  0.80792141304E+03  0.50400001928E-02 0. -1.
        1   -1    0    0  501    0  0.00000000000E+00  0.00000000000E+00 -0.16490488475E+04  0.16490488475E+04  0.50400001928E-02 0.  1.
    10030    2    1    2    0    0  0.00000000000E+00  0.00000000000E+00 -0.84112743451E+03  0.24569702606E+04  0.23085076349E+04 0.  0.
        5    1    3    3  502    0  0.56564489919E+03 -0.36990265101E+03 -0.14164186522E+04  0.15694094467E+04  0.46999998093E+01 0.  1.
       -5    1    3    3    0  502 -0.56564489919E+03  0.36990265101E+03  0.57529121766E+03  0.88756081388E+03  0.46999998093E+01 0. -1.
</event>
<event>
 5   0  0.1588969E-05  0.2384204E+04  0.7818609E-02  0.8445441E-01
       -2   -1    0    0    0  501  0.00000000000E+00  0.00000000000E+00  0.15450057237E+04  0.15450057237E+04  0.25500000920E-02 0.  1.
        2   -1    0    0  501    0  0.00000000000E+00  0.00000000000E+00 -0.91980694741E+03  0.91980694741E+03  0.25500000920E-02 0. -1.
    10030    2    1    2    0    0  0.00000000000E+00  0.00000000000E+00  0.62519877625E+03  0.24648126711E+04  0.23842038490E+04 0.  0.
        1    1    3    3  502    0  0.11449671343E+04  0.32525148523E+03  0.38093045366E+03  0.12497384838E+04  0.50400001928E-02 0. -1.
       -1    1    3    3    0  502 -0.11449671343E+04 -0.32525148523E+03  0.24426832258E+03  0.12150741873E+04  0.50400001928E-02 0.  1.
</event>
<event>
 5   0  0.1626636E-05  0.2296510E+04  0.7818609E-02  0.8479298E-01
        2   -1    0    0  501    0  0.00000000000E+00  0.00000000000E+00  0.71923689458E+03  0.71923689459E+03  0.25500000920E-02 0.  1.
       -2   -1    0    0    0  501  0.00000000000E+00  0.00000000000E+00 -0.18331790374E+04  0.18331790374E+04  0.25500000920E-02 0. -1.
    10030    2    1    2    0    0  0.00000000000E+00  0.00000000000E+00 -0.11139421429E+04  0.25524159320E+04  0.22965103946E+04 0.  0.
        4    1    3    3  502    0 -0.99820339232E+03 -0.53037842032E+03 -0.78140640016E+03  0.13741575078E+04  0.12699999809E+01 0. -1.
       -4    1    3    3    0  502  0.99820339232E+03  0.53037842032E+03 -0.33253574270E+03  0.11782584242E+04  0.12699999809E+01 0.  1.
</event>
<event>
 5   0  0.1588969E-05  0.2297032E+04  0.7818609E-02  0.8479092E-01
        2   -1    0    0  501    0  0.00000000000E+00  0.00000000000E+00  0.11362947497E+04  0.11362947497E+04  0.25500000920E-02 0. -1.
       -2   -1    0    0    0  501  0.00000000000E+00  0.00000000000E+00 -0.11608691445E+04  0.11608691445E+04  0.25500000920E-02 0.  1.
    10030    2    1    2    0    0  0.00000000000E+00  0.00000000000E+00 -0.24574394781E+02  0.22971638942E+04  0.22970324456E+04 0.  0.
        1    1    3    3  502    0 -0.36332546535E+03  0.22191085317E+03  0.10544695340E+04  0.11371700922E+04  0.50400001928E-02 0. -1.
       -1    1    3    3    0  502  0.36332546535E+03 -0.22191085317E+03 -0.10790439287E+04  0.11599938020E+04  0.50400001928E-02 0.  1.
</event>
<event>
 5   0  0.1635955E-05  0.2246978E+04  0.7818609E-02  0.8499125E-01
        2   -1    0    0  501    0  0.00000000000E+00  0.00000000000E+00  0.92794356173E+03  0.92794356173E+03  0.25500000920E-02 0.  1.
       -2   -1    0    0    0  501  0.00000000000E+00  0.00000000000E+00 -0.13602420904E+04  0.13602420904E+04  0.25500000920E-02 0. -1.
    10030    2    1    2    0    0  0.00000000000E+00  0.00000000000E+00 -0.43229852863E+03  0.22881856521E+04  0.22469783178E+04 0.  0.
        2    1    3    3  502    0 -0.18551725299E+03  0.10233439478E+04 -0.64888751086E+03  0.12258484769E+04  0.25500000920E-02 0. -1.
       -2    1    3    3    0  502  0.18551725299E+03 -0.10233439478E+04  0.21658898223E+03  0.10623371752E+04  0.25500000920E-02 0.  1.
</event>
<event>
 5   0  0.7202572E-06  0.2237662E+04  0.7818609E-02  0.8502914E-01
        1   -1    0    0  501    0  0.00000000000E+00  0.00000000000E+00  0.10670450689E+04  0.10670450689E+04  0.50400001928E-02 0.  1.
       -1   -1    0    0    0  501  0.00000000000E+00  0.00000000000E+00 -0.11731307214E+04  0.11731307215E+04  0.50400001928E-02 0. -1.
    10030    2    1    2    0    0  0.00000000000E+00  0.00000000000E+00 -0.10608565251E+03  0.22401757904E+04  0.22376624871E+04 0.  0.
        2    1    3    3  502    0 -0.27577599520E+03 -0.17201474297E+03  0.10187397912E+04  0.10693326113E+04  0.25500000920E-02 0.  1.
       -2    1    3    3    0  502  0.27577599520E+03  0.17201474297E+03 -0.11248254437E+04  0.11708431791E+04  0.25500000920E-02 0. -1.
</event>
<event>
 5   0  0.7202572E-06  0.2304704E+04  0.7818609E-02  0.8476069E-01
        1   -1    0    0  501    0  0.00000000000E+00  0.00000000000E+00  0.16152033210E+04  0.16152033210E+04  0.50400001928E-02 0.  1.
       -1   -1    0    0    0  501  0.00000000000E+00  0.00000000000E+00 -0.82213524276E+03  0.82213524278E+03  0.50400001928E-02 0. -1.
    10030    2    1    2    0    0  0.00000000000E+00  0.00000000000E+00  0.79306807824E+03  0.24373385638E+04  0.23047043840E+04 0.  0.
        2    1    3    3  502    0  0.50840097701E+03 -0.80976586378E+03 -0.28369568384E+03  0.99733422112E+03  0.25500000920E-02 0. -1.
       -2    1    3    3    0  502 -0.50840097701E+03  0.80976586378E+03  0.10767637621E+04  0.14400043427E+04  0.25500000920E-02 0.  1.
</event>
<event>
 5   0  0.1588969E-05  0.2283376E+04  0.7818609E-02  0.8484505E-01
       -2   -1    0    0    0  501  0.00000000000E+00  0.00000000000E+00  0.10712370894E+04  0.10712370894E+04  0.25500000920E-02 0.  1.
        2   -1    0    0  501    0  0.00000000000E+00  0.00000000000E+00 -0.12167721896E+04  0.12167721896E+04  0.25500000920E-02 0. -1.
    10030    2    1    2    0    0  0.00000000000E+00  0.00000000000E+00 -0.14553510020E+03  0.22880092789E+04  0.22833760083E+04 0.  0.
        1    1    3    3  502    0 -0.82290594922E+03  0.14074181880E+03 -0.85310897928E+03  0.11936403945E+04  0.50400001928E-02 0. -1.
       -1    1    3    3    0  502  0.82290594922E+03 -0.14074181880E+03  0.70757387908E+03  0.10943688844E+04  0.50400001928E-02 0.  1.
</event>
<event>
 5   0  0.7391007E-06  0.2174359E+04  0.7818609E-02  0.8529177E-01
        1   -1    0    0  501    0  0.00000000000E+00  0.00000000000E+00  0.10286565274E+04  0.10286565275E+04  0.50400001928E-02 0.  1.
       -1   -1    0    0    0  501  0.00000000000E+00  0.00000000000E+00 -0.11490317833E+04  0.11490317833E+04  0.50400001928E-02 0. -1.
    10030    2    1    2    0    0  0.00000000000E+00  0.00000000000E+00 -0.12037525583E+03  0.21776883107E+04  0.21743587966E+04 0.  0.
        1    1    3    3  502    0 -0.81903283518E+03  0.20064005508E+03 -0.74745106880E+03  0.11268337575E+04  0.50400001928E-02 0. -1.
       -1    1    3    3    0  502  0.81903283518E+03 -0.20064005508E+03  0.62707581297E+03  0.10508545532E+04  0.50400001928E-02 0.  1.
</event>
<event>
 5   0  0.7278815E-06  0.2302074E+04  0.7818609E-02  0.8477104E-01
       -1   -1    0    0    0  501  0.00000000000E+00  0.00000000000E+00  0.11300304785E+04  0.11300304785E+04  0.50400001928E-02 0.  1.
        1   -1    0    0  501    0  0.00000000000E+00  0.00000000000E+00 -0.11724336223E+04  0.11724336223E+04  0.50400001928E-02 0. -1.
    10030    2    1    2    0    0  0.00000000000E+00  0.00000000000E+00 -0.42403143826E+02  0.23024641008E+04  0.23020736106E+04 0.  0.
        5    1    3    3  502    0  0.35180556009E+03  0.13729431632E+03 -0.11086977181E+04  0.11712598352E+04  0.46999998093E+01 0. -1.
       -5    1    3    3    0  502 -0.35180556009E+03 -0.13729431632E+03  0.10662945743E+04  0.11312042656E+04  0.46999998093E+01 0.  1.
</event>
<event>
 5   0  0.1588969E-05  0.2180398E+04  0.7818609E-02  0.8526632E-01
       -2   -1    0    0    0  501  0.00000000000E+00  0.00000000000E+00  0.83544605052E+03  0.83544605053E+03  0.25500000920E-02 0.  1.
        2   -1    0    0  501    0  0.00000000000E+00  0.00000000000E+00 -0.14226332930E+04  0.14226332930E+04  0.25500000920E-02 0. -1.
    10030    2    1    2    0    0  0.00000000000E+00  0.00000000000E+00 -0.58718724250E+03  0.22580793435E+04  0.21803975472E+04 0.  0.
        1    1    3    3  502    0 -0.92829406775E+03 -0.29203856179E+03  0.21535897867E+03  0.99669247390E+03  0.50400001928E-02 0.  1.
       -1    1    3    3    0  502  0.92829406775E+03  0.29203856179E+03 -0.80254622117E+03  0.12613868697E+04  0.50400001928E-02 0. -1.
</event>
<event>
 5   0  0.7416556E-06  0.2296349E+04  0.7818609E-02  0.8479362E-01
       -1   -1    0    0    0  501  0.00000000000E+00  0.00000000000E+00  0.14376582606E+04  0.14376582606E+04  0.50400001928E-02 0.  1.
        1   -1    0    0  501    0  0.00000000000E+00  0.00000000000E+00 -0.91698021772E+03  0.91698021774E+03  0.50400001928E-02 0. -1.
    10030    2    1    2    0    0  0.00000000000E+00  0.00000000000E+00  0.52067804284E+03  0.23546384783E+04  0.22963485666E+04 0.  0.
        4    1    3    3  502    0 -0.53739033936E+03 -0.12561863949E+03 -0.77206209322E+03  0.94902576789E+03  0.12699999809E+01 0. -1.
       -4    1    3    3    0  502  0.53739033936E+03  0.12561863949E+03  0.12927401361E+04  0.14056127104E+04  0.12699999809E+01 0.  1.
</event>
<event>
 5   0  0.1635955E-05  0.2299971E+04  0.7818609E-02  0.8477933E-01
       -2   -1    0    0    0  501  0.00000000000E+00  0.00000000000E+00  0.71599903725E+03  0.71599903726E+03  0.25500000920E-02 0. -1.
        2   -1    0    0  501    0  0.00000000000E+00  0.00000000000E+00 -0.18470221785E+04  0.18470221785E+04  0.25500000920E-02 0.  1.
    10030    2    1    2    0    0  0.00000000000E+00  0.00000000000E+00 -0.11310231412E+04  0.25630212158E+04  0.22999705229E+04 0.  0.
        2    1    3    3  502    0 -0.13607411079E+03  0.32639615895E+03  0.65390576911E+03  0.74339987294E+03  0.25500000920E-02 0. -1.
       -2    1    3    3    0  502  0.13607411079E+03 -0.32639615895E+03 -0.17849289104E+04  0.18196213428E+04  0.25500000920E-02 0.  1.
</event>
<event>
 5   0  0.7416556E-06  0.2297753E+04  0.7818609E-02  0.8478807E-01
       -1   -1    0    0    0  501  0.00000000000E+00  0.00000000000E+00  0.14473948857E+04  0.14473948857E+04  0.50400001928E-02 0.  1.
        1   -1    0    0  501    0  0.00000000000E+00  0.00000000000E+00 -0.91192650853E+03  0.91192650854E+03  0.50400001928E-02 0. -1.
    10030    2    1    2    0    0  0.00000000000E+00  0.00000000000E+00  0.53546837712E+03  0.23593213942E+04  0.22977534807E+04 0.  0.
        4    1    3    3  502    0  0.10555981962E+04  0.44882493463E+03  0.33415740184E+03  0.11947360193E+04  0.12699999809E+01 0. -1.
       -4    1    3    3    0  502 -0.10555981962E+04 -0.44882493463E+03  0.20131097529E+03  0.11645853749E+04  0.12699999809E+01 0.  1.
</event>
<event>
 5   0  0.7391007E-06  0.2303221E+04  0.7818609E-02  0.8476652E-01
       -1   -1    0    0    0  501  0.00000000000E+00  0.00000000000E+00  0.10374817491E+04  0.10374817491E+04  0.50400001928E-02 0. -1.
        1   -1    0    0  501    0  0.00000000000E+00  0.00000000000E+00 -0.12782939863E+04  0.12782939863E+04  0.50400001928E-02 0.  1.
    10030    2    1    2    0    0  0.00000000000E+00  0.00000000000E+00 -0.24081223718E+03  0.23157757354E+04  0.23032209453E+04 0.  0.
        1    1    3    3  502    0 -0.58070498883E+03 -0.20325166438E+03 -0.10991996806E+04  0.12596703779E+04  0.50400001928E-02 0.  1.
       -1    1    3    3    0  502  0.58070498883E+03  0.20325166438E+03  0.85838744340E+03  0.10561053575E+04  0.50400001928E-02 0. -1.
</event>
<event>
 5   0  0.1697855E-05  0.2299774E+04  0.7818609E-02  0.8478010E-01
        2   -1    0    0  501    0  0.00000000000E+00  0.00000000000E+00  0.15140360887E+04  0.15140360887E+04  0.25500000920E-02 0. -1.
       -2   -1    0    0    0  501  0.00000000000E+00  0.00000000000E+00 -0.87332146734E+03  0.87332146735E+03  0.25500000920E-02 0.  1.
    10030    2    1    2    0    0  0.00000000000E+00  0.00000000000E+00  0.64071462135E+03  0.23873575560E+04  0.22997740920E+04 0.  0.
        5    1    3    3  502    0  0.10587678622E+04 -0.38709589884E+03  0.85040682375E+02  0.11305249350E+04  0.46999998093E+01 0.  1.
       -5    1    3    3    0  502 -0.10587678622E+04  0.38709589884E+03  0.55567393898E+03  0.12568326211E+04  0.46999998093E+01 0. -1.
</event>
<event>
 5   0  0.7183014E-06  0.2283250E+04  0.7818609E-02  0.8484555E-01
       -1   -1    0    0    0  501  0.00000000000E+00  0.00000000000E+00  0.92505935232E+03  0.92505935234E+03  0.50400001928E-02 0.  1.
        1   -1    0    0  501    0  0.00000000000E+00  0.00000000000E+00 -0.14088908717E+04  0.14088908717E+04  0.50400001928E-02 0. -1.
    10030    2    1    2    0    0  0.00000000000E+00  0.00000000000E+00 -0.48383151940E+03  0.23339502241E+04  0.22832500321E+04 0.  0.
        3    1    3    3  502    0 -0.43946552325E+02 -0.11328343002E+04 -0.37929807916E+03  0.11954546810E+04  0.10100000352E+00 0.  1.
       -3    1    3    3    0  502  0.43946552325E+02  0.11328343002E+04 -0.10453344025E+03  0.11384955431E+04  0.10100000352E+00 0. -1.
</event>
<event>
 5   0  0.7183014E-06  0.2291287E+04  0.7818609E-02  0.8481365E-01
        1   -1    0    0  501    0  0.00000000000E+00  0.00000000000E+00  0.14033916551E+04  0.14033916552E+04  0.50400001928E-02 0.  1.
       -1   -1    0    0    0  501  0.00000000000E+00  0.00000000000E+00 -0.93523349980E+03  0.93523349981E+03  0.50400001928E-02 0. -1.
    10030    2    1    2    0    0  0.00000000000E+00  0.00000000000E+00  0.46815815535E+03  0.23386251550E+04  0.22912868779E+04 0.  0.
        3    1    3    3  502    0 -0.10278362155E+04 -0.46661897910E+03  0.34284182371E+02  0.11293165955E+04  0.10100000352E+00 0. -1.
       -3    1    3    3    0  502  0.10278362155E+04  0.46661897910E+03  0.43387397298E+03  0.12093085595E+04  0.10100000352E+00 0.  1.
</event>
<event>
 5   0  0.1635955E-05  0.2304629E+04  0.7818609E-02  0.8476098E-01
       -2   -1    0    0    0  501  0.00000000000E+00  0.00000000000E+00  0.86716079270E+03  0.86716079270E+03  0.25500000920E-02 0.  1.
        2   -1    0    0  501    0  0.00000000000E+00  0.00000000000E+00 -0.15312368741E+04  0.15312368741E+04  0.25500000920E-02 0. -1.
    10030    2    1    2    0    0  0.00000000000E+00  0.00000000000E+00 -0.66407608143E+03  0.23983976668E+04  0.23046288912E+04 0.  0.
        2    1    3    3  502    0  0.96965593804E+03 -0.65976562272E+02  0.31221626149E+03  0.10208156243E+04  0.25500000920E-02 0.  1.
       -2    1    3    3    0  502 -0.96965593804E+03  0.65976562272E+02 -0.97629234291E+03  0.13775820425E+04  0.25500000920E-02 0. -1.
</event>
<event>
 5   0  0.1626636E-05  0.2302791E+04  0.7818609E-02  0.8476821E-01
       -2   -1    0    0    0  501  0.00000000000E+00  0.00000000000E+00  0.79083220934E+03  0.79083220935E+03  0.25500000920E-02 0. -1.
        2   -1    0    0  501    0  0.00000000000E+00  0.00000000000E+00 -0.16763506034E+04  0.16763506034E+04  0.25500000920E-02 0.  1.
    10030    2    1    2    0    0  0.00000000000E+00  0.00000000000E+00 -0.88551839406E+03  0.24671828128E+04  0.23027913942E+04 0.  0.
        4    1    3    3  502    0  0.56118538412E+03  0.98345518550E+03 -0.66646463232E+03  0.13138835018E+04  0.12699999809E+01 0. -1.
       -4    1    3    3    0  502 -0.56118538412E+03 -0.98345518550E+03 -0.21905376174E+03  0.11532993110E+04  0.12699999809E+01 0.  1.
</event>
<event>
 5   0  0.7183014E-06  0.2302555E+04  0.7818609E-02  0.8476914E-01
       -1   -1    0    0    0  501  0.00000000000E+00  0.00000000000E+00  0.16973618321E+04  0.16973618321E+04  0.50400001928E-02 0.  1.
        1   -1    0    0  501    0  0.00000000000E+00  0.00000000000E+00 -0.78088259328E+03  0.78088259329E+03  0.50400001928E-02 0. -1.
    10030    2    1    2    0    0  0.00000000000E+00  0.00000000000E+00  0.91647923884E+03  0.24782444254E+04  0.23025553711E+04 0.  0.
        3    1    3    3  502    0  0.97185597052E+03 -0.31373266425E+03  0.10303100460E+04  0.14506795005E+04  0.10100000352E+00 0.  1.
       -3    1    3    3    0  502 -0.97185597052E+03  0.31373266425E+03 -0.11383080718E+03  0.10275649249E+04  0.10100000352E+00 0. -1.
</event>
<event>
 5   0  0.1635955E-05  0.2301747E+04  0.7818609E-02  0.8477233E-01
        2   -1    0    0  501    0  0.00000000000E+00  0.00000000000E+00  0.17848832179E+04  0.17848832179E+04  0.25500000920E-02 0. -1.
       -2   -1    0    0    0  501  0.00000000000E+00  0.00000000000E+00 -0.74207061264E+03  0.74207061265E+03  0.25500000920E-02 0.  1.
    10030    2    1    2    0    0  0.00000000000E+00  0.00000000000E+00  0.10428126052E+04  0.25269538305E+04  0.23017466263E+04 0.  0.
        2    1    3    3  502    0  0.86548022339E+03 -0.31193798192E+03  0.12805447572E+04  0.15767549578E+04  0.25500000920E-02 0. -1.
       -2    1    3    3    0  502 -0.86548022339E+03  0.31193798192E+03 -0.23773215199E+03  0.95019887273E+03  0.25500000920E-02 0.  1.
</event>
<event>
 5   0  0.1626636E-05  0.2305033E+04  0.7818609E-02  0.8475939E-01
       -2   -1    0    0    0  501  0.00000000000E+00  0.00000000000E+00  0.31929360265E+04  0.31929360265E+04  0.25500000920E-02 0.  1.
        2   -1    0    0  501    0  0.00000000000E+00  0.00000000000E+00 -0.41601040040E+03  0.41601040041E+03  0.25500000920E-02 0. -1.
    10030    2    1    2    0    0  0.00000000000E+00  0.00000000000E+00  0.27769256261E+04  0.36089464269E+04  0.23050332708E+04 0.  0.
        4    1    3    3  502    0  0.10246579269E+04  0.32301896185E+03  0.20416123647E+04  0.23070430810E+04  0.12699999809E+01 0. -1.
       -4    1    3    3    0  502 -0.10246579269E+04 -0.32301896185E+03  0.73531326146E+03  0.13019033460E+04  0.12699999809E+01 0.  1.
</event>
<event>
 5   0  0.1602809E-05  0.2306971E+04  0.7818609E-02  0.8475178E-01
        2   -1    0    0  501    0  0.00000000000E+00  0.00000000000E+00  0.14554148949E+04  0.14554148949E+04  0.25500000920E-02 0.  1.
       -2   -1    0    0    0  501  0.00000000000E+00  0.00000000000E+00 -0.91419227962E+03  0.91419227962E+03  0.25500000920E-02 0. -1.
    10030    2    1    2    0    0  0.00000000000E+00  0.00000000000E+00  0.54122261528E+03  0.23696071745E+04  0.23069712270E+04 0.  0.
        3    1    3    3  502    0 -0.55859519788E+03  0.59871837552E+03 -0.56387312772E+03  0.99420581504E+03  0.10100000352E+00 0. -1.
       -3    1    3    3    0  502  0.55859519788E+03 -0.59871837552E+03  0.11050957430E+04  0.13754013595E+04  0.10100000352E+00 0.  1.
</event>
<event>
 5   0  0.7183014E-06  0.2294651E+04  0.7818609E-02  0.8480033E-01
       -1   -1    0    0    0  501  0.00000000000E+00  0.00000000000E+00  0.65214501578E+03  0.65214501580E+03  0.50400001928E-02 0.  1.
        1   -1    0    0  501    0  0.00000000000E+00  0.00000000000E+00 -0.20185014883E+04  0.20185014883E+04  0.50400001928E-02 0. -1.
    10030    2    1    2    0    0  0.00000000000E+00  0.00000000000E+00 -0.13663564725E+04  0.26706465041E+04  0.22946508971E+04 0.  0.
        3    1    3    3  502    0  0.64690658708E+03  0.80275057381E+03 -0.12691189739E+04  0.16351023198E+04  0.10100000352E+00 0. -1.
       -3    1    3    3    0  502 -0.64690658708E+03 -0.80275057381E+03 -0.97237498558E+02  0.10355441842E+04  0.10100000352E+00 0.  1.
</event>
<event>
 5   0  0.1635955E-05  0.2297216E+04  0.7818609E-02  0.8479020E-01
       -2   -1    0    0    0  501  0.00000000000E+00  0.00000000000E+00  0.11819049264E+04  0.11819049264E+04  0.25500000920E-02 0.  1.
        2   -1    0    0  501    0  0.00000000000E+00  0.00000000000E+00 -0.11162491674E+04  0.11162491674E+04  0.25500000920E-02 0. -1.
    10030    2    1    2    0    0  0.00000000000E+00  0.00000000000E+00  0.65655759044E+02  0.22981540938E+04  0.22972160456E+04 0.  0.
        2    1    3    3  502    0 -0.13085598269E+03  0.13421896316E+03 -0.11008437391E+04  0.11166892837E+04  0.25500000920E-02 0. -1.
       -2    1    3    3    0  502  0.13085598269E+03 -0.13421896316E+03  0.11664994982E+04  0.11814648101E+04  0.25500000920E-02 0.  1.
</event>
<event>
 5   0  0.5704875E-06  0.2296601E+04  0.7818609E-02  0.8479262E-01
       -3   -1    0    0    0  501  0.00000000000E+00  0.00000000000E+00  0.13137017681E+04  0.13137017720E+04  0.10100000352E+00 0.  1.
        3   -1    0    0  501    0  0.00000000000E+00  0.00000000000E+00 -0.10037244093E+04  0.10037244144E+04  0.10100000352E+00 0. -1.
    10030    2    1    2    0    0  0.00000000000E+00  0.00000000000E+00  0.30997735888E+03  0.23174261864E+04  0.22966014383E+04 0.  0.
        4    1    3    3  502    0 -0.43523271583E+03  0.79631772574E+03  0.86496187909E+03  0.12536786281E+04  0.12699999809E+01 0.  1.
       -4    1    3    3    0  502  0.43523271583E+03 -0.79631772574E+03 -0.55498452022E+03  0.10637475583E+04  0.12699999809E+01 0. -1.
</event>
<event>
 5   0  0.7416556E-06  0.2298360E+04  0.7818609E-02  0.8478568E-01
       -1   -1    0    0    0  501  0.00000000000E+00  0.00000000000E+00  0.14603635302E+04  0.14603635302E+04  0.50400001928E-02 0.  1.
        1   -1    0    0  501    0  0.00000000000E+00  0.00000000000E+00 -0.90430522624E+03  0.90430522625E+03  0.50400001928E-02 0. -1.
    10030    2    1    2    0    0  0.00000000000E+00  0.00000000000E+00  0.55605830396E+03  0.23646687565E+04  0.22983597391E+04 0.  0.
        4    1    3    3  502    0 -0.26345084653E+03  0.81187017108E+03  0.10696915597E+04  0.13684959514E+04  0.12699999809E+01 0.  1.
       -4    1    3    3    0  502  0.26345084653E+03 -0.81187017108E+03 -0.51363325574E+03  0.99617280505E+03  0.12699999809E+01 0. -1.
</event>
<event>
 5   0  0.1635955E-05  0.2304772E+04  0.7818609E-02  0.8476042E-01
       -2   -1    0    0    0  501  0.00000000000E+00  0.00000000000E+00  0.13476875432E+04  0.13476875432E+04  0.25500000920E-02 0. -1.
        2   -1    0    0  501    0  0.00000000000E+00  0.00000000000E+00 -0.98538635839E+03  0.98538635839E+03  0.25500000920E-02 0.  1.
    10030    2    1    2    0    0  0.00000000000E+00  0.00000000000E+00  0.36230118477E+03  0.23330739015E+04  0.23047715031E+04 0.  0.
        2    1    3    3  502    0 -0.18151222226E+03  0.11367227331E+04  0.12656568830E+03  0.11580605046E+04  0.25500000920E-02 0.  1.
       -2    1    3    3    0  502  0.18151222226E+03 -0.11367227331E+04  0.23573549647E+03  0.11750133970E+04  0.25500000920E-02 0. -1.
</event>
<event>
 5   0  0.7278815E-06  0.2317815E+04  0.7818609E-02  0.8470930E-01
        1   -1    0    0  501    0  0.00000000000E+00  0.00000000000E+00  0.11004326180E+04  0.11004326180E+04  0.50400001928E-02 0. -1.
       -1   -1    0    0    0  501  0.00000000000E+00  0.00000000000E+00 -0.12204899206E+04  0.12204899206E+04  0.50400001928E-02 0.  1.
    10030    2    1    2    0    0  0.00000000000E+00  0.00000000000E+00 -0.12005730261E+03  0.23209225387E+04  0.23178152805E+04 0.  0.
        5    1    3    3  502    0  0.84085249638E+03  0.71199268296E+03 -0.41978501835E+03  0.11790708430E+04  0.46999998093E+01 0.  1.
       -5    1    3    3    0  502 -0.84085249638E+03 -0.71199268296E+03  0.29972771574E+03  0.11418516956E+04  0.46999998093E+01 0. -1.
</event>
<event>
 5   0  0.7278815E-06  0.2331981E+04  0.7818609E-02  0.8465417E-01
        1   -1    0    0  501    0  0.00000000000E+00  0.00000000000E+00  0.81015035126E+03  0.81015035127E+03  0.50400001928E-02 0. -1.
       -1   -1    0    0    0  501  0.00000000000E+00  0.00000000000E+00 -0.16781246771E+04  0.16781246771E+04  0.50400001928E-02 0.  1.
    10030    2    1    2    0    0  0.00000000000E+00  0.00000000000E+00 -0.86797432580E+03  0.24882750283E+04  0.23319805287E+04 0.  0.
        5    1    3    3  502    0 -0.65473794736E+02 -0.72623465900E+02 -0.16737320857E+04  0.16765924282E+04  0.46999998093E+01 0.  1.
       -5    1    3    3    0  502  0.65473794736E+02  0.72623465900E+02  0.80575775994E+03  0.81168260010E+03  0.46999998093E+01 0. -1.
</event>
<event>
 5   0  0.7183014E-06  0.2302585E+04  0.7818609E-02  0.8476902E-01
       -1   -1    0    0    0  501  0.00000000000E+00  0.00000000000E+00  0.14226517796E+04  0.14226517796E+04  0.50400001928E-02 0.  1.
        1   -1    0    0  501    0  0.00000000000E+00  0.00000000000E+00 -0.93169309777E+03  0.93169309778E+03  0.50400001928E-02 0. -1.
    10030    2    1    2    0    0  0.00000000000E+00  0.00000000000E+00  0.49095868181E+03  0.23543448774E+04  0.23025853674E+04 0.  0.
        3    1    3    3  502    0  0.58979623888E+03  0.69453766176E+03 -0.47406735357E+03  0.10271231829E+04  0.10100000352E+00 0. -1.
       -3    1    3    3    0  502 -0.58979623888E+03 -0.69453766176E+03  0.96502603538E+03  0.13272216944E+04  0.10100000352E+00 0.  1.
</event>
<event>
 5   0  0.7202572E-06  0.2293519E+04  0.7818609E-02  0.8480481E-01
        1   -1    0    0  501    0  0.00000000000E+00  0.00000000000E+00  0.68700517429E+03  0.68700517431E+03  0.50400001928E-02 0. -1.
       -1   -1    0    0    0  501  0.00000000000E+00  0.00000000000E+00 -0.19141882121E+04  0.19141882121E+04  0.50400001928E-02 0.  1.
    10030    2    1    2    0    0  0.00000000000E+00  0.00000000000E+00 -0.12271830378E+04  0.26011933864E+04  0.22935188740E+04 0.  0.
        2    1    3    3  502    0  0.97045734804E+03 -0.33848866593E+03 -0.11904436198E+04  0.15727422081E+04  0.25500000920E-02 0.  1.
       -2    1    3    3    0  502 -0.97045734804E+03  0.33848866593E+03 -0.36739418049E+02  0.10284511783E+04  0.25500000920E-02 0. -1.
</event>
<event>
 5   0  0.1697855E-05  0.2307516E+04  0.7818609E-02  0.8474963E-01
        2   -1    0    0  501    0  0.00000000000E+00  0.00000000000E+00  0.12316555386E+04  0.12316555386E+04  0.25500000920E-02 0. -1.
       -2   -1    0    0    0  501  0.00000000000E+00  0.00000000000E+00 -0.10807874076E+04  0.10807874076E+04  0.25500000920E-02 0.  1.
    10030    2    1    2    0    0  0.00000000000E+00  0.00000000000E+00  0.15086813103E+03  0.23124429461E+04  0.23075162375E+04 0.  0.
        5    1    3    3  502    0 -0.10560172114E+04 -0.32236765070E+02 -0.38915487401E+03  0.11259108161E+04  0.46999998093E+01 0.  1.
       -5    1    3    3    0  502  0.10560172114E+04  0.32236765070E+02  0.54002300504E+03  0.11865321301E+04  0.46999998093E+01 0. -1.
</event>
<event>
 5   0  0.7416556E-06  0.2302947E+04  0.7818609E-02  0.8476760E-01
       -1   -1    0    0    0  501  0.00000000000E+00  0.00000000000E+00  0.70546892612E+03  0.70546892614E+03  0.50400001928E-02 0.  1.
        1   -1    0    0  501    0  0.00000000000E+00  0.00000000000E+00 -0.18794468387E+04  0.18794468387E+04  0.50400001928E-02 0. -1.
    10030    2    1    2    0    0  0.00000000000E+00  0.00000000000E+00 -0.11739779126E+04  0.25849157649E+04  0.23029471058E+04 0.  0.
        4    1    3    3  502    0 -0.30694586068E+03 -0.80369507887E+03  0.27205998964E+03  0.90230803613E+03  0.12699999809E+01 0.  1.
       -4    1    3    3    0  502  0.30694586068E+03  0.80369507887E+03 -0.14460379022E+04  0.16826077287E+04  0.12699999809E+01 0. -1.
</event>
<event>
 5   0  0.7278815E-06  0.2298369E+04  0.7818609E-02  0.8478565E-01
        1   -1    0    0  501    0  0.00000000000E+00  0.00000000000E+00  0.14345125068E+04  0.14345125068E+04  0.50400001928E-02 0. -1.
       -1   -1    0    0    0  501  0.00000000000E+00  0.00000000000E+00 -0.92060879825E+03  0.92060879826E+03  0.50400001928E-02 0.  1.
    10030    2    1    2    0    0  0.00000000000E+00  0.00000000000E+00  0.51390370857E+03  0.23551213051E+04  0.22983688433E+04 0.  0.
        5    1    3    3  502    0 -0.49580449239E+03 -0.66654806428E+02 -0.80316559873E+03  0.94623571423E+03  0.46999998093E+01 0.  1.
       -5    1    3    3    0  502  0.49580449239E+03  0.66654806428E+02  0.13170693073E+04  0.14088855909E+04  0.46999998093E+01 0. -1.
</event>
<event>
 5   0  0.1635955E-05  0.2299045E+04  0.7818609E-02  0.8478298E-01
        2   -1    0    0  501    0  0.00000000000E+00  0.00000000000E+00  0.21847033326E+04  0.21847033326E+04  0.25500000920E-02 0.  1.
       -2   -1    0    0    0  501  0.00000000000E+00  0.00000000000E+00 -0.60484299672E+03  0.60484299673E+03  0.25500000920E-02 0. -1.
    10030    2    1    2    0    0  0.00000000000E+00  0.00000000000E+00  0.15798603358E+04  0.27895463293E+04  0.22990454633E+04 0.  0.
        2    1    3    3  502    0  0.51508607577E+03  0.71540458675E+03  0.16850872478E+04  0.19017456246E+04  0.25500000920E-02 0.  1.
       -2    1    3    3    0  502 -0.51508607577E+03 -0.71540458675E+03 -0.10522691193E+03  0.88780070466E+03  0.25500000920E-02 0. -1.
</event>
<event>
 5   0  0.7202572E-06  0.2297150E+04  0.7818609E-02  0.8479046E-01
       -1   -1    0    0    0  501  0.00000000000E+00  0.00000000000E+00  0.89929630334E+03  0.89929630335E+03  0.50400001928E-02 0.  1.
        1   -1    0    0  501    0  0.00000000000E+00  0.00000000000E+00 -0.14669517431E+04  0.14669517432E+04  0.50400001928E-02 0. -1.
    10030    2    1    2    0    0  0.00000000000E+00  0.00000000000E+00 -0.56765543981E+03  0.23662480465E+04  0.22971497816E+04 0.  0.
        2    1    3    3  502    0  0.76008415475E+03 -0.58046269172E+01  0.60315589745E+03  0.97033945227E+03  0.25500000920E-02 0.  1.
       -2    1    3    3    0  502 -0.76008415475E+03  0.58046269172E+01 -0.11708113373E+04  0.13959085942E+04  0.25500000920E-02 0. -1.
</event>
<event>
 5   0  0.1697855E-05  0.2297544E+04  0.7818609E-02  0.8478890E-01
        2   -1    0    0  501    0  0.00000000000E+00  0.00000000000E+00  0.22183159258E+04  0.22183159259E+04  0.25500000920E-02 0.  1.
       -2   -1    0    0    0  501  0.00000000000E+00  0.00000000000E+00 -0.59490040230E+03  0.59490040231E+03  0.25500000920E-02 0. -1.
    10030    2    1    2    0    0  0.00000000000E+00  0.00000000000E+00  0.16234155235E+04  0.28132163282E+04  0.22975439380E+04 0.  0.
        5    1    3    3  502    0 -0.69745778039E+03 -0.28544139982E+03 -0.24991562165E+03  0.79397988393E+03  0.46999998093E+01 0. -1.
       -5    1    3    3    0  502  0.69745778039E+03  0.28544139982E+03  0.18733311452E+04  0.20192364442E+04  0.46999998093E+01 0.  1.
</event>
<event>
 5   0  0.7391007E-06  0.2291528E+04  0.7818609E-02  0.8481269E-01
        1   -1    0    0  501    0  0.00000000000E+00  0.00000000000E+00  0.11018809309E+04  0.11018809309E+04  0.50400001928E-02 0. -1.
       -1   -1    0    0    0  501  0.00000000000E+00  0.00000000000E+00 -0.11913951439E+04  0.11913951439E+04  0.50400001928E-02 0.  1.
    10030    2    1    2    0    0  0.00000000000E+00  0.00000000000E+00 -0.89514213073E+02  0.22932760748E+04  0.22915283897E+04 0.  0.
        1    1    3    3  502    0  0.74618921192E+03 -0.43125515616E+03  0.71079965021E+03  0.11171461375E+04  0.50400001928E-02 0. -1.
       -1    1    3    3    0  502 -0.74618921192E+03  0.43125515616E+03 -0.80031386328E+03  0.11761299373E+04  0.50400001928E-02 0.  1.
</event>
<event>
 5   0  0.1602809E-05  0.2304221E+04  0.7818609E-02  0.8476259E-01
        2   -1    0    0  501    0  0.00000000000E+00  0.00000000000E+00  0.12923131267E+04  0.12923131267E+04  0.25500000920E-02 0. -1.
       -2   -1    0    0    0  501  0.00000000000E+00  0.00000000000E+00 -0.10271182220E+04  0.10271182220E+04  0.25500000920E-02 0.  1.
    10030    2    1    2    0    0  0.00000000000E+00  0.00000000000E+00  0.26519490476E+03  0.23194313487E+04  0.23042207889E+04 0.  0.
        3    1    3    3  502    0  0.10488687801E+04  0.21908363114E+03 -0.29355877259E+03  0.11109906024E+04  0.10100000352E+00 0.  1.
       -3    1    3    3    0  502 -0.10488687801E+04 -0.21908363114E+03  0.55875367735E+03  0.12084407464E+04  0.10100000352E+00 0. -1.
</event>
<event>
 5   0  0.1697855E-05  0.2255418E+04  0.7818609E-02  0.8495710E-01
       -2   -1    0    0    0  501  0.00000000000E+00  0.00000000000E+00  0.84491635166E+03  0.84491635166E+03  0.25500000920E-02 0. -1.
        2   -1    0    0  501    0  0.00000000000E+00  0.00000000000E+00 -0.15051516668E+04  0.15051516668E+04  0.25500000920E-02 0.  1.
    10030    2    1    2    0    0  0.00000000000E+00  0.00000000000E+00 -0.66023531512E+03  0.23500680184E+04  0.22554177041E+04 0.  0.
        5    1    3    3  502    0  0.56384939310E+03 -0.91034185814E+03  0.38356452248E+02  0.10715137630E+04  0.46999998093E+01 0. -1.
       -5    1    3    3    0  502 -0.56384939310E+03  0.91034185814E+03 -0.69859176737E+03  0.12785542555E+04  0.46999998093E+01 0.  1.
</event>
<event>
 5   0  0.7391007E-06  0.2301245E+04  0.7818609E-02  0.8477430E-01
        1   -1    0    0  501    0  0.00000000000E+00  0.00000000000E+00  0.27776667116E+04  0.27776667116E+04  0.50400001928E-02 0.  1.
       -1   -1    0    0    0  501  0.00000000000E+00  0.00000000000E+00 -0.47663473493E+03  0.47663473495E+03  0.50400001928E-02 0. -1.
    10030    2    1    2    0    0  0.00000000000E+00  0.00000000000E+00  0.23010319767E+04  0.32543014466E+04  0.23012452602E+04 0.  0.
        1    1    3    3  502    0 -0.18897267370E+03 -0.36922948504E+03  0.26682673503E+04  0.27003132664E+04  0.50400001928E-02 0.  1.
       -1    1    3    3    0  502  0.18897267370E+03  0.36922948504E+03 -0.36723537366E+03  0.55398818013E+03  0.50400001928E-02 0. -1.
</event>
<event>
 5   0  0.1635955E-05  0.2300147E+04  0.7818609E-02  0.8477863E-01
        2   -1    0    0  501    0  0.00000000000E+00  0.00000000000E+00  0.16259793537E+04  0.16259793537E+04  0.25500000920E-02 0.  1.
       -2   -1    0    0    0  501  0.00000000000E+00  0.00000000000E+00 -0.81345977643E+03  0.81345977643E+03  0.25500000920E-02 0. -1.
    10030    2    1    2    0    0  0.00000000000E+00  0.00000000000E+00  0.81251957727E+03  0.24394391301E+04  0.23001467793E+04 0.  0.
        2    1    3    3  502    0 -0.48547589480E+03 -0.45245584771E+03  0.14024313146E+04  0.15515207800E+04  0.25500000920E-02 0.  1.
       -2    1    3    3    0  502  0.48547589480E+03  0.45245584771E+03 -0.58991173737E+03  0.88791835011E+03  0.25500000920E-02 0. -1.
</event>
<event>
 5   0  0.1697855E-05  0.2298591E+04  0.7818609E-02  0.8478477E-01
       -2   -1    0    0    0  501  0.00000000000E+00  0.00000000000E+00  0.72885057219E+03  0.72885057220E+03  0.25500000920E-02 0.  1.
        2   -1    0    0  501    0  0.00000000000E+00  0.00000000000E+00 -0.18122791675E+04  0.18122791675E+04  0.25500000920E-02 0. -1.
    10030    2    1    2    0    0  0.00000000000E+00  0.00000000000E+00 -0.10834285954E+04  0.25411297397E+04  0.22985914889E+04 0.  0.
        5    1    3    3  502    0 -0.27761934416E+03  0.21980374448E+03 -0.17504596784E+04  0.17859219921E+04  0.46999998093E+01 0. -1.
       -5    1    3    3    0  502  0.27761934416E+03 -0.21980374448E+03  0.66703108302E+03  0.75520774761E+03  0.46999998093E+01 0.  1.
</event>
<event>
 5   0  0.7202572E-06  0.2276771E+04  0.7818609E-02  0.8487137E-01
        1   -1    0    0  501    0  0.00000000000E+00  0.00000000000E+00  0.24988762034E+04  0.24988762034E+04  0.50400001928E-02 0. -1.
       -1   -1    0    0    0  501  0.00000000000E+00  0.00000000000E+00 -0.51860184174E+03  0.51860184176E+03  0.50400001928E-02 0.  1.
    10030    2    1    2    0    0  0.00000000000E+00  0.00000000000E+00  0.19802743617E+04  0.30174780452E+04  0.22767712238E+04 0.  0.
        2    1    3    3  502    0 -0.42119786820E+03  0.93073778782E+03  0.32450724291E+03  0.10719073769E+04  0.25500000920E-02 0.  1.
       -2    1    3    3    0  502  0.42119786820E+03 -0.93073778782E+03  0.16557671188E+04  0.19455706684E+04  0.25500000920E-02 0. -1.
</event>
<event>
 5   0  0.1697855E-05  0.2305020E+04  0.7818609E-02  0.8475944E-01
       -2   -1    0    0    0  501  0.00000000000E+00  0.00000000000E+00  0.86027735321E+03  0.86027735321E+03  0.25500000920E-02 0. -1.
        2   -1    0    0  501    0  0.00000000000E+00  0.00000000000E+00 -0.15440128465E+04  0.15440128465E+04  0.25500000920E-02 0.  1.
    10030    2    1    2    0    0  0.00000000000E+00  0.00000000000E+00 -0.68373549331E+03  0.24042901997E+04  0.23050199868E+04 0.  0.
        5    1    3    3  502    0  0.77786037021E+00 -0.56300869105E+03 -0.13907999725E+04  0.15004419498E+04  0.46999998093E+01 0.  1.
       -5    1    3    3    0  502 -0.77786037021E+00  0.56300869105E+03  0.70706447915E+03  0.90384824995E+03  0.46999998093E+01 0. -1.
</event>
<event>
 5   0  0.7416556E-06  0.2303290E+04  0.7818609E-02  0.8476625E-01
       -1   -1    0    0    0  501  0.00000000000E+00  0.00000000000E+00  0.61264534622E+03  0.61264534625E+03  0.50400001928E-02 0.  1.
        1   -1    0    0  501    0  0.00000000000E+00  0.00000000000E+00 -0.21648506050E+04  0.21648506050E+04  0.50400001928E-02 0. -1.
    10030    2    1    2    0    0  0.00000000000E+00  0.00000000000E+00 -0.15522052588E+04  0.27774959513E+04  0.23032895159E+04 0.  0.
        4    1    3    3  502    0  0.26599432219E+03 -0.11091642056E+04 -0.58434906953E+03  0.12815863850E+04  0.12699999809E+01 0.  1.
       -4    1    3    3    0  502 -0.26599432219E+03  0.11091642056E+04 -0.96785618926E+03  0.14959095662E+04  0.12699999809E+01 0. -1.
</event>
<event>
 5   0  0.7278815E-06  0.2315576E+04  0.7818609E-02  0.8471805E-01
       -1   -1    0    0    0  501  0.00000000000E+00  0.00000000000E+00  0.10983521390E+04  0.10983521391E+04  0.50400001928E-02 0. -1.
        1   -1    0    0  501    0  0.00000000000E+00  0.00000000000E+00 -0.12204399147E+04  0.12204399147E+04  0.50400001928E-02 0.  1.
    10030    2    1    2    0    0  0.00000000000E+00  0.00000000000E+00 -0.12208777563E+03  0.23187920537E+04  0.23155757736E+04 0.  0.
        5    1    3    3  502    0 -0.35137631685E+03  0.10187474258E+04  0.36279222755E+03  0.11370804387E+04  0.46999998093E+01 0. -1.
       -5    1    3    3    0  502  0.35137631685E+03 -0.10187474258E+04 -0.48488000318E+03  0.11817116150E+04  0.46999998093E+01 0.  1.
</event>
<event>
 5   0  0.7278815E-06  0.2296015E+04  0.7818609E-02  0.8479494E-01
       -1   -1    0    0    0  501  0.00000000000E+00  0.00000000000E+00  0.66417241229E+03  0.66417241231E+03  0.50400001928E-02 0.  1.
        1   -1    0    0  501    0  0.00000000000E+00  0.00000000000E+00 -0.19843053916E+04  0.19843053916E+04  0.50400001928E-02 0. -1.
    10030    2    1    2    0    0  0.00000000000E+00  0.00000000000E+00 -0.13201329793E+04  0.26484778040E+04  0.22960147201E+04 0.  0.
        5    1    3    3  502    0 -0.32656039159E+03  0.84929202929E+03  0.14735825926E+03  0.92177827429E+03  0.46999998093E+01 0.  1.
       -5    1    3    3    0  502  0.32656039159E+03 -0.84929202929E+03 -0.14674912386E+04  0.17266995297E+04  0.46999998093E+01 0. -1.
</event>
<event>
 5   0  0.5704875E-06  0.2271110E+04  0.7818609E-02  0.8489400E-01
        3   -1    0    0  501    0  0.00000000000E+00  0.00000000000E+00  0.14302025631E+04  0.14302025666E+04  0.10100000352E+00 0.  1.
       -3   -1    0    0    0  501  0.00000000000E+00  0.00000000000E+00 -0.90160993359E+03  0.90160993924E+03  0.10100000352E+00 0. -1.
    10030    2    1    2    0    0  0.00000000000E+00  0.00000000000E+00  0.52859262947E+03  0.23318125059E+04  0.22711097276E+04 0.  0.
        1    1    3    3  502    0 -0.62398901213E+03 -0.74078354855E+01 -0.70978024949E+03  0.94509532106E+03  0.50400001928E-02 0. -1.
       -1    1    3    3    0  502  0.62398901213E+03  0.74078354855E+01  0.12383728790E+04  0.13867171848E+04  0.50400001928E-02 0.  1.
</event>
<event>
 5   0  0.1602809E-05  0.2311812E+04  0.7818609E-02  0.8473279E-01
       -2   -1    0    0    0  501  0.00000000000E+00  0.00000000000E+00  0.12259934292E+04  0.12259934292E+04  0.25500000920E-02 0. -1.
        2   -1    0    0  501    0  0.00000000000E+00  0.00000000000E+00 -0.10898248725E+04  0.10898248725E+04  0.25500000920E-02 0.  1.
    10030    2    1    2    0    0  0.00000000000E+00  0.00000000000E+00  0.13616855676E+03  0.23158183017E+04  0.23118115257E+04 0.  0.
        3    1    3    3  502    0  0.10491129437E+04  0.39039021147E+03  0.35681227412E+03  0.11748861626E+04  0.10100000352E+00 0. -1.
       -3    1    3    3    0  502 -0.10491129437E+04 -0.39039021147E+03 -0.22064371737E+03  0.11409321391E+04  0.10100000352E+00 0.  1.
</event>
<event>
 5   0  0.7278815E-06  0.2280533E+04  0.7818609E-02  0.8485636E-01
       -1   -1    0    0    0  501  0.00000000000E+00  0.00000000000E+00  0.12166955520E+04  0.12166955520E+04  0.50400001928E-02 0. -1.
        1   -1    0    0  501    0  0.00000000000E+00  0.00000000000E+00 -0.10686386305E+04  0.10686386305E+04  0.50400001928E-02 0.  1.
    10030    2    1    2    0    0  0.00000000000E+00  0.00000000000E+00  0.14805692150E+03  0.22853341825E+04  0.22805331556E+04 0.  0.
        5    1    3    3  502    0 -0.90876681688E+03 -0.61085558941E+03 -0.24473568116E+03  0.11220157406E+04  0.46999998093E+01 0. -1.
       -5    1    3    3    0  502  0.90876681688E+03  0.61085558941E+03  0.39279260266E+03  0.11633184419E+04  0.46999998093E+01 0.  1.
</event>
<event>
 5   0  0.7278815E-06  0.2282831E+04  0.7818609E-02  0.8484722E-01
       -1   -1    0    0    0  501  0.00000000000E+00  0.00000000000E+00  0.95181491753E+03  0.95181491755E+03  0.50400001928E-02 0.  1.
        1   -1    0    0  501    0  0.00000000000E+00  0.00000000000E+00 -0.13687838257E+04  0.13687838257E+04  0.50400001928E-02 0. -1.
    10030    2    1    2    0    0  0.00000000000E+00  0.00000000000E+00 -0.41696890818E+03  0.23205987433E+04  0.22828305800E+04 0.  0.
        5    1    3    3  502    0 -0.94068423850E+02  0.20244963810E+03 -0.13463660227E+04  0.13647557589E+04  0.46999998093E+01 0. -1.
       -5    1    3    3    0  502  0.94068423850E+02 -0.20244963810E+03  0.92939711452E+03  0.95584298439E+03  0.46999998093E+01 0.  1.
</event>
<event>
 5   0  0.1602809E-05  0.2296066E+04  0.7818609E-02  0.8479474E-01
        2   -1    0    0  501    0  0.00000000000E+00  0.00000000000E+00  0.22332625524E+04  0.22332625524E+04  0.25500000920E-02 0.  1.
       -2   -1    0    0    0  501  0.00000000000E+00  0.00000000000E+00 -0.59015869763E+03  0.59015869764E+03  0.25500000920E-02 0. -1.
    10030    2    1    2    0    0  0.00000000000E+00  0.00000000000E+00  0.16431038547E+04  0.28234212500E+04  0.22960656083E+04 0.  0.
        3    1    3    3  502    0  0.17824048618E+03 -0.24378080599E+03  0.21835447773E+04  0.22043290491E+04  0.10100000352E+00 0.  1.
       -3    1    3    3    0  502 -0.17824048618E+03  0.24378080599E+03 -0.54044092251E+03  0.61909220090E+03  0.10100000352E+00 0. -1.
</event>
<event>
 5   0  0.1588969E-05  0.2298420E+04  0.7818609E-02  0.8478544E-01
        2   -1    0    0  501    0  0.00000000000E+00  0.00000000000E+00  0.13521887843E+04  0.13521887843E+04  0.25500000920E-02 0. -1.
       -2   -1    0    0    0  501  0.00000000000E+00  0.00000000000E+00 -0.97670050833E+03  0.97670050834E+03  0.25500000920E-02 0.  1.
    10030    2    1    2    0    0  0.00000000000E+00  0.00000000000E+00  0.37548827599E+03  0.23288892927E+04  0.22984198685E+04 0.  0.
        1    1    3    3  502    0 -0.64803276581E+03 -0.94335059640E+03  0.82313527849E+02  0.11474460032E+04  0.50400001928E-02 0.  1.
       -1    1    3    3    0  502  0.64803276581E+03  0.94335059640E+03  0.29317474814E+03  0.11814432895E+04  0.50400001928E-02 0. -1.
</event>
<event>
 5   0  0.1626636E-05  0.2300441E+04  0.7818609E-02  0.8477747E-01
        2   -1    0    0  501    0  0.00000000000E+00  0.00000000000E+00  0.21338225369E+04  0.21338225369E+04  0.25500000920E-02 0.  1.
       -2   -1    0    0    0  501  0.00000000000E+00  0.00000000000E+00 -0.62001761006E+03  0.62001761007E+03  0.25500000920E-02 0. -1.
    10030    2    1    2    0    0  0.00000000000E+00  0.00000000000E+00  0.15138049268E+04  0.27538401470E+04  0.23004413052E+04 0.  0.
        4    1    3    3  502    0 -0.93413844637E+03  0.54752809324E+03  0.29233773098E+03  0.11215456351E+04  0.12699999809E+01 0. -1.
       -4    1    3    3    0  502  0.93413844637E+03 -0.54752809324E+03  0.12214671959E+04  0.16322945118E+04  0.12699999809E+01 0.  1.
</event>
<event>
 5   0  0.7202572E-06  0.2288976E+04  0.7818609E-02  0.8482280E-01
        1   -1    0    0  501    0  0.00000000000E+00  0.00000000000E+00  0.77421264523E+03  0.77421264524E+03  0.50400001928E-02 0.  1.
       -1   -1    0    0    0  501  0.00000000000E+00  0.00000000000E+00 -0.16918519343E+04  0.16918519343E+04  0.50400001928E-02 0. -1.
    10030    2    1    2    0    0  0.00000000000E+00  0.00000000000E+00 -0.91763928910E+03  0.24660645796E+04  0.22889763314E+04 0.  0.
        2    1    3    3  502    0 -0.11578729301E+01  0.97188096133E+03  0.19234005565E+03  0.99073136656E+03  0.25500000920E-02 0.  1.
       -2    1    3    3    0  502  0.11578729301E+01 -0.97188096133E+03 -0.11099793447E+04  0.14753332130E+04  0.25500000920E-02 0. -1.
</event>
<event>
 5   0  0.1697855E-05  0.2294477E+04  0.7818609E-02  0.8480102E-01
        2   -1    0    0  501    0  0.00000000000E+00  0.00000000000E+00  0.18284125809E+04  0.18284125809E+04  0.25500000920E-02 0.  1.
       -2   -1    0    0    0  501  0.00000000000E+00  0.00000000000E+00 -0.71983531871E+03  0.71983531872E+03  0.25500000920E-02 0. -1.
    10030    2    1    2    0    0  0.00000000000E+00  0.00000000000E+00  0.11085772622E+04  0.25482478996E+04  0.22944768057E+04 0.  0.
        5    1    3    3  502    0  0.66596645467E+03  0.17115511006E+03  0.15741857963E+04  0.17178150080E+04  0.46999998093E+01 0.  1.
       -5    1    3    3    0  502 -0.66596645467E+03 -0.17115511006E+03 -0.46560853411E+03  0.83043289162E+03  0.46999998093E+01 0. -1.
</event>
<event>
 5   0  0.7416556E-06  0.2298069E+04  0.7818609E-02  0.8478683E-01
        1   -1    0    0  501    0  0.00000000000E+00  0.00000000000E+00  0.14726045881E+04  0.14726045881E+04  0.50400001928E-02 0.  1.
       -1   -1    0    0    0  501  0.00000000000E+00  0.00000000000E+00 -0.89656157769E+03  0.89656157770E+03  0.50400001928E-02 0. -1.
    10030    2    1    2    0    0  0.00000000000E+00  0.00000000000E+00  0.57604301036E+03  0.23691661658E+04  0.22980693574E+04 0.  0.
        4    1    3    3  502    0 -0.28145631238E+03 -0.14067028567E+03 -0.85128039123E+03  0.90757132085E+03  0.12699999809E+01 0. -1.
       -4    1    3    3    0  502  0.28145631238E+03  0.14067028567E+03  0.14273234016E+04  0.14615948449E+04  0.12699999809E+01 0.  1.
</event>
<event>
 5   0  0.1588969E-05  0.2297374E+04  0.7818609E-02  0.8478957E-01
       -2   -1    0    0    0  501  0.00000000000E+00  0.00000000000E+00  0.94133643871E+03  0.94133643872E+03  0.25500000920E-02 0.  1.
        2   -1    0    0  501    0  0.00000000000E+00  0.00000000000E+00 -0.14017112676E+04  0.14017112676E+04  0.25500000920E-02 0. -1.
    10030    2    1    2    0    0  0.00000000000E+00  0.00000000000E+00 -0.46037482885E+03  0.23430477063E+04  0.22973740598E+04 0.  0.
        1    1    3    3  502    0  0.25061808055E+03  0.63738940168E+03 -0.11706962672E+04  0.13563201767E+04  0.50400001928E-02 0. -1.
       -1    1    3    3    0  502 -0.25061808055E+03 -0.63738940168E+03  0.71032143840E+03  0.98672752954E+03  0.50400001928E-02 0.  1.
</event>
<event>
 5   0  0.1697855E-05  0.2287775E+04  0.7818609E-02  0.8482757E-01
        2   -1    0    0  501    0  0.00000000000E+00  0.00000000000E+00  0.86508517168E+03  0.86508517168E+03  0.25500000920E-02 0.  1.
       -2   -1    0    0    0  501  0.00000000000E+00  0.00000000000E+00 -0.15125434585E+04  0.15125434585E+04  0.25500000920E-02 0. -1.
    10030    2    1    2    0    0  0.00000000000E+00  0.00000000000E+00 -0.64745828679E+03  0.23776286302E+04  0.22877752665E+04 0.  0.
        5    1    3    3  502    0  0.10223012095E+04 -0.46571884797E+03 -0.54774789604E+03  0.12498174490E+04  0.46999998093E+01 0. -1.
       -5    1    3    3    0  502 -0.10223012095E+04  0.46571884797E+03 -0.99710390742E+02  0.11278111811E+04  0.46999998093E+01 0.  1.
</event>
<event>
 5   0  0.1635955E-05  0.2310075E+04  0.7818609E-02  0.8473959E-01
        2   -1    0    0  501    0  0.00000000000E+00  0.00000000000E+00  0.13803091722E+04  0.13803091722E+04  0.25500000920E-02 0.  1.
       -2   -1    0    0    0  501  0.00000000000E+00  0.00000000000E+00 -0.96653097599E+03  0.96653097600E+03  0.25500000920E-02 0. -1.
    10030    2    1    2    0    0  0.00000000000E+00  0.00000000000E+00  0.41377819620E+03  0.23468401482E+04  0.23100749524E+04 0.  0.
        2    1    3    3  502    0 -0.18413520953E+03 -0.75256948650E+03 -0.66339209241E+03  0.10199782722E+04  0.25500000920E-02 0. -1.
       -2    1    3    3    0  502  0.18413520953E+03  0.75256948650E+03  0.10771702886E+04  0.13268618760E+04  0.25500000920E-02 0.  1.
</event>
<event>
 5   0  0.7391007E-06  0.2292821E+04  0.7818609E-02  0.8480757E-01
       -1   -1    0    0    0  501  0.00000000000E+00  0.00000000000E+00  0.60972768919E+03  0.60972768921E+03  0.50400001928E-02 0.  1.
        1   -1    0    0  501    0  0.00000000000E+00  0.00000000000E+00 -0.21554811224E+04  0.21554811224E+04  0.50400001928E-02 0. -1.
    10030    2    1    2    0    0  0.00000000000E+00  0.00000000000E+00 -0.15457534332E+04  0.27652088116E+04  0.22928205546E+04 0.  0.
        1    1    3    3  502    0  0.20890491253E+03  0.72205739083E+03  0.27105182999E+03  0.79904770364E+03  0.50400001928E-02 0.  1.
       -1    1    3    3    0  502 -0.20890491253E+03 -0.72205739083E+03 -0.18168052632E+04  0.19661611080E+04  0.50400001928E-02 0. -1.
</event>
<event>
 5   0  0.7416556E-06  0.2304557E+04  0.7818609E-02  0.8476127E-01
        1   -1    0    0  501    0  0.00000000000E+00  0.00000000000E+00  0.11024550653E+04  0.11024550653E+04  0.50400001928E-02 0. -1.
       -1   -1    0    0    0  501  0.00000000000E+00  0.00000000000E+00 -0.12043534181E+04  0.12043534181E+04  0.50400001928E-02 0.  1.
    10030    2    1    2    0    0  0.00000000000E+00  0.00000000000E+00 -0.10189835280E+03  0.23068084833E+04  0.23045568130E+04 0.  0.
        4    1    3    3  502    0  0.25300351978E+03 -0.10039248351E+04  0.45537907119E+03  0.11310382695E+04  0.12699999809E+01 0. -1.
       -4    1    3    3    0  502 -0.25300351978E+03  0.10039248351E+04 -0.55727742399E+03  0.11757702139E+04  0.12699999809E+01 0.  1.
</event>
<event>
 5   0  0.1635955E-05  0.2335747E+04  0.7818609E-02  0.8463958E-01
        2   -1    0    0  501    0  0.00000000000E+00  0.00000000000E+00  0.13447483147E+04  0.13447483147E+04  0.25500000920E-02 0. -1.
       -2   -1    0    0    0  501  0.00000000000E+00  0.00000000000E+00 -0.10142631870E+04  0.10142631870E+04  0.25500000920E-02 0.  1.
    10030    2    1    2    0    0  0.00000000000E+00  0.00000000000E+00  0.33048512766E+03  0.23590115017E+04  0.23357471707E+04 0.  0.
        2    1    3    3  502    0 -0.65008155119E+03  0.65250942236E+02 -0.81242022578E+03  0.10425403263E+04  0.25500000920E-02 0.  1.
       -2    1    3    3    0  502  0.65008155119E+03 -0.65250942236E+02  0.11429053534E+04  0.13164711754E+04  0.25500000920E-02 0. -1.
</event>
<event>
 5   0  0.1697855E-05  0.2303109E+04  0.7818609E-02  0.8476696E-01
        2   -1    0    0  501    0  0.00000000000E+00  0.00000000000E+00  0.69451899551E+03  0.69451899552E+03  0.25500000920E-02 0. -1.
       -2   -1    0    0    0  501  0.00000000000E+00  0.00000000000E+00 -0.19093474177E+04  0.19093474177E+04  0.25500000920E-02 0.  1.
    10030    2    1    2    0    0  0.00000000000E+00  0.00000000000E+00 -0.12148284222E+04  0.26038664132E+04  0.23031092468E+04 0.  0.
        5    1    3    3  502    0  0.23569607437E+03 -0.10446216626E+04 -0.10861067314E+04  0.15252661995E+04  0.46999998093E+01 0. -1.
       -5    1    3    3    0  502 -0.23569607437E+03  0.10446216626E+04 -0.12872169082E+03  0.10786002137E+04  0.46999998093E+01 0.  1.
</event>
<event>
 5   0  0.7416556E-06  0.2276386E+04  0.7818609E-02  0.8487290E-01
        1   -1    0    0  501    0  0.00000000000E+00  0.00000000000E+00  0.13530275295E+04  0.13530275295E+04  0.50400001928E-02 0. -1.
       -1   -1    0    0    0  501  0.00000000000E+00  0.00000000000E+00 -0.95747016987E+03  0.95747016988E+03  0.50400001928E-02 0.  1.
    10030    2    1    2    0    0  0.00000000000E+00  0.00000000000E+00  0.39555735966E+03  0.23104976994E+04  0.22763861698E+04 0.  0.
        4    1    3    3  502    0  0.13045878404E+03 -0.46595095583E+03 -0.84787854719E+03  0.97623226297E+03  0.12699999809E+01 0.  1.
       -4    1    3    3    0  502 -0.13045878404E+03  0.46595095583E+03  0.12434359068E+04  0.13342654364E+04  0.12699999809E+01 0. -1.
</event>
<event>
 5   0  0.7202572E-06  0.2290748E+04  0.7818609E-02  0.8481578E-01
        1   -1    0    0  501    0  0.00000000000E+00  0.00000000000E+00  0.23582837668E+04  0.23582837668E+04  0.50400001928E-02 0. -1.
       -1   -1    0    0    0  501  0.00000000000E+00  0.00000000000E+00 -0.55628657652E+03  0.55628657654E+03  0.50400001928E-02 0.  1.
    10030    2    1    2    0    0  0.00000000000E+00  0.00000000000E+00  0.18019971903E+04  0.29145703433E+04  0.22907480028E+04 0.  0.
        2    1    3    3  502    0 -0.30783783563E+03  0.10837341381E+04  0.11637194556E+04  0.16197181194E+04  0.25500000920E-02 0.  1.
       -2    1    3    3    0  502  0.30783783563E+03 -0.10837341381E+04  0.63827773471E+03  0.12948522239E+04  0.25500000920E-02 0. -1.
</event>
<event>
 5   0  0.1626636E-05  0.2337082E+04  0.7818609E-02  0.8463442E-01
        2   -1    0    0  501    0  0.00000000000E+00  0.00000000000E+00  0.16018809241E+04  0.16018809241E+04  0.25500000920E-02 0.  1.
       -2   -1    0    0    0  501  0.00000000000E+00  0.00000000000E+00 -0.85242816052E+03  0.85242816052E+03  0.25500000920E-02 0. -1.
    10030    2    1    2    0    0  0.00000000000E+00  0.00000000000E+00  0.74945276359E+03  0.24543090846E+04  0.23370822917E+04 0.  0.
        4    1    3    3  502    0 -0.89800787101E+03 -0.35806465784E+03  0.10640489744E+04  0.14376474771E+04  0.12699999809E+01 0.  1.
       -4    1    3    3    0  502  0.89800787101E+03  0.35806465784E+03 -0.31459621076E+03  0.10166616076E+04  0.12699999809E+01 0. -1.
</event>
<event>
 5   0  0.5704875E-06  0.2298150E+04  0.7818609E-02  0.8478651E-01
        3   -1    0    0  501    0  0.00000000000E+00  0.00000000000E+00  0.18326330042E+04  0.18326330070E+04  0.10100000352E+00 0. -1.
       -3   -1    0    0    0  501  0.00000000000E+00  0.00000000000E+00 -0.72047908261E+03  0.72047908969E+03  0.10100000352E+00 0.  1.
    10030    2    1    2    0    0  0.00000000000E+00  0.00000000000E+00  0.11121539216E+04  0.25531120967E+04  0.22981503504E+04 0.  0.
        2    1    3    3  502    0  0.22051914427E+03 -0.76006791967E+03  0.14815936752E+04  0.16797177602E+04  0.25500000920E-02 0. -1.
       -2    1    3    3    0  502 -0.22051914427E+03  0.76006791967E+03 -0.36943975358E+03  0.87339433651E+03  0.25500000920E-02 0.  1.
</event>
<event>
 5   0  0.1626636E-05  0.2308929E+04  0.7818609E-02  0.8474409E-01
        2   -1    0    0  501    0  0.00000000000E+00  0.00000000000E+00  0.20638398874E+04  0.20638398874E+04  0.25500000920E-02 0. -1.
       -2   -1    0    0    0  501  0.00000000000E+00  0.00000000000E+00 -0.64578074408E+03  0.64578074408E+03  0.25500000920E-02 0.  1.
    10030    2    1    2    0    0  0.00000000000E+00  0.00000000000E+00  0.14180591433E+04  0.27096206315E+04  0.23089288063E+04 0.  0.
        4    1    3    3  502    0  0.95107201419E+03  0.31990603324E+03  0.13789849193E+04  0.17054263006E+04  0.12699999809E+01 0. -1.
       -4    1    3    3    0  502 -0.95107201419E+03 -0.31990603324E+03  0.39074224040E+02  0.10041943309E+04  0.12699999809E+01 0.  1.
</event>
<event>
 5   0  0.1626636E-05  0.2303001E+04  0.7818609E-02  0.8476739E-01
       -2   -1    0    0    0  501  0.00000000000E+00  0.00000000000E+00  0.10068319237E+04  0.10068319237E+04  0.25500000920E-02 0.  1.
        2   -1    0    0  501    0  0.00000000000E+00  0.00000000000E+00 -0.13169561098E+04  0.13169561098E+04  0.25500000920E-02 0. -1.
    10030    2    1    2    0    0  0.00000000000E+00  0.00000000000E+00 -0.31012418611E+03  0.23237880335E+04  0.23030010451E+04 0.  0.
        4    1    3    3  502    0  0.85539435323E+03  0.50746938811E+02 -0.93121046771E+03  0.12654759181E+04  0.12699999809E+01 0. -1.
       -4    1    3    3    0  502 -0.85539435323E+03 -0.50746938811E+02  0.62108628159E+03  0.10583121153E+04  0.12699999809E+01 0.  1.
</event>
<event>
 5   0  0.1602809E-05  0.2412290E+04  0.7818609E-02  0.8434917E-01
        2   -1    0    0  501    0  0.00000000000E+00  0.00000000000E+00  0.96910388905E+03  0.96910388906E+03  0.25500000920E-02 0. -1.
       -2   -1    0    0    0  501  0.00000000000E+00  0.00000000000E+00 -0.15011658768E+04  0.15011658768E+04  0.25500000920E-02 0.  1.
    10030    2    1    2    0    0  0.00000000000E+00  0.00000000000E+00 -0.53206198771E+03  0.24702697658E+04  0.24122899405E+04 0.  0.
        3    1    3    3  502    0 -0.10346468697E+04  0.28672211462E+02  0.36810186254E+03  0.10985514244E+04  0.10100000352E+00 0.  1.
       -3    1    3    3    0  502  0.10346468697E+04 -0.28672211462E+02 -0.90016385025E+03  0.13717183414E+04  0.10100000352E+00 0. -1.
</event>
<event>
 5   0  0.7202572E-06  0.2313823E+04  0.7818609E-02  0.8472491E-01
        1   -1    0    0  501    0  0.00000000000E+00  0.00000000000E+00  0.96133724641E+03  0.96133724642E+03  0.50400001928E-02 0.  1.
       -1   -1    0    0    0  501  0.00000000000E+00  0.00000000000E+00 -0.13922736723E+04  0.13922736723E+04  0.50400001928E-02 0. -1.
    10030    2    1    2    0    0  0.00000000000E+00  0.00000000000E+00 -0.43093642588E+03  0.23536109187E+04  0.23138232762E+04 0.  0.
        2    1    3    3  502    0 -0.76431449919E+03  0.13450332965E+03 -0.10882296124E+04  0.13366044623E+04  0.25500000920E-02 0. -1.
       -2    1    3    3    0  502  0.76431449919E+03 -0.13450332965E+03  0.65729318651E+03  0.10170064564E+04  0.25500000920E-02 0.  1.
</event>
<event>
 5   0  0.7391007E-06  0.2321162E+04  0.7818609E-02  0.8469624E-01
        1   -1    0    0  501    0  0.00000000000E+00  0.00000000000E+00  0.12845402660E+04  0.12845402660E+04  0.50400001928E-02 0. -1.
       -1   -1    0    0    0  501  0.00000000000E+00  0.00000000000E+00 -0.10485837901E+04  0.10485837901E+04  0.50400001928E-02 0.  1.
    10030    2    1    2    0    0  0.00000000000E+00  0.00000000000E+00  0.23595647585E+03  0.23331240561E+04  0.23211618648E+04 0.  0.
        1    1    3    3  502    0  0.71565853642E+03  0.91983743425E+02 -0.79572786159E+03  0.10741559382E+04  0.50400001928E-02 0.  1.
       -1    1    3    3    0  502 -0.71565853642E+03 -0.91983743425E+02  0.10316843374E+04  0.12589681179E+04  0.50400001928E-02 0. -1.
</event>
<event>
 5   0  0.7278815E-06  0.2296124E+04  0.7818609E-02  0.8479451E-01
       -1   -1    0    0    0  501  0.00000000000E+00  0.00000000000E+00  0.82416265553E+03  0.82416265555E+03  0.50400001928E-02 0.  1.
        1   -1    0    0  501    0  0.00000000000E+00  0.00000000000E+00 -0.15992550618E+04  0.15992550618E+04  0.50400001928E-02 0. -1.
    10030    2    1    2    0    0  0.00000000000E+00  0.00000000000E+00 -0.77509240631E+03  0.24234177174E+04  0.22961239502E+04 0.  0.
        5    1    3    3  502    0 -0.87151458153E+03  0.22044196518E+02 -0.11759528582E+04  0.14638684460E+04  0.46999998093E+01 0. -1.
       -5    1    3    3    0  502  0.87151458153E+03 -0.22044196518E+02  0.40086045188E+03  0.95954927143E+03  0.46999998093E+01 0.  1.
</event>
<event>
 5   0  0.1588969E-05  0.2304308E+04  0.7818609E-02  0.8476224E-01
       -2   -1    0    0    0  501  0.00000000000E+00  0.00000000000E+00  0.11936926968E+04  0.11936926968E+04  0.25500000920E-02 0.  1.
        2   -1    0    0  501    0  0.00000000000E+00  0.00000000000E+00 -0.11120607570E+04  0.11120607570E+04  0.25500000920E-02 0. -1.
    10030    2    1    2    0    0  0.00000000000E+00  0.00000000000E+00  0.81631939877E+02  0.23057534538E+04  0.23043079690E+04 0.  0.
        1    1    3    3  502    0  0.60446007601E+03 -0.91316843361E+03  0.39910514720E+03  0.11655614485E+04  0.50400001928E-02 0.  1.
       -1    1    3    3    0  502 -0.60446007601E+03  0.91316843361E+03 -0.31747320732E+03  0.11401920053E+04  0.50400001928E-02 0. -1.
</event>
<event>
 5   0  0.1697855E-05  0.2279900E+04  0.7818609E-02  0.8485889E-01
        2   -1    0    0  501    0  0.00000000000E+00  0.00000000000E+00  0.19431391543E+04  0.19431391543E+04  0.25500000920E-02 0.  1.
       -2   -1    0    0    0  501  0.00000000000E+00  0.00000000000E+00 -0.66875621831E+03  0.66875621832E+03  0.25500000920E-02 0. -1.
    10030    2    1    2    0    0  0.00000000000E+00  0.00000000000E+00  0.12743829360E+04  0.26118953726E+04  0.22799003421E+04 0.  0.
        5    1    3    3  502    0 -0.94300295397E+03  0.48523382474E+03  0.11161062912E+04  0.15396174133E+04  0.46999998093E+01 0.  1.
       -5    1    3    3    0  502  0.94300295397E+03 -0.48523382474E+03  0.15827664476E+03  0.10722779594E+04  0.46999998093E+01 0. -1.
</event>
<event>
 5   0  0.1626636E-05  0.2291147E+04  0.7818609E-02  0.8481420E-01
       -2   -1    0    0    0  501  0.00000000000E+00  0.00000000000E+00  0.24308933708E+04  0.24308933708E+04  0.25500000920E-02 0.  1.
        2   -1    0    0  501    0  0.00000000000E+00  0.00000000000E+00 -0.53985837986E+03  0.53985837987E+03  0.25500000920E-02 0. -1.
    10030    2    1    2    0    0  0.00000000000E+00  0.00000000000E+00  0.18910349910E+04  0.29707517507E+04  0.22911465748E+04 0.  0.
        4    1    3    3  502    0  0.33508497606E+02  0.10066741045E+04  0.23791211556E+03  0.10349489648E+04  0.12699999809E+01 0. -1.
       -4    1    3    3    0  502 -0.33508497606E+02 -0.10066741045E+04  0.16531228754E+04  0.19358027860E+04  0.12699999809E+01 0.  1.
</event>
<event>
 5   0  0.7278815E-06  0.2298769E+04  0.7818609E-02  0.8478407E-01
        1   -1    0    0  501    0  0.00000000000E+00  0.00000000000E+00  0.22158424085E+04  0.22158424085E+04  0.50400001928E-02 0.  1.
       -1   -1    0    0    0  501  0.00000000000E+00  0.00000000000E+00 -0.59619982673E+03  0.59619982675E+03  0.50400001928E-02 0. -1.
    10030    2    1    2    0    0  0.00000000000E+00  0.00000000000E+00  0.16196425817E+04  0.28120422352E+04  0.22987691141E+04 0.  0.
        5    1    3    3  502    0  0.10849803822E+04  0.16428496177E+03  0.12280526910E+04  0.16469084614E+04  0.46999998093E+01 0.  1.
       -5    1    3    3    0  502 -0.10849803822E+04 -0.16428496177E+03  0.39158989078E+03  0.11651337738E+04  0.46999998093E+01 0. -1.
</event>
<event>
 5   0  0.7391007E-06  0.2301897E+04  0.7818609E-02  0.8477173E-01
       -1   -1    0    0    0  501  0.00000000000E+00  0.00000000000E+00  0.68590570182E+03  0.68590570184E+03  0.50400001928E-02 0. -1.
        1   -1    0    0  501    0  0.00000000000E+00  0.00000000000E+00 -0.19312901909E+04  0.19312901909E+04  0.50400001928E-02 0.  1.
    10030    2    1    2    0    0  0.00000000000E+00  0.00000000000E+00 -0.12453844891E+04  0.26171958928E+04  0.23018974381E+04 0.  0.
        1    1    3    3  502    0 -0.88907941250E+03 -0.54338446545E+03 -0.11784780884E+04  0.15730669038E+04  0.50400001928E-02 0.  1.
       -1    1    3    3    0  502  0.88907941250E+03  0.54338446545E+03 -0.66906400662E+02  0.10441289889E+04  0.50400001928E-02 0. -1.
</event>
<event>
 5   0  0.7202572E-06  0.2297571E+04  0.7818609E-02  0.8478879E-01
        1   -1    0    0  501    0  0.00000000000E+00  0.00000000000E+00  0.25590083766E+04  0.25590083766E+04  0.50400001928E-02 0.  1.
       -1   -1    0    0    0  501  0.00000000000E+00  0.00000000000E+00 -0.51571071218E+03  0.51571071221E+03  0.50400001928E-02 0. -1.
    10030    2    1    2    0    0  0.00000000000E+00  0.00000000000E+00  0.20432976644E+04  0.30747190888E+04  0.22975709194E+04 0.  0.
        2    1    3    3  502    0 -0.90381490854E+03  0.32595897045E+03  0.17889546731E+03  0.97730968865E+03  0.25500000920E-02 0. -1.
       -2    1    3    3    0  502  0.90381490854E+03 -0.32595897045E+03  0.18644021971E+04  0.20974094002E+04  0.25500000920E-02 0.  1.
</event>
<event>
 5   0  0.7202572E-06  0.2297231E+04  0.7818609E-02  0.8479014E-01
        1   -1    0    0  501    0  0.00000000000E+00  0.00000000000E+00  0.11442548615E+04  0.11442548615E+04  0.50400001928E-02 0. -1.
       -1   -1    0    0    0  501  0.00000000000E+00  0.00000000000E+00 -0.11529927812E+04  0.11529927812E+04  0.50400001928E-02 0.  1.
    10030    2    1    2    0    0  0.00000000000E+00  0.00000000000E+00 -0.87379197259E+01  0.22972476427E+04  0.22972310246E+04 0.  0.
        2    1    3    3  502    0 -0.72019507410E+02 -0.32591788833E+03 -0.11034257335E+04  0.11528042456E+04  0.25500000920E-02 0.  1.
       -2    1    3    3    0  502  0.72019507410E+02  0.32591788833E+03  0.10946878138E+04  0.11444433970E+04  0.25500000920E-02 0. -1.
</event>
<event>
 5   0  0.7278815E-06  0.2292652E+04  0.7818609E-02  0.8480824E-01
        1   -1    0    0  501    0  0.00000000000E+00  0.00000000000E+00  0.21346765254E+04  0.21346765254E+04  0.50400001928E-02 0. -1.
       -1   -1    0    0    0  501  0.00000000000E+00  0.00000000000E+00 -0.61557948025E+03  0.61557948027E+03  0.50400001928E-02 0.  1.
    10030    2    1    2    0    0  0.00000000000E+00  0.00000000000E+00  0.15190970452E+04  0.27502560057E+04  0.22926517974E+04 0.  0.
        5    1    3    3  502    0  0.31115898069E+03 -0.10105979552E+04  0.22858281962E+03  0.10818504211E+04  0.46999998093E+01 0.  1.
       -5    1    3    3    0  502 -0.31115898069E+03  0.10105979552E+04  0.12905142256E+04  0.16684055846E+04  0.46999998093E+01 0. -1.
</event>
<event>
 5   0  0.1588969E-05  0.2315742E+04  0.7818609E-02  0.8471740E-01
       -2   -1    0    0    0  501  0.00000000000E+00  0.00000000000E+00  0.75050221482E+03  0.75050221483E+03  0.25500000920E-02 0. -1.
        2   -1    0    0  501    0  0.00000000000E+00  0.00000000000E+00 -0.17863569905E+04  0.17863569905E+04  0.25500000920E-02 0.  1.
    10030    2    1    2    0    0  0.00000000000E+00  0.00000000000E+00 -0.10358547757E+04  0.25368592054E+04  0.23157416763E+04 0.  0.
        1    1    3    3  502    0 -0.48657952300E+03 -0.92828388934E+03 -0.10570507874E+04  0.14885654095E+04  0.50400001928E-02 0.  1.
       -1    1    3    3    0  502  0.48657952300E+03  0.92828388934E+03  0.21196011649E+02  0.10482937958E+04  0.50400001928E-02 0. -1.
</event>
<event>
 5   0  0.7202572E-06  0.2326745E+04  0.7818609E-02  0.8467450E-01
        1   -1    0    0  501    0  0.00000000000E+00  0.00000000000E+00  0.12874184287E+04  0.12874184287E+04  0.50400001928E-02 0. -1.
       -1   -1    0    0    0  501  0.00000000000E+00  0.00000000000E+00 -0.10512782842E+04  0.10512782842E+04  0.50400001928E-02 0.  1.
    10030    2    1    2    0    0  0.00000000000E+00  0.00000000000E+00  0.23614014457E+03  0.23386967129E+04  0.23267445384E+04 0.  0.
        2    1    3    3  502    0  0.69636797857E+03 -0.72341980142E+03 -0.47245999722E+03  0.11097220461E+04  0.25500000920E-02 0.  1.
       -2    1    3    3    0  502 -0.69636797857E+03  0.72341980142E+03  0.70860014179E+03  0.12289746668E+04  0.25500000920E-02 0. -1.
</event>
<event>
 5   0  0.7391007E-06  0.2306656E+04  0.7818609E-02  0.8475301E-01
        1   -1    0    0  501    0  0.00000000000E+00  0.00000000000E+00  0.15287053363E+04  0.15287053363E+04  0.50400001928E-02 0.  1.
       -1   -1    0    0    0  501  0.00000000000E+00  0.00000000000E+00 -0.87012562198E+03  0.87012562199E+03  0.50400001928E-02 0. -1.
    10030    2    1    2    0    0  0.00000000000E+00  0.00000000000E+00  0.65857971428E+03  0.23988309583E+04  0.23066561786E+04 0.  0.
        1    1    3    3  502    0 -0.27865015503E+03  0.90658815437E+03  0.10117270909E+04  0.13867731238E+04  0.50400001928E-02 0.  1.
       -1    1    3    3    0  502  0.27865015503E+03 -0.90658815437E+03 -0.35314737662E+03  0.10120578344E+04  0.50400001928E-02 0. -1.
</event>
<event>
 5   0  0.1626636E-05  0.2327713E+04  0.7818609E-02  0.8467074E-01
       -2   -1    0    0    0  501  0.00000000000E+00  0.00000000000E+00  0.90457610534E+03  0.90457610535E+03  0.25500000920E-02 0. -1.
        2   -1    0    0  501    0  0.00000000000E+00  0.00000000000E+00 -0.14974553021E+04  0.14974553021E+04  0.25500000920E-02 0.  1.
    10030    2    1    2    0    0  0.00000000000E+00  0.00000000000E+00 -0.59287919675E+03  0.24020314074E+04  0.23277132857E+04 0.  0.
        4    1    3    3  502    0 -0.50142699799E+03  0.45509380268E+03  0.68036648476E+03  0.95991643909E+03  0.12699999809E+01 0. -1.
       -4    1    3    3    0  502  0.50142699799E+03 -0.45509380268E+03 -0.12732456815E+04  0.14421149684E+04  0.12699999809E+01 0.  1.
</event>
<event>
 5   0  0.7278815E-06  0.2304742E+04  0.7818609E-02  0.8476054E-01
        1   -1    0    0  501    0  0.00000000000E+00  0.00000000000E+00  0.11049637806E+04  0.11049637806E+04  0.50400001928E-02 0.  1.
       -1   -1    0    0    0  501  0.00000000000E+00  0.00000000000E+00 -0.12018119591E+04  0.12018119591E+04  0.50400001928E-02 0. -1.
    10030    2    1    2    0    0  0.00000000000E+00  0.00000000000E+00 -0.96848178496E+02  0.23067757397E+04  0.23047417954E+04 0.  0.
        5    1    3    3  502    0  0.25482535124E+03 -0.11142563289E+04 -0.19495503003E+03  0.11595398570E+04  0.46999998093E+01 0. -1.
       -5    1    3    3    0  502 -0.25482535124E+03  0.11142563289E+04  0.98106851533E+02  0.11472358827E+04  0.46999998093E+01 0.  1.
</event>
<event>
 5   0  0.7278815E-06  0.2305518E+04  0.7818609E-02  0.8475748E-01
        1   -1    0    0  501    0  0.00000000000E+00  0.00000000000E+00  0.91436859583E+03  0.91436859584E+03  0.50400001928E-02 0. -1.
       -1   -1    0    0    0  501  0.00000000000E+00  0.00000000000E+00 -0.14533021595E+04  0.14533021595E+04  0.50400001928E-02 0.  1.
    10030    2    1    2    0    0  0.00000000000E+00  0.00000000000E+00 -0.53893356371E+03  0.23676707554E+04  0.23055184709E+04 0.  0.
        5    1    3    3  502    0 -0.11873998328E+03  0.11452962728E+04 -0.32598707600E+03  0.11967006308E+04  0.46999998093E+01 0.  1.
       -5    1    3    3    0  502  0.11873998328E+03 -0.11452962728E+04 -0.21294648771E+03  0.11709701246E+04  0.46999998093E+01 0. -1.
</event>
<event>
 5   0  0.7202572E-06  0.2303057E+04  0.7818609E-02  0.8476717E-01
       -1   -1    0    0    0  501  0.00000000000E+00  0.00000000000E+00  0.60834882867E+03  0.60834882869E+03  0.50400001928E-02 0.  1.
        1   -1    0    0  501    0  0.00000000000E+00  0.00000000000E+00 -0.21796997238E+04  0.21796997238E+04  0.50400001928E-02 0. -1.
    10030    2    1    2    0    0  0.00000000000E+00  0.00000000000E+00 -0.15713508951E+04  0.27880485525E+04  0.23030569023E+04 0.  0.
        2    1    3    3  502    0  0.52263584301E+03 -0.79028142492E+03 -0.15779619990E+04  0.18405588894E+04  0.25500000920E-02 0. -1.
       -2    1    3    3    0  502 -0.52263584301E+03  0.79028142492E+03  0.66111038916E+01  0.94748966310E+03  0.25500000920E-02 0.  1.
</event>
<event>
 5   0  0.1588969E-05  0.2329851E+04  0.7818609E-02  0.8466244E-01
       -2   -1    0    0    0  501  0.00000000000E+00  0.00000000000E+00  0.96019784288E+03  0.96019784288E+03  0.25500000920E-02 0.  1.
        2   -1    0    0  501    0  0.00000000000E+00  0.00000000000E+00 -0.14133034111E+04  0.14133034111E+04  0.25500000920E-02 0. -1.
    10030    2    1    2    0    0  0.00000000000E+00  0.00000000000E+00 -0.45310556822E+03  0.23735012540E+04  0.23298505417E+04 0.  0.
        1    1    3    3  502    0  0.10330087822E+04  0.16923909360E+03  0.29420127473E+03  0.10873377603E+04  0.50400001928E-02 0. -1.
       -1    1    3    3    0  502 -0.10330087822E+04 -0.16923909360E+03 -0.74730684295E+03  0.12861634937E+04  0.50400001928E-02 0.  1.
</event>
<event>
 5   0  0.7416556E-06  0.2311133E+04  0.7818609E-02  0.8473544E-01
       -1   -1    0    0    0  501  0.00000000000E+00  0.00000000000E+00  0.64135124429E+03  0.64135124431E+03  0.50400001928E-02 0. -1.
        1   -1    0    0  501    0  0.00000000000E+00  0.00000000000E+00 -0.20820642643E+04  0.20820642643E+04  0.50400001928E-02 0.  1.
    10030    2    1    2    0    0  0.00000000000E+00  0.00000000000E+00 -0.14407130200E+04  0.27234155086E+04  0.23111334939E+04 0.  0.
        4    1    3    3  502    0  0.10739116200E+04 -0.39897507197E+03 -0.54216773269E+03  0.12674441758E+04  0.12699999809E+01 0. -1.
       -4    1    3    3    0  502 -0.10739116200E+04  0.39897507197E+03 -0.89854528734E+03  0.14559713328E+04  0.12699999809E+01 0.  1.
</event>
<event>
 5   0  0.1588969E-05  0.2303655E+04  0.7818609E-02  0.8476481E-01
       -2   -1    0    0    0  501  0.00000000000E+00  0.00000000000E+00  0.12183943962E+04  0.12183943962E+04  0.25500000920E-02 0. -1.
        2   -1    0    0  501    0  0.00000000000E+00  0.00000000000E+00 -0.10888978664E+04  0.10888978664E+04  0.25500000920E-02 0.  1.
    10030    2    1    2    0    0  0.00000000000E+00  0.00000000000E+00  0.12949652979E+03  0.23072922627E+04  0.23036554070E+04 0.  0.
        1    1    3    3  502    0  0.17023863739E+03 -0.44013402252E+03  0.11171248729E+04  0.12127106551E+04  0.50400001928E-02 0. -1.
       -1    1    3    3    0  502 -0.17023863739E+03  0.44013402252E+03 -0.98762834310E+03  0.10945816075E+04  0.50400001928E-02 0.  1.
</event>
<event>
 5   0  0.1602809E-05  0.2302229E+04  0.7818609E-02  0.8477043E-01
        2   -1    0    0  501    0  0.00000000000E+00  0.00000000000E+00  0.17608993323E+04  0.17608993323E+04  0.25500000920E-02 0.  1.
       -2   -1    0    0    0  501  0.00000000000E+00  0.00000000000E+00 -0.75249321591E+03  0.75249321592E+03  0.25500000920E-02 0. -1.
    10030    2    1    2    0    0  0.00000000000E+00  0.00000000000E+00  0.10084061164E+04  0.25133925482E+04  0.23022291819E+04 0.  0.
        3    1    3    3  502    0 -0.34681279023E+03 -0.97230506357E+03 -0.51834216383E+02  0.10336068132E+04  0.10100000352E+00 0. -1.
       -3    1    3    3    0  502  0.34681279023E+03  0.97230506357E+03  0.10602403328E+04  0.14797857350E+04  0.10100000352E+00 0.  1.
</event>
<event>
 5   0  0.1602809E-05  0.2290477E+04  0.7818609E-02  0.8481685E-01
        2   -1    0    0  501    0  0.00000000000E+00  0.00000000000E+00  0.75760493109E+03  0.75760493110E+03  0.25500000920E-02 0. -1.
       -2   -1    0    0    0  501  0.00000000000E+00  0.00000000000E+00 -0.17312069326E+04  0.17312069326E+04  0.25500000920E-02 0.  1.
    10030    2    1    2    0    0  0.00000000000E+00  0.00000000000E+00 -0.97360200153E+03  0.24888118637E+04  0.22904767267E+04 0.  0.
        3    1    3    3  502    0 -0.88923194662E+03 -0.52880790719E+03 -0.10204485431E+04  0.14531643048E+04  0.10100000352E+00 0.  1.
       -3    1    3    3    0  502  0.88923194662E+03  0.52880790719E+03  0.46846541522E+02  0.10356475589E+04  0.10100000352E+00 0. -1.
</event>
<event>
 5   0  0.7391007E-06  0.2293050E+04  0.7818609E-02  0.8480667E-01
        1   -1    0    0  501    0  0.00000000000E+00  0.00000000000E+00  0.15747321831E+04  0.15747321831E+04  0.50400001928E-02 0. -1.
       -1   -1    0    0    0  501  0.00000000000E+00  0.00000000000E+00 -0.83475740737E+03  0.83475740738E+03  0.50400001928E-02 0.  1.
    10030    2    1    2    0    0  0.00000000000E+00  0.00000000000E+00  0.73997477576E+03  0.24094895905E+04  0.22930498071E+04 0.  0.
        1    1    3    3  502    0 -0.25094876454E+02 -0.55562367220E+03  0.14234806051E+04  0.15282815352E+04  0.50400001928E-02 0. -1.
       -1    1    3    3    0  502  0.25094876454E+02  0.55562367220E+03 -0.68350582932E+03  0.88120805527E+03  0.50400001928E-02 0.  1.
</event>
<event>
 5   0  0.7278815E-06  0.2299485E+04  0.7818609E-02  0.8478124E-01
       -1   -1    0    0    0  501  0.00000000000E+00  0.00000000000E+00  0.90327493085E+03  0.90327493086E+03  0.50400001928E-02 0.  1.
        1   -1    0    0  501    0  0.00000000000E+00  0.00000000000E+00 -0.14634606010E+04  0.14634606010E+04  0.50400001928E-02 0. -1.
    10030    2    1    2    0    0  0.00000000000E+00  0.00000000000E+00 -0.56018567017E+03  0.23667355319E+04  0.22994845276E+04 0.  0.
        5    1    3    3  502    0  0.87577169554E+03 -0.74188935813E+03 -0.21097759167E+03  0.11670087903E+04  0.46999998093E+01 0.  1.
       -5    1    3    3    0  502 -0.87577169554E+03  0.74188935813E+03 -0.34920807850E+03  0.11997267416E+04  0.46999998093E+01 0. -1.
</event>
<event>
 5   0  0.1602809E-05  0.2295504E+04  0.7818609E-02  0.8479696E-01
        2   -1    0    0  501    0  0.00000000000E+00  0.00000000000E+00  0.86385402170E+03  0.86385402171E+03  0.25500000920E-02 0. -1.
       -2   -1    0    0    0  501  0.00000000000E+00  0.00000000000E+00 -0.15249499513E+04  0.15249499513E+04  0.25500000920E-02 0.  1.
    10030    2    1    2    0    0  0.00000000000E+00  0.00000000000E+00 -0.66109592958E+03  0.23888039730E+04  0.22955035598E+04 0.  0.
        3    1    3    3  502    0  0.87954645191E+03 -0.69600471099E+02  0.43337889285E+03  0.98298700989E+03  0.10100000352E+00 0. -1.
       -3    1    3    3    0  502 -0.87954645191E+03  0.69600471099E+02 -0.10944748224E+04  0.14058169631E+04  0.10100000352E+00 0.  1.
</event>
<event>
 5   0  0.7278815E-06  0.2293467E+04  0.7818609E-02  0.8480502E-01
        1   -1    0    0  501    0  0.00000000000E+00  0.00000000000E+00  0.11337822659E+04  0.11337822659E+04  0.50400001928E-02 0. -1.
       -1   -1    0    0    0  501  0.00000000000E+00  0.00000000000E+00 -0.11598324868E+04  0.11598324868E+04  0.50400001928E-02 0.  1.
    10030    2    1    2    0    0  0.00000000000E+00  0.00000000000E+00 -0.26050220919E+02  0.22936147527E+04  0.22934668125E+04 0.  0.
        5    1    3    3  502    0 -0.86635162415E+03  0.74875524624E+03  0.48426876396E+02  0.11461094223E+04  0.46999998093E+01 0. -1.
       -5    1    3    3    0  502  0.86635162415E+03 -0.74875524624E+03 -0.74477097315E+02  0.11475053305E+04  0.46999998093E+01 0.  1.
</event>
<event>
 5   0  0.1635955E-05  0.2258818E+04  0.7818609E-02  0.8494338E-01
        2   -1    0    0  501    0  0.00000000000E+00  0.00000000000E+00  0.14422963637E+04  0.14422963637E+04  0.25500000920E-02 0. -1.
       -2   -1    0    0    0  501  0.00000000000E+00  0.00000000000E+00 -0.88439844068E+03  0.88439844068E+03  0.25500000920E-02 0.  1.
    10030    2    1    2    0    0  0.00000000000E+00  0.00000000000E+00  0.55789792302E+03  0.23266948044E+04  0.22588179697E+04 0.  0.
        2    1    3    3  502    0  0.37303499009E+03  0.10632817795E+04  0.20022317974E+03  0.11444704313E+04  0.25500000920E-02 0. -1.
       -2    1    3    3    0  502 -0.37303499009E+03 -0.10632817795E+04  0.35767474328E+03  0.11822243731E+04  0.25500000920E-02 0.  1.
</event>
<event>
 5   0  0.7183014E-06  0.2298624E+04  0.7818609E-02  0.8478464E-01
       -1   -1    0    0    0  501  0.00000000000E+00  0.00000000000E+00  0.27215003025E+04  0.27215003026E+04  0.50400001928E-02 0.  1.
        1   -1    0    0  501    0  0.00000000000E+00  0.00000000000E+00 -0.48536407818E+03  0.48536407821E+03  0.50400001928E-02 0. -1.
    10030    2    1    2    0    0  0.00000000000E+00  0.00000000000E+00  0.22361362244E+04  0.32068643808E+04  0.22986243588E+04 0.  0.
        3    1    3    3  502    0 -0.30855781497E+03  0.16402990934E+03 -0.40945156974E+03  0.53829762632E+03  0.10100000352E+00 0. -1.
       -3    1    3    3    0  502  0.30855781497E+03 -0.16402990934E+03  0.26455877941E+04  0.26685667544E+04  0.10100000352E+00 0.  1.
</event>
<event>
 5   0  0.7391007E-06  0.2294867E+04  0.7818609E-02  0.8479948E-01
       -1   -1    0    0    0  501  0.00000000000E+00  0.00000000000E+00  0.12092129031E+04  0.12092129032E+04  0.50400001928E-02 0. -1.
        1   -1    0    0  501    0  0.00000000000E+00  0.00000000000E+00 -0.10888106534E+04  0.10888106534E+04  0.50400001928E-02 0.  1.
    10030    2    1    2    0    0  0.00000000000E+00  0.00000000000E+00  0.12040224979E+03  0.22980235565E+04  0.22948672216E+04 0.  0.
        1    1    3    3  502    0  0.25495650153E+03  0.10401451319E+04 -0.35231106134E+03  0.11273986859E+04  0.50400001928E-02 0.  1.
       -1    1    3    3    0  502 -0.25495650153E+03 -0.10401451319E+04  0.47271331113E+03  0.11706248706E+04  0.50400001928E-02 0. -1.
</event>
<event>
 5   0  0.7416556E-06  0.2302647E+04  0.7818609E-02  0.8476878E-01
        1   -1    0    0  501    0  0.00000000000E+00  0.00000000000E+00  0.20214481723E+04  0.20214481723E+04  0.50400001928E-02 0. -1.
       -1   -1    0    0    0  501  0.00000000000E+00  0.00000000000E+00 -0.65574044796E+03  0.65574044798E+03  0.50400001928E-02 0.  1.
    10030    2    1    2    0    0  0.00000000000E+00  0.00000000000E+00  0.13657077243E+04  0.26771886203E+04  0.23026465904E+04 0.  0.
        4    1    3    3  502    0 -0.44832969602E+03  0.66130048572E+03  0.16466860639E+04  0.18302716887E+04  0.12699999809E+01 0. -1.
       -4    1    3    3    0  502  0.44832969602E+03 -0.66130048572E+03 -0.28097833954E+03  0.84691693154E+03  0.12699999809E+01 0.  1.
</event>
<event>
 5   0  0.1626636E-05  0.2306721E+04  0.7818609E-02  0.8475276E-01
       -2   -1    0    0    0  501  0.00000000000E+00  0.00000000000E+00  0.99872092446E+03  0.99872092446E+03  0.25500000920E-02 0. -1.
        2   -1    0    0  501    0  0.00000000000E+00  0.00000000000E+00 -0.13319441445E+04  0.13319441445E+04  0.25500000920E-02 0.  1.
    10030    2    1    2    0    0  0.00000000000E+00  0.00000000000E+00 -0.33322322008E+03  0.23306650690E+04  0.23067210385E+04 0.  0.
        4    1    3    3  502    0 -0.45394960340E+03  0.33781591058E+03  0.84883249149E+03  0.10201509905E+04  0.12699999809E+01 0. -1.
       -4    1    3    3    0  502  0.45394960340E+03 -0.33781591058E+03 -0.11820557116E+04  0.13105140785E+04  0.12699999809E+01 0.  1.
</event>
<event>
 5   0  0.7183014E-06  0.2308610E+04  0.7818609E-02  0.8474534E-01
       -1   -1    0    0    0  501  0.00000000000E+00  0.00000000000E+00  0.10469321431E+04  0.10469321431E+04  0.50400001928E-02 0. -1.
        1   -1    0    0  501    0  0.00000000000E+00  0.00000000000E+00 -0.12726903380E+04  0.12726903380E+04  0.50400001928E-02 0.  1.
    10030    2    1    2    0    0  0.00000000000E+00  0.00000000000E+00 -0.22575819485E+03  0.23196224811E+04  0.23086103379E+04 0.  0.
        3    1    3    3  502    0 -0.10424188605E+04  0.34497042668E+03 -0.47063753355E+03  0.11946302248E+04  0.10100000352E+00 0. -1.
       -3    1    3    3    0  502  0.10424188605E+04 -0.34497042668E+03  0.24487933869E+03  0.11249922563E+04  0.10100000352E+00 0.  1.
</event>
<event>
 5   0  0.7278815E-06  0.2311951E+04  0.7818609E-02  0.8473224E-01
       -1   -1    0    0    0  501  0.00000000000E+00  0.00000000000E+00  0.10887070827E+04  0.10887070827E+04  0.50400001928E-02 0.  1.
        1   -1    0    0  501    0  0.00000000000E+00  0.00000000000E+00 -0.12274005051E+04  0.12274005051E+04  0.50400001928E-02 0. -1.
    10030    2    1    2    0    0  0.00000000000E+00  0.00000000000E+00 -0.13869342247E+03  0.23161075878E+04  0.23119512306E+04 0.  0.
        5    1    3    3  502    0 -0.38156423654E+03  0.59467621776E+03  0.84718955671E+03  0.11031696631E+04  0.46999998093E+01 0.  1.
       -5    1    3    3    0  502  0.38156423654E+03 -0.59467621776E+03 -0.98588297918E+03  0.12129379247E+04  0.46999998093E+01 0. -1.
</event>
<event>
 5   0  0.7416556E-06  0.2312767E+04  0.7818609E-02  0.8472904E-01
       -1   -1    0    0    0  501  0.00000000000E+00  0.00000000000E+00  0.11756595432E+04  0.11756595432E+04  0.50400001928E-02 0.  1.
        1   -1    0    0  501    0  0.00000000000E+00  0.00000000000E+00 -0.11374234540E+04  0.11374234540E+04  0.50400001928E-02 0. -1.
    10030    2    1    2    0    0  0.00000000000E+00  0.00000000000E+00  0.38236089127E+02  0.23130829972E+04  0.23127669475E+04 0.  0.
        4    1    3    3  502    0  0.22660167062E+03 -0.39444344177E+03 -0.10441768901E+04  0.11389648531E+04  0.12699999809E+01 0. -1.
       -4    1    3    3    0  502 -0.22660167062E+03  0.39444344177E+03  0.10824129792E+04  0.11741181441E+04  0.12699999809E+01 0.  1.
</event>
<event>
 5   0  0.1635955E-05  0.2309585E+04  0.7818609E-02  0.8474151E-01
       -2   -1    0    0    0  501  0.00000000000E+00  0.00000000000E+00  0.11885136400E+04  0.11885136400E+04  0.25500000920E-02 0.  1.
        2   -1    0    0  501    0  0.00000000000E+00  0.00000000000E+00 -0.11220283504E+04  0.11220283504E+04  0.25500000920E-02 0. -1.
    10030    2    1    2    0    0  0.00000000000E+00  0.00000000000E+00  0.66485289566E+02  0.23105419904E+04  0.23095852432E+04 0.  0.
        2    1    3    3  502    0 -0.86852638567E+03 -0.63962179303E+03  0.44583545700E+03  0.11671432540E+04  0.25500000920E-02 0.  1.
       -2    1    3    3    0  502  0.86852638567E+03  0.63962179303E+03 -0.37935016743E+03  0.11433987363E+04  0.25500000920E-02 0. -1.
</event>
<event>
 5   0  0.1626636E-05  0.2330731E+04  0.7818609E-02  0.8465902E-01
       -2   -1    0    0    0  501  0.00000000000E+00  0.00000000000E+00  0.46379545508E+03  0.46379545509E+03  0.25500000920E-02 0.  1.
        2   -1    0    0  501    0  0.00000000000E+00  0.00000000000E+00 -0.29281807277E+04  0.29281807277E+04  0.25500000920E-02 0. -1.
    10030    2    1    2    0    0  0.00000000000E+00  0.00000000000E+00 -0.24643852726E+04  0.33919761827E+04  0.23307311412E+04 0.  0.
        4    1    3    3  502    0 -0.82901268047E+03  0.77188310463E+03 -0.16307762776E+04  0.19855725703E+04  0.12699999809E+01 0.  1.
       -4    1    3    3    0  502  0.82901268047E+03 -0.77188310463E+03 -0.83360899500E+03  0.14064036124E+04  0.12699999809E+01 0. -1.
</event>
<event>
 5   0  0.1626636E-05  0.2307207E+04  0.7818609E-02  0.8475085E-01
       -2   -1    0    0    0  501  0.00000000000E+00  0.00000000000E+00  0.18632595058E+04  0.18632595058E+04  0.25500000920E-02 0.  1.
        2   -1    0    0  501    0  0.00000000000E+00  0.00000000000E+00 -0.71423291393E+03  0.71423291393E+03  0.25500000920E-02 0. -1.
    10030    2    1    2    0    0  0.00000000000E+00  0.00000000000E+00  0.11490265919E+04  0.25774924198E+04  0.23072072003E+04 0.  0.
        4    1    3    3  502    0 -0.44011978272E+03 -0.10599107446E+04  0.44383348365E+03  0.12304901397E+04  0.12699999809E+01 0. -1.
       -4    1    3    3    0  502  0.44011978272E+03  0.10599107446E+04  0.70519310826E+03  0.13470022801E+04  0.12699999809E+01 0.  1.
</event>
<event>
 5   0  0.7416556E-06  0.2303647E+04  0.7818609E-02  0.8476485E-01
       -1   -1    0    0    0  501  0.00000000000E+00  0.00000000000E+00  0.72025721843E+03  0.72025721845E+03  0.50400001928E-02 0.  1.
        1   -1    0    0  501    0  0.00000000000E+00  0.00000000000E+00 -0.18419764840E+04  0.18419764840E+04  0.50400001928E-02 0. -1.
    10030    2    1    2    0    0  0.00000000000E+00  0.00000000000E+00 -0.11217192655E+04  0.25622337024E+04  0.23036465517E+04 0.  0.
        4    1    3    3  502    0 -0.38125599189E+03 -0.98718085935E+03 -0.55044428890E+02  0.10596762159E+04  0.12699999809E+01 0. -1.
       -4    1    3    3    0  502  0.38125599189E+03  0.98718085935E+03 -0.10666748367E+04  0.15025574866E+04  0.12699999809E+01 0.  1.
</event>
<event>
 5   0  0.1635955E-05  0.2321488E+04  0.7818609E-02  0.8469497E-01
        2   -1    0    0  501    0  0.00000000000E+00  0.00000000000E+00  0.19720627982E+04  0.19720627982E+04  0.25500000920E-02 0.  1.
       -2   -1    0    0    0  501  0.00000000000E+00  0.00000000000E+00 -0.68320681513E+03  0.68320681514E+03  0.25500000920E-02 0. -1.
    10030    2    1    2    0    0  0.00000000000E+00  0.00000000000E+00  0.12888559831E+04  0.26552696133E+04  0.23214880948E+04 0.  0.
        2    1    3    3  502    0  0.93479825603E+03  0.19862641000E+03  0.13979575530E+04  0.16933946824E+04  0.25500000920E-02 0.  1.
       -2    1    3    3    0  502 -0.93479825603E+03 -0.19862641000E+03 -0.10910156997E+03  0.96187493095E+03  0.25500000920E-02 0. -1.
</event>
<event>
 5   0  0.1626636E-05  0.2300994E+04  0.7818609E-02  0.8477529E-01
        2   -1    0    0  501    0  0.00000000000E+00  0.00000000000E+00  0.14144297776E+04  0.14144297776E+04  0.25500000920E-02 0.  1.
       -2   -1    0    0    0  501  0.00000000000E+00  0.00000000000E+00 -0.93581386914E+03  0.93581386915E+03  0.25500000920E-02 0. -1.
    10030    2    1    2    0    0  0.00000000000E+00  0.00000000000E+00  0.47861590850E+03  0.23502436468E+04  0.23009937009E+04 0.  0.
        4    1    3    3  502    0  0.50727599940E+03  0.21155443843E+03  0.12716623130E+04  0.13853558644E+04  0.12699999809E+01 0.  1.
       -4    1    3    3    0  502 -0.50727599940E+03 -0.21155443843E+03 -0.79304640448E+03  0.96488778235E+03  0.12699999809E+01 0. -1.
</event>
<event>
 5   0  0.1697855E-05  0.2297561E+04  0.7818609E-02  0.8478883E-01
       -2   -1    0    0    0  501  0.00000000000E+00  0.00000000000E+00  0.79476389540E+03  0.79476389540E+03  0.25500000920E-02 0.  1.
        2   -1    0    0  501    0  0.00000000000E+00  0.00000000000E+00 -0.16604894430E+04  0.16604894430E+04  0.25500000920E-02 0. -1.
    10030    2    1    2    0    0  0.00000000000E+00  0.00000000000E+00 -0.86572554756E+03  0.24552533384E+04  0.22975613663E+04 0.  0.
        5    1    3    3  502    0 -0.42289014165E+03  0.97452846286E+03  0.34331189981E+02  0.10628934648E+04  0.46999998093E+01 0.  1.
       -5    1    3    3    0  502  0.42289014165E+03 -0.97452846286E+03 -0.90005673754E+03  0.13923598736E+04  0.46999998093E+01 0. -1.
</event>
<event>
 5   0  0.5704875E-06  0.2298172E+04  0.7818609E-02  0.8478642E-01
       -4   -1    0    0    0  501  0.00000000000E+00  0.00000000000E+00  0.18009200330E+04  0.18009204808E+04  0.12699999809E+01 0.  1.
        4   -1    0    0  501    0  0.00000000000E+00  0.00000000000E+00 -0.73317906027E+03  0.73318016020E+03  0.12699999809E+01 0. -1.
    10030    2    1    2    0    0  0.00000000000E+00  0.00000000000E+00  0.10677409727E+04  0.25341006410E+04  0.22981721593E+04 0.  0.
        3    1    3    3  502    0 -0.57802006913E+03  0.50772903323E+03  0.14750163183E+04  0.16636012506E+04  0.10100000352E+00 0.  1.
       -3    1    3    3    0  502  0.57802006913E+03 -0.50772903323E+03 -0.40727534553E+03  0.87049939045E+03  0.10100000352E+00 0. -1.
</event>
<event>
 5   0  0.1602809E-05  0.2315687E+04  0.7818609E-02  0.8471762E-01
       -2   -1    0    0    0  501  0.00000000000E+00  0.00000000000E+00  0.11995567120E+04  0.11995567120E+04  0.25500000920E-02 0.  1.
        2   -1    0    0  501    0  0.00000000000E+00  0.00000000000E+00 -0.11175805193E+04  0.11175805193E+04  0.25500000920E-02 0. -1.
    10030    2    1    2    0    0  0.00000000000E+00  0.00000000000E+00  0.81976192691E+02  0.23171372313E+04  0.23156866914E+04 0.  0.
        3    1    3    3  502    0  0.24485732881E+03 -0.64864685182E+03 -0.88690250757E+03  0.11257414970E+04  0.10100000352E+00 0. -1.
       -3    1    3    3    0  502 -0.24485732881E+03  0.64864685182E+03  0.96887870026E+03  0.11913957344E+04  0.10100000352E+00 0.  1.
</event>
<event>
 5   0  0.7278815E-06  0.2288800E+04  0.7818609E-02  0.8482350E-01
       -1   -1    0    0    0  501  0.00000000000E+00  0.00000000000E+00  0.87822930170E+03  0.87822930171E+03  0.50400001928E-02 0.  1.
        1   -1    0    0  501    0  0.00000000000E+00  0.00000000000E+00 -0.14912401722E+04  0.14912401722E+04  0.50400001928E-02 0. -1.
    10030    2    1    2    0    0  0.00000000000E+00  0.00000000000E+00 -0.61301087054E+03  0.23694694740E+04  0.22887995239E+04 0.  0.
        5    1    3    3  502    0  0.49044718624E+03 -0.10221248176E+04 -0.14495690469E+03  0.11429401469E+04  0.46999998093E+01 0.  1.
       -5    1    3    3    0  502 -0.49044718624E+03  0.10221248176E+04 -0.46805396585E+03  0.12265293271E+04  0.46999998093E+01 0. -1.
</event>
<event>
 5   0  0.7202572E-06  0.2302277E+04  0.7818609E-02  0.8477024E-01
        1   -1    0    0  501    0  0.00000000000E+00  0.00000000000E+00  0.12627833341E+04  0.12627833341E+04  0.50400001928E-02 0. -1.
       -1   -1    0    0    0  501  0.00000000000E+00  0.00000000000E+00 -0.10493641022E+04  0.10493641022E+04  0.50400001928E-02 0.  1.
    10030    2    1    2    0    0  0.00000000000E+00  0.00000000000E+00  0.21341923185E+03  0.23121474363E+04  0.23022766990E+04 0.  0.
        2    1    3    3  502    0 -0.11497352900E+04 -0.56787638399E+02  0.10856870712E+03  0.11562453187E+04  0.25500000920E-02 0.  1.
       -2    1    3    3    0  502  0.11497352900E+04  0.56787638399E+02  0.10485052473E+03  0.11559021176E+04  0.25500000920E-02 0. -1.
</event>
<event>
 5   0  0.1588969E-05  0.2300624E+04  0.7818609E-02  0.8477675E-01
       -2   -1    0    0    0  501  0.00000000000E+00  0.00000000000E+00  0.11590190039E+04  0.11590190039E+04  0.25500000920E-02 0. -1.
        2   -1    0    0  501    0  0.00000000000E+00  0.00000000000E+00 -0.11416699701E+04  0.11416699701E+04  0.25500000920E-02 0.  1.
    10030    2    1    2    0    0  0.00000000000E+00  0.00000000000E+00  0.17349033744E+02  0.23006889740E+04  0.23006235603E+04 0.  0.
        1    1    3    3  502    0  0.91051667716E+03  0.94701927189E+02 -0.68791410589E+03  0.11450916520E+04  0.50400001928E-02 0.  1.
       -1    1    3    3    0  502 -0.91051667716E+03 -0.94701927189E+02  0.70526313963E+03  0.11555973220E+04  0.50400001928E-02 0. -1.
</event>
<event>
 5   0  0.7416556E-06  0.2296591E+04  0.7818609E-02  0.8479267E-01
       -1   -1    0    0    0  501  0.00000000000E+00  0.00000000000E+00  0.58427118410E+03  0.58427118412E+03  0.50400001928E-02 0.  1.
        1   -1    0    0  501    0  0.00000000000E+00  0.00000000000E+00 -0.22567981897E+04  0.22567981897E+04  0.50400001928E-02 0. -1.
    10030    2    1    2    0    0  0.00000000000E+00  0.00000000000E+00 -0.16725270056E+04  0.28410693739E+04  0.22965906476E+04 0.  0.
        4    1    3    3  502    0 -0.69967973280E+03  0.75167611739E+03 -0.14719016239E+04  0.17947324919E+04  0.12699999809E+01 0. -1.
       -4    1    3    3    0  502  0.69967973280E+03 -0.75167611739E+03 -0.20062538172E+03  0.10463368820E+04  0.12699999809E+01 0.  1.
</event>
<event>
 5   0  0.1602809E-05  0.2299396E+04  0.7818609E-02  0.8478159E-01
       -2   -1    0    0    0  501  0.00000000000E+00  0.00000000000E+00  0.17393614173E+04  0.17393614173E+04  0.25500000920E-02 0.  1.
        2   -1    0    0  501    0  0.00000000000E+00  0.00000000000E+00 -0.75993735309E+03  0.75993735309E+03  0.25500000920E-02 0. -1.
    10030    2    1    2    0    0  0.00000000000E+00  0.00000000000E+00  0.97942406419E+03  0.24992987704E+04  0.22993961916E+04 0.  0.
        3    1    3    3  502    0  0.87963690099E+03  0.50898475254E+03  0.10740143633E+04  0.14786255167E+04  0.10100000352E+00 0. -1.
       -3    1    3    3    0  502 -0.87963690099E+03 -0.50898475254E+03 -0.94590299089E+02  0.10206732537E+04  0.10100000352E+00 0.  1.
</event>
<event>
 5   0  0.7278815E-06  0.2289054E+04  0.7818609E-02  0.8482249E-01
        1   -1    0    0  501    0  0.00000000000E+00  0.00000000000E+00  0.35358685891E+04  0.35358685891E+04  0.50400001928E-02 0. -1.
       -1   -1    0    0    0  501  0.00000000000E+00  0.00000000000E+00 -0.37047263946E+03  0.37047263950E+03  0.50400001928E-02 0.  1.
    10030    2    1    2    0    0  0.00000000000E+00  0.00000000000E+00  0.31653959497E+04  0.39063412286E+04  0.22890544503E+04 0.  0.
        5    1    3    3  502    0  0.75324182136E+03  0.91289145738E+02  0.30449601476E+04  0.31380744637E+04  0.46999998093E+01 0. -1.
       -5    1    3    3    0  502 -0.75324182136E+03 -0.91289145738E+02  0.12043580206E+03  0.76826676487E+03  0.46999998093E+01 0.  1.
</event>
<event>
 5   0  0.7183014E-06  0.2299253E+04  0.7818609E-02  0.8478216E-01
        1   -1    0    0  501    0  0.00000000000E+00  0.00000000000E+00  0.65003126642E+03  0.65003126644E+03  0.50400001928E-02 0.  1.
       -1   -1    0    0    0  501  0.00000000000E+00  0.00000000000E+00 -0.20331966193E+04  0.20331966193E+04  0.50400001928E-02 0. -1.
    10030    2    1    2    0    0  0.00000000000E+00  0.00000000000E+00 -0.13831653528E+04  0.26832278857E+04  0.22992532469E+04 0.  0.
        3    1    3    3  502    0  0.39819037471E+03  0.58922215844E+03  0.36253725484E+03  0.79823029124E+03  0.10100000352E+00 0.  1.
       -3    1    3    3    0  502 -0.39819037471E+03 -0.58922215844E+03 -0.17457026077E+04  0.18849975945E+04  0.10100000352E+00 0. -1.
</event>
<event>
 5   0  0.5704875E-06  0.2321271E+04  0.7818609E-02  0.8469581E-01
       -3   -1    0    0    0  501  0.00000000000E+00  0.00000000000E+00  0.97365066232E+03  0.97365066755E+03  0.10100000352E+00 0. -1.
        3   -1    0    0  501    0  0.00000000000E+00  0.00000000000E+00 -0.13835294518E+04  0.13835294554E+04  0.10100000352E+00 0.  1.
    10030    2    1    2    0    0  0.00000000000E+00  0.00000000000E+00 -0.40987878944E+03  0.23571801230E+04  0.23212706672E+04 0.  0.
        1    1    3    3  502    0 -0.14602562651E+03 -0.22500964702E+02  0.96406194398E+03  0.97531800397E+03  0.50400001928E-02 0. -1.
       -1    1    3    3    0  502  0.14602562651E+03  0.22500964702E+02 -0.13739407334E+04  0.13818621190E+04  0.50400001928E-02 0.  1.
</event>
<event>
 5   0  0.1635955E-05  0.2299763E+04  0.7818609E-02  0.8478015E-01
        2   -1    0    0  501    0  0.00000000000E+00  0.00000000000E+00  0.14410335927E+04  0.14410335927E+04  0.25500000920E-02 0. -1.
       -2   -1    0    0    0  501  0.00000000000E+00  0.00000000000E+00 -0.91755484398E+03  0.91755484399E+03  0.25500000920E-02 0.  1.
    10030    2    1    2    0    0  0.00000000000E+00  0.00000000000E+00  0.52347874871E+03  0.23585884367E+04  0.22997629037E+04 0.  0.
        2    1    3    3  502    0  0.29757586644E+02 -0.11490395126E+04  0.22850622038E+03  0.11719182601E+04  0.25500000920E-02 0. -1.
       -2    1    3    3    0  502 -0.29757586644E+02  0.11490395126E+04  0.29497252833E+03  0.11866701766E+04  0.25500000920E-02 0.  1.
</event>
<event>
 5   0  0.1697855E-05  0.2310278E+04  0.7818609E-02  0.8473880E-01
        2   -1    0    0  501    0  0.00000000000E+00  0.00000000000E+00  0.17323914201E+04  0.17323914201E+04  0.25500000920E-02 0. -1.
       -2   -1    0    0    0  501  0.00000000000E+00  0.00000000000E+00 -0.77023367171E+03  0.77023367172E+03  0.25500000920E-02 0.  1.
    10030    2    1    2    0    0  0.00000000000E+00  0.00000000000E+00  0.96215774839E+03  0.25026250918E+04  0.23102780823E+04 0.  0.
        5    1    3    3  502    0 -0.10953396761E+04 -0.23257630504E+03  0.78835629401E+03  0.13694482392E+04  0.46999998093E+01 0. -1.
       -5    1    3    3    0  502  0.10953396761E+04  0.23257630504E+03  0.17380145438E+03  0.11331768526E+04  0.46999998093E+01 0.  1.
</event>
<event>
 5   0  0.7416556E-06  0.2297823E+04  0.7818609E-02  0.8478780E-01
       -1   -1    0    0    0  501  0.00000000000E+00  0.00000000000E+00  0.92658621892E+03  0.92658621894E+03  0.50400001928E-02 0. -1.
        1   -1    0    0  501    0  0.00000000000E+00  0.00000000000E+00 -0.14245819232E+04  0.14245819232E+04  0.50400001928E-02 0.  1.
    10030    2    1    2    0    0  0.00000000000E+00  0.00000000000E+00 -0.49799570426E+03  0.23511681421E+04  0.22978232985E+04 0.  0.
        4    1    3    3  502    0 -0.36394369341E+03 -0.64469313931E+02  0.86409168644E+03  0.93982304711E+03  0.12699999809E+01 0. -1.
       -4    1    3    3    0  502  0.36394369341E+03  0.64469313931E+02 -0.13620873907E+04  0.14113450950E+04  0.12699999809E+01 0.  1.
</event>
<event>
 5   0  0.1626636E-05  0.2318958E+04  0.7818609E-02  0.8470483E-01
       -2   -1    0    0    0  501  0.00000000000E+00  0.00000000000E+00  0.10329651111E+04  0.10329651111E+04  0.25500000920E-02 0. -1.
        2   -1    0    0  501    0  0.00000000000E+00  0.00000000000E+00 -0.13014882284E+04  0.13014882284E+04  0.25500000920E-02 0.  1.
    10030    2    1    2    0    0  0.00000000000E+00  0.00000000000E+00 -0.26852311723E+03  0.23344533395E+04  0.23189583286E+04 0.  0.
        4    1    3    3  502    0 -0.27137268884E+03 -0.80234890710E+03  0.66285215282E+03  0.10755377698E+04  0.12699999809E+01 0. -1.
       -4    1    3    3    0  502  0.27137268884E+03  0.80234890710E+03 -0.93137527005E+03  0.12589155697E+04  0.12699999809E+01 0.  1.
</event>
<event>
 5   0  0.7278815E-06  0.2374724E+04  0.7818609E-02  0.8449028E-01
        1   -1    0    0  501    0  0.00000000000E+00  0.00000000000E+00  0.88426125703E+03  0.88426125705E+03  0.50400001928E-02 0.  1.
       -1   -1    0    0    0  501  0.00000000000E+00  0.00000000000E+00 -0.15943571912E+04  0.15943571912E+04  0.50400001928E-02 0. -1.
    10030    2    1    2    0    0  0.00000000000E+00  0.00000000000E+00 -0.71009593419E+03  0.24786184483E+04  0.23747238105E+04 0.  0.
        5    1    3    3  502    0 -0.10530959360E+04  0.43920053819E+03 -0.69789733300E+03  0.13375316597E+04  0.46999998093E+01 0. -1.
       -5    1    3    3    0  502  0.10530959360E+04 -0.43920053819E+03 -0.12198601187E+02  0.11410867886E+04  0.46999998093E+01 0.  1.
</event>
<event>
 5   0  0.1635955E-05  0.2363896E+04  0.7818609E-02  0.8453145E-01
       -2   -1    0    0    0  501  0.00000000000E+00  0.00000000000E+00  0.93195069643E+03  0.93195069643E+03  0.25500000920E-02 0. -1.
        2   -1    0    0  501    0  0.00000000000E+00  0.00000000000E+00 -0.14990075034E+04  0.14990075034E+04  0.25500000920E-02 0.  1.
    10030    2    1    2    0    0  0.00000000000E+00  0.00000000000E+00 -0.56705680696E+03  0.24309581998E+04  0.23638960102E+04 0.  0.
        2    1    3    3  502    0  0.59371163641E+03 -0.89383183860E+03 -0.79313934651E+03  0.13343533587E+04  0.25500000920E-02 0.  1.
       -2    1    3    3    0  502 -0.59371163641E+03  0.89383183860E+03  0.22608253955E+03  0.10966048411E+04  0.25500000920E-02 0. -1.
</event>
<event>
 5   0  0.1602809E-05  0.2302714E+04  0.7818609E-02  0.8476852E-01
        2   -1    0    0  501    0  0.00000000000E+00  0.00000000000E+00  0.91674272456E+03  0.91674272457E+03  0.25500000920E-02 0.  1.
       -2   -1    0    0    0  501  0.00000000000E+00  0.00000000000E+00 -0.14460143342E+04  0.14460143342E+04  0.25500000920E-02 0. -1.
    10030    2    1    2    0    0  0.00000000000E+00  0.00000000000E+00 -0.52927160959E+03  0.23627570587E+04  0.23027141555E+04 0.  0.
        3    1    3    3  502    0 -0.36109792884E+02 -0.77775826705E+03  0.60566153781E+03  0.98642675739E+03  0.10100000352E+00 0.  1.
       -3    1    3    3    0  502  0.36109792884E+02  0.77775826705E+03 -0.11349331474E+04  0.13763303013E+04  0.10100000352E+00 0. -1.
</event>
<event>
 5   0  0.7202572E-06  0.2346574E+04  0.7818609E-02  0.8459781E-01
        1   -1    0    0  501    0  0.00000000000E+00  0.00000000000E+00  0.18948288335E+04  0.18948288335E+04  0.50400001928E-02 0. -1.
       -1   -1    0    0    0  501  0.00000000000E+00  0.00000000000E+00 -0.72650475742E+03  0.72650475744E+03  0.50400001928E-02 0.  1.
    10030    2    1    2    0    0  0.00000000000E+00  0.00000000000E+00  0.11683240761E+04  0.26213335910E+04  0.23465738105E+04 0.  0.
        2    1    3    3  502    0 -0.95642664699E+03 -0.33242000829E+03  0.12463119152E+04  0.16057859082E+04  0.25500000920E-02 0. -1.
       -2    1    3    3    0  502  0.95642664699E+03  0.33242000829E+03 -0.77987839058E+02  0.10155476828E+04  0.25500000920E-02 0.  1.
</event>
<event>
 5   0  0.7278815E-06  0.2299726E+04  0.7818609E-02  0.8478029E-01
       -1   -1    0    0    0  501  0.00000000000E+00  0.00000000000E+00  0.92782441152E+03  0.92782441154E+03  0.50400001928E-02 0. -1.
        1   -1    0    0  501    0  0.00000000000E+00  0.00000000000E+00 -0.14250378632E+04  0.14250378632E+04  0.50400001928E-02 0.  1.
    10030    2    1    2    0    0  0.00000000000E+00  0.00000000000E+00 -0.49721345165E+03  0.23528622747E+04  0.22997259983E+04 0.  0.
        5    1    3    3  502    0  0.11386525612E+04  0.16010304813E+03 -0.24904745004E+03  0.11765242724E+04  0.46999998093E+01 0.  1.
       -5    1    3    3    0  502 -0.11386525612E+04 -0.16010304813E+03 -0.24816600160E+03  0.11763380023E+04  0.46999998093E+01 0. -1.
</event>
<event>
 5   0  0.1602809E-05  0.2312393E+04  0.7818609E-02  0.8473051E-01
        2   -1    0    0  501    0  0.00000000000E+00  0.00000000000E+00  0.13311149214E+04  0.13311149214E+04  0.25500000920E-02 0.  1.
       -2   -1    0    0    0  501  0.00000000000E+00  0.00000000000E+00 -0.10042636184E+04  0.10042636184E+04  0.25500000920E-02 0. -1.
    10030    2    1    2    0    0  0.00000000000E+00  0.00000000000E+00  0.32685130299E+03  0.23353785399E+04  0.23123929489E+04 0.  0.
        3    1    3    3  502    0  0.49658291539E+03 -0.24330535906E+03  0.11888995238E+04  0.13112109584E+04  0.10100000352E+00 0.  1.
       -3    1    3    3    0  502 -0.49658291539E+03  0.24330535906E+03 -0.86204822082E+03  0.10241675814E+04  0.10100000352E+00 0. -1.
</event>
<event>
 5   0  0.1602809E-05  0.2271029E+04  0.7818609E-02  0.8489432E-01
       -2   -1    0    0    0  501  0.00000000000E+00  0.00000000000E+00  0.70319708346E+03  0.70319708346E+03  0.25500000920E-02 0. -1.
        2   -1    0    0  501    0  0.00000000000E+00  0.00000000000E+00 -0.18336149664E+04  0.18336149664E+04  0.25500000920E-02 0.  1.
    10030    2    1    2    0    0  0.00000000000E+00  0.00000000000E+00 -0.11304178830E+04  0.25368120499E+04  0.22710285745E+04 0.  0.
        3    1    3    3  502    0 -0.38389450577E+03  0.75318060821E+03 -0.14120465666E+04  0.16457616889E+04  0.10100000352E+00 0.  1.
       -3    1    3    3    0  502  0.38389450577E+03 -0.75318060821E+03  0.28162868366E+03  0.89105036098E+03  0.10100000352E+00 0. -1.
</event>
<event>
 5   0  0.1635955E-05  0.2302882E+04  0.7818609E-02  0.8476786E-01
       -2   -1    0    0    0  501  0.00000000000E+00  0.00000000000E+00  0.12263548656E+04  0.12263548656E+04  0.25500000920E-02 0.  1.
        2   -1    0    0  501    0  0.00000000000E+00  0.00000000000E+00 -0.10811029848E+04  0.10811029848E+04  0.25500000920E-02 0. -1.
    10030    2    1    2    0    0  0.00000000000E+00  0.00000000000E+00  0.14525188084E+03  0.23074578504E+04  0.23028815911E+04 0.  0.
        2    1    3    3  502    0 -0.84285747750E+03  0.61462338140E+02 -0.71099566514E+03  0.11044008250E+04  0.25500000920E-02 0. -1.
       -2    1    3    3    0  502  0.84285747750E+03 -0.61462338140E+02  0.85624754598E+03  0.12030570254E+04  0.25500000920E-02 0.  1.
</event>
<event>
 5   0  0.7391007E-06  0.2299085E+04  0.7818609E-02  0.8478282E-01
        1   -1    0    0  501    0  0.00000000000E+00  0.00000000000E+00  0.13451663411E+04  0.13451663411E+04  0.50400001928E-02 0.  1.
       -1   -1    0    0    0  501  0.00000000000E+00  0.00000000000E+00 -0.98236767837E+03  0.98236767839E+03  0.50400001928E-02 0. -1.
    10030    2    1    2    0    0  0.00000000000E+00  0.00000000000E+00  0.36279866272E+03  0.23275340195E+04  0.22990849793E+04 0.  0.
        1    1    3    3  502    0 -0.10853877698E+04 -0.21467932841E+03 -0.13438042810E+03  0.11145456134E+04  0.50400001928E-02 0. -1.
       -1    1    3    3    0  502  0.10853877698E+04  0.21467932841E+03  0.49717909082E+03  0.12129884061E+04  0.50400001928E-02 0.  1.
</event>
<event>
 5   0  0.1626636E-05  0.2304559E+04  0.7818609E-02  0.8476126E-01
       -2   -1    0    0    0  501  0.00000000000E+00  0.00000000000E+00  0.15099513775E+04  0.15099513775E+04  0.25500000920E-02 0.  1.
        2   -1    0    0  501    0  0.00000000000E+00  0.00000000000E+00 -0.87933193338E+03  0.87933193339E+03  0.25500000920E-02 0. -1.
    10030    2    1    2    0    0  0.00000000000E+00  0.00000000000E+00  0.63061944415E+03  0.23892833109E+04  0.23045593628E+04 0.  0.
        4    1    3    3  502    0  0.40107494228E+03  0.20076801783E+03  0.14157345297E+04  0.14850840979E+04  0.12699999809E+01 0.  1.
       -4    1    3    3    0  502 -0.40107494228E+03 -0.20076801783E+03 -0.78511508558E+03  0.90419921301E+03  0.12699999809E+01 0. -1.
</event>
<event>
 5   0  0.1602809E-05  0.2314701E+04  0.7818609E-02  0.8472147E-01
        2   -1    0    0  501    0  0.00000000000E+00  0.00000000000E+00  0.21543693867E+04  0.21543693867E+04  0.25500000920E-02 0.  1.
       -2   -1    0    0    0  501  0.00000000000E+00  0.00000000000E+00 -0.62174130824E+03  0.62174130825E+03  0.25500000920E-02 0. -1.
    10030    2    1    2    0    0  0.00000000000E+00  0.00000000000E+00  0.15326280785E+04  0.27761106949E+04  0.23147012256E+04 0.  0.
        3    1    3    3  502    0  0.78725879991E+03 -0.71540486017E+03  0.13131386921E+04  0.16899449006E+04  0.10100000352E+00 0.  1.
       -3    1    3    3    0  502 -0.78725879991E+03  0.71540486017E+03  0.21948938634E+03  0.10861657944E+04  0.10100000352E+00 0. -1.
</event>
<event>
 5   0  0.7202572E-06  0.2242194E+04  0.7818609E-02  0.8501068E-01
        1   -1    0    0  501    0  0.00000000000E+00  0.00000000000E+00  0.61597858935E+03  0.61597858937E+03  0.50400001928E-02 0. -1.
       -1   -1    0    0    0  501  0.00000000000E+00  0.00000000000E+00 -0.20404264847E+04  0.20404264847E+04  0.50400001928E-02 0.  1.
    10030    2    1    2    0    0  0.00000000000E+00  0.00000000000E+00 -0.14244478953E+04  0.26564050741E+04  0.22421944856E+04 0.  0.
        2    1    3    3  502    0  0.10994764582E+04  0.50012079464E+02 -0.96496237462E+03  0.14637288255E+04  0.25500000920E-02 0.  1.
       -2    1    3    3    0  502 -0.10994764582E+04 -0.50012079464E+02 -0.45948552073E+03  0.11926762486E+04  0.25500000920E-02 0. -1.
</event>
<event>
 5   0  0.7391007E-06  0.2298804E+04  0.7818609E-02  0.8478393E-01
       -1   -1    0    0    0  501  0.00000000000E+00  0.00000000000E+00  0.14528235724E+04  0.14528235724E+04  0.50400001928E-02 0.  1.
        1   -1    0    0  501    0  0.00000000000E+00  0.00000000000E+00 -0.90935024694E+03  0.90935024695E+03  0.50400001928E-02 0. -1.
    10030    2    1    2    0    0  0.00000000000E+00  0.00000000000E+00  0.54347332542E+03  0.23621738193E+04  0.22988044495E+04 0.  0.
        1    1    3    3  502    0  0.17611952339E+03 -0.10173317952E+04 -0.24730473460E+03  0.10616692987E+04  0.50400001928E-02 0. -1.
       -1    1    3    3    0  502 -0.17611952339E+03  0.10173317952E+04  0.79077806003E+03  0.13005045206E+04  0.50400001928E-02 0.  1.
</event>
<event>
 5   0  0.1588969E-05  0.2298505E+04  0.7818609E-02  0.8478511E-01
        2   -1    0    0  501    0  0.00000000000E+00  0.00000000000E+00  0.10023886709E+04  0.10023886709E+04  0.25500000920E-02 0.  1.
       -2   -1    0    0    0  501  0.00000000000E+00  0.00000000000E+00 -0.13176335375E+04  0.13176335375E+04  0.25500000920E-02 0. -1.
    10030    2    1    2    0    0  0.00000000000E+00  0.00000000000E+00 -0.31524486662E+03  0.23200222084E+04  0.22985046707E+04 0.  0.
        1    1    3    3  502    0 -0.70367371127E+03 -0.82028617849E+03  0.23687503306E+03  0.11064067461E+04  0.50400001928E-02 0.  1.
       -1    1    3    3    0  502  0.70367371127E+03  0.82028617849E+03 -0.55211989968E+03  0.12136154622E+04  0.50400001928E-02 0. -1.
</event>
<event>
 5   0  0.7278815E-06  0.2306754E+04  0.7818609E-02  0.8475263E-01
        1   -1    0    0  501    0  0.00000000000E+00  0.00000000000E+00  0.19541664071E+04  0.19541664071E+04  0.50400001928E-02 0. -1.
       -1   -1    0    0    0  501  0.00000000000E+00  0.00000000000E+00 -0.68073959281E+03  0.68073959283E+03  0.50400001928E-02 0.  1.
    10030    2    1    2    0    0  0.00000000000E+00  0.00000000000E+00  0.12734268143E+04  0.26349059999E+04  0.23067539481E+04 0.  0.
        5    1    3    3  502    0 -0.11564024463E+03  0.82384231724E+03  0.15492098994E+04  0.17584545010E+04  0.46999998093E+01 0. -1.
       -5    1    3    3    0  502  0.11564024463E+03 -0.82384231724E+03 -0.27578308511E+03  0.87645149888E+03  0.46999998093E+01 0.  1.
</event>
<event>
 5   0  0.7391007E-06  0.2299955E+04  0.7818609E-02  0.8477939E-01
        1   -1    0    0  501    0  0.00000000000E+00  0.00000000000E+00  0.19786168426E+04  0.19786168426E+04  0.50400001928E-02 0. -1.
       -1   -1    0    0    0  501  0.00000000000E+00  0.00000000000E+00 -0.66837003445E+03  0.66837003447E+03  0.50400001928E-02 0.  1.
    10030    2    1    2    0    0  0.00000000000E+00  0.00000000000E+00  0.13102468082E+04  0.26469868771E+04  0.22999549624E+04 0.  0.
        1    1    3    3  502    0  0.15172970301E+03 -0.74648507914E+03 -0.33636795185E+03  0.83270959837E+03  0.50400001928E-02 0.  1.
       -1    1    3    3    0  502 -0.15172970301E+03  0.74648507914E+03  0.16466147600E+04  0.18142772787E+04  0.50400001928E-02 0. -1.
</event>
<event>
 5   0  0.1602809E-05  0.2257486E+04  0.7818609E-02  0.8494875E-01
       -2   -1    0    0    0  501  0.00000000000E+00  0.00000000000E+00  0.15392425029E+04  0.15392425029E+04  0.25500000920E-02 0. -1.
        2   -1    0    0  501    0  0.00000000000E+00  0.00000000000E+00 -0.82771963590E+03  0.82771963590E+03  0.25500000920E-02 0.  1.
    10030    2    1    2    0    0  0.00000000000E+00  0.00000000000E+00  0.71152286703E+03  0.23669621388E+04  0.22574864288E+04 0.  0.
        3    1    3    3  502    0 -0.59319324274E+03 -0.24316808690E+03  0.13298192105E+04  0.14762886183E+04  0.10100000352E+00 0. -1.
       -3    1    3    3    0  502  0.59319324274E+03  0.24316808690E+03 -0.61829634344E+03  0.89067352056E+03  0.10100000352E+00 0.  1.
</event>
<event>
 5   0  0.7391007E-06  0.2297752E+04  0.7818609E-02  0.8478808E-01
        1   -1    0    0  501    0  0.00000000000E+00  0.00000000000E+00  0.15540426334E+04  0.15540426334E+04  0.50400001928E-02 0. -1.
       -1   -1    0    0    0  501  0.00000000000E+00  0.00000000000E+00 -0.84934336687E+03  0.84934336688E+03  0.50400001928E-02 0.  1.
    10030    2    1    2    0    0  0.00000000000E+00  0.00000000000E+00  0.70469926649E+03  0.24033860002E+04  0.22977517729E+04 0.  0.
        1    1    3    3  502    0 -0.49836220423E+03  0.74004705212E+03 -0.40472179403E+03  0.97971131286E+03  0.50400001928E-02 0.  1.
       -1    1    3    3    0  502  0.49836220423E+03 -0.74004705212E+03  0.11094210605E+04  0.14236746874E+04  0.50400001928E-02 0. -1.
</event>
<event>
 5   0  0.7391007E-06  0.2297307E+04  0.7818609E-02  0.8478984E-01
        1   -1    0    0  501    0  0.00000000000E+00  0.00000000000E+00  0.13016203382E+04  0.13016203382E+04  0.50400001928E-02 0. -1.
       -1   -1    0    0    0  501  0.00000000000E+00  0.00000000000E+00 -0.10136637466E+04  0.10136637466E+04  0.50400001928E-02 0.  1.
    10030    2    1    2    0    0  0.00000000000E+00  0.00000000000E+00  0.28795659167E+03  0.23152840848E+04  0.22973074228E+04 0.  0.
        1    1    3    3  502    0 -0.44167742226E+03 -0.10571632297E+04  0.22667099944E+03  0.11679267022E+04  0.50400001928E-02 0. -1.
       -1    1    3    3    0  502  0.44167742226E+03  0.10571632297E+04  0.61285592230E+02  0.11473573826E+04  0.50400001928E-02 0.  1.
</event>
<event>
 5   0  0.7202572E-06  0.2298897E+04  0.7818609E-02  0.8478356E-01
        1   -1    0    0  501    0  0.00000000000E+00  0.00000000000E+00  0.17210412024E+04  0.17210412024E+04  0.50400001928E-02 0. -1.
       -1   -1    0    0    0  501  0.00000000000E+00  0.00000000000E+00 -0.76769314823E+03  0.76769314825E+03  0.50400001928E-02 0.  1.
    10030    2    1    2    0    0  0.00000000000E+00  0.00000000000E+00  0.95334805412E+03  0.24887343506E+04  0.22988967257E+04 0.  0.
        2    1    3    3  502    0  0.51721040718E+03  0.46112444340E+03 -0.51616788855E+03  0.86404377596E+03  0.25500000920E-02 0.  1.
       -2    1    3    3    0  502 -0.51721040718E+03 -0.46112444340E+03  0.14695159427E+04  0.16246905747E+04  0.25500000920E-02 0. -1.
</event>
<event>
 5   0  0.1588969E-05  0.2315238E+04  0.7818609E-02  0.8471937E-01
       -2   -1    0    0    0  501  0.00000000000E+00  0.00000000000E+00  0.60069668682E+03  0.60069668682E+03  0.25500000920E-02 0. -1.
        2   -1    0    0  501    0  0.00000000000E+00  0.00000000000E+00 -0.22308798159E+04  0.22308798159E+04  0.25500000920E-02 0.  1.
    10030    2    1    2    0    0  0.00000000000E+00  0.00000000000E+00 -0.16301831291E+04  0.28315765027E+04  0.23152383153E+04 0.  0.
        1    1    3    3  502    0  0.71666196713E+03  0.89386570048E+03 -0.61234403602E+03  0.12990633103E+04  0.50400001928E-02 0.  1.
       -1    1    3    3    0  502 -0.71666196713E+03 -0.89386570048E+03 -0.10178390931E+04  0.15325131925E+04  0.50400001928E-02 0. -1.
</event>
<event>
 5   0  0.5704875E-06  0.2300965E+04  0.7818609E-02  0.8477541E-01
        3   -1    0    0  501    0  0.00000000000E+00  0.00000000000E+00  0.93243328379E+03  0.93243328926E+03  0.10100000352E+00 0.  1.
       -3   -1    0    0    0  501  0.00000000000E+00  0.00000000000E+00 -0.14195218895E+04  0.14195218931E+04  0.10100000352E+00 0. -1.
    10030    2    1    2    0    0  0.00000000000E+00  0.00000000000E+00 -0.48708860574E+03  0.23519551824E+04  0.23009645521E+04 0.  0.
        1    1    3    3  502    0  0.64271021657E+03 -0.65191386120E+03  0.46870532344E+03  0.10284710911E+04  0.50400001928E-02 0.  1.
       -1    1    3    3    0  502 -0.64271021657E+03  0.65191386120E+03 -0.95579392918E+03  0.13234840913E+04  0.50400001928E-02 0. -1.
</event>
<event>
 5   0  0.1602809E-05  0.2293332E+04  0.7818609E-02  0.8480555E-01
       -2   -1    0    0    0  501  0.00000000000E+00  0.00000000000E+00  0.71484464629E+03  0.71484464629E+03  0.25500000920E-02 0. -1.
        2   -1    0    0  501    0  0.00000000000E+00  0.00000000000E+00 -0.18393412001E+04  0.18393412001E+04  0.25500000920E-02 0.  1.
    10030    2    1    2    0    0  0.00000000000E+00  0.00000000000E+00 -0.11244965538E+04  0.25541858464E+04  0.22933322564E+04 0.  0.
        3    1    3    3  502    0  0.87693799243E+03  0.58286232451E+03 -0.10678618001E+04  0.14996924906E+04  0.10100000352E+00 0. -1.
       -3    1    3    3    0  502 -0.87693799243E+03 -0.58286232451E+03 -0.56634753658E+02  0.10544933558E+04  0.10100000352E+00 0.  1.
</event>
<event>
 5   0  0.1635955E-05  0.2273977E+04  0.7818609E-02  0.8488253E-01
       -2   -1    0    0    0  501  0.00000000000E+00  0.00000000000E+00  0.98968739467E+03  0.98968739467E+03  0.25500000920E-02 0. -1.
        2   -1    0    0  501    0  0.00000000000E+00  0.00000000000E+00 -0.13062131509E+04  0.13062131509E+04  0.25500000920E-02 0.  1.
    10030    2    1    2    0    0  0.00000000000E+00  0.00000000000E+00 -0.31652575628E+03  0.22959005456E+04  0.22739768603E+04 0.  0.
        2    1    3    3  502    0  0.85751453218E+02  0.53539535337E+03  0.85074257134E+03  0.10088431091E+04  0.25500000920E-02 0. -1.
       -2    1    3    3    0  502 -0.85751453218E+02 -0.53539535337E+03 -0.11672683276E+04  0.12870574365E+04  0.25500000920E-02 0.  1.
</event>
<event>
 5   0  0.1626636E-05  0.2350213E+04  0.7818609E-02  0.8458382E-01
        2   -1    0    0  501    0  0.00000000000E+00  0.00000000000E+00  0.21227359343E+04  0.21227359343E+04  0.25500000920E-02 0.  1.
       -2   -1    0    0    0  501  0.00000000000E+00  0.00000000000E+00 -0.65051686884E+03  0.65051686885E+03  0.25500000920E-02 0. -1.
    10030    2    1    2    0    0  0.00000000000E+00  0.00000000000E+00  0.14722190654E+04  0.27732528031E+04  0.23502132102E+04 0.  0.
        4    1    3    3  502    0  0.45444018153E+03 -0.78404801395E+03 -0.14662767317E+03  0.91801331919E+03  0.12699999809E+01 0. -1.
       -4    1    3    3    0  502 -0.45444018153E+03  0.78404801395E+03  0.16188467386E+04  0.18552394839E+04  0.12699999809E+01 0.  1.
</event>
<event>
 5   0  0.1602809E-05  0.2294629E+04  0.7818609E-02  0.8480042E-01
        2   -1    0    0  501    0  0.00000000000E+00  0.00000000000E+00  0.24532992591E+04  0.24532992591E+04  0.25500000920E-02 0.  1.
       -2   -1    0    0    0  501  0.00000000000E+00  0.00000000000E+00 -0.53655546708E+03  0.53655546709E+03  0.25500000920E-02 0. -1.
    10030    2    1    2    0    0  0.00000000000E+00  0.00000000000E+00  0.19167437920E+04  0.29898547262E+04  0.22946294950E+04 0.  0.
        3    1    3    3  502    0 -0.10952658944E+04 -0.73623672686E+02  0.52367000847E+03  0.12162475540E+04  0.10100000352E+00 0.  1.
       -3    1    3    3    0  502  0.10952658944E+04  0.73623672686E+02  0.13930737836E+04  0.17736071722E+04  0.10100000352E+00 0. -1.
</event>
<event>
 5   0  0.7391007E-06  0.2318273E+04  0.7818609E-02  0.8470751E-01
       -1   -1    0    0    0  501  0.00000000000E+00  0.00000000000E+00  0.51478770658E+03  0.51478770661E+03  0.50400001928E-02 0.  1.
        1   -1    0    0  501    0  0.00000000000E+00  0.00000000000E+00 -0.26100018629E+04  0.26100018629E+04  0.50400001928E-02 0. -1.
    10030    2    1    2    0    0  0.00000000000E+00  0.00000000000E+00 -0.20952141563E+04  0.31247895695E+04  0.23182725234E+04 0.  0.
        1    1    3    3  502    0  0.37368319974E+03  0.74549350484E+03  0.37593096261E+02  0.83475322128E+03  0.50400001928E-02 0.  1.
       -1    1    3    3    0  502 -0.37368319974E+03 -0.74549350484E+03 -0.21328072526E+04  0.22900363483E+04  0.50400001928E-02 0. -1.
</event>
<event>
 5   0  0.5704875E-06  0.2304265E+04  0.7818609E-02  0.8476241E-01
       -3   -1    0    0    0  501  0.00000000000E+00  0.00000000000E+00  0.97243810184E+03  0.97243810709E+03  0.10100000352E+00 0. -1.
        3   -1    0    0  501    0  0.00000000000E+00  0.00000000000E+00 -0.13650325817E+04  0.13650325855E+04  0.10100000352E+00 0.  1.
    10030    2    1    2    0    0  0.00000000000E+00  0.00000000000E+00 -0.39259447988E+03  0.23374706925E+04  0.23042653521E+04 0.  0.
        4    1    3    3  502    0  0.10388433521E+03 -0.10903596586E+04 -0.55884352216E+03  0.12296275190E+04  0.12699999809E+01 0.  1.
       -4    1    3    3    0  502 -0.10388433521E+03  0.10903596586E+04  0.16624904228E+03  0.11078431736E+04  0.12699999809E+01 0. -1.
</event>
<event>
 5   0  0.1626636E-05  0.2303614E+04  0.7818609E-02  0.8476498E-01
       -2   -1    0    0    0  501  0.00000000000E+00  0.00000000000E+00  0.78248431595E+03  0.78248431595E+03  0.25500000920E-02 0.  1.
        2   -1    0    0  501    0  0.00000000000E+00  0.00000000000E+00 -0.16954449340E+04  0.16954449340E+04  0.25500000920E-02 0. -1.
    10030    2    1    2    0    0  0.00000000000E+00  0.00000000000E+00 -0.91296061805E+03  0.24779292500E+04  0.23036137432E+04 0.  0.
        4    1    3    3  502    0 -0.74389686273E+03  0.12192543673E+03  0.48028545379E+03  0.89382553361E+03  0.12699999809E+01 0.  1.
       -4    1    3    3    0  502  0.74389686273E+03 -0.12192543673E+03 -0.13932460718E+04  0.15841037163E+04  0.12699999809E+01 0. -1.
</event>
<event>
 5   0  0.1635955E-05  0.2297629E+04  0.7818609E-02  0.8478857E-01
        2   -1    0    0  501    0  0.00000000000E+00  0.00000000000E+00  0.15006492772E+04  0.15006492772E+04  0.25500000920E-02 0.  1.
       -2   -1    0    0    0  501  0.00000000000E+00  0.00000000000E+00 -0.87946908106E+03  0.87946908106E+03  0.25500000920E-02 0. -1.
    10030    2    1    2    0    0  0.00000000000E+00  0.00000000000E+00  0.62118019619E+03  0.23801183583E+04  0.22976289003E+04 0.  0.
        2    1    3    3  502    0 -0.10686651189E+04 -0.40102350188E+03  0.17588437525E+03  0.11549027227E+04  0.25500000920E-02 0. -1.
       -2    1    3    3    0  502  0.10686651189E+04  0.40102350188E+03  0.44529582094E+03  0.12252156356E+04  0.25500000920E-02 0.  1.
</event>
<event>
 5   0  0.7202572E-06  0.2310413E+04  0.7818609E-02  0.8473827E-01
       -1   -1    0    0    0  501  0.00000000000E+00  0.00000000000E+00  0.73773941587E+03  0.73773941589E+03  0.50400001928E-02 0. -1.
        1   -1    0    0  501    0  0.00000000000E+00  0.00000000000E+00 -0.18089072391E+04  0.18089072391E+04  0.50400001928E-02 0.  1.
    10030    2    1    2    0    0  0.00000000000E+00  0.00000000000E+00 -0.10711678232E+04  0.25466466550E+04  0.23104130972E+04 0.  0.
        2    1    3    3  502    0 -0.65387108519E+03  0.48809559507E+03  0.36578045652E+03  0.89419240007E+03  0.25500000920E-02 0. -1.
       -2    1    3    3    0  502  0.65387108519E+03 -0.48809559507E+03 -0.14369482797E+04  0.16524542549E+04  0.25500000920E-02 0.  1.
</event>
<event>
 5   0  0.5704875E-06  0.2287287E+04  0.7818609E-02  0.8482951E-01
        4   -1    0    0  501    0  0.00000000000E+00  0.00000000000E+00  0.16341251904E+04  0.16341256839E+04  0.12699999809E+01 0. -1.
       -4   -1    0    0    0  501  0.00000000000E+00  0.00000000000E+00 -0.80037847935E+03  0.80037948693E+03  0.12699999809E+01 0.  1.
    10030    2    1    2    0    0  0.00000000000E+00  0.00000000000E+00  0.83374671101E+03  0.24345051708E+04  0.22872870061E+04 0.  0.
        5    1    3    3  502    0 -0.31779866309E+03  0.99329741233E+03 -0.82655351338E+02  0.10461786352E+04  0.46999998093E+01 0.  1.
       -5    1    3    3    0  502  0.31779866309E+03 -0.99329741233E+03  0.91640206234E+03  0.13883265356E+04  0.46999998093E+01 0. -1.
</event>
<event>
 5   0  0.1588969E-05  0.2308098E+04  0.7818609E-02  0.8474735E-01
        2   -1    0    0  501    0  0.00000000000E+00  0.00000000000E+00  0.13274397494E+04  0.13274397494E+04  0.25500000920E-02 0. -1.
       -2   -1    0    0    0  501  0.00000000000E+00  0.00000000000E+00 -0.10033067824E+04  0.10033067824E+04  0.25500000920E-02 0.  1.
    10030    2    1    2    0    0  0.00000000000E+00  0.00000000000E+00  0.32413296701E+03  0.23307465318E+04  0.23080981814E+04 0.  0.
        1    1    3    3  502    0 -0.49360699834E+03 -0.80677969573E+03  0.82983282766E+03  0.12582383988E+04  0.50400001928E-02 0. -1.
       -1    1    3    3    0  502  0.49360699834E+03  0.80677969573E+03 -0.50569986065E+03  0.10725081330E+04  0.50400001928E-02 0.  1.
</event>
<event>
 5   0  0.7391007E-06  0.2295496E+04  0.7818609E-02  0.8479699E-01
        1   -1    0    0  501    0  0.00000000000E+00  0.00000000000E+00  0.12265568710E+04  0.12265568710E+04  0.50400001928E-02 0. -1.
       -1   -1    0    0    0  501  0.00000000000E+00  0.00000000000E+00 -0.10740025734E+04  0.10740025734E+04  0.50400001928E-02 0.  1.
    10030    2    1    2    0    0  0.00000000000E+00  0.00000000000E+00  0.15255429756E+03  0.23005594444E+04  0.22954957947E+04 0.  0.
        1    1    3    3  502    0 -0.73374287356E+03 -0.52566826219E+03  0.78679767541E+03  0.11973956357E+04  0.50400001928E-02 0. -1.
       -1    1    3    3    0  502  0.73374287356E+03  0.52566826219E+03 -0.63424337785E+03  0.11031638087E+04  0.50400001928E-02 0.  1.
</event>
<event>
 5   0  0.7278815E-06  0.2231410E+04  0.7818609E-02  0.8505467E-01
        1   -1    0    0  501    0  0.00000000000E+00  0.00000000000E+00  0.20579117310E+04  0.20579117310E+04  0.50400001928E-02 0.  1.
       -1   -1    0    0    0  501  0.00000000000E+00  0.00000000000E+00 -0.60488388048E+03  0.60488388050E+03  0.50400001928E-02 0. -1.
    10030    2    1    2    0    0  0.00000000000E+00  0.00000000000E+00  0.14530278505E+04  0.26627956115E+04  0.22314099880E+04 0.  0.
        5    1    3    3  502    0  0.89681903120E+03 -0.11938251956E+03  0.15055992849E+04  0.17565272151E+04  0.46999998093E+01 0.  1.
       -5    1    3    3    0  502 -0.89681903120E+03  0.11938251956E+03 -0.52571434337E+02  0.90626839645E+03  0.46999998093E+01 0. -1.
</event>
<event>
 5   0  0.7391007E-06  0.2300057E+04  0.7818609E-02  0.8477899E-01
       -1   -1    0    0    0  501  0.00000000000E+00  0.00000000000E+00  0.13211027084E+04  0.13211027084E+04  0.50400001928E-02 0. -1.
        1   -1    0    0  501    0  0.00000000000E+00  0.00000000000E+00 -0.10011071905E+04  0.10011071905E+04  0.50400001928E-02 0.  1.
    10030    2    1    2    0    0  0.00000000000E+00  0.00000000000E+00  0.31999551788E+03  0.23222098990E+04  0.23000568870E+04 0.  0.
        1    1    3    3  502    0  0.30924411570E+03  0.70246864724E+03 -0.70468033439E+03  0.10419541723E+04  0.50400001928E-02 0.  1.
       -1    1    3    3    0  502 -0.30924411570E+03 -0.70246864724E+03  0.10246758523E+04  0.12802557267E+04  0.50400001928E-02 0. -1.
</event>
<event>
 5   0  0.7183014E-06  0.2295789E+04  0.7818609E-02  0.8479583E-01
       -1   -1    0    0    0  501  0.00000000000E+00  0.00000000000E+00  0.24845799025E+04  0.24845799025E+04  0.50400001928E-02 0.  1.
        1   -1    0    0  501    0  0.00000000000E+00  0.00000000000E+00 -0.53033604226E+03  0.53033604228E+03  0.50400001928E-02 0. -1.
    10030    2    1    2    0    0  0.00000000000E+00  0.00000000000E+00  0.19542438602E+04  0.30149159447E+04  0.22957894260E+04 0.  0.
        3    1    3    3  502    0  0.11418169007E+04 -0.41671595391E+02  0.83218965276E+03  0.14135140554E+04  0.10100000352E+00 0.  1.
       -3    1    3    3    0  502 -0.11418169007E+04  0.41671595391E+02  0.11220542074E+04  0.16014018893E+04  0.10100000352E+00 0. -1.
</event>
<event>
 5   0  0.1588969E-05  0.2286456E+04  0.7818609E-02  0.8483281E-01
       -2   -1    0    0    0  501  0.00000000000E+00  0.00000000000E+00  0.14049583644E+04  0.14049583644E+04  0.25500000920E-02 0.  1.
        2   -1    0    0  501    0  0.00000000000E+00  0.00000000000E+00 -0.93025547174E+03  0.93025547174E+03  0.25500000920E-02 0. -1.
    10030    2    1    2    0    0  0.00000000000E+00  0.00000000000E+00  0.47470289270E+03  0.23352138362E+04  0.22864559528E+04 0.  0.
        1    1    3    3  502    0 -0.65816478283E+03  0.13640765762E+03 -0.70712941381E+03  0.97561259643E+03  0.50400001928E-02 0. -1.
       -1    1    3    3    0  502  0.65816478283E+03 -0.13640765762E+03  0.11818323065E+04  0.13596012397E+04  0.50400001928E-02 0.  1.
</event>
<event>
 5   0  0.1588969E-05  0.2310643E+04  0.7818609E-02  0.8473737E-01
        2   -1    0    0  501    0  0.00000000000E+00  0.00000000000E+00  0.98417765350E+03  0.98417765350E+03  0.25500000920E-02 0.  1.
       -2   -1    0    0    0  501  0.00000000000E+00  0.00000000000E+00 -0.13562265343E+04  0.13562265343E+04  0.25500000920E-02 0. -1.
    10030    2    1    2    0    0  0.00000000000E+00  0.00000000000E+00 -0.37204888080E+03  0.23404041878E+04  0.23106430691E+04 0.  0.
        1    1    3    3  502    0 -0.40720077995E+03 -0.32571387290E+03 -0.12302569946E+04  0.13362014350E+04  0.50400001928E-02 0. -1.
       -1    1    3    3    0  502  0.40720077995E+03  0.32571387290E+03  0.85820811377E+03  0.10042027528E+04  0.50400001928E-02 0.  1.
</event>
<event>
 5   0  0.5704875E-06  0.2297146E+04  0.7818609E-02  0.8479047E-01
        3   -1    0    0  501    0  0.00000000000E+00  0.00000000000E+00  0.23981171399E+04  0.23981171420E+04  0.10100000352E+00 0. -1.
       -3   -1    0    0    0  501  0.00000000000E+00  0.00000000000E+00 -0.55010673193E+03  0.55010674120E+03  0.10100000352E+00 0.  1.
    10030    2    1    2    0    0  0.00000000000E+00  0.00000000000E+00  0.18480104080E+04  0.29482238832E+04  0.22971464032E+04 0.  0.
        3    1    3    3  502    0 -0.90405014782E+02 -0.31335901837E+03  0.23374405541E+04  0.23600837475E+04  0.10100000352E+00 0. -1.
       -3    1    3    3    0  502  0.90405014782E+02  0.31335901837E+03 -0.48943014614E+03  0.58814013572E+03  0.10100000352E+00 0.  1.
</event>
<event>
 5   0  0.1626636E-05  0.2296125E+04  0.7818609E-02  0.8479451E-01
       -2   -1    0    0    0  501  0.00000000000E+00  0.00000000000E+00  0.76034011259E+03  0.76034011260E+03  0.25500000920E-02 0.  1.
        2   -1    0    0  501    0  0.00000000000E+00  0.00000000000E+00 -0.17334966031E+04  0.17334966031E+04  0.25500000920E-02 0. -1.
    10030    2    1    2    0    0  0.00000000000E+00  0.00000000000E+00 -0.97315649048E+03  0.24938367157E+04  0.22961245631E+04 0.  0.
        4    1    3    3  502    0 -0.21117723962E+03  0.58473965955E+03  0.56168602124E+03  0.83785983037E+03  0.12699999809E+01 0.  1.
       -4    1    3    3    0  502  0.21117723962E+03 -0.58473965955E+03 -0.15348425117E+04  0.16559768853E+04  0.12699999809E+01 0. -1.
</event>
<event>
 5   0  0.7202572E-06  0.2329372E+04  0.7818609E-02  0.8466429E-01
        1   -1    0    0  501    0  0.00000000000E+00  0.00000000000E+00  0.15269091476E+04  0.15269091476E+04  0.50400001928E-02 0. -1.
       -1   -1    0    0    0  501  0.00000000000E+00  0.00000000000E+00 -0.88839172395E+03  0.88839172396E+03  0.50400001928E-02 0.  1.
    10030    2    1    2    0    0  0.00000000000E+00  0.00000000000E+00  0.63851742364E+03  0.24153008716E+04  0.23293719754E+04 0.  0.
        2    1    3    3  502    0  0.94904473017E+03  0.30284107760E+03  0.94492052518E+03  0.13730525908E+04  0.25500000920E-02 0. -1.
       -2    1    3    3    0  502 -0.94904473017E+03 -0.30284107760E+03 -0.30640310154E+03  0.10422482808E+04  0.25500000920E-02 0.  1.
</event>
<event>
 5   0  0.1697855E-05  0.2299497E+04  0.7818609E-02  0.8478119E-01
        2   -1    0    0  501    0  0.00000000000E+00  0.00000000000E+00  0.16403717234E+04  0.16403717234E+04  0.25500000920E-02 0. -1.
       -2   -1    0    0    0  501  0.00000000000E+00  0.00000000000E+00 -0.80586739171E+03  0.80586739171E+03  0.25500000920E-02 0.  1.
    10030    2    1    2    0    0  0.00000000000E+00  0.00000000000E+00  0.83450433168E+03  0.24462391151E+04  0.22994974078E+04 0.  0.
        5    1    3    3  502    0 -0.58363567051E+03 -0.26818720554E+03 -0.59719709027E+03  0.87705269382E+03  0.46999998093E+01 0.  1.
       -5    1    3    3    0  502  0.58363567051E+03  0.26818720554E+03  0.14317014220E+04  0.15691864213E+04  0.46999998093E+01 0. -1.
</event>
<event>
 5   0  0.1697855E-05  0.2304403E+04  0.7818609E-02  0.8476187E-01
        2   -1    0    0  501    0  0.00000000000E+00  0.00000000000E+00  0.11074823955E+04  0.11074823955E+04  0.25500000920E-02 0.  1.
       -2   -1    0    0    0  501  0.00000000000E+00  0.00000000000E+00 -0.11987259327E+04  0.11987259327E+04  0.25500000920E-02 0. -1.
    10030    2    1    2    0    0  0.00000000000E+00  0.00000000000E+00 -0.91243537206E+02  0.23062083283E+04  0.23044026276E+04 0.  0.
        5    1    3    3  502    0 -0.18796844296E+03  0.25214015124E+03 -0.11549302164E+04  0.11969931855E+04  0.46999998093E+01 0. -1.
       -5    1    3    3    0  502  0.18796844296E+03 -0.25214015124E+03  0.10636866792E+04  0.11092151427E+04  0.46999998093E+01 0.  1.
</event>
<event>
 5   0  0.1602809E-05  0.2296803E+04  0.7818609E-02  0.8479183E-01
        2   -1    0    0  501    0  0.00000000000E+00  0.00000000000E+00  0.17306844724E+04  0.17306844724E+04  0.25500000920E-02 0.  1.
       -2   -1    0    0    0  501  0.00000000000E+00  0.00000000000E+00 -0.76202585640E+03  0.76202585641E+03  0.25500000920E-02 0. -1.
    10030    2    1    2    0    0  0.00000000000E+00  0.00000000000E+00  0.96865861603E+03  0.24927103288E+04  0.22968032717E+04 0.  0.
        3    1    3    3  502    0 -0.27034330171E+03  0.10552081089E+04  0.87904974611E+03  0.13997421620E+04  0.10100000352E+00 0.  1.
       -3    1    3    3    0  502  0.27034330171E+03 -0.10552081089E+04  0.89608869923E+02  0.10929681668E+04  0.10100000352E+00 0. -1.
</event>
<event>
 5   0  0.1697855E-05  0.2300004E+04  0.7818609E-02  0.8477920E-01
       -2   -1    0    0    0  501  0.00000000000E+00  0.00000000000E+00  0.61779950946E+03  0.61779950946E+03  0.25500000920E-02 0.  1.
        2   -1    0    0  501    0  0.00000000000E+00  0.00000000000E+00 -0.21406692705E+04  0.21406692705E+04  0.25500000920E-02 0. -1.
    10030    2    1    2    0    0  0.00000000000E+00  0.00000000000E+00 -0.15228697611E+04  0.27584687800E+04  0.23000038480E+04 0.  0.
        5    1    3    3  502    0  0.95970344591E+03  0.56406578576E+03 -0.11075444224E+04  0.15703113234E+04  0.46999998093E+01 0. -1.
       -5    1    3    3    0  502 -0.95970344591E+03 -0.56406578576E+03 -0.41532533866E+03  0.11881574566E+04  0.46999998093E+01 0.  1.
</event>
<event>
 5   0  0.1635955E-05  0.2303222E+04  0.7818609E-02  0.8476652E-01
       -2   -1    0    0    0  501  0.00000000000E+00  0.00000000000E+00  0.78585404015E+03  0.78585404015E+03  0.25500000920E-02 0. -1.
        2   -1    0    0  501    0  0.00000000000E+00  0.00000000000E+00 -0.16876001429E+04  0.16876001429E+04  0.25500000920E-02 0.  1.
    10030    2    1    2    0    0  0.00000000000E+00  0.00000000000E+00 -0.90174610275E+03  0.24734541831E+04  0.23032215616E+04 0.  0.
        2    1    3    3  502    0  0.61228646584E+03 -0.63926574775E+02  0.59431629225E+03  0.85568287260E+03  0.25500000920E-02 0. -1.
       -2    1    3    3    0  502 -0.61228646584E+03  0.63926574775E+02 -0.14960623950E+04  0.16177713105E+04  0.25500000920E-02 0.  1.
</event>
<event>
 5   0  0.1697855E-05  0.2303756E+04  0.7818609E-02  0.8476442E-01
        2   -1    0    0  501    0  0.00000000000E+00  0.00000000000E+00  0.22634740135E+04  0.22634740135E+04  0.25500000920E-02 0. -1.
       -2   -1    0    0    0  501  0.00000000000E+00  0.00000000000E+00 -0.58618879852E+03  0.58618879853E+03  0.25500000920E-02 0.  1.
    10030    2    1    2    0    0  0.00000000000E+00  0.00000000000E+00  0.16772852149E+04  0.28496628120E+04  0.23037561611E+04 0.  0.
        5    1    3    3  502    0  0.77747406049E+03 -0.67355036879E+03  0.19748836771E+03  0.10474539414E+04  0.46999998093E+01 0.  1.
       -5    1    3    3    0  502 -0.77747406049E+03  0.67355036879E+03  0.14797968472E+04  0.18022088706E+04  0.46999998093E+01 0. -1.
</event>
<event>
 5   0  0.1635955E-05  0.2283025E+04  0.7818609E-02  0.8484644E-01
        2   -1    0    0  501    0  0.00000000000E+00  0.00000000000E+00  0.10924699350E+04  0.10924699350E+04  0.25500000920E-02 0. -1.
       -2   -1    0    0    0  501  0.00000000000E+00  0.00000000000E+00 -0.11927569733E+04  0.11927569733E+04  0.25500000920E-02 0.  1.
    10030    2    1    2    0    0  0.00000000000E+00  0.00000000000E+00 -0.10028703830E+03  0.22852269083E+04  0.22830253026E+04 0.  0.
        2    1    3    3  502    0  0.52845286503E+03 -0.36687700582E+01 -0.10629370437E+04  0.11870598339E+04  0.25500000920E-02 0.  1.
       -2    1    3    3    0  502 -0.52845286503E+03  0.36687700582E+01  0.96265000536E+03  0.10981670744E+04  0.25500000920E-02 0. -1.
</event>
<event>
 5   0  0.1626636E-05  0.2298842E+04  0.7818609E-02  0.8478378E-01
       -2   -1    0    0    0  501  0.00000000000E+00  0.00000000000E+00  0.25739824426E+04  0.25739824426E+04  0.25500000920E-02 0.  1.
        2   -1    0    0  501    0  0.00000000000E+00  0.00000000000E+00 -0.51327824423E+03  0.51327824424E+03  0.25500000920E-02 0. -1.
    10030    2    1    2    0    0  0.00000000000E+00  0.00000000000E+00  0.20607041984E+04  0.30872606868E+04  0.22988424816E+04 0.  0.
        4    1    3    3  502    0 -0.84290980683E+03  0.56116387482E+03  0.17607138498E+04  0.20311368025E+04  0.12699999809E+01 0.  1.
       -4    1    3    3    0  502  0.84290980683E+03 -0.56116387482E+03  0.29999034856E+03  0.10561238843E+04  0.12699999809E+01 0. -1.
</event>
<event>
 5   0  0.1588969E-05  0.2293652E+04  0.7818609E-02  0.8480428E-01
       -2   -1    0    0    0  501  0.00000000000E+00  0.00000000000E+00  0.11776756645E+04  0.11776756645E+04  0.25500000920E-02 0.  1.
        2   -1    0    0  501    0  0.00000000000E+00  0.00000000000E+00 -0.11167844755E+04  0.11167844755E+04  0.25500000920E-02 0. -1.
    10030    2    1    2    0    0  0.00000000000E+00  0.00000000000E+00  0.60891189015E+02  0.22944601400E+04  0.22936520218E+04 0.  0.
        1    1    3    3  502    0 -0.90634112499E+03  0.43242093357E+03 -0.52361577810E+03  0.11325261947E+04  0.50400001928E-02 0. -1.
       -1    1    3    3    0  502  0.90634112499E+03 -0.43242093357E+03  0.58450696711E+03  0.11619339453E+04  0.50400001928E-02 0.  1.
</event>
<event>
 5   0  0.7391007E-06  0.2302663E+04  0.7818609E-02  0.8476872E-01
        1   -1    0    0  501    0  0.00000000000E+00  0.00000000000E+00  0.18613876848E+04  0.18613876848E+04  0.50400001928E-02 0.  1.
       -1   -1    0    0    0  501  0.00000000000E+00  0.00000000000E+00 -0.71213759625E+03  0.71213759626E+03  0.50400001928E-02 0. -1.
    10030    2    1    2    0    0  0.00000000000E+00  0.00000000000E+00  0.11492500885E+04  0.25735252810E+04  0.23026629380E+04 0.  0.
        1    1    3    3  502    0  0.89511126268E+03 -0.65808235610E+03  0.23698312288E+03  0.11359830811E+04  0.50400001928E-02 0. -1.
       -1    1    3    3    0  502 -0.89511126268E+03  0.65808235610E+03  0.91226696563E+03  0.14375421999E+04  0.50400001928E-02 0.  1.
</event>
<event>
 5   0  0.7278815E-06  0.2280206E+04  0.7818609E-02  0.8485767E-01
        1   -1    0    0  501    0  0.00000000000E+00  0.00000000000E+00  0.14925263906E+04  0.14925263906E+04  0.50400001928E-02 0. -1.
       -1   -1    0    0    0  501  0.00000000000E+00  0.00000000000E+00 -0.87089573892E+03  0.87089573893E+03  0.50400001928E-02 0.  1.
    10030    2    1    2    0    0  0.00000000000E+00  0.00000000000E+00  0.62163065164E+03  0.23634221295E+04  0.22802060203E+04 0.  0.
        5    1    3    3  502    0 -0.32935568145E+03  0.95046267787E+02 -0.81620502209E+03  0.88528056909E+03  0.46999998093E+01 0.  1.
       -5    1    3    3    0  502  0.32935568145E+03 -0.95046267787E+02  0.14378356737E+04  0.14781415604E+04  0.46999998093E+01 0. -1.
</event>
<event>
 5   0  0.7202572E-06  0.2296775E+04  0.7818609E-02  0.8479194E-01
        1   -1    0    0  501    0  0.00000000000E+00  0.00000000000E+00  0.12302259493E+04  0.12302259493E+04  0.50400001928E-02 0. -1.
       -1   -1    0    0    0  501  0.00000000000E+00  0.00000000000E+00 -0.10719935717E+04  0.10719935717E+04  0.50400001928E-02 0.  1.
    10030    2    1    2    0    0  0.00000000000E+00  0.00000000000E+00  0.15823237765E+03  0.23022195210E+04  0.22967753999E+04 0.  0.
        2    1    3    3  502    0 -0.59705814188E+03  0.80553951042E+03  0.64028423070E+03  0.11896790423E+04  0.25500000920E-02 0. -1.
       -2    1    3    3    0  502  0.59705814188E+03 -0.80553951042E+03 -0.48205185305E+03  0.11125404787E+04  0.25500000920E-02 0.  1.
</event>
<event>
 5   0  0.7278815E-06  0.2288856E+04  0.7818609E-02  0.8482328E-01
        1   -1    0    0  501    0  0.00000000000E+00  0.00000000000E+00  0.98724436022E+03  0.98724436023E+03  0.50400001928E-02 0. -1.
       -1   -1    0    0    0  501  0.00000000000E+00  0.00000000000E+00 -0.13266373884E+04  0.13266373884E+04  0.50400001928E-02 0.  1.
    10030    2    1    2    0    0  0.00000000000E+00  0.00000000000E+00 -0.33939302817E+03  0.23138817486E+04  0.22888558537E+04 0.  0.
        5    1    3    3  502    0 -0.14067250147E+03 -0.83981499966E+03 -0.94265784939E+03  0.12703164556E+04  0.46999998093E+01 0.  1.
       -5    1    3    3    0  502  0.14067250147E+03  0.83981499966E+03  0.60326482121E+03  0.10435652930E+04  0.46999998093E+01 0. -1.
</event>
<event>
 5   0  0.1588969E-05  0.2283795E+04  0.7818609E-02  0.8484338E-01
        2   -1    0    0  501    0  0.00000000000E+00  0.00000000000E+00  0.18716724678E+04  0.18716724678E+04  0.25500000920E-02 0. -1.
       -2   -1    0    0    0  501  0.00000000000E+00  0.00000000000E+00 -0.69666553202E+03  0.69666553202E+03  0.25500000920E-02 0.  1.
    10030    2    1    2    0    0  0.00000000000E+00  0.00000000000E+00  0.11750069358E+04  0.25683379998E+04  0.22837948205E+04 0.  0.
        1    1    3    3  502    0 -0.89243682695E+03 -0.34475067765E+03 -0.11357241804E+03  0.96342888373E+03  0.50400001928E-02 0.  1.
       -1    1    3    3    0  502  0.89243682695E+03  0.34475067765E+03  0.12885793538E+04  0.16049091161E+04  0.50400001928E-02 0. -1.
</event>
<event>
 5   0  0.1626636E-05  0.2295519E+04  0.7818609E-02  0.8479690E-01
       -2   -1    0    0    0  501  0.00000000000E+00  0.00000000000E+00  0.12979092806E+04  0.12979092806E+04  0.25500000920E-02 0.  1.
        2   -1    0    0  501    0  0.00000000000E+00  0.00000000000E+00 -0.10149797821E+04  0.10149797821E+04  0.25500000920E-02 0. -1.
    10030    2    1    2    0    0  0.00000000000E+00  0.00000000000E+00  0.28292949845E+03  0.23128890627E+04  0.22955188336E+04 0.  0.
        4    1    3    3  502    0  0.27041477773E+03 -0.10749374202E+04  0.44160382189E+03  0.11931597369E+04  0.12699999809E+01 0.  1.
       -4    1    3    3    0  502 -0.27041477773E+03  0.10749374202E+04 -0.15867432344E+03  0.11197293258E+04  0.12699999809E+01 0. -1.
</event>
<event>
 5   0  0.7416556E-06  0.2302789E+04  0.7818609E-02  0.8476822E-01
        1   -1    0    0  501    0  0.00000000000E+00  0.00000000000E+00  0.97639322719E+03  0.97639322720E+03  0.50400001928E-02 0.  1.
       -1   -1    0    0    0  501  0.00000000000E+00  0.00000000000E+00 -0.13577612178E+04  0.13577612178E+04  0.50400001928E-02 0. -1.
    10030    2    1    2    0    0  0.00000000000E+00  0.00000000000E+00 -0.38136799058E+03  0.23341544450E+04  0.23027886201E+04 0.  0.
        4    1    3    3  502    0 -0.81976712172E+02  0.99105556098E+03  0.39756194238E+03  0.10709661139E+04  0.12699999809E+01 0.  1.
       -4    1    3    3    0  502  0.81976712172E+02 -0.99105556098E+03 -0.77892993296E+03  0.12631883310E+04  0.12699999809E+01 0. -1.
</event>
<event>
 5   0  0.7202572E-06  0.2420208E+04  0.7818609E-02  0.8431977E-01
       -1   -1    0    0    0  501  0.00000000000E+00  0.00000000000E+00  0.12122175916E+04  0.12122175916E+04  0.50400001928E-02 0.  1.
        1   -1    0    0  501    0  0.00000000000E+00  0.00000000000E+00 -0.12079938760E+04  0.12079938760E+04  0.50400001928E-02 0. -1.
    10030    2    1    2    0    0  0.00000000000E+00  0.00000000000E+00  0.42237156170E+01  0.24202114675E+04  0.24202077820E+04 0.  0.
        2    1    3    3  502    0  0.11066291411E+04 -0.43391107745E+03 -0.22470239361E+03  0.12097099011E+04  0.25500000920E-02 0.  1.
       -2    1    3    3    0  502 -0.11066291411E+04  0.43391107745E+03  0.22892610922E+03  0.12105015665E+04  0.25500000920E-02 0. -1.
</event>
<event>
 5   0  0.7202572E-06  0.2298044E+04  0.7818609E-02  0.8478693E-01
        1   -1    0    0  501    0  0.00000000000E+00  0.00000000000E+00  0.13586655934E+04  0.13586655935E+04  0.50400001928E-02 0.  1.
       -1   -1    0    0    0  501  0.00000000000E+00  0.00000000000E+00 -0.97172676950E+03  0.97172676951E+03  0.50400001928E-02 0. -1.
    10030    2    1    2    0    0  0.00000000000E+00  0.00000000000E+00  0.38693882394E+03  0.23303923630E+04  0.22980441493E+04 0.  0.
        2    1    3    3  502    0 -0.65247702712E+03 -0.46247473327E+03  0.10300932543E+04  0.13041093751E+04  0.25500000920E-02 0.  1.
       -2    1    3    3    0  502  0.65247702712E+03  0.46247473327E+03 -0.64315443034E+03  0.10262829878E+04  0.25500000920E-02 0. -1.
</event>
<event>
 5   0  0.1635955E-05  0.2308168E+04  0.7818609E-02  0.8474707E-01
        2   -1    0    0  501    0  0.00000000000E+00  0.00000000000E+00  0.17806943988E+04  0.17806943988E+04  0.25500000920E-02 0.  1.
       -2   -1    0    0    0  501  0.00000000000E+00  0.00000000000E+00 -0.74797239073E+03  0.74797239073E+03  0.25500000920E-02 0. -1.
    10030    2    1    2    0    0  0.00000000000E+00  0.00000000000E+00  0.10327220081E+04  0.25286667895E+04  0.23081683185E+04 0.  0.
        2    1    3    3  502    0 -0.10834673125E+04 -0.77195664925E+02  0.94354684923E+03  0.14387985420E+04  0.25500000920E-02 0. -1.
       -2    1    3    3    0  502  0.10834673125E+04  0.77195664925E+02  0.89175158819E+02  0.10898682475E+04  0.25500000920E-02 0.  1.
</event>
<event>
 5   0  0.7391007E-06  0.2296810E+04  0.7818609E-02  0.8479180E-01
       -1   -1    0    0    0  501  0.00000000000E+00  0.00000000000E+00  0.14241734396E+04  0.14241734396E+04  0.50400001928E-02 0.  1.
        1   -1    0    0  501    0  0.00000000000E+00  0.00000000000E+00 -0.92603445931E+03  0.92603445933E+03  0.50400001928E-02 0. -1.
    10030    2    1    2    0    0  0.00000000000E+00  0.00000000000E+00  0.49813898029E+03  0.23502078989E+04  0.22968096840E+04 0.  0.
        1    1    3    3  502    0 -0.52105584298E+03 -0.80234682869E+03  0.89911369488E+03  0.13128842528E+04  0.50400001928E-02 0.  1.
       -1    1    3    3    0  502  0.52105584298E+03  0.80234682869E+03 -0.40097471458E+03  0.10373236461E+04  0.50400001928E-02 0. -1.
</event>
<event>
 5   0  0.7202572E-06  0.2299768E+04  0.7818609E-02  0.8478013E-01
        1   -1    0    0  501    0  0.00000000000E+00  0.00000000000E+00  0.15738490601E+04  0.15738490601E+04  0.50400001928E-02 0.  1.
       -1   -1    0    0    0  501  0.00000000000E+00  0.00000000000E+00 -0.84012693105E+03  0.84012693106E+03  0.50400001928E-02 0. -1.
    10030    2    1    2    0    0  0.00000000000E+00  0.00000000000E+00  0.73372212907E+03  0.24139759912E+04  0.22997677977E+04 0.  0.
        2    1    3    3  502    0  0.93753013141E+03  0.27159322509E+03 -0.27119743870E+03  0.10130516660E+04  0.25500000920E-02 0. -1.
       -2    1    3    3    0  502 -0.93753013141E+03 -0.27159322509E+03  0.10049195678E+04  0.14009243252E+04  0.25500000920E-02 0.  1.
</event>
<event>
 5   0  0.7183014E-06  0.2296237E+04  0.7818609E-02  0.8479406E-01
        1   -1    0    0  501    0  0.00000000000E+00  0.00000000000E+00  0.76049689586E+03  0.76049689587E+03  0.50400001928E-02 0. -1.
       -1   -1    0    0    0  501  0.00000000000E+00  0.00000000000E+00 -0.17333090172E+04  0.17333090172E+04  0.50400001928E-02 0.  1.
    10030    2    1    2    0    0  0.00000000000E+00  0.00000000000E+00 -0.97281212138E+03  0.24938059131E+04  0.22962370324E+04 0.  0.
        3    1    3    3  502    0  0.87568592598E+03  0.30902001126E+03  0.24685767019E+03  0.96086311608E+03  0.10100000352E+00 0. -1.
       -3    1    3    3    0  502 -0.87568592598E+03 -0.30902001126E+03 -0.12196697916E+04  0.15329427970E+04  0.10100000352E+00 0.  1.
</event>
<event>
 5   0  0.7416556E-06  0.2296937E+04  0.7818609E-02  0.8479130E-01
        1   -1    0    0  501    0  0.00000000000E+00  0.00000000000E+00  0.12080383608E+04  0.12080383608E+04  0.50400001928E-02 0. -1.
       -1   -1    0    0    0  501  0.00000000000E+00  0.00000000000E+00 -0.10918356555E+04  0.10918356555E+04  0.50400001928E-02 0.  1.
    10030    2    1    2    0    0  0.00000000000E+00  0.00000000000E+00  0.11620270530E+03  0.22998740162E+04  0.22969365298E+04 0.  0.
        4    1    3    3  502    0 -0.18760790992E+03 -0.15427603908E+03 -0.10658224365E+04  0.10931499911E+04  0.12699999809E+01 0.  1.
       -4    1    3    3    0  502  0.18760790992E+03  0.15427603908E+03  0.11820251418E+04  0.12067240251E+04  0.12699999809E+01 0. -1.
</event>
<event>
 5   0  0.1626636E-05  0.2321505E+04  0.7818609E-02  0.8469490E-01
       -2   -1    0    0    0  501  0.00000000000E+00  0.00000000000E+00  0.75304308502E+03  0.75304308503E+03  0.25500000920E-02 0.  1.
        2   -1    0    0  501    0  0.00000000000E+00  0.00000000000E+00 -0.17892025590E+04  0.17892025590E+04  0.25500000920E-02 0. -1.
    10030    2    1    2    0    0  0.00000000000E+00  0.00000000000E+00 -0.10361594740E+04  0.25422456440E+04  0.23215052141E+04 0.  0.
        4    1    3    3  502    0 -0.11585455577E+04 -0.25624612602E+02 -0.44494173144E+03  0.12413134928E+04  0.12699999809E+01 0. -1.
       -4    1    3    3    0  502  0.11585455577E+04  0.25624612602E+02 -0.59121774253E+03  0.13009321512E+04  0.12699999809E+01 0.  1.
</event>
<event>
 5   0  0.1635955E-05  0.2298437E+04  0.7818609E-02  0.8478538E-01
        2   -1    0    0  501    0  0.00000000000E+00  0.00000000000E+00  0.12216282448E+04  0.12216282448E+04  0.25500000920E-02 0.  1.
       -2   -1    0    0    0  501  0.00000000000E+00  0.00000000000E+00 -0.10811004543E+04  0.10811004543E+04  0.25500000920E-02 0. -1.
    10030    2    1    2    0    0  0.00000000000E+00  0.00000000000E+00  0.14052779046E+03  0.23027286992E+04  0.22984367300E+04 0.  0.
        2    1    3    3  502    0 -0.48134148676E+03  0.10078025731E+03  0.11108836698E+04  0.12148698757E+04  0.25500000920E-02 0.  1.
       -2    1    3    3    0  502  0.48134148676E+03 -0.10078025731E+03 -0.97035587933E+03  0.10878588234E+04  0.25500000920E-02 0. -1.
</event>
<event>
 5   0  0.1697855E-05  0.2335724E+04  0.7818609E-02  0.8463967E-01
       -2   -1    0    0    0  501  0.00000000000E+00  0.00000000000E+00  0.87448901876E+03  0.87448901876E+03  0.25500000920E-02 0. -1.
        2   -1    0    0  501    0  0.00000000000E+00  0.00000000000E+00 -0.15596560801E+04  0.15596560801E+04  0.25500000920E-02 0.  1.
    10030    2    1    2    0    0  0.00000000000E+00  0.00000000000E+00 -0.68516706135E+03  0.24341450989E+04  0.23357243974E+04 0.  0.
        5    1    3    3  502    0 -0.49272274757E+03  0.10374440974E+04 -0.12197005857E+03  0.11549739159E+04  0.46999998093E+01 0.  1.
       -5    1    3    3    0  502  0.49272274757E+03 -0.10374440974E+04 -0.56319700278E+03  0.12791711829E+04  0.46999998093E+01 0. -1.
</event>
<event>
 5   0  0.1602809E-05  0.2299338E+04  0.7818609E-02  0.8478182E-01
       -2   -1    0    0    0  501  0.00000000000E+00  0.00000000000E+00  0.97612849585E+03  0.97612849586E+03  0.25500000920E-02 0.  1.
        2   -1    0    0  501    0  0.00000000000E+00  0.00000000000E+00 -0.13540623759E+04  0.13540623759E+04  0.25500000920E-02 0. -1.
    10030    2    1    2    0    0  0.00000000000E+00  0.00000000000E+00 -0.37793388002E+03  0.23301908717E+04  0.22993380528E+04 0.  0.
        3    1    3    3  502    0  0.44220078921E+03 -0.49455516700E+03  0.76257413842E+03  0.10107648975E+04  0.10100000352E+00 0.  1.
       -3    1    3    3    0  502 -0.44220078921E+03  0.49455516700E+03 -0.11405080184E+04  0.13194259742E+04  0.10100000352E+00 0. -1.
</event>
<event>
 5   0  0.1588969E-05  0.2306908E+04  0.7818609E-02  0.8475202E-01
        2   -1    0    0  501    0  0.00000000000E+00  0.00000000000E+00  0.95079226992E+03  0.95079226992E+03  0.25500000920E-02 0. -1.
       -2   -1    0    0    0  501  0.00000000000E+00  0.00000000000E+00 -0.13993130956E+04  0.13993130956E+04  0.25500000920E-02 0.  1.
    10030    2    1    2    0    0  0.00000000000E+00  0.00000000000E+00 -0.44852082571E+03  0.23501053655E+04  0.23069079518E+04 0.  0.
        1    1    3    3  502    0 -0.44531636245E+03  0.61427339286E+03  0.66081052411E+03  0.10061356830E+04  0.50400001928E-02 0. -1.
       -1    1    3    3    0  502  0.44531636245E+03 -0.61427339286E+03 -0.11093313498E+04  0.13439696825E+04  0.50400001928E-02 0.  1.
</event>
<event>
 5   0  0.7183014E-06  0.2250901E+04  0.7818609E-02  0.8497536E-01
        1   -1    0    0  501    0  0.00000000000E+00  0.00000000000E+00  0.14806122678E+04  0.14806122678E+04  0.50400001928E-02 0.  1.
       -1   -1    0    0    0  501  0.00000000000E+00  0.00000000000E+00 -0.85548292610E+03  0.85548292612E+03  0.50400001928E-02 0. -1.
    10030    2    1    2    0    0  0.00000000000E+00  0.00000000000E+00  0.62512934165E+03  0.23360951939E+04  0.22509007222E+04 0.  0.
        3    1    3    3  502    0 -0.89540328477E+02 -0.76465642489E+03  0.11645632670E+04  0.13960388718E+04  0.10100000352E+00 0.  1.
       -3    1    3    3    0  502  0.89540328477E+02  0.76465642489E+03 -0.53943392539E+03  0.94005632204E+03  0.10100000352E+00 0. -1.
</event>
<event>
 5   0  0.7183014E-06  0.2314574E+04  0.7818609E-02  0.8472197E-01
       -1   -1    0    0    0  501  0.00000000000E+00  0.00000000000E+00  0.12062434969E+04  0.12062434970E+04  0.50400001928E-02 0.  1.
        1   -1    0    0  501    0  0.00000000000E+00  0.00000000000E+00 -0.11103170677E+04  0.11103170678E+04  0.50400001928E-02 0. -1.
    10030    2    1    2    0    0  0.00000000000E+00  0.00000000000E+00  0.95926429196E+02  0.23165605647E+04  0.23145736044E+04 0.  0.
        3    1    3    3  502    0  0.57004204764E+03  0.41132680721E+03 -0.87216002090E+03  0.11201789101E+04  0.10100000352E+00 0. -1.
       -3    1    3    3    0  502 -0.57004204764E+03 -0.41132680721E+03  0.96808645009E+03  0.11963816546E+04  0.10100000352E+00 0.  1.
</event>
<event>
 5   0  0.1602809E-05  0.2277319E+04  0.7818609E-02  0.8486918E-01
        2   -1    0    0  501    0  0.00000000000E+00  0.00000000000E+00  0.73695880663E+03  0.73695880663E+03  0.25500000920E-02 0.  1.
       -2   -1    0    0    0  501  0.00000000000E+00  0.00000000000E+00 -0.17593182781E+04  0.17593182781E+04  0.25500000920E-02 0. -1.
    10030    2    1    2    0    0  0.00000000000E+00  0.00000000000E+00 -0.10223594715E+04  0.24962770848E+04  0.22773186854E+04 0.  0.
        3    1    3    3  502    0  0.22350476696E+03 -0.10140208207E+04 -0.10233897295E+04  0.14579160313E+04  0.10100000352E+00 0. -1.
       -3    1    3    3    0  502 -0.22350476696E+03  0.10140208207E+04  0.10302580401E+01  0.10383610534E+04  0.10100000352E+00 0.  1.
</event>
<event>
 5   0  0.7416556E-06  0.2299354E+04  0.7818609E-02  0.8478176E-01
       -1   -1    0    0    0  501  0.00000000000E+00  0.00000000000E+00  0.14383784108E+04  0.14383784108E+04  0.50400001928E-02 0.  1.
        1   -1    0    0  501    0  0.00000000000E+00  0.00000000000E+00 -0.91892192564E+03  0.91892192565E+03  0.50400001928E-02 0. -1.
    10030    2    1    2    0    0  0.00000000000E+00  0.00000000000E+00  0.51945648511E+03  0.23573003364E+04  0.22993542215E+04 0.  0.
        4    1    3    3  502    0  0.93487718662E+03  0.63792678213E+03  0.46683385610E+03  0.12242881179E+04  0.12699999809E+01 0.  1.
       -4    1    3    3    0  502 -0.93487718662E+03 -0.63792678213E+03  0.52622629011E+02  0.11330122186E+04  0.12699999809E+01 0. -1.
</event>
<event>
 5   0  0.1588969E-05  0.2268471E+04  0.7818609E-02  0.8490457E-01
        2   -1    0    0  501    0  0.00000000000E+00  0.00000000000E+00  0.14020051570E+04  0.14020051570E+04  0.25500000920E-02 0.  1.
       -2   -1    0    0    0  501  0.00000000000E+00  0.00000000000E+00 -0.91760752545E+03  0.91760752545E+03  0.25500000920E-02 0. -1.
    10030    2    1    2    0    0  0.00000000000E+00  0.00000000000E+00  0.48439763157E+03  0.23196126825E+04  0.22684712763E+04 0.  0.
        1    1    3    3  502    0 -0.10592058139E+03  0.96125714115E+03  0.84822875420E+03  0.12863617222E+04  0.50400001928E-02 0. -1.
       -1    1    3    3    0  502  0.10592058139E+03 -0.96125714115E+03 -0.36383112263E+03  0.10332509602E+04  0.50400001928E-02 0.  1.
</event>
<event>
 5   0  0.1602809E-05  0.2297750E+04  0.7818609E-02  0.8478809E-01
       -2   -1    0    0    0  501  0.00000000000E+00  0.00000000000E+00  0.88258068520E+03  0.88258068520E+03  0.25500000920E-02 0.  1.
        2   -1    0    0  501    0  0.00000000000E+00  0.00000000000E+00 -0.14955165706E+04  0.14955165706E+04  0.25500000920E-02 0. -1.
    10030    2    1    2    0    0  0.00000000000E+00  0.00000000000E+00 -0.61293588538E+03  0.23780972558E+04  0.22977502385E+04 0.  0.
        3    1    3    3  502    0  0.20192854697E+03 -0.49351451580E+03 -0.13596879592E+04  0.14605078131E+04  0.10100000352E+00 0. -1.
       -3    1    3    3    0  502 -0.20192854697E+03  0.49351451580E+03  0.74675207384E+03  0.91758944271E+03  0.10100000352E+00 0.  1.
</event>
<event>
 5   0  0.7183014E-06  0.2298797E+04  0.7818609E-02  0.8478396E-01
        1   -1    0    0  501    0  0.00000000000E+00  0.00000000000E+00  0.11771240202E+04  0.11771240203E+04  0.50400001928E-02 0.  1.
       -1   -1    0    0    0  501  0.00000000000E+00  0.00000000000E+00 -0.11223260439E+04  0.11223260439E+04  0.50400001928E-02 0. -1.
    10030    2    1    2    0    0  0.00000000000E+00  0.00000000000E+00  0.54797976374E+02  0.22994500641E+04  0.22987970287E+04 0.  0.
        3    1    3    3  502    0  0.59432269098E+03 -0.58586517481E+03 -0.76317954919E+03  0.11308848299E+04  0.10100000352E+00 0. -1.
       -3    1    3    3    0  502 -0.59432269098E+03  0.58586517481E+03  0.81797752557E+03  0.11685652342E+04  0.10100000352E+00 0.  1.
</event>
<event>
 5   0  0.1602809E-05  0.2297710E+04  0.7818609E-02  0.8478824E-01
       -2   -1    0    0    0  501  0.00000000000E+00  0.00000000000E+00  0.11598800875E+04  0.11598800875E+04  0.25500000920E-02 0.  1.
        2   -1    0    0  501    0  0.00000000000E+00  0.00000000000E+00 -0.11379350863E+04  0.11379350863E+04  0.25500000920E-02 0. -1.
    10030    2    1    2    0    0  0.00000000000E+00  0.00000000000E+00  0.21945001173E+02  0.22978151739E+04  0.22977103800E+04 0.  0.
        3    1    3    3  502    0 -0.78220179957E+03  0.72470444786E+02  0.84932846473E+03  0.11569142024E+04  0.10100000352E+00 0.  1.
       -3    1    3    3    0  502  0.78220179957E+03 -0.72470444786E+02 -0.82738346356E+03  0.11409009714E+04  0.10100000352E+00 0. -1.
</event>
<event>
 5   0  0.1588969E-05  0.2283687E+04  0.7818609E-02  0.8484381E-01
       -2   -1    0    0    0  501  0.00000000000E+00  0.00000000000E+00  0.14957907944E+04  0.14957907944E+04  0.25500000920E-02 0. -1.
        2   -1    0    0  501    0  0.00000000000E+00  0.00000000000E+00 -0.87165038376E+03  0.87165038376E+03  0.25500000920E-02 0.  1.
    10030    2    1    2    0    0  0.00000000000E+00  0.00000000000E+00  0.62414041060E+03  0.23674411781E+04  0.22836870363E+04 0.  0.
        1    1    3    3  502    0  0.97004071530E+03  0.20829407844E+02 -0.31199931204E+03  0.10191940072E+04  0.50400001928E-02 0. -1.
       -1    1    3    3    0  502 -0.97004071530E+03 -0.20829407844E+02  0.93613972264E+03  0.13482471709E+04  0.50400001928E-02 0.  1.
</event>
<event>
 5   0  0.7202572E-06  0.2299394E+04  0.7818609E-02  0.8478160E-01
       -1   -1    0    0    0  501  0.00000000000E+00  0.00000000000E+00  0.12202410664E+04  0.12202410664E+04  0.50400001928E-02 0.  1.
        1   -1    0    0  501    0  0.00000000000E+00  0.00000000000E+00 -0.10832310122E+04  0.10832310122E+04  0.50400001928E-02 0. -1.
    10030    2    1    2    0    0  0.00000000000E+00  0.00000000000E+00  0.13701005423E+03  0.23034720786E+04  0.22993938032E+04 0.  0.
        2    1    3    3  502    0 -0.16638821127E+02  0.23941181198E+03  0.11948693345E+04  0.12187319609E+04  0.25500000920E-02 0.  1.
       -2    1    3    3    0  502  0.16638821127E+02 -0.23941181198E+03 -0.10578592803E+04  0.10847401177E+04  0.25500000920E-02 0. -1.
</event>
<event>
 5   0  0.1626636E-05  0.2312198E+04  0.7818609E-02  0.8473127E-01
       -2   -1    0    0    0  501  0.00000000000E+00  0.00000000000E+00  0.68083646272E+03  0.68083646272E+03  0.25500000920E-02 0. -1.
        2   -1    0    0  501    0  0.00000000000E+00  0.00000000000E+00 -0.19631222938E+04  0.19631222938E+04  0.25500000920E-02 0.  1.
    10030    2    1    2    0    0  0.00000000000E+00  0.00000000000E+00 -0.12822858311E+04  0.26439587565E+04  0.23121982946E+04 0.  0.
        4    1    3    3  502    0 -0.24913256909E+03  0.89523889836E+03  0.14532375868E+03  0.94055320416E+03  0.12699999809E+01 0. -1.
       -4    1    3    3    0  502  0.24913256909E+03 -0.89523889836E+03 -0.14276095897E+04  0.17034055523E+04  0.12699999809E+01 0.  1.
</event>
<event>
 5   0  0.1635955E-05  0.2298474E+04  0.7818609E-02  0.8478523E-01
        2   -1    0    0  501    0  0.00000000000E+00  0.00000000000E+00  0.12098385784E+04  0.12098385784E+04  0.25500000920E-02 0.  1.
       -2   -1    0    0    0  501  0.00000000000E+00  0.00000000000E+00 -0.10916706681E+04  0.10916706681E+04  0.25500000920E-02 0. -1.
    10030    2    1    2    0    0  0.00000000000E+00  0.00000000000E+00  0.11816791035E+03  0.23015092465E+04  0.22984736580E+04 0.  0.
        2    1    3    3  502    0 -0.11190518129E+04  0.24482229289E+03  0.15156595928E+03  0.11555029879E+04  0.25500000920E-02 0.  1.
       -2    1    3    3    0  502  0.11190518129E+04 -0.24482229289E+03 -0.33398048936E+02  0.11460062586E+04  0.25500000920E-02 0. -1.
</event>
<event>
 5   0  0.7183014E-06  0.2293902E+04  0.7818609E-02  0.8480330E-01
       -1   -1    0    0    0  501  0.00000000000E+00  0.00000000000E+00  0.11485630153E+04  0.11485630153E+04  0.50400001928E-02 0. -1.
        1   -1    0    0  501    0  0.00000000000E+00  0.00000000000E+00 -0.11453407930E+04  0.11453407930E+04  0.50400001928E-02 0.  1.
    10030    2    1    2    0    0  0.00000000000E+00  0.00000000000E+00  0.32222222935E+01  0.22939038083E+04  0.22939015452E+04 0.  0.
        3    1    3    3  502    0 -0.10709862931E+04 -0.39475827793E+03 -0.11086267052E+03  0.11467939134E+04  0.10100000352E+00 0.  1.
       -3    1    3    3    0  502  0.10709862931E+04  0.39475827793E+03  0.11408489282E+03  0.11471098949E+04  0.10100000352E+00 0. -1.
</event>
<event>
 5   0  0.7416556E-06  0.2300808E+04  0.7818609E-02  0.8477603E-01
       -1   -1    0    0    0  501  0.00000000000E+00  0.00000000000E+00  0.67418857599E+03  0.67418857601E+03  0.50400001928E-02 0.  1.
        1   -1    0    0  501    0  0.00000000000E+00  0.00000000000E+00 -0.19629954281E+04  0.19629954281E+04  0.50400001928E-02 0. -1.
    10030    2    1    2    0    0  0.00000000000E+00  0.00000000000E+00 -0.12888068521E+04  0.26371840041E+04  0.23008077646E+04 0.  0.
        4    1    3    3  502    0  0.23294002068E+03  0.10685415789E+04 -0.10534942992E+04  0.15185170432E+04  0.12699999809E+01 0.  1.
       -4    1    3    3    0  502 -0.23294002068E+03 -0.10685415789E+04 -0.23531255294E+03  0.11186669610E+04  0.12699999809E+01 0. -1.
</event>
<event>
 5   0  0.7278815E-06  0.2296407E+04  0.7818609E-02  0.8479339E-01
        1   -1    0    0  501    0  0.00000000000E+00  0.00000000000E+00  0.81123645980E+03  0.81123645981E+03  0.50400001928E-02 0.  1.
       -1   -1    0    0    0  501  0.00000000000E+00  0.00000000000E+00 -0.16251382316E+04  0.16251382316E+04  0.50400001928E-02 0. -1.
    10030    2    1    2    0    0  0.00000000000E+00  0.00000000000E+00 -0.81390177178E+03  0.24363746914E+04  0.22964070943E+04 0.  0.
        5    1    3    3  502    0  0.98381201727E+03 -0.17224831083E+03 -0.10078590924E+04  0.14189283301E+04  0.46999998093E+01 0. -1.
       -5    1    3    3    0  502 -0.98381201727E+03  0.17224831083E+03  0.19395732058E+03  0.10174463613E+04  0.46999998093E+01 0.  1.
</event>
<event>
 5   0  0.7416556E-06  0.2300793E+04  0.7818609E-02  0.8477609E-01
       -1   -1    0    0    0  501  0.00000000000E+00  0.00000000000E+00  0.86142210202E+03  0.86142210204E+03  0.50400001928E-02 0. -1.
        1   -1    0    0  501    0  0.00000000000E+00  0.00000000000E+00 -0.15363107129E+04  0.15363107129E+04  0.50400001928E-02 0.  1.
    10030    2    1    2    0    0  0.00000000000E+00  0.00000000000E+00 -0.67488861087E+03  0.23977328149E+04  0.23007929100E+04 0.  0.
        4    1    3    3  502    0 -0.15880458904E+03  0.88168909792E+03  0.41463795278E+03  0.98717820462E+03  0.12699999809E+01 0. -1.
       -4    1    3    3    0  502  0.15880458904E+03 -0.88168909792E+03 -0.10895265637E+04  0.14105546103E+04  0.12699999809E+01 0.  1.
</event>
<event>
 5   0  0.7391007E-06  0.2299672E+04  0.7818609E-02  0.8478050E-01
        1   -1    0    0  501    0  0.00000000000E+00  0.00000000000E+00  0.57593032085E+03  0.57593032087E+03  0.50400001928E-02 0. -1.
       -1   -1    0    0    0  501  0.00000000000E+00  0.00000000000E+00 -0.22956302204E+04  0.22956302204E+04  0.50400001928E-02 0.  1.
    10030    2    1    2    0    0  0.00000000000E+00  0.00000000000E+00 -0.17196998995E+04  0.28715605412E+04  0.22996721935E+04 0.  0.
        1    1    3    3  502    0  0.10410780439E+04 -0.20993172975E+03 -0.30956725901E+03  0.11062308586E+04  0.50400001928E-02 0. -1.
       -1    1    3    3    0  502 -0.10410780439E+04  0.20993172975E+03 -0.14101326405E+04  0.17653296827E+04  0.50400001928E-02 0.  1.
</event>
<event>
 5   0  0.1697855E-05  0.2305229E+04  0.7818609E-02  0.8475862E-01
        2   -1    0    0  501    0  0.00000000000E+00  0.00000000000E+00  0.44603891936E+03  0.44603891937E+03  0.25500000920E-02 0.  1.
       -2   -1    0    0    0  501  0.00000000000E+00  0.00000000000E+00 -0.29784856315E+04  0.29784856315E+04  0.25500000920E-02 0. -1.
    10030    2    1    2    0    0  0.00000000000E+00  0.00000000000E+00 -0.25324467121E+04  0.34245245508E+04  0.23052292835E+04 0.  0.
        5    1    3    3  502    0  0.62364672203E+03 -0.13073797847E+03 -0.26930212611E+04  0.27673838287E+04  0.46999998093E+01 0. -1.
       -5    1    3    3    0  502 -0.62364672203E+03  0.13073797847E+03  0.16057454894E+03  0.65714072213E+03  0.46999998093E+01 0.  1.
</event>
<event>
 5   0  0.7416556E-06  0.2300365E+04  0.7818609E-02  0.8477777E-01
       -1   -1    0    0    0  501  0.00000000000E+00  0.00000000000E+00  0.10204415144E+04  0.10204415144E+04  0.50400001928E-02 0.  1.
        1   -1    0    0  501    0  0.00000000000E+00  0.00000000000E+00 -0.12964193056E+04  0.12964193056E+04  0.50400001928E-02 0. -1.
    10030    2    1    2    0    0  0.00000000000E+00  0.00000000000E+00 -0.27597779120E+03  0.23168608200E+04  0.23003652575E+04 0.  0.
        4    1    3    3  502    0 -0.43960770327E+02  0.11406580924E+04  0.40365981607E+01  0.11415127420E+04  0.12699999809E+01 0.  1.
       -4    1    3    3    0  502  0.43960770327E+02 -0.11406580924E+04 -0.28001438936E+03  0.11753480779E+04  0.12699999809E+01 0. -1.
</event>
<event>
 5   0  0.5704875E-06  0.2299162E+04  0.7818609E-02  0.8478252E-01
        4   -1    0    0  501    0  0.00000000000E+00  0.00000000000E+00  0.90452804578E+03  0.90452893735E+03  0.12699999809E+01 0. -1.
       -4   -1    0    0    0  501  0.00000000000E+00  0.00000000000E+00 -0.14610212045E+04  0.14610217564E+04  0.12699999809E+01 0.  1.
    10030    2    1    2    0    0  0.00000000000E+00  0.00000000000E+00 -0.55649315868E+03  0.23655506938E+04  0.22991619015E+04 0.  0.
        2    1    3    3  502    0 -0.50639827579E+03 -0.41087101935E+03  0.69581200856E+03  0.95362915199E+03  0.25500000920E-02 0. -1.
       -2    1    3    3    0  502  0.50639827579E+03  0.41087101935E+03 -0.12523051672E+04  0.14119215418E+04  0.25500000920E-02 0.  1.
</event>
<event>
 5   0  0.1602809E-05  0.2291990E+04  0.7818609E-02  0.8481086E-01
        2   -1    0    0  501    0  0.00000000000E+00  0.00000000000E+00  0.96524003855E+03  0.96524003856E+03  0.25500000920E-02 0.  1.
       -2   -1    0    0    0  501  0.00000000000E+00  0.00000000000E+00 -0.13605984128E+04  0.13605984128E+04  0.25500000920E-02 0. -1.
    10030    2    1    2    0    0  0.00000000000E+00  0.00000000000E+00 -0.39535837425E+03  0.23258384514E+04  0.22919895850E+04 0.  0.
        3    1    3    3  502    0  0.35179526270E+03 -0.90258271299E+01  0.90905242936E+03  0.97479110682E+03  0.10100000352E+00 0.  1.
       -3    1    3    3    0  502 -0.35179526270E+03  0.90258271299E+01 -0.13044108036E+04  0.13510473445E+04  0.10100000352E+00 0. -1.
</event>
<event>
 5   0  0.1602809E-05  0.2300436E+04  0.7818609E-02  0.8477749E-01
       -2   -1    0    0    0  501  0.00000000000E+00  0.00000000000E+00  0.65987816414E+03  0.65987816414E+03  0.25500000920E-02 0. -1.
        2   -1    0    0  501    0  0.00000000000E+00  0.00000000000E+00 -0.20049174942E+04  0.20049174942E+04  0.25500000920E-02 0.  1.
    10030    2    1    2    0    0  0.00000000000E+00  0.00000000000E+00 -0.13450393301E+04  0.26647956584E+04  0.23004358503E+04 0.  0.
        3    1    3    3  502    0 -0.39698467770E+03  0.30254292267E+03 -0.18729309984E+04  0.19382981167E+04  0.10100000352E+00 0.  1.
       -3    1    3    3    0  502  0.39698467770E+03 -0.30254292267E+03  0.52789166829E+03  0.72649754166E+03  0.10100000352E+00 0. -1.
</event>
<event>
 5   0  0.7278815E-06  0.2297715E+04  0.7818609E-02  0.8478822E-01
        1   -1    0    0  501    0  0.00000000000E+00  0.00000000000E+00  0.81709291174E+03  0.81709291176E+03  0.50400001928E-02 0. -1.
       -1   -1    0    0    0  501  0.00000000000E+00  0.00000000000E+00 -0.16153290109E+04  0.16153290109E+04  0.50400001928E-02 0.  1.
    10030    2    1    2    0    0  0.00000000000E+00  0.00000000000E+00 -0.79823609916E+03  0.24324219227E+04  0.22977152869E+04 0.  0.
        5    1    3    3  502    0  0.50700258374E+03  0.81005167830E+03 -0.10741668492E+04  0.14377384503E+04  0.46999998093E+01 0.  1.
       -5    1    3    3    0  502 -0.50700258374E+03 -0.81005167830E+03  0.27593075006E+03  0.99468347240E+03  0.46999998093E+01 0. -1.
</event>
<event>
 5   0  0.1697855E-05  0.2295834E+04  0.7818609E-02  0.8479566E-01
        2   -1    0    0  501    0  0.00000000000E+00  0.00000000000E+00  0.11591082969E+04  0.11591082969E+04  0.25500000920E-02 0.  1.
       -2   -1    0    0    0  501  0.00000000000E+00  0.00000000000E+00 -0.11368333269E+04  0.11368333269E+04  0.25500000920E-02 0. -1.
    10030    2    1    2    0    0  0.00000000000E+00  0.00000000000E+00  0.22274969950E+02  0.22959416238E+04  0.22958335667E+04 0.  0.
        5    1    3    3  502    0  0.90844424889E+03 -0.51306383571E+03 -0.46761816572E+03  0.11433259779E+04  0.46999998093E+01 0. -1.
       -5    1    3    3    0  502 -0.90844424889E+03  0.51306383571E+03  0.48989313567E+03  0.11526156459E+04  0.46999998093E+01 0.  1.
</event>
<event>
 5   0  0.1602809E-05  0.2295675E+04  0.7818609E-02  0.8479628E-01
        2   -1    0    0  501    0  0.00000000000E+00  0.00000000000E+00  0.66157107204E+03  0.66157107205E+03  0.25500000920E-02 0. -1.
       -2   -1    0    0    0  501  0.00000000000E+00  0.00000000000E+00 -0.19915188967E+04  0.19915188967E+04  0.25500000920E-02 0.  1.
    10030    2    1    2    0    0  0.00000000000E+00  0.00000000000E+00 -0.13299478247E+04  0.26530899687E+04  0.22956753181E+04 0.  0.
        3    1    3    3  502    0 -0.71952541305E+03 -0.73038215436E+03 -0.12614225573E+04  0.16255343090E+04  0.10100000352E+00 0. -1.
       -3    1    3    3    0  502  0.71952541305E+03  0.73038215436E+03 -0.68525267343E+02  0.10275556598E+04  0.10100000352E+00 0.  1.
</event>
<event>
 5   0  0.7183014E-06  0.2305375E+04  0.7818609E-02  0.8475805E-01
       -1   -1    0    0    0  501  0.00000000000E+00  0.00000000000E+00  0.92826331821E+03  0.92826331823E+03  0.50400001928E-02 0. -1.
        1   -1    0    0  501    0  0.00000000000E+00  0.00000000000E+00 -0.14313699183E+04  0.14313699183E+04  0.50400001928E-02 0.  1.
    10030    2    1    2    0    0  0.00000000000E+00  0.00000000000E+00 -0.50310660008E+03  0.23596332365E+04  0.23053747548E+04 0.  0.
        3    1    3    3  502    0 -0.56419027378E+03 -0.84881216008E+03  0.29953813008E+03  0.10623162663E+04  0.10100000352E+00 0. -1.
       -3    1    3    3    0  502  0.56419027378E+03  0.84881216008E+03 -0.80264473017E+03  0.12973169702E+04  0.10100000352E+00 0.  1.
</event>
<event>
 5   0  0.7183014E-06  0.2295889E+04  0.7818609E-02  0.8479544E-01
       -1   -1    0    0    0  501  0.00000000000E+00  0.00000000000E+00  0.14952586541E+04  0.14952586541E+04  0.50400001928E-02 0. -1.
        1   -1    0    0  501    0  0.00000000000E+00  0.00000000000E+00 -0.88130308017E+03  0.88130308018E+03  0.50400001928E-02 0.  1.
    10030    2    1    2    0    0  0.00000000000E+00  0.00000000000E+00  0.61395557391E+03  0.23765617343E+04  0.22958885491E+04 0.  0.
        3    1    3    3  502    0 -0.76464943743E+03 -0.76153825927E+03 -0.98112855920E+02  0.10836306683E+04  0.10100000352E+00 0. -1.
       -3    1    3    3    0  502  0.76464943743E+03  0.76153825927E+03  0.71206842983E+03  0.12929310660E+04  0.10100000352E+00 0.  1.
</event>
<event>
 5   0  0.7416556E-06  0.2297417E+04  0.7818609E-02  0.8478940E-01
       -1   -1    0    0    0  501  0.00000000000E+00  0.00000000000E+00  0.10221493939E+04  0.10221493939E+04  0.50400001928E-02 0. -1.
        1   -1    0    0  501    0  0.00000000000E+00  0.00000000000E+00 -0.12909377913E+04  0.12909377914E+04  0.50400001928E-02 0.  1.
    10030    2    1    2    0    0  0.00000000000E+00  0.00000000000E+00 -0.26878839749E+03  0.23130871852E+04  0.22974170548E+04 0.  0.
        4    1    3    3  502    0  0.87743426177E+03  0.57905838224E+02 -0.87854692517E+03  0.12430166059E+04  0.12699999809E+01 0.  1.
       -4    1    3    3    0  502 -0.87743426177E+03 -0.57905838224E+02  0.60975852768E+03  0.10700705794E+04  0.12699999809E+01 0. -1.
</event>
<event>
 5   0  0.1588969E-05  0.2290466E+04  0.7818609E-02  0.8481690E-01
        2   -1    0    0  501    0  0.00000000000E+00  0.00000000000E+00  0.20864904115E+04  0.20864904115E+04  0.25500000920E-02 0.  1.
       -2   -1    0    0    0  501  0.00000000000E+00  0.00000000000E+00 -0.62859550804E+03  0.62859550804E+03  0.25500000920E-02 0. -1.
    10030    2    1    2    0    0  0.00000000000E+00  0.00000000000E+00  0.14578949035E+04  0.27150859195E+04  0.22904658917E+04 0.  0.
        1    1    3    3  502    0  0.57374575287E+03 -0.79159516436E+03  0.21925233378E+02  0.97789969274E+03  0.50400001928E-02 0. -1.
       -1    1    3    3    0  502 -0.57374575287E+03  0.79159516436E+03  0.14359696701E+04  0.17371862268E+04  0.50400001928E-02 0.  1.
</event>
<event>
 5   0  0.1697855E-05  0.2298603E+04  0.7818609E-02  0.8478472E-01
        2   -1    0    0  501    0  0.00000000000E+00  0.00000000000E+00  0.14194704648E+04  0.14194704648E+04  0.25500000920E-02 0. -1.
       -2   -1    0    0    0  501  0.00000000000E+00  0.00000000000E+00 -0.93055406931E+03  0.93055406932E+03  0.25500000920E-02 0.  1.
    10030    2    1    2    0    0  0.00000000000E+00  0.00000000000E+00  0.48891639544E+03  0.23500245341E+04  0.22986030690E+04 0.  0.
        5    1    3    3  502    0 -0.45970742006E+03  0.66577018008E+03  0.10789852404E+04  0.13486334134E+04  0.46999998093E+01 0. -1.
       -5    1    3    3    0  502  0.45970742006E+03 -0.66577018008E+03 -0.59006884497E+03  0.10013911207E+04  0.46999998093E+01 0.  1.
</event>
<event>
 5   0  0.1635955E-05  0.2293701E+04  0.7818609E-02  0.8480409E-01
       -2   -1    0    0    0  501  0.00000000000E+00  0.00000000000E+00  0.17976160450E+04  0.17976160450E+04  0.25500000920E-02 0. -1.
        2   -1    0    0  501    0  0.00000000000E+00  0.00000000000E+00 -0.73167238362E+03  0.73167238362E+03  0.25500000920E-02 0.  1.
    10030    2    1    2    0    0  0.00000000000E+00  0.00000000000E+00  0.10659436613E+04  0.25292884286E+04  0.22937009539E+04 0.  0.
        2    1    3    3  502    0  0.59129620483E+03  0.27918255818E+03  0.15719171572E+04  0.17024974748E+04  0.25500000920E-02 0. -1.
       -2    1    3    3    0  502 -0.59129620483E+03 -0.27918255818E+03 -0.50597349589E+03  0.82679095374E+03  0.25500000920E-02 0.  1.
</event>
<event>
 5   0  0.1602809E-05  0.2301145E+04  0.7818609E-02  0.8477470E-01
        2   -1    0    0  501    0  0.00000000000E+00  0.00000000000E+00  0.42015657645E+03  0.42015657646E+03  0.25500000920E-02 0. -1.
       -2   -1    0    0    0  501  0.00000000000E+00  0.00000000000E+00 -0.31507718241E+04  0.31507718241E+04  0.25500000920E-02 0.  1.
    10030    2    1    2    0    0  0.00000000000E+00  0.00000000000E+00 -0.27306152476E+04  0.35709284006E+04  0.23011453694E+04 0.  0.
        3    1    3    3  502    0  0.50641492680E+03 -0.20108149936E+03  0.20725159889E+03  0.58296061867E+03  0.10100000352E+00 0. -1.
       -3    1    3    3    0  502 -0.50641492680E+03  0.20108149936E+03 -0.29378668465E+04  0.29879677819E+04  0.10100000352E+00 0.  1.
</event>
<event>
 5   0  0.7202572E-06  0.2172341E+04  0.7818609E-02  0.8530029E-01
       -1   -1    0    0    0  501  0.00000000000E+00  0.00000000000E+00  0.61991764309E+03  0.61991764311E+03  0.50400001928E-02 0.  1.
        1   -1    0    0  501    0  0.00000000000E+00  0.00000000000E+00 -0.19031025997E+04  0.19031025997E+04  0.50400001928E-02 0. -1.
    10030    2    1    2    0    0  0.00000000000E+00  0.00000000000E+00 -0.12831849567E+04  0.25230202429E+04  0.21723414816E+04 0.  0.
        2    1    3    3  502    0  0.18789884208E+03 -0.76580957079E+01 -0.18840512672E+04  0.18934132667E+04  0.25500000920E-02 0. -1.
       -2    1    3    3    0  502 -0.18789884208E+03  0.76580957079E+01  0.60086631051E+03  0.62960697613E+03  0.25500000920E-02 0.  1.
</event>
<event>
 5   0  0.7391007E-06  0.2249856E+04  0.7818609E-02  0.8497959E-01
        1   -1    0    0  501    0  0.00000000000E+00  0.00000000000E+00  0.22827397624E+04  0.22827397624E+04  0.50400001928E-02 0.  1.
       -1   -1    0    0    0  501  0.00000000000E+00  0.00000000000E+00 -0.55436136565E+03  0.55436136567E+03  0.50400001928E-02 0. -1.
    10030    2    1    2    0    0  0.00000000000E+00  0.00000000000E+00  0.17283783968E+04  0.28371011281E+04  0.22498557573E+04 0.  0.
        1    1    3    3  502    0  0.12533857215E+02 -0.61251775258E+03  0.20539133657E+04  0.21433373997E+04  0.50400001928E-02 0.  1.
       -1    1    3    3    0  502 -0.12533857215E+02  0.61251775258E+03 -0.32553496899E+03  0.69376372841E+03  0.50400001928E-02 0. -1.
</event>
<event>
 5   0  0.1602809E-05  0.2271565E+04  0.7818609E-02  0.8489218E-01
       -2   -1    0    0    0  501  0.00000000000E+00  0.00000000000E+00  0.12564257046E+04  0.12564257046E+04  0.25500000920E-02 0.  1.
        2   -1    0    0  501    0  0.00000000000E+00  0.00000000000E+00 -0.10267236586E+04  0.10267236586E+04  0.25500000920E-02 0. -1.
    10030    2    1    2    0    0  0.00000000000E+00  0.00000000000E+00  0.22970204594E+03  0.22831493632E+04  0.22715650959E+04 0.  0.
        3    1    3    3  502    0  0.10536590153E+04  0.16986461556E+03 -0.27565404181E+03  0.11022869268E+04  0.10100000352E+00 0. -1.
       -3    1    3    3    0  502 -0.10536590153E+04 -0.16986461556E+03  0.50535608775E+03  0.11808624364E+04  0.10100000352E+00 0.  1.
</event>
<event>
 5   0  0.1697855E-05  0.2302286E+04  0.7818609E-02  0.8477020E-01
       -2   -1    0    0    0  501  0.00000000000E+00  0.00000000000E+00  0.70730597154E+03  0.70730597154E+03  0.25500000920E-02 0. -1.
        2   -1    0    0  501    0  0.00000000000E+00  0.00000000000E+00 -0.18734896768E+04  0.18734896768E+04  0.25500000920E-02 0.  1.
    10030    2    1    2    0    0  0.00000000000E+00  0.00000000000E+00 -0.11661837053E+04  0.25807956483E+04  0.23022861994E+04 0.  0.
        5    1    3    3  502    0 -0.10777132717E+04 -0.36391160389E+03 -0.78112902640E+03  0.13798848493E+04  0.46999998093E+01 0. -1.
       -5    1    3    3    0  502  0.10777132717E+04  0.36391160389E+03 -0.38505467887E+03  0.12009107990E+04  0.46999998093E+01 0.  1.
</event>
<event>
 5   0  0.7183014E-06  0.2300578E+04  0.7818609E-02  0.8477693E-01
       -1   -1    0    0    0  501  0.00000000000E+00  0.00000000000E+00  0.78883731512E+03  0.78883731513E+03  0.50400001928E-02 0. -1.
        1   -1    0    0  501    0  0.00000000000E+00  0.00000000000E+00 -0.16773606046E+04  0.16773606046E+04  0.50400001928E-02 0.  1.
    10030    2    1    2    0    0  0.00000000000E+00  0.00000000000E+00 -0.88852328946E+03  0.24661979197E+04  0.23005778716E+04 0.  0.
        3    1    3    3  502    0  0.94414541038E+03 -0.19604830624E+03 -0.11165622846E+04  0.14753158441E+04  0.10100000352E+00 0.  1.
       -3    1    3    3    0  502 -0.94414541038E+03  0.19604830624E+03  0.22803899510E+03  0.99088207563E+03  0.10100000352E+00 0. -1.
</event>
<event>
 5   0  0.7202572E-06  0.2314530E+04  0.7818609E-02  0.8472214E-01
       -1   -1    0    0    0  501  0.00000000000E+00  0.00000000000E+00  0.12825875178E+04  0.12825875178E+04  0.50400001928E-02 0.  1.
        1   -1    0    0  501    0  0.00000000000E+00  0.00000000000E+00 -0.10441878533E+04  0.10441878533E+04  0.50400001928E-02 0. -1.
    10030    2    1    2    0    0  0.00000000000E+00  0.00000000000E+00  0.23839966455E+03  0.23267753711E+04  0.23145300230E+04 0.  0.
        2    1    3    3  502    0 -0.11400560292E+03 -0.63389192094E+03  0.10857678656E+04  0.12624215234E+04  0.25500000920E-02 0.  1.
       -2    1    3    3    0  502  0.11400560292E+03  0.63389192094E+03 -0.84736820102E+03  0.10643538477E+04  0.25500000920E-02 0. -1.
</event>
<event>
 5   0  0.7202572E-06  0.2298929E+04  0.7818609E-02  0.8478343E-01
       -1   -1    0    0    0  501  0.00000000000E+00  0.00000000000E+00  0.54341659361E+03  0.54341659363E+03  0.50400001928E-02 0. -1.
        1   -1    0    0  501    0  0.00000000000E+00  0.00000000000E+00 -0.24314107078E+04  0.24314107078E+04  0.50400001928E-02 0.  1.
    10030    2    1    2    0    0  0.00000000000E+00  0.00000000000E+00 -0.18879941142E+04  0.29748273014E+04  0.22989292503E+04 0.  0.
        2    1    3    3  502    0  0.42438454510E+03  0.73990944425E+03  0.53059816484E+02  0.85462481355E+03  0.25500000920E-02 0. -1.
       -2    1    3    3    0  502 -0.42438454510E+03 -0.73990944425E+03 -0.19410539306E+04  0.21202024878E+04  0.25500000920E-02 0.  1.
</event>
<event>
 5   0  0.1626636E-05  0.2299879E+04  0.7818609E-02  0.8477969E-01
        2   -1    0    0  501    0  0.00000000000E+00  0.00000000000E+00  0.20291237087E+04  0.20291237087E+04  0.25500000920E-02 0.  1.
       -2   -1    0    0    0  501  0.00000000000E+00  0.00000000000E+00 -0.65169034938E+03  0.65169034938E+03  0.25500000920E-02 0. -1.
    10030    2    1    2    0    0  0.00000000000E+00  0.00000000000E+00  0.13774333593E+04  0.26808140581E+04  0.22998785521E+04 0.  0.
        4    1    3    3  502    0 -0.97952193452E+03 -0.28278935955E+03  0.68707704855E+02  0.10218392259E+04  0.12699999809E+01 0. -1.
       -4    1    3    3    0  502  0.97952193452E+03  0.28278935955E+03  0.13087256544E+04  0.16589748321E+04  0.12699999809E+01 0.  1.
</event>
<event>
 5   0  0.7278815E-06  0.2304383E+04  0.7818609E-02  0.8476195E-01
        1   -1    0    0  501    0  0.00000000000E+00  0.00000000000E+00  0.10248319570E+04  0.10248319570E+04  0.50400001928E-02 0.  1.
       -1   -1    0    0    0  501  0.00000000000E+00  0.00000000000E+00 -0.12953786702E+04  0.12953786702E+04  0.50400001928E-02 0. -1.
    10030    2    1    2    0    0  0.00000000000E+00  0.00000000000E+00 -0.27054671319E+03  0.23202106272E+04  0.23043831779E+04 0.  0.
        5    1    3    3  502    0 -0.10636811178E+04  0.33914314626E+03 -0.42198834962E+03  0.11935375366E+04  0.46999998093E+01 0.  1.
       -5    1    3    3    0  502  0.10636811178E+04 -0.33914314626E+03  0.15144163643E+03  0.11266730907E+04  0.46999998093E+01 0. -1.
</event>
<event>
 5   0  0.1697855E-05  0.2296401E+04  0.7818609E-02  0.8479341E-01
        2   -1    0    0  501    0  0.00000000000E+00  0.00000000000E+00  0.18240272444E+04  0.18240272444E+04  0.25500000920E-02 0. -1.
       -2   -1    0    0    0  501  0.00000000000E+00  0.00000000000E+00 -0.72277681348E+03  0.72277681348E+03  0.25500000920E-02 0.  1.
    10030    2    1    2    0    0  0.00000000000E+00  0.00000000000E+00  0.11012504309E+04  0.25468040578E+04  0.22964011839E+04 0.  0.
        5    1    3    3  502    0  0.11360026279E+04 -0.72354187340E+02  0.38387977454E+03  0.12013004913E+04  0.46999998093E+01 0. -1.
       -5    1    3    3    0  502 -0.11360026279E+04  0.72354187340E+02  0.71737065634E+03  0.13455035666E+04  0.46999998093E+01 0.  1.
</event>
<event>
 5   0  0.7202572E-06  0.2324083E+04  0.7818609E-02  0.8468485E-01
        1   -1    0    0  501    0  0.00000000000E+00  0.00000000000E+00  0.15103738981E+04  0.15103738981E+04  0.50400001928E-02 0.  1.
       -1   -1    0    0    0  501  0.00000000000E+00  0.00000000000E+00 -0.89404414335E+03  0.89404414336E+03  0.50400001928E-02 0. -1.
    10030    2    1    2    0    0  0.00000000000E+00  0.00000000000E+00  0.61632975473E+03  0.24044180414E+04  0.23240834218E+04 0.  0.
        2    1    3    3  502    0 -0.10544255842E+04 -0.16122497685E+03  0.78511460834E+03  0.13244665923E+04  0.25500000920E-02 0.  1.
       -2    1    3    3    0  502  0.10544255842E+04  0.16122497685E+03 -0.16878485361E+03  0.10799514492E+04  0.25500000920E-02 0. -1.
</event>
<event>
 5   0  0.1588969E-05  0.2302229E+04  0.7818609E-02  0.8477043E-01
       -2   -1    0    0    0  501  0.00000000000E+00  0.00000000000E+00  0.72199498092E+03  0.72199498092E+03  0.25500000920E-02 0. -1.
        2   -1    0    0  501    0  0.00000000000E+00  0.00000000000E+00 -0.18352827709E+04  0.18352827709E+04  0.25500000920E-02 0.  1.
    10030    2    1    2    0    0  0.00000000000E+00  0.00000000000E+00 -0.11132877899E+04  0.25572777518E+04  0.23022293102E+04 0.  0.
        1    1    3    3  502    0 -0.11261052758E+04  0.15397148421E+03 -0.75917425343E+03  0.13668086396E+04  0.50400001928E-02 0. -1.
       -1    1    3    3    0  502  0.11261052758E+04 -0.15397148421E+03 -0.35411353650E+03  0.11904691122E+04  0.50400001928E-02 0.  1.
</event>
<event>
 5   0  0.7278815E-06  0.2260254E+04  0.7818609E-02  0.8493759E-01
       -1   -1    0    0    0  501  0.00000000000E+00  0.00000000000E+00  0.11498379775E+04  0.11498379775E+04  0.50400001928E-02 0. -1.
        1   -1    0    0  501    0  0.00000000000E+00  0.00000000000E+00 -0.11107537283E+04  0.11107537283E+04  0.50400001928E-02 0.  1.
    10030    2    1    2    0    0  0.00000000000E+00  0.00000000000E+00  0.39084249156E+02  0.22605917058E+04  0.22602538092E+04 0.  0.
        5    1    3    3  502    0  0.30756613483E+03  0.10807127157E+04  0.14050576828E+03  0.11323872404E+04  0.46999998093E+01 0.  1.
       -5    1    3    3    0  502 -0.30756613483E+03 -0.10807127157E+04 -0.10142151912E+03  0.11282044654E+04  0.46999998093E+01 0. -1.
</event>
<event>
 5   0  0.7202572E-06  0.2302663E+04  0.7818609E-02  0.8476872E-01
        1   -1    0    0  501    0  0.00000000000E+00  0.00000000000E+00  0.17489828797E+04  0.17489828797E+04  0.50400001928E-02 0. -1.
       -1   -1    0    0    0  501  0.00000000000E+00  0.00000000000E+00 -0.75790591899E+03  0.75790591900E+03  0.50400001928E-02 0.  1.
    10030    2    1    2    0    0  0.00000000000E+00  0.00000000000E+00  0.99107696073E+03  0.25068887987E+04  0.23026632205E+04 0.  0.
        2    1    3    3  502    0  0.90984791433E+03 -0.36592229204E+03  0.11522295885E+04  0.15130615902E+04  0.25500000920E-02 0. -1.
       -2    1    3    3    0  502 -0.90984791433E+03  0.36592229204E+03 -0.16115262778E+03  0.99382720856E+03  0.25500000920E-02 0.  1.
</event>
<event>
 5   0  0.1635955E-05  0.2318444E+04  0.7818609E-02  0.8470684E-01
        2   -1    0    0  501    0  0.00000000000E+00  0.00000000000E+00  0.14121695157E+04  0.14121695157E+04  0.25500000920E-02 0.  1.
       -2   -1    0    0    0  501  0.00000000000E+00  0.00000000000E+00 -0.95158257795E+03  0.95158257795E+03  0.25500000920E-02 0. -1.
    10030    2    1    2    0    0  0.00000000000E+00  0.00000000000E+00  0.46058693779E+03  0.23637520937E+04  0.23184442269E+04 0.  0.
        2    1    3    3  502    0  0.52238080824E+02  0.32173468530E+03 -0.90390049675E+03  0.96087363001E+03  0.25500000920E-02 0. -1.
       -2    1    3    3    0  502 -0.52238080824E+02 -0.32173468530E+03  0.13644874345E+04  0.14028784637E+04  0.25500000920E-02 0.  1.
</event>
<event>
 5   0  0.1635955E-05  0.2292748E+04  0.7818609E-02  0.8480786E-01
        2   -1    0    0  501    0  0.00000000000E+00  0.00000000000E+00  0.42195588619E+03  0.42195588619E+03  0.25500000920E-02 0.  1.
       -2   -1    0    0    0  501  0.00000000000E+00  0.00000000000E+00 -0.31144815976E+04  0.31144815976E+04  0.25500000920E-02 0. -1.
    10030    2    1    2    0    0  0.00000000000E+00  0.00000000000E+00 -0.26925257114E+04  0.35364374838E+04  0.22927484315E+04 0.  0.
        2    1    3    3  502    0  0.33793654270E+03  0.27965924312E+03 -0.29799173865E+04  0.30120288893E+04  0.25500000920E-02 0. -1.
       -2    1    3    3    0  502 -0.33793654270E+03 -0.27965924312E+03  0.28739167508E+03  0.52440859458E+03  0.25500000920E-02 0.  1.
</event>
<event>
 5   0  0.1626636E-05  0.2308970E+04  0.7818609E-02  0.8474393E-01
        2   -1    0    0  501    0  0.00000000000E+00  0.00000000000E+00  0.12412308405E+04  0.12412308405E+04  0.25500000920E-02 0.  1.
       -2   -1    0    0    0  501  0.00000000000E+00  0.00000000000E+00 -0.10738013138E+04  0.10738013138E+04  0.25500000920E-02 0. -1.
    10030    2    1    2    0    0  0.00000000000E+00  0.00000000000E+00  0.16742952677E+03  0.23150321543E+04  0.23089697333E+04 0.  0.
        4    1    3    3  502    0 -0.39252413139E+03 -0.10570222871E+04 -0.16485224925E+03  0.11395390235E+04  0.12699999809E+01 0. -1.
       -4    1    3    3    0  502  0.39252413139E+03  0.10570222871E+04  0.33228177602E+03  0.11754931308E+04  0.12699999809E+01 0.  1.
</event>
<event>
 5   0  0.1635955E-05  0.2171844E+04  0.7818609E-02  0.8530239E-01
        2   -1    0    0  501    0  0.00000000000E+00  0.00000000000E+00  0.10560186079E+04  0.10560186079E+04  0.25500000920E-02 0.  1.
       -2   -1    0    0    0  501  0.00000000000E+00  0.00000000000E+00 -0.11166723284E+04  0.11166723284E+04  0.25500000920E-02 0. -1.
    10030    2    1    2    0    0  0.00000000000E+00  0.00000000000E+00 -0.60653720433E+02  0.21726909363E+04  0.21718441544E+04 0.  0.
        2    1    3    3  502    0 -0.10237565570E+04  0.34975573054E+03  0.63625669547E+02  0.10837226513E+04  0.25500000920E-02 0.  1.
       -2    1    3    3    0  502  0.10237565570E+04 -0.34975573054E+03 -0.12427938998E+03  0.10889682850E+04  0.25500000920E-02 0. -1.
</event>
<event>
 5   0  0.1635955E-05  0.2304049E+04  0.7818609E-02  0.8476327E-01
        2   -1    0    0  501    0  0.00000000000E+00  0.00000000000E+00  0.15990540779E+04  0.15990540779E+04  0.25500000920E-02 0. -1.
       -2   -1    0    0    0  501  0.00000000000E+00  0.00000000000E+00 -0.82996566355E+03  0.82996566355E+03  0.25500000920E-02 0.  1.
    10030    2    1    2    0    0  0.00000000000E+00  0.00000000000E+00  0.76908841431E+03  0.24290197414E+04  0.23040485922E+04 0.  0.
        2    1    3    3  502    0 -0.49704797237E+03 -0.71961856928E+03  0.11750500275E+04  0.14648037887E+04  0.25500000920E-02 0. -1.
       -2    1    3    3    0  502  0.49704797237E+03  0.71961856928E+03 -0.40596161323E+03  0.96421595274E+03  0.25500000920E-02 0.  1.
</event>
<event>
 5   0  0.1602809E-05  0.2317304E+04  0.7818609E-02  0.8471129E-01
        2   -1    0    0  501    0  0.00000000000E+00  0.00000000000E+00  0.31207724965E+04  0.31207724965E+04  0.25500000920E-02 0.  1.
       -2   -1    0    0    0  501  0.00000000000E+00  0.00000000000E+00 -0.43017382454E+03  0.43017382454E+03  0.25500000920E-02 0. -1.
    10030    2    1    2    0    0  0.00000000000E+00  0.00000000000E+00  0.26905986720E+04  0.35509463210E+04  0.23173041581E+04 0.  0.
        3    1    3    3  502    0 -0.59378337696E+03  0.23495244407E+03 -0.13618009661E+03  0.65293673403E+03  0.10100000352E+00 0. -1.
       -3    1    3    3    0  502  0.59378337696E+03 -0.23495244407E+03  0.28267787686E+04  0.28980095870E+04  0.10100000352E+00 0.  1.
</event>
<event>
 5   0  0.7416556E-06  0.2309395E+04  0.7818609E-02  0.8474226E-01
       -1   -1    0    0    0  501  0.00000000000E+00  0.00000000000E+00  0.10669244358E+04  0.10669244358E+04  0.50400001928E-02 0. -1.
        1   -1    0    0  501    0  0.00000000000E+00  0.00000000000E+00 -0.12496909530E+04  0.12496909531E+04  0.50400001928E-02 0.  1.
    10030    2    1    2    0    0  0.00000000000E+00  0.00000000000E+00 -0.18276651721E+03  0.23166153889E+04  0.23093945657E+04 0.  0.
        4    1    3    3  502    0  0.57468529037E+03  0.21790663245E+03  0.88920977774E+03  0.10809450149E+04  0.12699999809E+01 0. -1.
       -4    1    3    3    0  502 -0.57468529037E+03 -0.21790663245E+03 -0.10719762949E+04  0.12356703740E+04  0.12699999809E+01 0.  1.
</event>
<event>
 5   0  0.7391007E-06  0.2292389E+04  0.7818609E-02  0.8480928E-01
        1   -1    0    0  501    0  0.00000000000E+00  0.00000000000E+00  0.13567969330E+04  0.13567969330E+04  0.50400001928E-02 0.  1.
       -1   -1    0    0    0  501  0.00000000000E+00  0.00000000000E+00 -0.96828195685E+03  0.96828195686E+03  0.50400001928E-02 0. -1.
    10030    2    1    2    0    0  0.00000000000E+00  0.00000000000E+00  0.38851497619E+03  0.23250788899E+04  0.22923891375E+04 0.  0.
        1    1    3    3  502    0  0.57451563348E+03 -0.25573686695E+03 -0.77768340212E+03  0.10001305076E+04  0.50400001928E-02 0. -1.
       -1    1    3    3    0  502 -0.57451563348E+03  0.25573686695E+03  0.11661983783E+04  0.13249483823E+04  0.50400001928E-02 0.  1.
</event>
<event>
 5   0  0.7183014E-06  0.2305242E+04  0.7818609E-02  0.8475857E-01
        1   -1    0    0  501    0  0.00000000000E+00  0.00000000000E+00  0.16100278774E+04  0.16100278774E+04  0.50400001928E-02 0.  1.
       -1   -1    0    0    0  501  0.00000000000E+00  0.00000000000E+00 -0.82516292276E+03  0.82516292278E+03  0.50400001928E-02 0. -1.
    10030    2    1    2    0    0  0.00000000000E+00  0.00000000000E+00  0.78486495465E+03  0.24351908002E+04  0.23052421210E+04 0.  0.
        3    1    3    3  502    0  0.22763166564E+03 -0.10584419553E+04 -0.25361565289E+02  0.10829398724E+04  0.10100000352E+00 0. -1.
       -3    1    3    3    0  502 -0.22763166564E+03  0.10584419553E+04  0.81022651994E+03  0.13522509278E+04  0.10100000352E+00 0.  1.
</event>
<event>
 5   0  0.7202572E-06  0.2287838E+04  0.7818609E-02  0.8482732E-01
        1   -1    0    0  501    0  0.00000000000E+00  0.00000000000E+00  0.15395492540E+04  0.15395492540E+04  0.50400001928E-02 0. -1.
       -1   -1    0    0    0  501  0.00000000000E+00  0.00000000000E+00 -0.84995675874E+03  0.84995675875E+03  0.50400001928E-02 0.  1.
    10030    2    1    2    0    0  0.00000000000E+00  0.00000000000E+00  0.68959249528E+03  0.23895060128E+04  0.22878376637E+04 0.  0.
        2    1    3    3  502    0  0.29487831867E+03  0.25078480270E+03 -0.77947003349E+03  0.87029866896E+03  0.25500000920E-02 0.  1.
       -2    1    3    3    0  502 -0.29487831867E+03 -0.25078480270E+03  0.14690625288E+04  0.15192073438E+04  0.25500000920E-02 0. -1.
</event>
<event>
 5   0  0.7183014E-06  0.2302176E+04  0.7818609E-02  0.8477064E-01
        1   -1    0    0  501    0  0.00000000000E+00  0.00000000000E+00  0.88204151868E+03  0.88204151869E+03  0.50400001928E-02 0.  1.
       -1   -1    0    0    0  501  0.00000000000E+00  0.00000000000E+00 -0.15022004564E+04  0.15022004564E+04  0.50400001928E-02 0. -1.
    10030    2    1    2    0    0  0.00000000000E+00  0.00000000000E+00 -0.62015893772E+03  0.23842419751E+04  0.23021756423E+04 0.  0.
        3    1    3    3  502    0 -0.10308833148E+04 -0.49025228264E+03 -0.46346527458E+03  0.12320177679E+04  0.10100000352E+00 0. -1.
       -3    1    3    3    0  502  0.10308833148E+04  0.49025228264E+03 -0.15669366315E+03  0.11522242072E+04  0.10100000352E+00 0.  1.
</event>
<event>
 5   0  0.1626636E-05  0.2301291E+04  0.7818609E-02  0.8477412E-01
        2   -1    0    0  501    0  0.00000000000E+00  0.00000000000E+00  0.10482024305E+04  0.10482024305E+04  0.25500000920E-02 0.  1.
       -2   -1    0    0    0  501  0.00000000000E+00  0.00000000000E+00 -0.12631004072E+04  0.12631004072E+04  0.25500000920E-02 0. -1.
    10030    2    1    2    0    0  0.00000000000E+00  0.00000000000E+00 -0.21489797662E+03  0.23113028377E+04  0.23012908698E+04 0.  0.
        4    1    3    3  502    0 -0.65838939584E+03 -0.41014309830E+03  0.74612454917E+03  0.10762887221E+04  0.12699999809E+01 0.  1.
       -4    1    3    3    0  502  0.65838939584E+03  0.41014309830E+03 -0.96102252579E+03  0.12350141156E+04  0.12699999809E+01 0. -1.
</event>
<event>
 5   0  0.1626636E-05  0.2300305E+04  0.7818609E-02  0.8477801E-01
       -2   -1    0    0    0  501  0.00000000000E+00  0.00000000000E+00  0.59248556265E+03  0.59248556266E+03  0.25500000920E-02 0.  1.
        2   -1    0    0  501    0  0.00000000000E+00  0.00000000000E+00 -0.22327134026E+04  0.22327134026E+04  0.25500000920E-02 0. -1.
    10030    2    1    2    0    0  0.00000000000E+00  0.00000000000E+00 -0.16402278399E+04  0.28251989652E+04  0.23003047247E+04 0.  0.
        4    1    3    3  502    0  0.32079684791E+03 -0.59997063969E+03  0.31884009717E+03  0.75135611169E+03  0.12699999809E+01 0.  1.
       -4    1    3    3    0  502 -0.32079684791E+03  0.59997063969E+03 -0.19590679371E+04  0.20738428535E+04  0.12699999809E+01 0. -1.
</event>
<event>
 5   0  0.1635955E-05  0.2299988E+04  0.7818609E-02  0.8477926E-01
       -2   -1    0    0    0  501  0.00000000000E+00  0.00000000000E+00  0.10265163350E+04  0.10265163350E+04  0.25500000920E-02 0. -1.
        2   -1    0    0  501    0  0.00000000000E+00  0.00000000000E+00 -0.12883247459E+04  0.12883247459E+04  0.25500000920E-02 0.  1.
    10030    2    1    2    0    0  0.00000000000E+00  0.00000000000E+00 -0.26180841089E+03  0.23148410809E+04  0.22999881708E+04 0.  0.
        2    1    3    3  502    0  0.10555472383E+04  0.45287396733E+03 -0.18794110202E+03  0.11638714106E+04  0.25500000920E-02 0.  1.
       -2    1    3    3    0  502 -0.10555472383E+04 -0.45287396733E+03 -0.73867308865E+02  0.11509696703E+04  0.25500000920E-02 0. -1.
</event>
<event>
 5   0  0.5704875E-06  0.2292816E+04  0.7818609E-02  0.8480759E-01
        3   -1    0    0  501    0  0.00000000000E+00  0.00000000000E+00  0.11777357219E+04  0.11777357263E+04  0.10100000352E+00 0.  1.
       -3   -1    0    0    0  501  0.00000000000E+00  0.00000000000E+00 -0.11159139525E+04  0.11159139571E+04  0.10100000352E+00 0. -1.
    10030    2    1    2    0    0  0.00000000000E+00  0.00000000000E+00  0.61821769400E+02  0.22936496834E+04  0.22928163771E+04 0.  0.
        4    1    3    3  502    0 -0.67339095468E+03  0.88267343420E+03  0.31681600350E+03  0.11545309707E+04  0.12699999809E+01 0.  1.
       -4    1    3    3    0  502  0.67339095468E+03 -0.88267343420E+03 -0.25499423410E+03  0.11391187127E+04  0.12699999809E+01 0. -1.
</event>
<event>
 5   0  0.7416556E-06  0.2299265E+04  0.7818609E-02  0.8478211E-01
        1   -1    0    0  501    0  0.00000000000E+00  0.00000000000E+00  0.10521882689E+04  0.10521882689E+04  0.50400001928E-02 0.  1.
       -1   -1    0    0    0  501  0.00000000000E+00  0.00000000000E+00 -0.12561012961E+04  0.12561012961E+04  0.50400001928E-02 0. -1.
    10030    2    1    2    0    0  0.00000000000E+00  0.00000000000E+00 -0.20391302717E+03  0.23082895650E+04  0.22992651420E+04 0.  0.
        4    1    3    3  502    0 -0.29774291146E+03 -0.10136463549E+04  0.35317001143E+03  0.11139391563E+04  0.12699999809E+01 0.  1.
       -4    1    3    3    0  502  0.29774291146E+03  0.10136463549E+04 -0.55708303860E+03  0.11943504087E+04  0.12699999809E+01 0. -1.
</event>
<event>
 5   0  0.7183014E-06  0.2301790E+04  0.7818609E-02  0.8477216E-01
       -1   -1    0    0    0  501  0.00000000000E+00  0.00000000000E+00  0.98588402831E+03  0.98588402832E+03  0.50400001928E-02 0.  1.
        1   -1    0    0  501    0  0.00000000000E+00  0.00000000000E+00 -0.13435243211E+04  0.13435243211E+04  0.50400001928E-02 0. -1.
    10030    2    1    2    0    0  0.00000000000E+00  0.00000000000E+00 -0.35764029282E+03  0.23294083495E+04  0.23017898860E+04 0.  0.
        3    1    3    3  502    0 -0.49437622328E+03  0.72430038464E+03  0.57546875946E+03  0.10488961820E+04  0.10100000352E+00 0.  1.
       -3    1    3    3    0  502  0.49437622328E+03 -0.72430038464E+03 -0.93310905228E+03  0.12805121674E+04  0.10100000352E+00 0. -1.
</event>
<event>
 5   0  0.7416556E-06  0.2284873E+04  0.7818609E-02  0.8483910E-01
       -1   -1    0    0    0  501  0.00000000000E+00  0.00000000000E+00  0.16388391876E+04  0.16388391876E+04  0.50400001928E-02 0. -1.
        1   -1    0    0  501    0  0.00000000000E+00  0.00000000000E+00 -0.79639333415E+03  0.79639333416E+03  0.50400001928E-02 0.  1.
    10030    2    1    2    0    0  0.00000000000E+00  0.00000000000E+00  0.84244585344E+03  0.24352325218E+04  0.22848725170E+04 0.  0.
        4    1    3    3  502    0  0.66537864697E+03  0.21450050043E+03 -0.54179688347E+03  0.88446858868E+03  0.12699999809E+01 0.  1.
       -4    1    3    3    0  502 -0.66537864697E+03 -0.21450050043E+03  0.13842427369E+04  0.15507639331E+04  0.12699999809E+01 0. -1.
</event>
<event>
 5   0  0.7416556E-06  0.2301904E+04  0.7818609E-02  0.8477171E-01
       -1   -1    0    0    0  501  0.00000000000E+00  0.00000000000E+00  0.11449888774E+04  0.11449888774E+04  0.50400001928E-02 0.  1.
        1   -1    0    0  501    0  0.00000000000E+00  0.00000000000E+00 -0.11569457571E+04  0.11569457571E+04  0.50400001928E-02 0. -1.
    10030    2    1    2    0    0  0.00000000000E+00  0.00000000000E+00 -0.11956879724E+02  0.23019346345E+04  0.23019035807E+04 0.  0.
        4    1    3    3  502    0  0.85348346032E+03  0.49041131157E+03 -0.60243525961E+03  0.11540654775E+04  0.12699999809E+01 0. -1.
       -4    1    3    3    0  502 -0.85348346032E+03 -0.49041131157E+03  0.59047837988E+03  0.11478691570E+04  0.12699999809E+01 0.  1.
</event>
<event>
 5   0  0.1588969E-05  0.2299899E+04  0.7818609E-02  0.8477961E-01
        2   -1    0    0  501    0  0.00000000000E+00  0.00000000000E+00  0.20643600530E+04  0.20643600530E+04  0.25500000920E-02 0. -1.
       -2   -1    0    0    0  501  0.00000000000E+00  0.00000000000E+00 -0.64057817637E+03  0.64057817638E+03  0.25500000920E-02 0.  1.
    10030    2    1    2    0    0  0.00000000000E+00  0.00000000000E+00  0.14237818766E+04  0.27049382293E+04  0.22998991266E+04 0.  0.
        1    1    3    3  502    0 -0.11461710850E+03 -0.50144697315E+02  0.20563324007E+04  0.20601345865E+04  0.50400001928E-02 0. -1.
       -1    1    3    3    0  502  0.11461710850E+03  0.50144697315E+02 -0.63255052412E+03  0.64480364284E+03  0.50400001928E-02 0.  1.
</event>
<event>
 5   0  0.1635955E-05  0.2298772E+04  0.7818609E-02  0.8478405E-01
       -2   -1    0    0    0  501  0.00000000000E+00  0.00000000000E+00  0.79412887849E+03  0.79412887849E+03  0.25500000920E-02 0. -1.
        2   -1    0    0  501    0  0.00000000000E+00  0.00000000000E+00 -0.16635688807E+04  0.16635688807E+04  0.25500000920E-02 0.  1.
    10030    2    1    2    0    0  0.00000000000E+00  0.00000000000E+00 -0.86944000225E+03  0.24576977592E+04  0.22987719239E+04 0.  0.
        2    1    3    3  502    0  0.43980770472E+03 -0.59807025376E+03  0.50342350825E+03  0.89696938311E+03  0.25500000920E-02 0. -1.
       -2    1    3    3    0  502 -0.43980770472E+03  0.59807025376E+03 -0.13728635105E+04  0.15607283761E+04  0.25500000920E-02 0.  1.
</event>
<event>
 5   0  0.1602809E-05  0.2296160E+04  0.7818609E-02  0.8479437E-01
       -2   -1    0    0    0  501  0.00000000000E+00  0.00000000000E+00  0.10541268749E+04  0.10541268749E+04  0.25500000920E-02 0. -1.
        2   -1    0    0  501    0  0.00000000000E+00  0.00000000000E+00 -0.12504065252E+04  0.12504065252E+04  0.25500000920E-02 0.  1.
    10030    2    1    2    0    0  0.00000000000E+00  0.00000000000E+00 -0.19627965036E+03  0.23045334001E+04  0.22961595091E+04 0.  0.
        3    1    3    3  502    0 -0.67625859847E+03 -0.87305964410E+03 -0.41317670665E+03  0.11790987386E+04  0.10100000352E+00 0.  1.
       -3    1    3    3    0  502  0.67625859847E+03  0.87305964410E+03  0.21689705628E+03  0.11254346615E+04  0.10100000352E+00 0. -1.
</event>
<event>
 5   0  0.1697855E-05  0.2300053E+04  0.7818609E-02  0.8477900E-01
       -2   -1    0    0    0  501  0.00000000000E+00  0.00000000000E+00  0.11591089691E+04  0.11591089691E+04  0.25500000920E-02 0. -1.
        2   -1    0    0  501    0  0.00000000000E+00  0.00000000000E+00 -0.11410148560E+04  0.11410148560E+04  0.25500000920E-02 0.  1.
    10030    2    1    2    0    0  0.00000000000E+00  0.00000000000E+00  0.18094113059E+02  0.23001238251E+04  0.23000526546E+04 0.  0.
        5    1    3    3  502    0 -0.10657246456E+04  0.30248752810E+02 -0.42207468745E+03  0.11466704579E+04  0.46999998093E+01 0.  1.
       -5    1    3    3    0  502  0.10657246456E+04 -0.30248752810E+02  0.44016880051E+03  0.11534533672E+04  0.46999998093E+01 0. -1.
</event>
<event>
 5   0  0.7278815E-06  0.2293296E+04  0.7818609E-02  0.8480569E-01
        1   -1    0    0  501    0  0.00000000000E+00  0.00000000000E+00  0.83580288474E+03  0.83580288475E+03  0.50400001928E-02 0. -1.
       -1   -1    0    0    0  501  0.00000000000E+00  0.00000000000E+00 -0.15731003995E+04  0.15731003995E+04  0.50400001928E-02 0.  1.
    10030    2    1    2    0    0  0.00000000000E+00  0.00000000000E+00 -0.73729751474E+03  0.24089032842E+04  0.22932961884E+04 0.  0.
        5    1    3    3  502    0  0.23556284069E+02  0.10522786180E+04 -0.84648132052E+03  0.13507027447E+04  0.46999998093E+01 0.  1.
       -5    1    3    3    0  502 -0.23556284069E+02 -0.10522786180E+04  0.10918380578E+03  0.10582005396E+04  0.46999998093E+01 0. -1.
</event>
<event>
 5   0  0.7202572E-06  0.2300285E+04  0.7818609E-02  0.8477809E-01
        1   -1    0    0  501    0  0.00000000000E+00  0.00000000000E+00  0.21602788982E+04  0.21602788982E+04  0.50400001928E-02 0.  1.
       -1   -1    0    0    0  501  0.00000000000E+00  0.00000000000E+00 -0.61234143852E+03  0.61234143854E+03  0.50400001928E-02 0. -1.
    10030    2    1    2    0    0  0.00000000000E+00  0.00000000000E+00  0.15479374596E+04  0.27726203367E+04  0.23002854502E+04 0.  0.
        2    1    3    3  502    0 -0.10015976689E+04  0.50763718245E+03  0.10739377145E+04  0.15537810702E+04  0.25500000920E-02 0. -1.
       -2    1    3    3    0  502  0.10015976689E+04 -0.50763718245E+03  0.47399974510E+03  0.12188392665E+04  0.25500000920E-02 0.  1.
</event>
<event>
 5   0  0.7278815E-06  0.2295604E+04  0.7818609E-02  0.8479657E-01
       -1   -1    0    0    0  501  0.00000000000E+00  0.00000000000E+00  0.15076671743E+04  0.15076671743E+04  0.50400001928E-02 0.  1.
        1   -1    0    0  501    0  0.00000000000E+00  0.00000000000E+00 -0.87383285114E+03  0.87383285115E+03  0.50400001928E-02 0. -1.
    10030    2    1    2    0    0  0.00000000000E+00  0.00000000000E+00  0.63383432315E+03  0.23815000254E+04  0.22956037162E+04 0.  0.
        5    1    3    3  502    0 -0.41576078799E+03 -0.82176345889E+03  0.10275860251E+04  0.13798939612E+04  0.46999998093E+01 0.  1.
       -5    1    3    3    0  502  0.41576078799E+03  0.82176345889E+03 -0.39375170192E+03  0.10016060643E+04  0.46999998093E+01 0. -1.
</event>
<event>
 5   0  0.1635955E-05  0.2301416E+04  0.7818609E-02  0.8477363E-01
        2   -1    0    0  501    0  0.00000000000E+00  0.00000000000E+00  0.29651831278E+04  0.29651831278E+04  0.25500000920E-02 0.  1.
       -2   -1    0    0    0  501  0.00000000000E+00  0.00000000000E+00 -0.44655878999E+03  0.44655878999E+03  0.25500000920E-02 0. -1.
    10030    2    1    2    0    0  0.00000000000E+00  0.00000000000E+00  0.25186243378E+04  0.34117419178E+04  0.23014157292E+04 0.  0.
        2    1    3    3  502    0 -0.75062014168E+03  0.65785660155E+03  0.21082322846E+04  0.23325628119E+04  0.25500000920E-02 0.  1.
       -2    1    3    3    0  502  0.75062014168E+03 -0.65785660155E+03  0.41039205313E+03  0.10791791059E+04  0.25500000920E-02 0. -1.
</event>
<event>
 5   0  0.1588969E-05  0.2307023E+04  0.7818609E-02  0.8475157E-01
        2   -1    0    0  501    0  0.00000000000E+00  0.00000000000E+00  0.11949089917E+04  0.11949089917E+04  0.25500000920E-02 0.  1.
       -2   -1    0    0    0  501  0.00000000000E+00  0.00000000000E+00 -0.11135479912E+04  0.11135479912E+04  0.25500000920E-02 0. -1.
    10030    2    1    2    0    0  0.00000000000E+00  0.00000000000E+00  0.81361000519E+02  0.23084569830E+04  0.23070227632E+04 0.  0.
        1    1    3    3  502    0  0.58131055999E+03 -0.23162985714E+03  0.10103103455E+04  0.11884028577E+04  0.50400001928E-02 0.  1.
       -1    1    3    3    0  502 -0.58131055999E+03  0.23162985714E+03 -0.92894934503E+03  0.11200541253E+04  0.50400001928E-02 0. -1.
</event>
<event>
 5   0  0.1588969E-05  0.2295139E+04  0.7818609E-02  0.8479840E-01
       -2   -1    0    0    0  501  0.00000000000E+00  0.00000000000E+00  0.11653928400E+04  0.11653928400E+04  0.25500000920E-02 0.  1.
        2   -1    0    0  501    0  0.00000000000E+00  0.00000000000E+00 -0.11300190433E+04  0.11300190433E+04  0.25500000920E-02 0. -1.
    10030    2    1    2    0    0  0.00000000000E+00  0.00000000000E+00  0.35373796717E+02  0.22954118832E+04  0.22951393004E+04 0.  0.
        1    1    3    3  502    0  0.17135364090E+03  0.66406424352E+03  0.93789003413E+03  0.11618868731E+04  0.50400001928E-02 0.  1.
       -1    1    3    3    0  502 -0.17135364090E+03 -0.66406424352E+03 -0.90251623741E+03  0.11335250101E+04  0.50400001928E-02 0. -1.
</event>
<event>
 5   0  0.1602809E-05  0.2301540E+04  0.7818609E-02  0.8477314E-01
        2   -1    0    0  501    0  0.00000000000E+00  0.00000000000E+00  0.22881716651E+04  0.22881716651E+04  0.25500000920E-02 0.  1.
       -2   -1    0    0    0  501  0.00000000000E+00  0.00000000000E+00 -0.57874666409E+03  0.57874666409E+03  0.25500000920E-02 0. -1.
    10030    2    1    2    0    0  0.00000000000E+00  0.00000000000E+00  0.17094250010E+04  0.28669183292E+04  0.23015401087E+04 0.  0.
        3    1    3    3  502    0  0.96024891297E+03  0.32273410835E+03  0.15347477871E+04  0.18389361217E+04  0.10100000352E+00 0.  1.
       -3    1    3    3    0  502 -0.96024891297E+03 -0.32273410835E+03  0.17467721386E+03  0.10279822074E+04  0.10100000352E+00 0. -1.
</event>
<event>
 5   0  0.7416556E-06  0.2301350E+04  0.7818609E-02  0.8477389E-01
       -1   -1    0    0    0  501  0.00000000000E+00  0.00000000000E+00  0.11314775860E+04  0.11314775860E+04  0.50400001928E-02 0. -1.
        1   -1    0    0  501    0  0.00000000000E+00  0.00000000000E+00 -0.11701985441E+04  0.11701985441E+04  0.50400001928E-02 0.  1.
    10030    2    1    2    0    0  0.00000000000E+00  0.00000000000E+00 -0.38720958146E+02  0.23016761301E+04  0.23013504069E+04 0.  0.
        4    1    3    3  502    0  0.76569619054E+02  0.62532300125E+03 -0.98238826657E+03  0.11670390232E+04  0.12699999809E+01 0.  1.
       -4    1    3    3    0  502 -0.76569619054E+02 -0.62532300125E+03  0.94366730843E+03  0.11346371069E+04  0.12699999809E+01 0. -1.
</event>
<event>
 5   0  0.1602809E-05  0.2299483E+04  0.7818609E-02  0.8478125E-01
        2   -1    0    0  501    0  0.00000000000E+00  0.00000000000E+00  0.90647500062E+03  0.90647500062E+03  0.25500000920E-02 0. -1.
       -2   -1    0    0    0  501  0.00000000000E+00  0.00000000000E+00 -0.14582927841E+04  0.14582927841E+04  0.25500000920E-02 0.  1.
    10030    2    1    2    0    0  0.00000000000E+00  0.00000000000E+00 -0.55181778350E+03  0.23647677847E+04  0.22994833788E+04 0.  0.
        3    1    3    3  502    0 -0.11419871849E+04  0.13192388476E+03 -0.29561808640E+03  0.11869830264E+04  0.10100000352E+00 0.  1.
       -3    1    3    3    0  502  0.11419871849E+04 -0.13192388476E+03 -0.25619969710E+03  0.11777847583E+04  0.10100000352E+00 0. -1.
</event>
<event>
 5   0  0.7202572E-06  0.2309460E+04  0.7818609E-02  0.8474201E-01
       -1   -1    0    0    0  501  0.00000000000E+00  0.00000000000E+00  0.62652669261E+03  0.62652669263E+03  0.50400001928E-02 0.  1.
        1   -1    0    0  501    0  0.00000000000E+00  0.00000000000E+00 -0.21282429224E+04  0.21282429224E+04  0.50400001928E-02 0. -1.
    10030    2    1    2    0    0  0.00000000000E+00  0.00000000000E+00 -0.15017162298E+04  0.27547696151E+04  0.23094596764E+04 0.  0.
        2    1    3    3  502    0 -0.10414393818E+04  0.29675215480E+03 -0.27262332381E+03  0.11166831708E+04  0.25500000920E-02 0.  1.
       -2    1    3    3    0  502  0.10414393818E+04 -0.29675215480E+03 -0.12290929060E+04  0.16380864443E+04  0.25500000920E-02 0. -1.
</event>
<event>
 5   0  0.1697855E-05  0.2291027E+04  0.7818609E-02  0.8481468E-01
        2   -1    0    0  501    0  0.00000000000E+00  0.00000000000E+00  0.15066039513E+04  0.15066039513E+04  0.25500000920E-02 0. -1.
       -2   -1    0    0    0  501  0.00000000000E+00  0.00000000000E+00 -0.87096598678E+03  0.87096598678E+03  0.25500000920E-02 0.  1.
    10030    2    1    2    0    0  0.00000000000E+00  0.00000000000E+00  0.63563796448E+03  0.23775699380E+04  0.22910266669E+04 0.  0.
        5    1    3    3  502    0  0.21855327904E+02  0.55632879923E+03 -0.72109647593E+03  0.91103326274E+03  0.46999998093E+01 0.  1.
       -5    1    3    3    0  502 -0.21855327904E+02 -0.55632879923E+03  0.13567344404E+04  0.14665366753E+04  0.46999998093E+01 0. -1.
</event>
<event>
 5   0  0.1602809E-05  0.2303670E+04  0.7818609E-02  0.8476476E-01
        2   -1    0    0  501    0  0.00000000000E+00  0.00000000000E+00  0.18137426850E+04  0.18137426850E+04  0.25500000920E-02 0.  1.
       -2   -1    0    0    0  501  0.00000000000E+00  0.00000000000E+00 -0.73148400405E+03  0.73148400406E+03  0.25500000920E-02 0. -1.
    10030    2    1    2    0    0  0.00000000000E+00  0.00000000000E+00  0.10822586809E+04  0.25452266891E+04  0.23036699083E+04 0.  0.
        3    1    3    3  502    0 -0.46013323264E+03  0.10469052361E+04  0.38887299352E+03  0.12078722533E+04  0.10100000352E+00 0. -1.
       -3    1    3    3    0  502  0.46013323264E+03 -0.10469052361E+04  0.69338568743E+03  0.13373544357E+04  0.10100000352E+00 0.  1.
</event>
<event>
 5   0  0.7202572E-06  0.2306649E+04  0.7818609E-02  0.8475304E-01
       -1   -1    0    0    0  501  0.00000000000E+00  0.00000000000E+00  0.10928597966E+04  0.10928597967E+04  0.50400001928E-02 0.  1.
        1   -1    0    0  501    0  0.00000000000E+00  0.00000000000E+00 -0.12171343645E+04  0.12171343645E+04  0.50400001928E-02 0. -1.
    10030    2    1    2    0    0  0.00000000000E+00  0.00000000000E+00 -0.12427456788E+03  0.23099941612E+04  0.23066488368E+04 0.  0.
        2    1    3    3  502    0  0.10706646591E+04 -0.29765989393E+03 -0.37118327066E+03  0.11716233375E+04  0.25500000920E-02 0. -1.
       -2    1    3    3    0  502 -0.10706646591E+04  0.29765989393E+03  0.24690870278E+03  0.11383708237E+04  0.25500000920E-02 0.  1.
</event>
<event>
 5   0  0.7202572E-06  0.2327592E+04  0.7818609E-02  0.8467121E-01
       -1   -1    0    0    0  501  0.00000000000E+00  0.00000000000E+00  0.10029312245E+04  0.10029312245E+04  0.50400001928E-02 0.  1.
        1   -1    0    0  501    0  0.00000000000E+00  0.00000000000E+00 -0.13504627849E+04  0.13504627849E+04  0.50400001928E-02 0. -1.
    10030    2    1    2    0    0  0.00000000000E+00  0.00000000000E+00 -0.34753156046E+03  0.23533940094E+04  0.23275921417E+04 0.  0.
        2    1    3    3  502    0 -0.71457575727E+03 -0.89514661671E+03  0.34712332985E+02  0.11459105220E+04  0.25500000920E-02 0.  1.
       -2    1    3    3    0  502  0.71457575727E+03  0.89514661671E+03 -0.38224389344E+03  0.12074834874E+04  0.25500000920E-02 0. -1.
</event>
<event>
 5   0  0.7278815E-06  0.2299704E+04  0.7818609E-02  0.8478038E-01
        1   -1    0    0  501    0  0.00000000000E+00  0.00000000000E+00  0.11265830269E+04  0.11265830269E+04  0.50400001928E-02 0.  1.
       -1   -1    0    0    0  501  0.00000000000E+00  0.00000000000E+00 -0.11736014437E+04  0.11736014437E+04  0.50400001928E-02 0. -1.
    10030    2    1    2    0    0  0.00000000000E+00  0.00000000000E+00 -0.47018416811E+02  0.23001844706E+04  0.22997038651E+04 0.  0.
        5    1    3    3  502    0 -0.10090541211E+04 -0.55119209532E+03 -0.35106090453E+02  0.11503292889E+04  0.46999998093E+01 0. -1.
       -5    1    3    3    0  502  0.10090541211E+04  0.55119209532E+03 -0.11912326358E+02  0.11498551817E+04  0.46999998093E+01 0.  1.
</event>
<event>
 5   0  0.1635955E-05  0.2281500E+04  0.7818609E-02  0.8485251E-01
        2   -1    0    0  501    0  0.00000000000E+00  0.00000000000E+00  0.12786052527E+04  0.12786052527E+04  0.25500000920E-02 0. -1.
       -2   -1    0    0    0  501  0.00000000000E+00  0.00000000000E+00 -0.10177574992E+04  0.10177574993E+04  0.25500000920E-02 0.  1.
    10030    2    1    2    0    0  0.00000000000E+00  0.00000000000E+00  0.26084775350E+03  0.22963627520E+04  0.22814995810E+04 0.  0.
        2    1    3    3  502    0 -0.33392507049E+03  0.61920916801E+03 -0.77341514776E+03  0.10455127628E+04  0.25500000920E-02 0.  1.
       -2    1    3    3    0  502  0.33392507049E+03 -0.61920916801E+03  0.10342629013E+04  0.12508499892E+04  0.25500000920E-02 0. -1.
</event>
<event>
 5   0  0.1635955E-05  0.2306142E+04  0.7818609E-02  0.8475503E-01
       -2   -1    0    0    0  501  0.00000000000E+00  0.00000000000E+00  0.90303158104E+03  0.90303158104E+03  0.25500000920E-02 0.  1.
        2   -1    0    0  501    0  0.00000000000E+00  0.00000000000E+00 -0.14723436038E+04  0.14723436039E+04  0.25500000920E-02 0. -1.
    10030    2    1    2    0    0  0.00000000000E+00  0.00000000000E+00 -0.56931202281E+03  0.23753751849E+04  0.23061420359E+04 0.  0.
        2    1    3    3  502    0 -0.29085572381E+03 -0.11569785138E+03  0.85843074206E+03  0.91372117400E+03  0.25500000920E-02 0.  1.
       -2    1    3    3    0  502  0.29085572381E+03  0.11569785138E+03 -0.14277427649E+04  0.14616540109E+04  0.25500000920E-02 0. -1.
</event>
<event>
 5   0  0.7183014E-06  0.2303198E+04  0.7818609E-02  0.8476661E-01
        1   -1    0    0  501    0  0.00000000000E+00  0.00000000000E+00  0.13012952190E+04  0.13012952190E+04  0.50400001928E-02 0.  1.
       -1   -1    0    0    0  501  0.00000000000E+00  0.00000000000E+00 -0.10191233263E+04  0.10191233264E+04  0.50400001928E-02 0. -1.
    10030    2    1    2    0    0  0.00000000000E+00  0.00000000000E+00  0.28217189262E+03  0.23204185453E+04  0.23031980481E+04 0.  0.
        3    1    3    3  502    0 -0.38157909486E+02 -0.77664600292E+03  0.99687520978E+03  0.12642765655E+04  0.10100000352E+00 0.  1.
       -3    1    3    3    0  502  0.38157909486E+02  0.77664600292E+03 -0.71470331715E+03  0.10561419799E+04  0.10100000352E+00 0. -1.
</event>
<event>
 5   0  0.1626636E-05  0.2295665E+04  0.7818609E-02  0.8479632E-01
        2   -1    0    0  501    0  0.00000000000E+00  0.00000000000E+00  0.98497226504E+03  0.98497226504E+03  0.25500000920E-02 0.  1.
       -2   -1    0    0    0  501  0.00000000000E+00  0.00000000000E+00 -0.13376205637E+04  0.13376205637E+04  0.25500000920E-02 0. -1.
    10030    2    1    2    0    0  0.00000000000E+00  0.00000000000E+00 -0.35264829870E+03  0.23225928288E+04  0.22956647459E+04 0.  0.
        4    1    3    3  502    0  0.93423505341E+03 -0.35352731503E+02 -0.85007295517E+03  0.12635943149E+04  0.12699999809E+01 0. -1.
       -4    1    3    3    0  502 -0.93423505341E+03  0.35352731503E+02  0.49742465647E+03  0.10589985139E+04  0.12699999809E+01 0.  1.
</event>
<event>
 5   0  0.7391007E-06  0.2298333E+04  0.7818609E-02  0.8478579E-01
        1   -1    0    0  501    0  0.00000000000E+00  0.00000000000E+00  0.10372667739E+04  0.10372667739E+04  0.50400001928E-02 0. -1.
       -1   -1    0    0    0  501  0.00000000000E+00  0.00000000000E+00 -0.12731376128E+04  0.12731376128E+04  0.50400001928E-02 0.  1.
    10030    2    1    2    0    0  0.00000000000E+00  0.00000000000E+00 -0.23587083891E+03  0.23104043868E+04  0.22983327387E+04 0.  0.
        1    1    3    3  502    0 -0.72465401658E+03  0.88974442394E+03 -0.18002357382E+03  0.11615408176E+04  0.50400001928E-02 0.  1.
       -1    1    3    3    0  502  0.72465401658E+03 -0.88974442394E+03 -0.55847265084E+02  0.11488635692E+04  0.50400001928E-02 0. -1.
</event>
<event>
 5   0  0.1635955E-05  0.2330216E+04  0.7818609E-02  0.8466102E-01
       -2   -1    0    0    0  501  0.00000000000E+00  0.00000000000E+00  0.77815525585E+03  0.77815525586E+03  0.25500000920E-02 0. -1.
        2   -1    0    0  501    0  0.00000000000E+00  0.00000000000E+00 -0.17444800280E+04  0.17444800280E+04  0.25500000920E-02 0.  1.
    10030    2    1    2    0    0  0.00000000000E+00  0.00000000000E+00 -0.96632477210E+03  0.25226352838E+04  0.23302157003E+04 0.  0.
        2    1    3    3  502    0 -0.84976379258E+03 -0.78987947489E+03 -0.36722960758E+03  0.12169082433E+04  0.25500000920E-02 0. -1.
       -2    1    3    3    0  502  0.84976379258E+03  0.78987947489E+03 -0.59909516452E+03  0.13057270405E+04  0.25500000920E-02 0.  1.
</event>
<event>
 5   0  0.7183014E-06  0.2268677E+04  0.7818609E-02  0.8490375E-01
       -1   -1    0    0    0  501  0.00000000000E+00  0.00000000000E+00  0.84518487813E+03  0.84518487814E+03  0.50400001928E-02 0. -1.
        1   -1    0    0  501    0  0.00000000000E+00  0.00000000000E+00 -0.15224163851E+04  0.15224163851E+04  0.50400001928E-02 0.  1.
    10030    2    1    2    0    0  0.00000000000E+00  0.00000000000E+00 -0.67723150696E+03  0.23676012632E+04  0.22686765366E+04 0.  0.
        3    1    3    3  502    0 -0.42243578642E+03  0.73350036414E+03  0.44946018265E+03  0.95837844499E+03  0.10100000352E+00 0. -1.
       -3    1    3    3    0  502  0.42243578642E+03 -0.73350036414E+03 -0.11266916896E+04  0.14092228182E+04  0.10100000352E+00 0.  1.
</event>
<event>
 5   0  0.1588969E-05  0.2317999E+04  0.7818609E-02  0.8470858E-01
        2   -1    0    0  501    0  0.00000000000E+00  0.00000000000E+00  0.74328393273E+03  0.74328393274E+03  0.25500000920E-02 0.  1.
       -2   -1    0    0    0  501  0.00000000000E+00  0.00000000000E+00 -0.18072223841E+04  0.18072223841E+04  0.25500000920E-02 0. -1.
    10030    2    1    2    0    0  0.00000000000E+00  0.00000000000E+00 -0.10639384513E+04  0.25505063168E+04  0.23179985858E+04 0.  0.
        1    1    3    3  502    0 -0.90206954954E+03  0.54039526919E+03  0.42790727139E+01  0.10515582864E+04  0.50400001928E-02 0.  1.
       -1    1    3    3    0  502  0.90206954954E+03 -0.54039526919E+03 -0.10682175240E+04  0.14989480304E+04  0.50400001928E-02 0. -1.
</event>
<event>
 5   0  0.1697855E-05  0.2302637E+04  0.7818609E-02  0.8476882E-01
        2   -1    0    0  501    0  0.00000000000E+00  0.00000000000E+00  0.13085365202E+04  0.13085365202E+04  0.25500000920E-02 0.  1.
       -2   -1    0    0    0  501  0.00000000000E+00  0.00000000000E+00 -0.10129896331E+04  0.10129896331E+04  0.25500000920E-02 0. -1.
    10030    2    1    2    0    0  0.00000000000E+00  0.00000000000E+00  0.29554688709E+03  0.23215261533E+04  0.23026366882E+04 0.  0.
        5    1    3    3  502    0  0.91255435499E+03 -0.66782857656E+03 -0.70244292166E+02  0.11330078592E+04  0.46999998093E+01 0.  1.
       -5    1    3    3    0  502 -0.91255435499E+03  0.66782857656E+03  0.36579117926E+03  0.11885182941E+04  0.46999998093E+01 0. -1.
</event>
<event>
 5   0  0.7391007E-06  0.2269638E+04  0.7818609E-02  0.8489990E-01
        1   -1    0    0  501    0  0.00000000000E+00  0.00000000000E+00  0.17267349424E+04  0.17267349424E+04  0.50400001928E-02 0. -1.
       -1   -1    0    0    0  501  0.00000000000E+00  0.00000000000E+00 -0.74580871376E+03  0.74580871378E+03  0.50400001928E-02 0.  1.
    10030    2    1    2    0    0  0.00000000000E+00  0.00000000000E+00  0.98092622864E+03  0.24725436562E+04  0.22696378270E+04 0.  0.
        1    1    3    3  502    0  0.37047145837E+03  0.36519687236E+03 -0.60826377339E+03  0.80037658330E+03  0.50400001928E-02 0.  1.
       -1    1    3    3    0  502 -0.37047145837E+03 -0.36519687236E+03  0.15891900020E+04  0.16721670729E+04  0.50400001928E-02 0. -1.
</event>
<event>
 5   0  0.7416556E-06  0.2256082E+04  0.7818609E-02  0.8495442E-01
        1   -1    0    0  501    0  0.00000000000E+00  0.00000000000E+00  0.61898506137E+03  0.61898506139E+03  0.50400001928E-02 0.  1.
       -1   -1    0    0    0  501  0.00000000000E+00  0.00000000000E+00 -0.20557464819E+04  0.20557464819E+04  0.50400001928E-02 0. -1.
    10030    2    1    2    0    0  0.00000000000E+00  0.00000000000E+00 -0.14367614206E+04  0.26747315433E+04  0.22560818800E+04 0.  0.
        4    1    3    3  502    0  0.63541933540E+03  0.46346291728E+03  0.24032953213E+03  0.82238403706E+03  0.12699999809E+01 0.  1.
       -4    1    3    3    0  502 -0.63541933540E+03 -0.46346291728E+03 -0.16770909527E+04  0.18523475063E+04  0.12699999809E+01 0. -1.
</event>
<event>
 5   0  0.7416556E-06  0.2302506E+04  0.7818609E-02  0.8476934E-01
        1   -1    0    0  501    0  0.00000000000E+00  0.00000000000E+00  0.14705913005E+04  0.14705913005E+04  0.50400001928E-02 0.  1.
       -1   -1    0    0    0  501  0.00000000000E+00  0.00000000000E+00 -0.90125899095E+03  0.90125899097E+03  0.50400001928E-02 0. -1.
    10030    2    1    2    0    0  0.00000000000E+00  0.00000000000E+00  0.56933230959E+03  0.23718502915E+04  0.23025061404E+04 0.  0.
        4    1    3    3  502    0  0.55620481486E+03  0.87127787896E+03 -0.23744464839E+03  0.10605991290E+04  0.12699999809E+01 0.  1.
       -4    1    3    3    0  502 -0.55620481486E+03 -0.87127787896E+03  0.80677695797E+03  0.13112511625E+04  0.12699999809E+01 0. -1.
</event>
<event>
 5   0  0.1635955E-05  0.2302307E+04  0.7818609E-02  0.8477012E-01
        2   -1    0    0  501    0  0.00000000000E+00  0.00000000000E+00  0.21026964687E+04  0.21026964687E+04  0.25500000920E-02 0. -1.
       -2   -1    0    0    0  501  0.00000000000E+00  0.00000000000E+00 -0.63021667900E+03  0.63021667900E+03  0.25500000920E-02 0.  1.
    10030    2    1    2    0    0  0.00000000000E+00  0.00000000000E+00  0.14724797897E+04  0.27329131477E+04  0.23023070042E+04 0.  0.
        2    1    3    3  502    0 -0.83645054394E+03 -0.24920272560E+01 -0.20256595702E+03  0.86063272632E+03  0.25500000920E-02 0.  1.
       -2    1    3    3    0  502  0.83645054394E+03  0.24920272560E+01  0.16750457467E+04  0.18722804213E+04  0.25500000920E-02 0. -1.
</event>
<event>
 5   0  0.1635955E-05  0.2254966E+04  0.7818609E-02  0.8495892E-01
        2   -1    0    0  501    0  0.00000000000E+00  0.00000000000E+00  0.17154642089E+04  0.17154642089E+04  0.25500000920E-02 0.  1.
       -2   -1    0    0    0  501  0.00000000000E+00  0.00000000000E+00 -0.74103418291E+03  0.74103418291E+03  0.25500000920E-02 0. -1.
    10030    2    1    2    0    0  0.00000000000E+00  0.00000000000E+00  0.97443002600E+03  0.24564983918E+04  0.22549657366E+04 0.  0.
        2    1    3    3  502    0 -0.10113527616E+04 -0.19845457417E+03 -0.10807106871E+02  0.10306965703E+04  0.25500000920E-02 0. -1.
       -2    1    3    3    0  502  0.10113527616E+04  0.19845457417E+03  0.98523713287E+03  0.14258018216E+04  0.25500000920E-02 0.  1.
</event>
<event>
 5   0  0.1626636E-05  0.2300336E+04  0.7818609E-02  0.8477789E-01
        2   -1    0    0  501    0  0.00000000000E+00  0.00000000000E+00  0.16743516121E+04  0.16743516121E+04  0.25500000920E-02 0.  1.
       -2   -1    0    0    0  501  0.00000000000E+00  0.00000000000E+00 -0.79008877132E+03  0.79008877132E+03  0.25500000920E-02 0. -1.
    10030    2    1    2    0    0  0.00000000000E+00  0.00000000000E+00  0.88426284073E+03  0.24644403834E+04  0.23003359824E+04 0.  0.
        4    1    3    3  502    0  0.49599586716E+03 -0.10224540066E+04  0.25210620715E+03  0.11640374773E+04  0.12699999809E+01 0. -1.
       -4    1    3    3    0  502 -0.49599586716E+03  0.10224540066E+04  0.63215663358E+03  0.13004029061E+04  0.12699999809E+01 0.  1.
</event>
<event>
 5   0  0.1697855E-05  0.2306835E+04  0.7818609E-02  0.8475231E-01
        2   -1    0    0  501    0  0.00000000000E+00  0.00000000000E+00  0.12419290142E+04  0.12419290142E+04  0.25500000920E-02 0.  1.
       -2   -1    0    0    0  501  0.00000000000E+00  0.00000000000E+00 -0.10712140965E+04  0.10712140965E+04  0.25500000920E-02 0. -1.
    10030    2    1    2    0    0  0.00000000000E+00  0.00000000000E+00  0.17071491773E+03  0.23131431107E+04  0.23068349458E+04 0.  0.
        5    1    3    3  502    0  0.37398514842E+03  0.37459262038E+03 -0.94222055498E+03  0.10807340962E+04  0.46999998093E+01 0. -1.
       -5    1    3    3    0  502 -0.37398514842E+03 -0.37459262038E+03  0.11129354727E+04  0.12324090145E+04  0.46999998093E+01 0.  1.
</event>
<event>
 5   0  0.1635955E-05  0.2294122E+04  0.7818609E-02  0.8480242E-01
       -2   -1    0    0    0  501  0.00000000000E+00  0.00000000000E+00  0.63150595756E+03  0.63150595757E+03  0.25500000920E-02 0. -1.
        2   -1    0    0  501    0  0.00000000000E+00  0.00000000000E+00 -0.20835102514E+04  0.20835102514E+04  0.25500000920E-02 0.  1.
    10030    2    1    2    0    0  0.00000000000E+00  0.00000000000E+00 -0.14520042938E+04  0.27150162090E+04  0.22941221732E+04 0.  0.
        2    1    3    3  502    0  0.13506746521E+03 -0.57069764709E+03  0.44066398633E+03  0.73356920152E+03  0.25500000920E-02 0. -1.
       -2    1    3    3    0  502 -0.13506746521E+03  0.57069764709E+03 -0.18926682802E+04  0.19814470074E+04  0.25500000920E-02 0.  1.
</event>
<event>
 5   0  0.1588969E-05  0.2310890E+04  0.7818609E-02  0.8473640E-01
        2   -1    0    0  501    0  0.00000000000E+00  0.00000000000E+00  0.13661905919E+04  0.13661905919E+04  0.25500000920E-02 0.  1.
       -2   -1    0    0    0  501  0.00000000000E+00  0.00000000000E+00 -0.97720884819E+03  0.97720884819E+03  0.25500000920E-02 0. -1.
    10030    2    1    2    0    0  0.00000000000E+00  0.00000000000E+00  0.38898174374E+03  0.23433994401E+04  0.23108903347E+04 0.  0.
        1    1    3    3  502    0  0.20711899516E+03 -0.68914932690E+03  0.11112151379E+04  0.13238671216E+04  0.50400001928E-02 0.  1.
       -1    1    3    3    0  502 -0.20711899516E+03  0.68914932690E+03 -0.72223339414E+03  0.10195323185E+04  0.50400001928E-02 0. -1.
</event>
<event>
 5   0  0.1626636E-05  0.2315134E+04  0.7818609E-02  0.8471978E-01
       -2   -1    0    0    0  501  0.00000000000E+00  0.00000000000E+00  0.52865691789E+03  0.52865691790E+03  0.25500000920E-02 0. -1.
        2   -1    0    0  501    0  0.00000000000E+00  0.00000000000E+00 -0.25346529165E+04  0.25346529165E+04  0.25500000920E-02 0.  1.
    10030    2    1    2    0    0  0.00000000000E+00  0.00000000000E+00 -0.20059959986E+04  0.30633098344E+04  0.23151343795E+04 0.  0.
        4    1    3    3  502    0 -0.31253678451E+02 -0.92899615456E+03 -0.90156919898E+02  0.93388464529E+03  0.12699999809E+01 0. -1.
       -4    1    3    3    0  502  0.31253678451E+02  0.92899615456E+03 -0.19158390787E+04  0.21294251891E+04  0.12699999809E+01 0.  1.
</event>
<event>
 5   0  0.1626636E-05  0.2299710E+04  0.7818609E-02  0.8478036E-01
       -2   -1    0    0    0  501  0.00000000000E+00  0.00000000000E+00  0.10433416733E+04  0.10433416733E+04  0.25500000920E-02 0.  1.
        2   -1    0    0  501    0  0.00000000000E+00  0.00000000000E+00 -0.12672418779E+04  0.12672418779E+04  0.25500000920E-02 0. -1.
    10030    2    1    2    0    0  0.00000000000E+00  0.00000000000E+00 -0.22390020463E+03  0.23105835512E+04  0.22997097742E+04 0.  0.
        4    1    3    3  502    0  0.35019883071E+03 -0.35731608692E+03 -0.11521475465E+04  0.12560890052E+04  0.12699999809E+01 0. -1.
       -4    1    3    3    0  502 -0.35019883071E+03  0.35731608692E+03  0.92824734189E+03  0.10544945460E+04  0.12699999809E+01 0.  1.
</event>
<event>
 5   0  0.1697855E-05  0.2329196E+04  0.7818609E-02  0.8466498E-01
       -2   -1    0    0    0  501  0.00000000000E+00  0.00000000000E+00  0.88877328468E+03  0.88877328468E+03  0.25500000920E-02 0.  1.
        2   -1    0    0  501    0  0.00000000000E+00  0.00000000000E+00 -0.15260226361E+04  0.15260226361E+04  0.25500000920E-02 0. -1.
    10030    2    1    2    0    0  0.00000000000E+00  0.00000000000E+00 -0.63724935137E+03  0.24147959207E+04  0.23291956987E+04 0.  0.
        5    1    3    3  502    0 -0.50854838413E+03  0.96655376931E+03  0.10048235671E+03  0.10967982686E+04  0.46999998093E+01 0.  1.
       -5    1    3    3    0  502  0.50854838413E+03 -0.96655376931E+03 -0.73773170808E+03  0.13179976521E+04  0.46999998093E+01 0. -1.
</event>
<event>
 5   0  0.7416556E-06  0.2266777E+04  0.7818609E-02  0.8491137E-01
       -1   -1    0    0    0  501  0.00000000000E+00  0.00000000000E+00  0.11944384771E+04  0.11944384772E+04  0.50400001928E-02 0.  1.
        1   -1    0    0  501    0  0.00000000000E+00  0.00000000000E+00 -0.10754586209E+04  0.10754586209E+04  0.50400001928E-02 0. -1.
    10030    2    1    2    0    0  0.00000000000E+00  0.00000000000E+00  0.11897985624E+03  0.22698970981E+04  0.22667767049E+04 0.  0.
        4    1    3    3  502    0  0.12268338736E+03  0.10500411739E+04 -0.34964301383E+03  0.11135032691E+04  0.12699999809E+01 0. -1.
       -4    1    3    3    0  502 -0.12268338736E+03 -0.10500411739E+04  0.46862287007E+03  0.11563938289E+04  0.12699999809E+01 0.  1.
</event>
<event>
 5   0  0.1697855E-05  0.2283906E+04  0.7818609E-02  0.8484294E-01
        2   -1    0    0  501    0  0.00000000000E+00  0.00000000000E+00  0.18048894364E+04  0.18048894364E+04  0.25500000920E-02 0.  1.
       -2   -1    0    0    0  501  0.00000000000E+00  0.00000000000E+00 -0.72251305937E+03  0.72251305937E+03  0.25500000920E-02 0. -1.
    10030    2    1    2    0    0  0.00000000000E+00  0.00000000000E+00  0.10823763770E+04  0.25274024958E+04  0.22839055922E+04 0.  0.
        5    1    3    3  502    0 -0.12651040168E+03 -0.11323200111E+04  0.45632732970E+03  0.12273590392E+04  0.46999998093E+01 0.  1.
       -5    1    3    3    0  502  0.12651040168E+03  0.11323200111E+04  0.62604904732E+03  0.13000434566E+04  0.46999998093E+01 0. -1.
</event>
<event>
 5   0  0.1602809E-05  0.2302675E+04  0.7818609E-02  0.8476867E-01
        2   -1    0    0  501    0  0.00000000000E+00  0.00000000000E+00  0.13538364325E+04  0.13538364325E+04  0.25500000920E-02 0.  1.
       -2   -1    0    0    0  501  0.00000000000E+00  0.00000000000E+00 -0.97912712442E+03  0.97912712442E+03  0.25500000920E-02 0. -1.
    10030    2    1    2    0    0  0.00000000000E+00  0.00000000000E+00  0.37470930808E+03  0.23329635569E+04  0.23026749428E+04 0.  0.
        3    1    3    3  502    0  0.78799237606E+03 -0.62833716079E+03  0.75130768313E+03  0.12570611828E+04  0.10100000352E+00 0.  1.
       -3    1    3    3    0  502 -0.78799237606E+03  0.62833716079E+03 -0.37659837504E+03  0.10759023741E+04  0.10100000352E+00 0. -1.
</event>
<event>
 5   0  0.5704875E-06  0.2263300E+04  0.7818609E-02  0.8492534E-01
       -4   -1    0    0    0  501  0.00000000000E+00  0.00000000000E+00  0.95879022178E+03  0.95879106289E+03  0.12699999809E+01 0. -1.
        4   -1    0    0  501    0  0.00000000000E+00  0.00000000000E+00 -0.13356723155E+04  0.13356729192E+04  0.12699999809E+01 0.  1.
    10030    2    1    2    0    0  0.00000000000E+00  0.00000000000E+00 -0.37688209369E+03  0.22944639821E+04  0.22632995499E+04 0.  0.
        4    1    3    3  502    0  0.22609688278E+03  0.10710313326E+04  0.10256851072E+03  0.10994315932E+04  0.12699999809E+01 0. -1.
       -4    1    3    3    0  502 -0.22609688278E+03 -0.10710313326E+04 -0.47945060441E+03  0.11950323890E+04  0.12699999809E+01 0.  1.
</event>
<event>
 5   0  0.7391007E-06  0.2305576E+04  0.7818609E-02  0.8475726E-01
       -1   -1    0    0    0  501  0.00000000000E+00  0.00000000000E+00  0.11645650650E+04  0.11645650650E+04  0.50400001928E-02 0. -1.
        1   -1    0    0  501    0  0.00000000000E+00  0.00000000000E+00 -0.11411302284E+04  0.11411302284E+04  0.50400001928E-02 0.  1.
    10030    2    1    2    0    0  0.00000000000E+00  0.00000000000E+00  0.23434836620E+02  0.23056952934E+04  0.23055761957E+04 0.  0.
        1    1    3    3  502    0 -0.22585927853E+03  0.90249698900E+03 -0.66905790939E+03  0.11459283202E+04  0.50400001928E-02 0.  1.
       -1    1    3    3    0  502  0.22585927853E+03 -0.90249698900E+03  0.69249274601E+03  0.11597669732E+04  0.50400001928E-02 0. -1.
</event>
<event>
 5   0  0.7278815E-06  0.2301436E+04  0.7818609E-02  0.8477355E-01
        1   -1    0    0  501    0  0.00000000000E+00  0.00000000000E+00  0.15344766508E+04  0.15344766508E+04  0.50400001928E-02 0.  1.
       -1   -1    0    0    0  501  0.00000000000E+00  0.00000000000E+00 -0.86293402918E+03  0.86293402919E+03  0.50400001928E-02 0. -1.
    10030    2    1    2    0    0  0.00000000000E+00  0.00000000000E+00  0.67154262163E+03  0.23974106800E+04  0.23014361768E+04 0.  0.
        5    1    3    3  502    0 -0.22064360463E+03 -0.62399871728E+03 -0.64479736099E+03  0.92403664763E+03  0.46999998093E+01 0. -1.
       -5    1    3    3    0  502  0.22064360463E+03  0.62399871728E+03  0.13163399826E+04  0.14733740324E+04  0.46999998093E+01 0.  1.
</event>
<event>
 5   0  0.7278815E-06  0.2320289E+04  0.7818609E-02  0.8469964E-01
        1   -1    0    0  501    0  0.00000000000E+00  0.00000000000E+00  0.14622168316E+04  0.14622168316E+04  0.50400001928E-02 0. -1.
       -1   -1    0    0    0  501  0.00000000000E+00  0.00000000000E+00 -0.92047598747E+03  0.92047598748E+03  0.50400001928E-02 0.  1.
    10030    2    1    2    0    0  0.00000000000E+00  0.00000000000E+00  0.54174084416E+03  0.23826928191E+04  0.23202891906E+04 0.  0.
        5    1    3    3  502    0  0.54324239254E+03  0.86322337295E+03  0.83859233184E+03  0.13204264757E+04  0.46999998093E+01 0. -1.
       -5    1    3    3    0  502 -0.54324239254E+03 -0.86322337295E+03 -0.29685148768E+03  0.10622663434E+04  0.46999998093E+01 0.  1.
</event>
<event>
 5   0  0.1588969E-05  0.2297263E+04  0.7818609E-02  0.8479001E-01
        2   -1    0    0  501    0  0.00000000000E+00  0.00000000000E+00  0.79820464088E+03  0.79820464089E+03  0.25500000920E-02 0.  1.
       -2   -1    0    0    0  501  0.00000000000E+00  0.00000000000E+00 -0.16529024663E+04  0.16529024663E+04  0.25500000920E-02 0. -1.
    10030    2    1    2    0    0  0.00000000000E+00  0.00000000000E+00 -0.85469782543E+03  0.24511071072E+04  0.22972630842E+04 0.  0.
        1    1    3    3  502    0  0.66195259669E+03 -0.20618338486E+03  0.54976440437E+03  0.88483542470E+03  0.50400001928E-02 0.  1.
       -1    1    3    3    0  502 -0.66195259669E+03  0.20618338486E+03 -0.14044622298E+04  0.15662716825E+04  0.50400001928E-02 0. -1.
</event>
<event>
 5   0  0.1588969E-05  0.2377702E+04  0.7818609E-02  0.8447899E-01
        2   -1    0    0  501    0  0.00000000000E+00  0.00000000000E+00  0.11568652194E+04  0.11568652194E+04  0.25500000920E-02 0.  1.
       -2   -1    0    0    0  501  0.00000000000E+00  0.00000000000E+00 -0.12217214433E+04  0.12217214433E+04  0.25500000920E-02 0. -1.
    10030    2    1    2    0    0  0.00000000000E+00  0.00000000000E+00 -0.64856223890E+02  0.23785866627E+04  0.23777022905E+04 0.  0.
        1    1    3    3  502    0 -0.56909995567E+03  0.46901831792E+03  0.90039611849E+03  0.11638582870E+04  0.50400001928E-02 0.  1.
       -1    1    3    3    0  502  0.56909995567E+03 -0.46901831792E+03 -0.96525234238E+03  0.12147283756E+04  0.50400001928E-02 0. -1.
</event>
<event>
 5   0  0.7416556E-06  0.2313828E+04  0.7818609E-02  0.8472489E-01
        1   -1    0    0  501    0  0.00000000000E+00  0.00000000000E+00  0.23197938153E+04  0.23197938153E+04  0.50400001928E-02 0.  1.
       -1   -1    0    0    0  501  0.00000000000E+00  0.00000000000E+00 -0.57696914135E+03  0.57696914138E+03  0.50400001928E-02 0. -1.
    10030    2    1    2    0    0  0.00000000000E+00  0.00000000000E+00  0.17428246739E+04  0.28967629566E+04  0.23138275180E+04 0.  0.
        4    1    3    3  502    0  0.11538127236E+04  0.17338026226E+02  0.76769474959E+03  0.13859802487E+04  0.12699999809E+01 0.  1.
       -4    1    3    3    0  502 -0.11538127236E+04 -0.17338026226E+02  0.97512992431E+03  0.15107827079E+04  0.12699999809E+01 0. -1.
</event>
<event>
 5   0  0.1635955E-05  0.2294308E+04  0.7818609E-02  0.8480169E-01
        2   -1    0    0  501    0  0.00000000000E+00  0.00000000000E+00  0.11292316500E+04  0.11292316500E+04  0.25500000920E-02 0.  1.
       -2   -1    0    0    0  501  0.00000000000E+00  0.00000000000E+00 -0.11653609013E+04  0.11653609013E+04  0.25500000920E-02 0. -1.
    10030    2    1    2    0    0  0.00000000000E+00  0.00000000000E+00 -0.36129251271E+02  0.22945925513E+04  0.22943080991E+04 0.  0.
        2    1    3    3  502    0 -0.20031552662E+01 -0.57290299884E+03  0.97590996827E+03  0.11316457595E+04  0.25500000920E-02 0.  1.
       -2    1    3    3    0  502  0.20031552662E+01  0.57290299884E+03 -0.10120392195E+04  0.11629467918E+04  0.25500000920E-02 0. -1.
</event>
<event>
 5   0  0.5704875E-06  0.2236168E+04  0.7818609E-02  0.8503523E-01
       -3   -1    0    0    0  501  0.00000000000E+00  0.00000000000E+00  0.85646769292E+03  0.85646769887E+03  0.10100000352E+00 0.  1.
        3   -1    0    0  501    0  0.00000000000E+00  0.00000000000E+00 -0.14596140549E+04  0.14596140584E+04  0.10100000352E+00 0. -1.
    10030    2    1    2    0    0  0.00000000000E+00  0.00000000000E+00 -0.60314636196E+03  0.23160817572E+04  0.22361684132E+04 0.  0.
        5    1    3    3  502    0 -0.71830243917E+03  0.52222341228E+03  0.40197687858E+03  0.97482469571E+03  0.46999998093E+01 0.  1.
       -5    1    3    3    0  502  0.71830243917E+03 -0.52222341228E+03 -0.10051232405E+04  0.13412570615E+04  0.46999998093E+01 0. -1.
</event>
<event>
 5   0  0.1697855E-05  0.2296859E+04  0.7818609E-02  0.8479161E-01
       -2   -1    0    0    0  501  0.00000000000E+00  0.00000000000E+00  0.15849529618E+04  0.15849529618E+04  0.25500000920E-02 0. -1.
        2   -1    0    0  501    0  0.00000000000E+00  0.00000000000E+00 -0.83213199518E+03  0.83213199519E+03  0.25500000920E-02 0.  1.
    10030    2    1    2    0    0  0.00000000000E+00  0.00000000000E+00  0.75282096662E+03  0.24170849570E+04  0.22968587857E+04 0.  0.
        5    1    3    3  502    0 -0.31761559855E+03  0.93827374515E+01 -0.78494048137E+03  0.84683017985E+03  0.46999998093E+01 0.  1.
       -5    1    3    3    0  502  0.31761559855E+03 -0.93827374515E+01  0.15377614480E+04  0.15702547771E+04  0.46999998093E+01 0. -1.
</event>
<event>
 5   0  0.1697855E-05  0.2291321E+04  0.7818609E-02  0.8481351E-01
        2   -1    0    0  501    0  0.00000000000E+00  0.00000000000E+00  0.11368547833E+04  0.11368547833E+04  0.25500000920E-02 0.  1.
       -2   -1    0    0    0  501  0.00000000000E+00  0.00000000000E+00 -0.11545341676E+04  0.11545341676E+04  0.25500000920E-02 0. -1.
    10030    2    1    2    0    0  0.00000000000E+00  0.00000000000E+00 -0.17679384227E+02  0.22913889509E+04  0.22913207466E+04 0.  0.
        5    1    3    3  502    0  0.10911730331E+03 -0.10883859847E+04 -0.34947420407E+03  0.11483226667E+04  0.46999998093E+01 0. -1.
       -5    1    3    3    0  502 -0.10911730331E+03  0.10883859847E+04  0.33179481985E+03  0.11430662842E+04  0.46999998093E+01 0.  1.
</event>
<event>
 5   0  0.7391007E-06  0.2294192E+04  0.7818609E-02  0.8480215E-01
       -1   -1    0    0    0  501  0.00000000000E+00  0.00000000000E+00  0.67857457688E+03  0.67857457690E+03  0.50400001928E-02 0.  1.
        1   -1    0    0  501    0  0.00000000000E+00  0.00000000000E+00 -0.19391078068E+04  0.19391078068E+04  0.50400001928E-02 0. -1.
    10030    2    1    2    0    0  0.00000000000E+00  0.00000000000E+00 -0.12605332299E+04  0.26176823837E+04  0.22941920229E+04 0.  0.
        1    1    3    3  502    0  0.63882306953E+03  0.94252617101E+03 -0.78910307618E+03  0.13853281785E+04  0.50400001928E-02 0.  1.
       -1    1    3    3    0  502 -0.63882306953E+03 -0.94252617101E+03 -0.47143015369E+03  0.12323542052E+04  0.50400001928E-02 0. -1.
</event>
<event>
 5   0  0.7416556E-06  0.2288799E+04  0.7818609E-02  0.8482351E-01
        1   -1    0    0  501    0  0.00000000000E+00  0.00000000000E+00  0.18346731219E+04  0.18346731219E+04  0.50400001928E-02 0.  1.
       -1   -1    0    0    0  501  0.00000000000E+00  0.00000000000E+00 -0.71383315295E+03  0.71383315297E+03  0.50400001928E-02 0. -1.
    10030    2    1    2    0    0  0.00000000000E+00  0.00000000000E+00  0.11208399689E+04  0.25485062748E+04  0.22887992479E+04 0.  0.
        4    1    3    3  502    0 -0.54288360963E+03  0.45189784459E+03 -0.44214378287E+03  0.83332287451E+03  0.12699999809E+01 0. -1.
       -4    1    3    3    0  502  0.54288360963E+03 -0.45189784459E+03  0.15629837518E+04  0.17151834003E+04  0.12699999809E+01 0.  1.
</event>
<event>
 5   0  0.1602809E-05  0.2289174E+04  0.7818609E-02  0.8482202E-01
       -2   -1    0    0    0  501  0.00000000000E+00  0.00000000000E+00  0.52220409218E+03  0.52220409218E+03  0.25500000920E-02 0.  1.
        2   -1    0    0  501    0  0.00000000000E+00  0.00000000000E+00 -0.25087489433E+04  0.25087489433E+04  0.25500000920E-02 0. -1.
    10030    2    1    2    0    0  0.00000000000E+00  0.00000000000E+00 -0.19865448511E+04  0.30309530355E+04  0.22891736190E+04 0.  0.
        3    1    3    3  502    0  0.93261180594E+03 -0.46434130665E+03 -0.36564300826E+03  0.11041161394E+04  0.10100000352E+00 0.  1.
       -3    1    3    3    0  502 -0.93261180594E+03  0.46434130665E+03 -0.16209018429E+04  0.19268368961E+04  0.10100000352E+00 0. -1.
</event>
<event>
 5   0  0.1588969E-05  0.2310815E+04  0.7818609E-02  0.8473669E-01
       -2   -1    0    0    0  501  0.00000000000E+00  0.00000000000E+00  0.87815584982E+03  0.87815584982E+03  0.25500000920E-02 0.  1.
        2   -1    0    0  501    0  0.00000000000E+00  0.00000000000E+00 -0.15201933301E+04  0.15201933301E+04  0.25500000920E-02 0. -1.
    10030    2    1    2    0    0  0.00000000000E+00  0.00000000000E+00 -0.64203748024E+03  0.23983491799E+04  0.23108151511E+04 0.  0.
        1    1    3    3  502    0 -0.13600301726E+03 -0.87340331449E+03 -0.10932716653E+04  0.14059065064E+04  0.50400001928E-02 0. -1.
       -1    1    3    3    0  502  0.13600301726E+03  0.87340331449E+03  0.45123418504E+03  0.99244267353E+03  0.50400001928E-02 0.  1.
</event>
<event>
 5   0  0.1697855E-05  0.2297283E+04  0.7818609E-02  0.8478993E-01
        2   -1    0    0  501    0  0.00000000000E+00  0.00000000000E+00  0.17421686520E+04  0.17421686520E+04  0.25500000920E-02 0. -1.
       -2   -1    0    0    0  501  0.00000000000E+00  0.00000000000E+00 -0.75731922431E+03  0.75731922432E+03  0.25500000920E-02 0.  1.
    10030    2    1    2    0    0  0.00000000000E+00  0.00000000000E+00  0.98484942769E+03  0.24994878763E+04  0.22972834498E+04 0.  0.
        5    1    3    3  502    0 -0.16360007728E+03  0.88057052426E+03 -0.29003133464E+03  0.94144022569E+03  0.46999998093E+01 0.  1.
       -5    1    3    3    0  502  0.16360007728E+03 -0.88057052426E+03  0.12748807623E+04  0.15580476506E+04  0.46999998093E+01 0. -1.
</event>
<event>
 5   0  0.5704875E-06  0.2302304E+04  0.7818609E-02  0.8477013E-01
        4   -1    0    0  501    0  0.00000000000E+00  0.00000000000E+00  0.95868048137E+03  0.95868132258E+03  0.12699999809E+01 0. -1.
       -4   -1    0    0    0  501  0.00000000000E+00  0.00000000000E+00 -0.13822640111E+04  0.13822645945E+04  0.12699999809E+01 0.  1.
    10030    2    1    2    0    0  0.00000000000E+00  0.00000000000E+00 -0.42358352969E+03  0.23409459171E+04  0.23023042327E+04 0.  0.
        1    1    3    3  502    0  0.60799911353E+03  0.97279954486E+03 -0.11453427864E+03  0.11528746582E+04  0.50400001928E-02 0. -1.
       -1    1    3    3    0  502 -0.60799911353E+03 -0.97279954486E+03 -0.30904925105E+03  0.11880712589E+04  0.50400001928E-02 0.  1.
</event>
<event>
 5   0  0.1602809E-05  0.2289680E+04  0.7818609E-02  0.8482001E-01
        2   -1    0    0  501    0  0.00000000000E+00  0.00000000000E+00  0.87087236145E+03  0.87087236145E+03  0.25500000920E-02 0.  1.
       -2   -1    0    0    0  501  0.00000000000E+00  0.00000000000E+00 -0.15049956119E+04  0.15049956119E+04  0.25500000920E-02 0. -1.
    10030    2    1    2    0    0  0.00000000000E+00  0.00000000000E+00 -0.63412325049E+03  0.23758679734E+04  0.22896803991E+04 0.  0.
        3    1    3    3  502    0 -0.52484939821E+03  0.69250041665E+02  0.73623246680E+03  0.90680798102E+03  0.10100000352E+00 0.  1.
       -3    1    3    3    0  502  0.52484939821E+03 -0.69250041665E+02 -0.13703557173E+04  0.14690599924E+04  0.10100000352E+00 0. -1.
</event>
<event>
 5   0  0.1626636E-05  0.2315508E+04  0.7818609E-02  0.8471832E-01
       -2   -1    0    0    0  501  0.00000000000E+00  0.00000000000E+00  0.13774202606E+04  0.13774202606E+04  0.25500000920E-02 0. -1.
        2   -1    0    0  501    0  0.00000000000E+00  0.00000000000E+00 -0.97311923445E+03  0.97311923446E+03  0.25500000920E-02 0.  1.
    10030    2    1    2    0    0  0.00000000000E+00  0.00000000000E+00  0.40430102612E+03  0.23505394950E+04  0.23155078488E+04 0.  0.
        4    1    3    3  502    0  0.70754231615E+03  0.14904748077E+03 -0.71572005971E+03  0.10173927941E+04  0.12699999809E+01 0.  1.
       -4    1    3    3    0  502 -0.70754231615E+03 -0.14904748077E+03  0.11200210858E+04  0.13331467010E+04  0.12699999809E+01 0. -1.
</event>
<event>
 5   0  0.5704875E-06  0.2282676E+04  0.7818609E-02  0.8484783E-01
       -3   -1    0    0    0  501  0.00000000000E+00  0.00000000000E+00  0.61839815366E+03  0.61839816190E+03  0.10100000352E+00 0.  1.
        3   -1    0    0  501    0  0.00000000000E+00  0.00000000000E+00 -0.21064938855E+04  0.21064938879E+04  0.10100000352E+00 0. -1.
    10030    2    1    2    0    0  0.00000000000E+00  0.00000000000E+00 -0.14880957318E+04  0.27248920498E+04  0.22826755740E+04 0.  0.
        4    1    3    3  502    0  0.41513217700E+03  0.54290850299E+03 -0.18352255630E+04  0.19583510531E+04  0.12699999809E+01 0. -1.
       -4    1    3    3    0  502 -0.41513217700E+03 -0.54290850299E+03  0.34712983123E+03  0.76654099670E+03  0.12699999809E+01 0.  1.
</event>
<event>
 5   0  0.1602809E-05  0.2295279E+04  0.7818609E-02  0.8479785E-01
       -2   -1    0    0    0  501  0.00000000000E+00  0.00000000000E+00  0.72521292946E+03  0.72521292946E+03  0.25500000920E-02 0.  1.
        2   -1    0    0  501    0  0.00000000000E+00  0.00000000000E+00 -0.18161235505E+04  0.18161235505E+04  0.25500000920E-02 0. -1.
    10030    2    1    2    0    0  0.00000000000E+00  0.00000000000E+00 -0.10909106211E+04  0.25413364800E+04  0.22952788766E+04 0.  0.
        3    1    3    3  502    0  0.17433594803E+03 -0.55838443792E+02 -0.17998543053E+04  0.18091397085E+04  0.10100000352E+00 0. -1.
       -3    1    3    3    0  502 -0.17433594803E+03  0.55838443792E+02  0.70894368420E+03  0.73219677146E+03  0.10100000352E+00 0.  1.
</event>
<event>
 5   0  0.1626636E-05  0.2303853E+04  0.7818609E-02  0.8476404E-01
        2   -1    0    0  501    0  0.00000000000E+00  0.00000000000E+00  0.13696877203E+04  0.13696877203E+04  0.25500000920E-02 0. -1.
       -2   -1    0    0    0  501  0.00000000000E+00  0.00000000000E+00 -0.96878613724E+03  0.96878613725E+03  0.25500000920E-02 0.  1.
    10030    2    1    2    0    0  0.00000000000E+00  0.00000000000E+00  0.40090158310E+03  0.23384738576E+04  0.23038528389E+04 0.  0.
        4    1    3    3  502    0 -0.92439138974E+03  0.55388246262E+03  0.61356526412E+03  0.12400601478E+04  0.12699999809E+01 0. -1.
       -4    1    3    3    0  502  0.92439138974E+03 -0.55388246262E+03 -0.21266368102E+03  0.10984137098E+04  0.12699999809E+01 0.  1.
</event>
<event>
 5   0  0.1588969E-05  0.2300224E+04  0.7818609E-02  0.8477833E-01
       -2   -1    0    0    0  501  0.00000000000E+00  0.00000000000E+00  0.47316678787E+03  0.47316678787E+03  0.25500000920E-02 0.  1.
        2   -1    0    0  501    0  0.00000000000E+00  0.00000000000E+00 -0.27955423977E+04  0.27955423977E+04  0.25500000920E-02 0. -1.
    10030    2    1    2    0    0  0.00000000000E+00  0.00000000000E+00 -0.23223756098E+04  0.32687091855E+04  0.23002241775E+04 0.  0.
        1    1    3    3  502    0 -0.28696738112E+03 -0.86933392740E+03 -0.21504864727E+04  0.23372385039E+04  0.50400001928E-02 0. -1.
       -1    1    3    3    0  502  0.28696738112E+03  0.86933392740E+03 -0.17188913712E+03  0.93147068158E+03  0.50400001928E-02 0.  1.
</event>
<event>
 5   0  0.7416556E-06  0.2298206E+04  0.7818609E-02  0.8478629E-01
       -1   -1    0    0    0  501  0.00000000000E+00  0.00000000000E+00  0.90298297275E+03  0.90298297277E+03  0.50400001928E-02 0.  1.
        1   -1    0    0  501    0  0.00000000000E+00  0.00000000000E+00 -0.14623067020E+04  0.14623067020E+04  0.50400001928E-02 0. -1.
    10030    2    1    2    0    0  0.00000000000E+00  0.00000000000E+00 -0.55932372923E+03  0.23652896748E+04  0.22982063031E+04 0.  0.
        4    1    3    3  502    0  0.50420283851E+03  0.65810671952E+03  0.53924671265E+03  0.98899625208E+03  0.12699999809E+01 0.  1.
       -4    1    3    3    0  502 -0.50420283851E+03 -0.65810671952E+03 -0.10985704419E+04  0.13762934227E+04  0.12699999809E+01 0. -1.
</event>
<event>
 5   0  0.1602809E-05  0.2283574E+04  0.7818609E-02  0.8484426E-01
       -2   -1    0    0    0  501  0.00000000000E+00  0.00000000000E+00  0.11956049835E+04  0.11956049835E+04  0.25500000920E-02 0.  1.
        2   -1    0    0  501    0  0.00000000000E+00  0.00000000000E+00 -0.10903916233E+04  0.10903916233E+04  0.25500000920E-02 0. -1.
    10030    2    1    2    0    0  0.00000000000E+00  0.00000000000E+00  0.10521336015E+03  0.22859966069E+04  0.22835740924E+04 0.  0.
        3    1    3    3  502    0 -0.15340832705E+03 -0.60366364656E+03  0.10105616197E+04  0.11870883330E+04  0.10100000352E+00 0.  1.
       -3    1    3    3    0  502  0.15340832705E+03  0.60366364656E+03 -0.90534825956E+03  0.10989082738E+04  0.10100000352E+00 0. -1.
</event>
<event>
 5   0  0.1697855E-05  0.2303382E+04  0.7818609E-02  0.8476589E-01
       -2   -1    0    0    0  501  0.00000000000E+00  0.00000000000E+00  0.57394383842E+03  0.57394383843E+03  0.25500000920E-02 0. -1.
        2   -1    0    0  501    0  0.00000000000E+00  0.00000000000E+00 -0.23110129060E+04  0.23110129060E+04  0.25500000920E-02 0.  1.
    10030    2    1    2    0    0  0.00000000000E+00  0.00000000000E+00 -0.17370690676E+04  0.28849567444E+04  0.23033815298E+04 0.  0.
        5    1    3    3  502    0  0.22392744472E+03  0.10445464242E+04 -0.14074664093E+04  0.17669760938E+04  0.46999998093E+01 0.  1.
       -5    1    3    3    0  502 -0.22392744472E+03 -0.10445464242E+04 -0.32960265824E+03  0.11179806506E+04  0.46999998093E+01 0. -1.
</event>
<event>
 5   0  0.7183014E-06  0.2296362E+04  0.7818609E-02  0.8479357E-01
        1   -1    0    0  501    0  0.00000000000E+00  0.00000000000E+00  0.20527010525E+04  0.20527010525E+04  0.50400001928E-02 0.  1.
       -1   -1    0    0    0  501  0.00000000000E+00  0.00000000000E+00 -0.64223664795E+03  0.64223664797E+03  0.50400001928E-02 0. -1.
    10030    2    1    2    0    0  0.00000000000E+00  0.00000000000E+00  0.14104644045E+04  0.26949377005E+04  0.22963622042E+04 0.  0.
        3    1    3    3  502    0  0.82910459828E+03 -0.86641337796E+02  0.16318300301E+04  0.18324274648E+04  0.10100000352E+00 0.  1.
       -3    1    3    3    0  502 -0.82910459828E+03  0.86641337796E+02 -0.22136562555E+03  0.86251023570E+03  0.10100000352E+00 0. -1.
</event>
<event>
 5   0  0.7416556E-06  0.2298007E+04  0.7818609E-02  0.8478708E-01
       -1   -1    0    0    0  501  0.00000000000E+00  0.00000000000E+00  0.23100322333E+04  0.23100322333E+04  0.50400001928E-02 0. -1.
        1   -1    0    0  501    0  0.00000000000E+00  0.00000000000E+00 -0.57151086612E+03  0.57151086614E+03  0.50400001928E-02 0.  1.
    10030    2    1    2    0    0  0.00000000000E+00  0.00000000000E+00  0.17385213672E+04  0.28815430994E+04  0.22980065469E+04 0.  0.
        4    1    3    3  502    0  0.53199976089E+03  0.37187944805E+03  0.20581101094E+04  0.21580400610E+04  0.12699999809E+01 0. -1.
       -4    1    3    3    0  502 -0.53199976089E+03 -0.37187944805E+03 -0.31958874229E+03  0.72350303840E+03  0.12699999809E+01 0.  1.
</event>
<event>
 5   0  0.1626636E-05  0.2301588E+04  0.7818609E-02  0.8477295E-01
       -2   -1    0    0    0  501  0.00000000000E+00  0.00000000000E+00  0.16753927966E+04  0.16753927966E+04  0.25500000920E-02 0.  1.
        2   -1    0    0  501    0  0.00000000000E+00  0.00000000000E+00 -0.79045725844E+03  0.79045725845E+03  0.25500000920E-02 0. -1.
    10030    2    1    2    0    0  0.00000000000E+00  0.00000000000E+00  0.88493553817E+03  0.24658500551E+04  0.23015876232E+04 0.  0.
        4    1    3    3  502    0 -0.26822469904E+03 -0.41406273169E+03  0.15563477734E+04  0.16326703401E+04  0.12699999809E+01 0.  1.
       -4    1    3    3    0  502  0.26822469904E+03  0.41406273169E+03 -0.67141223518E+03  0.83317971495E+03  0.12699999809E+01 0. -1.
</event>
<event>
 5   0  0.7183014E-06  0.2294920E+04  0.7818609E-02  0.8479927E-01
        1   -1    0    0  501    0  0.00000000000E+00  0.00000000000E+00  0.15110892629E+04  0.15110892629E+04  0.50400001928E-02 0.  1.
       -1   -1    0    0    0  501  0.00000000000E+00  0.00000000000E+00 -0.87133449304E+03  0.87133449306E+03  0.50400001928E-02 0. -1.
    10030    2    1    2    0    0  0.00000000000E+00  0.00000000000E+00  0.63975476981E+03  0.23824237559E+04  0.22949197780E+04 0.  0.
        3    1    3    3  502    0 -0.39499882274E+03  0.26469993150E+03 -0.76424692879E+03  0.90009082990E+03  0.10100000352E+00 0. -1.
       -3    1    3    3    0  502  0.39499882274E+03 -0.26469993150E+03  0.14040016986E+04  0.14823329260E+04  0.10100000352E+00 0.  1.
</event>
<event>
 5   0  0.1697855E-05  0.2293591E+04  0.7818609E-02  0.8480453E-01
       -2   -1    0    0    0  501  0.00000000000E+00  0.00000000000E+00  0.84867676330E+03  0.84867676330E+03  0.25500000920E-02 0.  1.
        2   -1    0    0  501    0  0.00000000000E+00  0.00000000000E+00 -0.15496352342E+04  0.15496352342E+04  0.25500000920E-02 0. -1.
    10030    2    1    2    0    0  0.00000000000E+00  0.00000000000E+00 -0.70095847090E+03  0.23983119975E+04  0.22935905605E+04 0.  0.
        5    1    3    3  502    0  0.46699387845E+03  0.27380365215E+03  0.70665265318E+03  0.89018637638E+03  0.46999998093E+01 0.  1.
       -5    1    3    3    0  502 -0.46699387845E+03 -0.27380365215E+03 -0.14076111241E+04  0.15081256211E+04  0.46999998093E+01 0. -1.
</event>
<event>
 5   0  0.1635955E-05  0.2297612E+04  0.7818609E-02  0.8478863E-01
        2   -1    0    0  501    0  0.00000000000E+00  0.00000000000E+00  0.21891979677E+04  0.21891979677E+04  0.25500000920E-02 0.  1.
       -2   -1    0    0    0  501  0.00000000000E+00  0.00000000000E+00 -0.60284898990E+03  0.60284898991E+03  0.25500000920E-02 0. -1.
    10030    2    1    2    0    0  0.00000000000E+00  0.00000000000E+00  0.15863489778E+04  0.27920469576E+04  0.22976124856E+04 0.  0.
        2    1    3    3  502    0 -0.11192938099E+03 -0.11294125853E+04  0.10093795153E+04  0.15188640427E+04  0.25500000920E-02 0. -1.
       -2    1    3    3    0  502  0.11192938099E+03  0.11294125853E+04  0.57696946241E+03  0.12731829149E+04  0.25500000920E-02 0.  1.
</event>
<event>
 5   0  0.1697855E-05  0.2296472E+04  0.7818609E-02  0.8479314E-01
        2   -1    0    0  501    0  0.00000000000E+00  0.00000000000E+00  0.15285515278E+04  0.15285515278E+04  0.25500000920E-02 0. -1.
       -2   -1    0    0    0  501  0.00000000000E+00  0.00000000000E+00 -0.86254565864E+03  0.86254565864E+03  0.25500000920E-02 0.  1.
    10030    2    1    2    0    0  0.00000000000E+00  0.00000000000E+00  0.66600586915E+03  0.23910971864E+04  0.22964716278E+04 0.  0.
        5    1    3    3  502    0 -0.65690169271E+03 -0.94128235475E+03  0.30192181195E+03  0.11868913917E+04  0.46999998093E+01 0. -1.
       -5    1    3    3    0  502  0.65690169271E+03  0.94128235475E+03  0.36408405721E+03  0.12042057947E+04  0.46999998093E+01 0.  1.
</event>
<event>
 5   0  0.7278815E-06  0.2304975E+04  0.7818609E-02  0.8475962E-01
       -1   -1    0    0    0  501  0.00000000000E+00  0.00000000000E+00  0.90174347585E+03  0.90174347587E+03  0.50400001928E-02 0.  1.
        1   -1    0    0  501    0  0.00000000000E+00  0.00000000000E+00 -0.14729546600E+04  0.14729546600E+04  0.50400001928E-02 0. -1.
    10030    2    1    2    0    0  0.00000000000E+00  0.00000000000E+00 -0.57121118416E+03  0.23746981359E+04  0.23049748414E+04 0.  0.
        5    1    3    3  502    0  0.78048714320E+03  0.39715572804E+03 -0.10574762040E+04  0.13730152457E+04  0.46999998093E+01 0. -1.
       -5    1    3    3    0  502 -0.78048714320E+03 -0.39715572804E+03  0.48626501979E+03  0.10016828902E+04  0.46999998093E+01 0.  1.
</event>
<event>
 5   0  0.7416556E-06  0.2303188E+04  0.7818609E-02  0.8476665E-01
        1   -1    0    0  501    0  0.00000000000E+00  0.00000000000E+00  0.86010762797E+03  0.86010762798E+03  0.50400001928E-02 0.  1.
       -1   -1    0    0    0  501  0.00000000000E+00  0.00000000000E+00 -0.15418640371E+04  0.15418640371E+04  0.50400001928E-02 0. -1.
    10030    2    1    2    0    0  0.00000000000E+00  0.00000000000E+00 -0.68175640913E+03  0.24019716651E+04  0.23031882421E+04 0.  0.
        4    1    3    3  502    0 -0.29256706997E+03 -0.87022113487E+03 -0.10658832742E+04  0.14067654677E+04  0.12699999809E+01 0. -1.
       -4    1    3    3    0  502  0.29256706997E+03  0.87022113487E+03  0.38412686505E+03  0.99520619740E+03  0.12699999809E+01 0.  1.
</event>
<event>
 5   0  0.1602809E-05  0.2297640E+04  0.7818609E-02  0.8478852E-01
        2   -1    0    0  501    0  0.00000000000E+00  0.00000000000E+00  0.27247499827E+04  0.27247499827E+04  0.25500000920E-02 0. -1.
       -2   -1    0    0    0  501  0.00000000000E+00  0.00000000000E+00 -0.48437003559E+03  0.48437003559E+03  0.25500000920E-02 0.  1.
    10030    2    1    2    0    0  0.00000000000E+00  0.00000000000E+00  0.22403799471E+04  0.32091200183E+04  0.22976398726E+04 0.  0.
        3    1    3    3  502    0 -0.37471321452E+03  0.98546378372E+03  0.48283059296E+03  0.11596009028E+04  0.10100000352E+00 0.  1.
       -3    1    3    3    0  502  0.37471321452E+03 -0.98546378372E+03  0.17575493541E+04  0.20495191154E+04  0.10100000352E+00 0. -1.
</event>
<event>
 5   0  0.7202572E-06  0.2301223E+04  0.7818609E-02  0.8477439E-01
       -1   -1    0    0    0  501  0.00000000000E+00  0.00000000000E+00  0.10484434827E+04  0.10484434827E+04  0.50400001928E-02 0.  1.
        1   -1    0    0  501    0  0.00000000000E+00  0.00000000000E+00 -0.12627359438E+04  0.12627359438E+04  0.50400001928E-02 0. -1.
    10030    2    1    2    0    0  0.00000000000E+00  0.00000000000E+00 -0.21429246110E+03  0.23111794264E+04  0.23012233882E+04 0.  0.
        2    1    3    3  502    0 -0.59244359923E+03  0.45181497676E+02  0.88244736216E+03  0.10638346361E+04  0.25500000920E-02 0.  1.
       -2    1    3    3    0  502  0.59244359923E+03 -0.45181497676E+02 -0.10967398233E+04  0.12473447903E+04  0.25500000920E-02 0. -1.
</event>
<event>
 5   0  0.1626636E-05  0.2296198E+04  0.7818609E-02  0.8479422E-01
        2   -1    0    0  501    0  0.00000000000E+00  0.00000000000E+00  0.81050109096E+03  0.81050109096E+03  0.25500000920E-02 0. -1.
       -2   -1    0    0    0  501  0.00000000000E+00  0.00000000000E+00 -0.16263166016E+04  0.16263166016E+04  0.25500000920E-02 0.  1.
    10030    2    1    2    0    0  0.00000000000E+00  0.00000000000E+00 -0.81581551060E+03  0.24368176925E+04  0.22961980575E+04 0.  0.
        4    1    3    3  502    0  0.10894618134E+03  0.28241877604E+03  0.76738888188E+03  0.82493450918E+03  0.12699999809E+01 0. -1.
       -4    1    3    3    0  502 -0.10894618134E+03 -0.28241877604E+03 -0.15832043925E+04  0.16118831833E+04  0.12699999809E+01 0.  1.
</event>
<event>
 5   0  0.7416556E-06  0.2307280E+04  0.7818609E-02  0.8475056E-01
       -1   -1    0    0    0  501  0.00000000000E+00  0.00000000000E+00  0.50690165053E+03  0.50690165056E+03  0.50400001928E-02 0. -1.
        1   -1    0    0  501    0  0.00000000000E+00  0.00000000000E+00 -0.26255290811E+04  0.26255290811E+04  0.50400001928E-02 0.  1.
    10030    2    1    2    0    0  0.00000000000E+00  0.00000000000E+00 -0.21186274306E+04  0.31324307317E+04  0.23072798051E+04 0.  0.
        4    1    3    3  502    0 -0.34650578336E+03 -0.10859986467E+04 -0.12999785234E+04  0.17289896162E+04  0.12699999809E+01 0.  1.
       -4    1    3    3    0  502  0.34650578336E+03  0.10859986467E+04 -0.81864890713E+03  0.14034411155E+04  0.12699999809E+01 0. -1.
</event>
<event>
 5   0  0.7391007E-06  0.2304504E+04  0.7818609E-02  0.8476148E-01
       -1   -1    0    0    0  501  0.00000000000E+00  0.00000000000E+00  0.83149306098E+03  0.83149306099E+03  0.50400001928E-02 0. -1.
        1   -1    0    0  501    0  0.00000000000E+00  0.00000000000E+00 -0.15967472687E+04  0.15967472687E+04  0.50400001928E-02 0.  1.
    10030    2    1    2    0    0  0.00000000000E+00  0.00000000000E+00 -0.76525420776E+03  0.24282403297E+04  0.23045036551E+04 0.  0.
        1    1    3    3  502    0 -0.58660697687E+03  0.64526975278E+03  0.41094009412E+03  0.96402933573E+03  0.50400001928E-02 0. -1.
       -1    1    3    3    0  502  0.58660697687E+03 -0.64526975278E+03 -0.11761943019E+04  0.14642109940E+04  0.50400001928E-02 0.  1.
</event>
<event>
 5   0  0.7278815E-06  0.2287003E+04  0.7818609E-02  0.8483063E-01
       -1   -1    0    0    0  501  0.00000000000E+00  0.00000000000E+00  0.14669342508E+04  0.14669342508E+04  0.50400001928E-02 0.  1.
        1   -1    0    0  501    0  0.00000000000E+00  0.00000000000E+00 -0.89138020841E+03  0.89138020843E+03  0.50400001928E-02 0. -1.
    10030    2    1    2    0    0  0.00000000000E+00  0.00000000000E+00  0.57555404242E+03  0.23583144593E+04  0.22870034178E+04 0.  0.
        5    1    3    3  502    0 -0.54490700720E+03 -0.92262466468E+03 -0.12393953728E+03  0.10786765119E+04  0.46999998093E+01 0. -1.
       -5    1    3    3    0  502  0.54490700720E+03  0.92262466468E+03  0.69949357970E+03  0.12796379474E+04  0.46999998093E+01 0.  1.
</event>
<event>
 5   0  0.7183014E-06  0.2303205E+04  0.7818609E-02  0.8476658E-01
        1   -1    0    0  501    0  0.00000000000E+00  0.00000000000E+00  0.55879126073E+03  0.55879126075E+03  0.50400001928E-02 0. -1.
       -1   -1    0    0    0  501  0.00000000000E+00  0.00000000000E+00 -0.23733164111E+04  0.23733164111E+04  0.50400001928E-02 0.  1.
    10030    2    1    2    0    0  0.00000000000E+00  0.00000000000E+00 -0.18145251504E+04  0.29321076719E+04  0.23032051316E+04 0.  0.
        3    1    3    3  502    0  0.32703802329E+03  0.79693613785E+03  0.65711071934E+02  0.86393230734E+03  0.10100000352E+00 0. -1.
       -3    1    3    3    0  502 -0.32703802329E+03 -0.79693613785E+03 -0.18802362223E+04  0.20681753645E+04  0.10100000352E+00 0.  1.
</event>
<event>
 5   0  0.1635955E-05  0.2293691E+04  0.7818609E-02  0.8480413E-01
       -2   -1    0    0    0  501  0.00000000000E+00  0.00000000000E+00  0.16734391343E+04  0.16734391343E+04  0.25500000920E-02 0. -1.
        2   -1    0    0  501    0  0.00000000000E+00  0.00000000000E+00 -0.78595901359E+03  0.78595901360E+03  0.25500000920E-02 0.  1.
    10030    2    1    2    0    0  0.00000000000E+00  0.00000000000E+00  0.88748012070E+03  0.24593981479E+04  0.22936909742E+04 0.  0.
        2    1    3    3  502    0 -0.24385715773E+02 -0.85160210993E+03 -0.37947145586E+03  0.93264108991E+03  0.25500000920E-02 0.  1.
       -2    1    3    3    0  502  0.24385715773E+02  0.85160210993E+03  0.12669515766E+04  0.15267570580E+04  0.25500000920E-02 0. -1.
</event>
<event>
 5   0  0.7416556E-06  0.2284796E+04  0.7818609E-02  0.8483940E-01
       -1   -1    0    0    0  501  0.00000000000E+00  0.00000000000E+00  0.78085606974E+03  0.78085606976E+03  0.50400001928E-02 0. -1.
        1   -1    0    0  501    0  0.00000000000E+00  0.00000000000E+00 -0.16713367850E+04  0.16713367850E+04  0.50400001928E-02 0.  1.
    10030    2    1    2    0    0  0.00000000000E+00  0.00000000000E+00 -0.89048071523E+03  0.24521928547E+04  0.22847962475E+04 0.  0.
        4    1    3    3  502    0 -0.96974892804E+03 -0.40590911202E+03 -0.92509524786E+03  0.14003492497E+04  0.12699999809E+01 0.  1.
       -4    1    3    3    0  502  0.96974892804E+03  0.40590911202E+03  0.34614532637E+02  0.10518436050E+04  0.12699999809E+01 0. -1.
</event>
<event>
 5   0  0.1602809E-05  0.2275942E+04  0.7818609E-02  0.8487468E-01
        2   -1    0    0  501    0  0.00000000000E+00  0.00000000000E+00  0.11490360930E+04  0.11490360930E+04  0.25500000920E-02 0. -1.
       -2   -1    0    0    0  501  0.00000000000E+00  0.00000000000E+00 -0.11270121810E+04  0.11270121810E+04  0.25500000920E-02 0.  1.
    10030    2    1    2    0    0  0.00000000000E+00  0.00000000000E+00  0.22023911938E+02  0.22760482740E+04  0.22759417156E+04 0.  0.
        3    1    3    3  502    0  0.22938524860E+03 -0.42662103340E+03 -0.10187714472E+04  0.11280595597E+04  0.10100000352E+00 0.  1.
       -3    1    3    3    0  502 -0.22938524860E+03  0.42662103340E+03  0.10407953591E+04  0.11479887143E+04  0.10100000352E+00 0. -1.
</event>
<event>
 5   0  0.1626636E-05  0.2298200E+04  0.7818609E-02  0.8478631E-01
       -2   -1    0    0    0  501  0.00000000000E+00  0.00000000000E+00  0.67961872238E+03  0.67961872238E+03  0.25500000920E-02 0. -1.
        2   -1    0    0  501    0  0.00000000000E+00  0.00000000000E+00 -0.19428993951E+04  0.19428993951E+04  0.25500000920E-02 0.  1.
    10030    2    1    2    0    0  0.00000000000E+00  0.00000000000E+00 -0.12632806727E+04  0.26225181174E+04  0.22981999953E+04 0.  0.
        4    1    3    3  502    0 -0.61393896234E+03 -0.71644408842E+03  0.11682891269E+03  0.95071751275E+03  0.12699999809E+01 0. -1.
       -4    1    3    3    0  502  0.61393896234E+03  0.71644408842E+03 -0.13801095854E+04  0.16718006047E+04  0.12699999809E+01 0.  1.
</event>
<event>
 5   0  0.7391007E-06  0.2265449E+04  0.7818609E-02  0.8491670E-01
        1   -1    0    0  501    0  0.00000000000E+00  0.00000000000E+00  0.95748695095E+03  0.95748695096E+03  0.50400001928E-02 0. -1.
       -1   -1    0    0    0  501  0.00000000000E+00  0.00000000000E+00 -0.13400342780E+04  0.13400342780E+04  0.50400001928E-02 0.  1.
    10030    2    1    2    0    0  0.00000000000E+00  0.00000000000E+00 -0.38254732706E+03  0.22975212290E+04  0.22654494786E+04 0.  0.
        1    1    3    3  502    0 -0.66896554385E+03  0.61597537671E+03 -0.87620491268E+03  0.12628046613E+04  0.50400001928E-02 0.  1.
       -1    1    3    3    0  502  0.66896554385E+03 -0.61597537671E+03  0.49365758562E+03  0.10347165677E+04  0.50400001928E-02 0. -1.
</event>
<event>
 5   0  0.1697855E-05  0.2307650E+04  0.7818609E-02  0.8474911E-01
       -2   -1    0    0    0  501  0.00000000000E+00  0.00000000000E+00  0.60205645641E+03  0.60205645642E+03  0.25500000920E-02 0. -1.
        2   -1    0    0  501    0  0.00000000000E+00  0.00000000000E+00 -0.22112737104E+04  0.22112737104E+04  0.25500000920E-02 0.  1.
    10030    2    1    2    0    0  0.00000000000E+00  0.00000000000E+00 -0.16092172540E+04  0.28133301668E+04  0.23076495524E+04 0.  0.
        5    1    3    3  502    0 -0.97240162212E+03  0.60727966875E+03 -0.96326460552E+03  0.14974158744E+04  0.46999998093E+01 0. -1.
       -5    1    3    3    0  502  0.97240162212E+03 -0.60727966875E+03 -0.64595264845E+03  0.13159142924E+04  0.46999998093E+01 0.  1.
</event>
<event>
 5   0  0.1588969E-05  0.2306371E+04  0.7818609E-02  0.8475413E-01
        2   -1    0    0  501    0  0.00000000000E+00  0.00000000000E+00  0.12054175093E+04  0.12054175093E+04  0.25500000920E-02 0.  1.
       -2   -1    0    0    0  501  0.00000000000E+00  0.00000000000E+00 -0.11032171257E+04  0.11032171257E+04  0.25500000920E-02 0. -1.
    10030    2    1    2    0    0  0.00000000000E+00  0.00000000000E+00  0.10220038360E+03  0.23086346350E+04  0.23063713837E+04 0.  0.
        1    1    3    3  502    0 -0.22789641882E+03  0.93117080708E+03 -0.59048227918E+03  0.11259152596E+04  0.50400001928E-02 0. -1.
       -1    1    3    3    0  502  0.22789641882E+03 -0.93117080708E+03  0.69268266278E+03  0.11827193754E+04  0.50400001928E-02 0.  1.
</event>
<event>
 5   0  0.1602809E-05  0.2249948E+04  0.7818609E-02  0.8497921E-01
       -2   -1    0    0    0  501  0.00000000000E+00  0.00000000000E+00  0.10912533689E+04  0.10912533689E+04  0.25500000920E-02 0.  1.
        2   -1    0    0  501    0  0.00000000000E+00  0.00000000000E+00 -0.11597368245E+04  0.11597368245E+04  0.25500000920E-02 0. -1.
    10030    2    1    2    0    0  0.00000000000E+00  0.00000000000E+00 -0.68483455542E+02  0.22509901934E+04  0.22499481921E+04 0.  0.
        3    1    3    3  502    0 -0.37503728829E+03  0.10590792597E+04  0.22923693547E+02  0.11237559129E+04  0.10100000352E+00 0. -1.
       -3    1    3    3    0  502  0.37503728829E+03 -0.10590792597E+04 -0.91407149088E+02  0.11272342804E+04  0.10100000352E+00 0.  1.
</event>
<event>
 5   0  0.7391007E-06  0.2240130E+04  0.7818609E-02  0.8501908E-01
       -1   -1    0    0    0  501  0.00000000000E+00  0.00000000000E+00  0.10997282861E+04  0.10997282861E+04  0.50400001928E-02 0. -1.
        1   -1    0    0  501    0  0.00000000000E+00  0.00000000000E+00 -0.11407781825E+04  0.11407781825E+04  0.50400001928E-02 0.  1.
    10030    2    1    2    0    0  0.00000000000E+00  0.00000000000E+00 -0.41049896399E+02  0.22405064686E+04  0.22401303850E+04 0.  0.
        1    1    3    3  502    0  0.65213413332E+03  0.68560766979E+03  0.57891633526E+03  0.11092704485E+04  0.50400001928E-02 0. -1.
       -1    1    3    3    0  502 -0.65213413332E+03 -0.68560766979E+03 -0.61996623166E+03  0.11312360201E+04  0.50400001928E-02 0.  1.
</event>
<event>
 5   0  0.7202572E-06  0.2296531E+04  0.7818609E-02  0.8479290E-01
        1   -1    0    0  501    0  0.00000000000E+00  0.00000000000E+00  0.15938619062E+04  0.15938619063E+04  0.50400001928E-02 0. -1.
       -1   -1    0    0    0  501  0.00000000000E+00  0.00000000000E+00 -0.82724462045E+03  0.82724462047E+03  0.50400001928E-02 0.  1.
    10030    2    1    2    0    0  0.00000000000E+00  0.00000000000E+00  0.76661728579E+03  0.24211065267E+04  0.22965310254E+04 0.  0.
        2    1    3    3  502    0  0.11202017770E+04  0.13852089735E+03  0.16098130971E+03  0.11401557097E+04  0.25500000920E-02 0.  1.
       -2    1    3    3    0  502 -0.11202017770E+04 -0.13852089735E+03  0.60563597608E+03  0.12809508171E+04  0.25500000920E-02 0. -1.
</event>
<event>
 5   0  0.1588969E-05  0.2288992E+04  0.7818609E-02  0.8482274E-01
        2   -1    0    0  501    0  0.00000000000E+00  0.00000000000E+00  0.24319775832E+04  0.24319775832E+04  0.25500000920E-02 0.  1.
       -2   -1    0    0    0  501  0.00000000000E+00  0.00000000000E+00 -0.53860334873E+03  0.53860334873E+03  0.25500000920E-02 0. -1.
    10030    2    1    2    0    0  0.00000000000E+00  0.00000000000E+00  0.18933742345E+04  0.29705809320E+04  0.22889921541E+04 0.  0.
        1    1    3    3  502    0  0.18583692123E+03  0.28211286124E+03  0.23658000587E+04  0.23897976788E+04  0.50400001928E-02 0.  1.
       -1    1    3    3    0  502 -0.18583692123E+03 -0.28211286124E+03 -0.47242582420E+03  0.58078325317E+03  0.50400001928E-02 0. -1.
</event>
<event>
 5   0  0.1602809E-05  0.2309617E+04  0.7818609E-02  0.8474139E-01
       -2   -1    0    0    0  501  0.00000000000E+00  0.00000000000E+00  0.10359888341E+04  0.10359888341E+04  0.25500000920E-02 0.  1.
        2   -1    0    0  501    0  0.00000000000E+00  0.00000000000E+00 -0.12872554909E+04  0.12872554909E+04  0.25500000920E-02 0. -1.
    10030    2    1    2    0    0  0.00000000000E+00  0.00000000000E+00 -0.25126665674E+03  0.23232443250E+04  0.23096166914E+04 0.  0.
        3    1    3    3  502    0 -0.97488514501E+03 -0.24060669841E+03  0.44807362725E+03  0.10995738333E+04  0.10100000352E+00 0.  1.
       -3    1    3    3    0  502  0.97488514501E+03  0.24060669841E+03 -0.69934028400E+03  0.12236704917E+04  0.10100000352E+00 0. -1.
</event>
<event>
 5   0  0.7278815E-06  0.2300961E+04  0.7818609E-02  0.8477542E-01
        1   -1    0    0  501    0  0.00000000000E+00  0.00000000000E+00  0.79579328411E+03  0.79579328412E+03  0.50400001928E-02 0.  1.
       -1   -1    0    0    0  501  0.00000000000E+00  0.00000000000E+00 -0.16632527859E+04  0.16632527859E+04  0.50400001928E-02 0. -1.
    10030    2    1    2    0    0  0.00000000000E+00  0.00000000000E+00 -0.86745950176E+03  0.24590460700E+04  0.23009610138E+04 0.  0.
        5    1    3    3  502    0  0.66664542031E+03  0.74171920320E+02 -0.14326482408E+04  0.15819041254E+04  0.46999998093E+01 0. -1.
       -5    1    3    3    0  502 -0.66664542031E+03 -0.74171920320E+02  0.56518873904E+03  0.87714194457E+03  0.46999998093E+01 0.  1.
</event>
<event>
 5   0  0.1602809E-05  0.2296611E+04  0.7818609E-02  0.8479259E-01
        2   -1    0    0  501    0  0.00000000000E+00  0.00000000000E+00  0.11724095701E+04  0.11724095701E+04  0.25500000920E-02 0.  1.
       -2   -1    0    0    0  501  0.00000000000E+00  0.00000000000E+00 -0.11246966945E+04  0.11246966945E+04  0.25500000920E-02 0. -1.
    10030    2    1    2    0    0  0.00000000000E+00  0.00000000000E+00  0.47712875520E+02  0.22971062646E+04  0.22966106924E+04 0.  0.
        3    1    3    3  502    0 -0.17662387038E+03  0.92533698160E+02  0.11549614949E+04  0.11720471585E+04  0.10100000352E+00 0.  1.
       -3    1    3    3    0  502  0.17662387038E+03 -0.92533698160E+02 -0.11072486194E+04  0.11250591061E+04  0.10100000352E+00 0. -1.
</event>
<event>
 5   0  0.7416556E-06  0.2297933E+04  0.7818609E-02  0.8478737E-01
       -1   -1    0    0    0  501  0.00000000000E+00  0.00000000000E+00  0.79713570779E+03  0.79713570781E+03  0.50400001928E-02 0.  1.
        1   -1    0    0  501    0  0.00000000000E+00  0.00000000000E+00 -0.16560838207E+04  0.16560838207E+04  0.50400001928E-02 0. -1.
    10030    2    1    2    0    0  0.00000000000E+00  0.00000000000E+00 -0.85894811286E+03  0.24532195285E+04  0.22979325913E+04 0.  0.
        4    1    3    3  502    0 -0.90680619764E+03  0.31444219345E+03 -0.11037826110E+04  0.14627060669E+04  0.12699999809E+01 0. -1.
       -4    1    3    3    0  502  0.90680619764E+03 -0.31444219345E+03  0.24483449810E+03  0.99051346153E+03  0.12699999809E+01 0.  1.
</event>
<event>
 5   0  0.7416556E-06  0.2233943E+04  0.7818609E-02  0.8504432E-01
       -1   -1    0    0    0  501  0.00000000000E+00  0.00000000000E+00  0.16591012197E+04  0.16591012197E+04  0.50400001928E-02 0.  1.
        1   -1    0    0  501    0  0.00000000000E+00  0.00000000000E+00 -0.75198847174E+03  0.75198847176E+03  0.50400001928E-02 0. -1.
    10030    2    1    2    0    0  0.00000000000E+00  0.00000000000E+00  0.90711274796E+03  0.24110896915E+04  0.22339426946E+04 0.  0.
        4    1    3    3  502    0  0.33096760917E+03 -0.27398034626E+03  0.15663426670E+04  0.16242031129E+04  0.12699999809E+01 0.  1.
       -4    1    3    3    0  502 -0.33096760917E+03  0.27398034626E+03 -0.65922991907E+03  0.78688657858E+03  0.12699999809E+01 0. -1.
</event>
<event>
 5   0  0.1602809E-05  0.2296599E+04  0.7818609E-02  0.8479263E-01
        2   -1    0    0  501    0  0.00000000000E+00  0.00000000000E+00  0.20511484697E+04  0.20511484697E+04  0.25500000920E-02 0. -1.
       -2   -1    0    0    0  501  0.00000000000E+00  0.00000000000E+00 -0.64285506274E+03  0.64285506274E+03  0.25500000920E-02 0.  1.
    10030    2    1    2    0    0  0.00000000000E+00  0.00000000000E+00  0.14082934070E+04  0.26940035325E+04  0.22965985093E+04 0.  0.
        3    1    3    3  502    0 -0.58106090164E+03 -0.23193972653E+03  0.18336596484E+04  0.19374559413E+04  0.10100000352E+00 0. -1.
       -3    1    3    3    0  502  0.58106090164E+03  0.23193972653E+03 -0.42536624140E+03  0.75654759116E+03  0.10100000352E+00 0.  1.
</event>
<event>
 5   0  0.7183014E-06  0.2297253E+04  0.7818609E-02  0.8479005E-01
        1   -1    0    0  501    0  0.00000000000E+00  0.00000000000E+00  0.71379963292E+03  0.71379963294E+03  0.50400001928E-02 0. -1.
       -1   -1    0    0    0  501  0.00000000000E+00  0.00000000000E+00 -0.18483375025E+04  0.18483375025E+04  0.50400001928E-02 0.  1.
    10030    2    1    2    0    0  0.00000000000E+00  0.00000000000E+00 -0.11345378695E+04  0.25621371354E+04  0.22972528209E+04 0.  0.
        3    1    3    3  502    0 -0.46123905536E+03  0.66423285507E+03 -0.14770431579E+04  0.16839249545E+04  0.10100000352E+00 0.  1.
       -3    1    3    3    0  502  0.46123905536E+03 -0.66423285507E+03  0.34250528835E+03  0.87821218090E+03  0.10100000352E+00 0. -1.
</event>
<event>
 5   0  0.7391007E-06  0.2287416E+04  0.7818609E-02  0.8482900E-01
       -1   -1    0    0    0  501  0.00000000000E+00  0.00000000000E+00  0.14906068133E+04  0.14906068133E+04  0.50400001928E-02 0. -1.
        1   -1    0    0  501    0  0.00000000000E+00  0.00000000000E+00 -0.87754029651E+03  0.87754029653E+03  0.50400001928E-02 0.  1.
    10030    2    1    2    0    0  0.00000000000E+00  0.00000000000E+00  0.61306651674E+03  0.23681471098E+04  0.22874156115E+04 0.  0.
        1    1    3    3  502    0  0.28069491428E+02 -0.34699610891E+03  0.14344207635E+04  0.14760613546E+04  0.50400001928E-02 0. -1.
       -1    1    3    3    0  502 -0.28069491428E+02  0.34699610891E+03 -0.82135424672E+03  0.89208575517E+03  0.50400001928E-02 0.  1.
</event>
<event>
 5   0  0.7416556E-06  0.2301436E+04  0.7818609E-02  0.8477355E-01
        1   -1    0    0  501    0  0.00000000000E+00  0.00000000000E+00  0.15445895222E+04  0.15445895222E+04  0.50400001928E-02 0.  1.
       -1   -1    0    0    0  501  0.00000000000E+00  0.00000000000E+00 -0.85728407950E+03  0.85728407951E+03  0.50400001928E-02 0. -1.
    10030    2    1    2    0    0  0.00000000000E+00  0.00000000000E+00  0.68730544270E+03  0.24018736017E+04  0.23014360793E+04 0.  0.
        4    1    3    3  502    0 -0.53475131572E+03  0.94537713209E+03 -0.53004412766E+02  0.10874318242E+04  0.12699999809E+01 0. -1.
       -4    1    3    3    0  502  0.53475131572E+03 -0.94537713209E+03  0.74030985547E+03  0.13144417775E+04  0.12699999809E+01 0.  1.
</event>
<event>
 5   0  0.1635955E-05  0.2300575E+04  0.7818609E-02  0.8477694E-01
        2   -1    0    0  501    0  0.00000000000E+00  0.00000000000E+00  0.98682673975E+03  0.98682673975E+03  0.25500000920E-02 0. -1.
       -2   -1    0    0    0  501  0.00000000000E+00  0.00000000000E+00 -0.13408243856E+04  0.13408243856E+04  0.25500000920E-02 0.  1.
    10030    2    1    2    0    0  0.00000000000E+00  0.00000000000E+00 -0.35399764582E+03  0.23276511253E+04  0.23005750212E+04 0.  0.
        2    1    3    3  502    0  0.34665496830E+03  0.27950021408E+03 -0.12500808219E+04  0.13270237745E+04  0.25500000920E-02 0.  1.
       -2    1    3    3    0  502 -0.34665496830E+03 -0.27950021408E+03  0.89608317611E+03  0.10006273508E+04  0.25500000920E-02 0. -1.
</event>
<event>
 5   0  0.1635955E-05  0.2303010E+04  0.7818609E-02  0.8476735E-01
        2   -1    0    0  501    0  0.00000000000E+00  0.00000000000E+00  0.26546832438E+04  0.26546832438E+04  0.25500000920E-02 0.  1.
       -2   -1    0    0    0  501  0.00000000000E+00  0.00000000000E+00 -0.49948099360E+03  0.49948099361E+03  0.25500000920E-02 0. -1.
    10030    2    1    2    0    0  0.00000000000E+00  0.00000000000E+00  0.21552022501E+04  0.31541642374E+04  0.23030100515E+04 0.  0.
        2    1    3    3  502    0  0.36240446937E+03  0.10510874814E+04  0.14881151598E+04  0.18575813904E+04  0.25500000920E-02 0.  1.
       -2    1    3    3    0  502 -0.36240446937E+03 -0.10510874814E+04  0.66708709032E+03  0.12965828470E+04  0.25500000920E-02 0. -1.
</event>
<event>
 5   0  0.1635955E-05  0.2309315E+04  0.7818609E-02  0.8474258E-01
       -2   -1    0    0    0  501  0.00000000000E+00  0.00000000000E+00  0.12242410499E+04  0.12242410499E+04  0.25500000920E-02 0. -1.
        2   -1    0    0  501    0  0.00000000000E+00  0.00000000000E+00 -0.10890286652E+04  0.10890286652E+04  0.25500000920E-02 0.  1.
    10030    2    1    2    0    0  0.00000000000E+00  0.00000000000E+00  0.13521238468E+03  0.23132697151E+04  0.23093147005E+04 0.  0.
        2    1    3    3  502    0 -0.33160726839E+03  0.72257486644E+03  0.90639071993E+03  0.12056624549E+04  0.25500000920E-02 0. -1.
       -2    1    3    3    0  502  0.33160726839E+03 -0.72257486644E+03 -0.77117833525E+03  0.11076072602E+04  0.25500000920E-02 0.  1.
</event>
<event>
 5   0  0.7202572E-06  0.2290061E+04  0.7818609E-02  0.8481850E-01
        1   -1    0    0  501    0  0.00000000000E+00  0.00000000000E+00  0.16679185612E+04  0.16679185612E+04  0.50400001928E-02 0.  1.
       -1   -1    0    0    0  501  0.00000000000E+00  0.00000000000E+00 -0.78606616557E+03  0.78606616559E+03  0.50400001928E-02 0. -1.
    10030    2    1    2    0    0  0.00000000000E+00  0.00000000000E+00  0.88185239561E+03  0.24539847268E+04  0.22900605651E+04 0.  0.
        2    1    3    3  502    0  0.49662143352E+03 -0.63277311416E+02 -0.66257171834E+03  0.83044454861E+03  0.25500000920E-02 0. -1.
       -2    1    3    3    0  502 -0.49662143352E+03  0.63277311416E+02  0.15444241140E+04  0.16235401782E+04  0.25500000920E-02 0.  1.
</event>
<event>
 5   0  0.7416556E-06  0.2262997E+04  0.7818609E-02  0.8492655E-01
        1   -1    0    0  501    0  0.00000000000E+00  0.00000000000E+00  0.20779930924E+04  0.20779930925E+04  0.50400001928E-02 0. -1.
       -1   -1    0    0    0  501  0.00000000000E+00  0.00000000000E+00 -0.61611796759E+03  0.61611796761E+03  0.50400001928E-02 0.  1.
    10030    2    1    2    0    0  0.00000000000E+00  0.00000000000E+00  0.14618751249E+04  0.26941110601E+04  0.22629970224E+04 0.  0.
        4    1    3    3  502    0  0.61716820799E+03 -0.93280981705E+03  0.52730706740E+03  0.12365618092E+04  0.12699999809E+01 0.  1.
       -4    1    3    3    0  502 -0.61716820799E+03  0.93280981705E+03  0.93456805746E+03  0.14575492509E+04  0.12699999809E+01 0. -1.
</event>
<event>
 5   0  0.7183014E-06  0.2302586E+04  0.7818609E-02  0.8476902E-01
       -1   -1    0    0    0  501  0.00000000000E+00  0.00000000000E+00  0.87975945058E+03  0.87975945059E+03  0.50400001928E-02 0.  1.
        1   -1    0    0  501    0  0.00000000000E+00  0.00000000000E+00 -0.15066336731E+04  0.15066336731E+04  0.50400001928E-02 0. -1.
    10030    2    1    2    0    0  0.00000000000E+00  0.00000000000E+00 -0.62687422256E+03  0.23863931237E+04  0.23025856879E+04 0.  0.
        3    1    3    3  502    0  0.63368286985E+03  0.96110436851E+03 -0.29879433380E+03  0.11893500960E+04  0.10100000352E+00 0.  1.
       -3    1    3    3    0  502 -0.63368286985E+03 -0.96110436851E+03 -0.32807988876E+03  0.11970430278E+04  0.10100000352E+00 0. -1.
</event>
<event>
 5   0  0.1697855E-05  0.2301275E+04  0.7818609E-02  0.8477418E-01
        2   -1    0    0  501    0  0.00000000000E+00  0.00000000000E+00  0.17859562846E+04  0.17859562846E+04  0.25500000920E-02 0.  1.
       -2   -1    0    0    0  501  0.00000000000E+00  0.00000000000E+00 -0.74132116670E+03  0.74132116670E+03  0.25500000920E-02 0. -1.
    10030    2    1    2    0    0  0.00000000000E+00  0.00000000000E+00  0.10446351179E+04  0.25272774513E+04  0.23012754694E+04 0.  0.
        5    1    3    3  502    0 -0.92930947803E+02 -0.71529740767E+03  0.15068274937E+04  0.16705800574E+04  0.46999998093E+01 0.  1.
       -5    1    3    3    0  502  0.92930947803E+02  0.71529740767E+03 -0.46219237578E+03  0.85669739389E+03  0.46999998093E+01 0. -1.
</event>
<event>
 5   0  0.7416556E-06  0.2296588E+04  0.7818609E-02  0.8479268E-01
        1   -1    0    0  501    0  0.00000000000E+00  0.00000000000E+00  0.86330757397E+03  0.86330757398E+03  0.50400001928E-02 0.  1.
       -1   -1    0    0    0  501  0.00000000000E+00  0.00000000000E+00 -0.15273572837E+04  0.15273572837E+04  0.50400001928E-02 0. -1.
    10030    2    1    2    0    0  0.00000000000E+00  0.00000000000E+00 -0.66404970972E+03  0.23906648577E+04  0.22965880007E+04 0.  0.
        4    1    3    3  502    0 -0.22056789765E+02 -0.69409794437E+03 -0.12839912071E+04  0.14597580248E+04  0.12699999809E+01 0. -1.
       -4    1    3    3    0  502  0.22056789765E+02  0.69409794437E+03  0.61994149736E+03  0.93090683283E+03  0.12699999809E+01 0.  1.
</event>
<event>
 5   0  0.1697855E-05  0.2298551E+04  0.7818609E-02  0.8478493E-01
       -2   -1    0    0    0  501  0.00000000000E+00  0.00000000000E+00  0.79894501367E+03  0.79894501368E+03  0.25500000920E-02 0.  1.
        2   -1    0    0  501    0  0.00000000000E+00  0.00000000000E+00 -0.16532228073E+04  0.16532228073E+04  0.25500000920E-02 0. -1.
    10030    2    1    2    0    0  0.00000000000E+00  0.00000000000E+00 -0.85427779362E+03  0.24521678210E+04  0.22985509508E+04 0.  0.
        5    1    3    3  502    0 -0.56665322438E+03 -0.64470300169E+03  0.38818479481E+03  0.94204424631E+03  0.46999998093E+01 0.  1.
       -5    1    3    3    0  502  0.56665322438E+03  0.64470300169E+03 -0.12424625884E+04  0.15101235747E+04  0.46999998093E+01 0. -1.
</event>
<event>
 5   0  0.7416556E-06  0.2296910E+04  0.7818609E-02  0.8479140E-01
       -1   -1    0    0    0  501  0.00000000000E+00  0.00000000000E+00  0.96058877588E+03  0.96058877589E+03  0.50400001928E-02 0. -1.
        1   -1    0    0  501    0  0.00000000000E+00  0.00000000000E+00 -0.13730631067E+04  0.13730631067E+04  0.50400001928E-02 0.  1.
    10030    2    1    2    0    0  0.00000000000E+00  0.00000000000E+00 -0.41247433081E+03  0.23336518826E+04  0.22969101061E+04 0.  0.
        4    1    3    3  502    0  0.46044373983E+03  0.22173452236E+02  0.86246684468E+03  0.97793188444E+03  0.12699999809E+01 0. -1.
       -4    1    3    3    0  502 -0.46044373983E+03 -0.22173452236E+02 -0.12749411755E+04  0.13557199982E+04  0.12699999809E+01 0.  1.
</event>
<event>
 5   0  0.7278815E-06  0.2268765E+04  0.7818609E-02  0.8490340E-01
        1   -1    0    0  501    0  0.00000000000E+00  0.00000000000E+00  0.73495749928E+03  0.73495749929E+03  0.50400001928E-02 0.  1.
       -1   -1    0    0    0  501  0.00000000000E+00  0.00000000000E+00 -0.17508811050E+04  0.17508811050E+04  0.50400001928E-02 0. -1.
    10030    2    1    2    0    0  0.00000000000E+00  0.00000000000E+00 -0.10159236057E+04  0.24858386043E+04  0.22687645964E+04 0.  0.
        5    1    3    3  502    0 -0.84362264769E+03  0.75830332779E+03 -0.51763857042E+03  0.12468740467E+04  0.46999998093E+01 0. -1.
       -5    1    3    3    0  502  0.84362264769E+03 -0.75830332779E+03 -0.49828503526E+03  0.12389645576E+04  0.46999998093E+01 0.  1.
</event>
<event>
 5   0  0.7183014E-06  0.2286201E+04  0.7818609E-02  0.8483382E-01
        1   -1    0    0  501    0  0.00000000000E+00  0.00000000000E+00  0.97514739802E+03  0.97514739804E+03  0.50400001928E-02 0.  1.
       -1   -1    0    0    0  501  0.00000000000E+00  0.00000000000E+00 -0.13399811831E+04  0.13399811831E+04  0.50400001928E-02 0. -1.
    10030    2    1    2    0    0  0.00000000000E+00  0.00000000000E+00 -0.36483378505E+03  0.23151285811E+04  0.22862013595E+04 0.  0.
        3    1    3    3  502    0  0.26121860387E+03  0.75311710644E+02 -0.13067682370E+04  0.13347472600E+04  0.10100000352E+00 0. -1.
       -3    1    3    3    0  502 -0.26121860387E+03 -0.75311710644E+02  0.94193445194E+03  0.98038132108E+03  0.10100000352E+00 0.  1.
</event>
<event>
 5   0  0.7183014E-06  0.2284938E+04  0.7818609E-02  0.8483884E-01
       -1   -1    0    0    0  501  0.00000000000E+00  0.00000000000E+00  0.80491544929E+03  0.80491544931E+03  0.50400001928E-02 0. -1.
        1   -1    0    0  501    0  0.00000000000E+00  0.00000000000E+00 -0.16215810222E+04  0.16215810222E+04  0.50400001928E-02 0.  1.
    10030    2    1    2    0    0  0.00000000000E+00  0.00000000000E+00 -0.81666557294E+03  0.24264964715E+04  0.22849381761E+04 0.  0.
        3    1    3    3  502    0 -0.44664009544E+01 -0.71713452960E+03 -0.13527747104E+04  0.15311111356E+04  0.10100000352E+00 0.  1.
       -3    1    3    3    0  502  0.44664009544E+01  0.71713452960E+03  0.53610913748E+03  0.89538533592E+03  0.10100000352E+00 0. -1.
</event>
<event>
 5   0  0.1626636E-05  0.2300666E+04  0.7818609E-02  0.8477659E-01
       -2   -1    0    0    0  501  0.00000000000E+00  0.00000000000E+00  0.11198185669E+04  0.11198185669E+04  0.25500000920E-02 0. -1.
        2   -1    0    0  501    0  0.00000000000E+00  0.00000000000E+00 -0.11816789006E+04  0.11816789006E+04  0.25500000920E-02 0.  1.
    10030    2    1    2    0    0  0.00000000000E+00  0.00000000000E+00 -0.61860333709E+02  0.23014974675E+04  0.23006659671E+04 0.  0.
        4    1    3    3  502    0  0.18791360037E+03 -0.73027492652E+02  0.11020072161E+04  0.11202973057E+04  0.12699999809E+01 0. -1.
       -4    1    3    3    0  502 -0.18791360037E+03  0.73027492652E+02 -0.11638675498E+04  0.11812001618E+04  0.12699999809E+01 0.  1.
</event>
<event>
 5   0  0.1635955E-05  0.2306278E+04  0.7818609E-02  0.8475450E-01
       -2   -1    0    0    0  501  0.00000000000E+00  0.00000000000E+00  0.69742705423E+03  0.69742705423E+03  0.25500000920E-02 0.  1.
        2   -1    0    0  501    0  0.00000000000E+00  0.00000000000E+00 -0.19066211131E+04  0.19066211131E+04  0.25500000920E-02 0. -1.
    10030    2    1    2    0    0  0.00000000000E+00  0.00000000000E+00 -0.12091940589E+04  0.26040481673E+04  0.23062776472E+04 0.  0.
        2    1    3    3  502    0  0.35054302676E+02  0.90205111853E+03 -0.14147339618E+04  0.16782125036E+04  0.25500000920E-02 0. -1.
       -2    1    3    3    0  502 -0.35054302676E+02 -0.90205111853E+03  0.20553990290E+03  0.92583566375E+03  0.25500000920E-02 0.  1.
</event>
<event>
 5   0  0.7183014E-06  0.2333766E+04  0.7818609E-02  0.8464725E-01
        1   -1    0    0  501    0  0.00000000000E+00  0.00000000000E+00  0.12352522754E+04  0.12352522754E+04  0.50400001928E-02 0.  1.
       -1   -1    0    0    0  501  0.00000000000E+00  0.00000000000E+00 -0.11022977473E+04  0.11022977473E+04  0.50400001928E-02 0. -1.
    10030    2    1    2    0    0  0.00000000000E+00  0.00000000000E+00  0.13295452807E+03  0.23375500227E+04  0.23337658841E+04 0.  0.
        3    1    3    3  502    0 -0.40311200373E+03  0.51546251268E+03  0.10341778216E+04  0.12238156178E+04  0.10100000352E+00 0.  1.
       -3    1    3    3    0  502  0.40311200373E+03 -0.51546251268E+03 -0.90122329352E+03  0.11137344048E+04  0.10100000352E+00 0. -1.
</event>
<event>
 5   0  0.1602809E-05  0.2297667E+04  0.7818609E-02  0.8478842E-01
       -2   -1    0    0    0  501  0.00000000000E+00  0.00000000000E+00  0.11199664897E+04  0.11199664897E+04  0.25500000920E-02 0.  1.
        2   -1    0    0  501    0  0.00000000000E+00  0.00000000000E+00 -0.11784443706E+04  0.11784443706E+04  0.25500000920E-02 0. -1.
    10030    2    1    2    0    0  0.00000000000E+00  0.00000000000E+00 -0.58477880904E+02  0.22984108602E+04  0.22976668209E+04 0.  0.
        3    1    3    3  502    0  0.11079897383E+04 -0.29162156283E+03 -0.11372810845E+03  0.11513550664E+04  0.10100000352E+00 0. -1.
       -3    1    3    3    0  502 -0.11079897383E+04  0.29162156283E+03  0.55250227550E+02  0.11470557938E+04  0.10100000352E+00 0.  1.
</event>
<event>
 5   0  0.7391007E-06  0.2304855E+04  0.7818609E-02  0.8476009E-01
       -1   -1    0    0    0  501  0.00000000000E+00  0.00000000000E+00  0.77064016902E+03  0.77064016903E+03  0.50400001928E-02 0.  1.
        1   -1    0    0  501    0  0.00000000000E+00  0.00000000000E+00 -0.17233582889E+04  0.17233582889E+04  0.50400001928E-02 0. -1.
    10030    2    1    2    0    0  0.00000000000E+00  0.00000000000E+00 -0.95271811988E+03  0.24939984579E+04  0.23048549829E+04 0.  0.
        1    1    3    3  502    0  0.10271328548E+02  0.47784696176E+03 -0.16110537054E+04  0.16804574558E+04  0.50400001928E-02 0. -1.
       -1    1    3    3    0  502 -0.10271328548E+02 -0.47784696176E+03  0.65833558549E+03  0.81354100216E+03  0.50400001928E-02 0.  1.
</event>
<event>
 5   0  0.7416556E-06  0.2309241E+04  0.7818609E-02  0.8474287E-01
        1   -1    0    0  501    0  0.00000000000E+00  0.00000000000E+00  0.13744624216E+04  0.13744624216E+04  0.50400001928E-02 0. -1.
       -1   -1    0    0    0  501  0.00000000000E+00  0.00000000000E+00 -0.96994157106E+03  0.96994157107E+03  0.50400001928E-02 0.  1.
    10030    2    1    2    0    0  0.00000000000E+00  0.00000000000E+00  0.40452085053E+03  0.23444039927E+04  0.23092407762E+04 0.  0.
        4    1    3    3  502    0 -0.59951932361E+03 -0.68289448152E+03  0.92541176379E+03  0.12969798910E+04  0.12699999809E+01 0.  1.
       -4    1    3    3    0  502  0.59951932361E+03  0.68289448152E+03 -0.52089091326E+03  0.10474241016E+04  0.12699999809E+01 0. -1.
</event>
<event>
 5   0  0.7278815E-06  0.2299649E+04  0.7818609E-02  0.8478059E-01
       -1   -1    0    0    0  501  0.00000000000E+00  0.00000000000E+00  0.59996444865E+03  0.59996444867E+03  0.50400001928E-02 0. -1.
        1   -1    0    0  501    0  0.00000000000E+00  0.00000000000E+00 -0.22036247077E+04  0.22036247077E+04  0.50400001928E-02 0.  1.
    10030    2    1    2    0    0  0.00000000000E+00  0.00000000000E+00 -0.16036602590E+04  0.28035891563E+04  0.22996490887E+04 0.  0.
        5    1    3    3  502    0  0.78753594392E+03  0.83501744433E+03 -0.71907772110E+03  0.13544599862E+04  0.46999998093E+01 0. -1.
       -5    1    3    3    0  502 -0.78753594392E+03 -0.83501744433E+03 -0.88458253791E+03  0.14491291701E+04  0.46999998093E+01 0.  1.
</event>
<event>
 5   0  0.1602809E-05  0.2299250E+04  0.7818609E-02  0.8478217E-01
        2   -1    0    0  501    0  0.00000000000E+00  0.00000000000E+00  0.14647867731E+04  0.14647867731E+04  0.25500000920E-02 0. -1.
       -2   -1    0    0    0  501  0.00000000000E+00  0.00000000000E+00 -0.90227282471E+03  0.90227282471E+03  0.25500000920E-02 0.  1.
    10030    2    1    2    0    0  0.00000000000E+00  0.00000000000E+00  0.56251394842E+03  0.23670595978E+04  0.22992497032E+04 0.  0.
        3    1    3    3  502    0 -0.47924586811E+03  0.10072523746E+04 -0.51627397208E+01  0.11154643035E+04  0.10100000352E+00 0. -1.
       -3    1    3    3    0  502  0.47924586811E+03 -0.10072523746E+04  0.56767668814E+03  0.12515952943E+04  0.10100000352E+00 0.  1.
</event>
<event>
 5   0  0.7391007E-06  0.2295995E+04  0.7818609E-02  0.8479502E-01
       -1   -1    0    0    0  501  0.00000000000E+00  0.00000000000E+00  0.50991370158E+03  0.50991370161E+03  0.50400001928E-02 0. -1.
        1   -1    0    0  501    0  0.00000000000E+00  0.00000000000E+00 -0.25845505429E+04  0.25845505429E+04  0.50400001928E-02 0.  1.
    10030    2    1    2    0    0  0.00000000000E+00  0.00000000000E+00 -0.20746368413E+04  0.30944642445E+04  0.22959945421E+04 0.  0.
        1    1    3    3  502    0  0.38809367627E+03  0.94454042876E+02 -0.24878804124E+04  0.25197395131E+04  0.50400001928E-02 0.  1.
       -1    1    3    3    0  502 -0.38809367627E+03 -0.94454042876E+02  0.41324357107E+03  0.57472473136E+03  0.50400001928E-02 0. -1.
</event>
<event>
 5   0  0.1588969E-05  0.2309640E+04  0.7818609E-02  0.8474130E-01
        2   -1    0    0  501    0  0.00000000000E+00  0.00000000000E+00  0.19970973138E+04  0.19970973139E+04  0.25500000920E-02 0.  1.
       -2   -1    0    0    0  501  0.00000000000E+00  0.00000000000E+00 -0.66777398740E+03  0.66777398740E+03  0.25500000920E-02 0. -1.
    10030    2    1    2    0    0  0.00000000000E+00  0.00000000000E+00  0.13293233264E+04  0.26648713013E+04  0.23096403499E+04 0.  0.
        1    1    3    3  502    0  0.10651011120E+04  0.25712475178E+03  0.10855329608E+04  0.15423797605E+04  0.50400001928E-02 0.  1.
       -1    1    3    3    0  502 -0.10651011120E+04 -0.25712475178E+03  0.24379036569E+03  0.11224915408E+04  0.50400001928E-02 0. -1.
</event>
<event>
 5   0  0.7416556E-06  0.2301050E+04  0.7818609E-02  0.8477507E-01
       -1   -1    0    0    0  501  0.00000000000E+00  0.00000000000E+00  0.92006183666E+03  0.92006183667E+03  0.50400001928E-02 0.  1.
        1   -1    0    0  501    0  0.00000000000E+00  0.00000000000E+00 -0.14387155377E+04  0.14387155377E+04  0.50400001928E-02 0. -1.
    10030    2    1    2    0    0  0.00000000000E+00  0.00000000000E+00 -0.51865370106E+03  0.23587773744E+04  0.23010495519E+04 0.  0.
        4    1    3    3  502    0 -0.21935834994E+03  0.83080234134E+03  0.52495228234E+03  0.10069394856E+04  0.12699999809E+01 0.  1.
       -4    1    3    3    0  502  0.21935834994E+03 -0.83080234134E+03 -0.10436059834E+04  0.13518378888E+04  0.12699999809E+01 0. -1.
</event>
<event>
 5   0  0.7278815E-06  0.2300621E+04  0.7818609E-02  0.8477676E-01
       -1   -1    0    0    0  501  0.00000000000E+00  0.00000000000E+00  0.13963755619E+04  0.13963755619E+04  0.50400001928E-02 0.  1.
        1   -1    0    0  501    0  0.00000000000E+00  0.00000000000E+00 -0.94760649897E+03  0.94760649899E+03  0.50400001928E-02 0. -1.
    10030    2    1    2    0    0  0.00000000000E+00  0.00000000000E+00  0.44876906288E+03  0.23439820608E+04  0.23006212704E+04 0.  0.
        5    1    3    3  502    0  0.88133364175E+03  0.72849807931E+03  0.96585044788E+02  0.11475230719E+04  0.46999998093E+01 0.  1.
       -5    1    3    3    0  502 -0.88133364175E+03 -0.72849807931E+03  0.35218401809E+03  0.11964589890E+04  0.46999998093E+01 0. -1.
</event>
<event>
 5   0  0.7202572E-06  0.2303214E+04  0.7818609E-02  0.8476655E-01
       -1   -1    0    0    0  501  0.00000000000E+00  0.00000000000E+00  0.16410982549E+04  0.16410982549E+04  0.50400001928E-02 0. -1.
        1   -1    0    0  501    0  0.00000000000E+00  0.00000000000E+00 -0.80811649301E+03  0.80811649302E+03  0.50400001928E-02 0.  1.
    10030    2    1    2    0    0  0.00000000000E+00  0.00000000000E+00  0.83298176185E+03  0.24492147479E+04  0.23032138992E+04 0.  0.
        2    1    3    3  502    0  0.10976254991E+04 -0.77269900640E+02  0.55178868614E+02  0.11017245941E+04  0.25500000920E-02 0.  1.
       -2    1    3    3    0  502 -0.10976254991E+04  0.77269900640E+02  0.77780289323E+03  0.13474901538E+04  0.25500000920E-02 0. -1.
</event>
<event>
 5   0  0.7202572E-06  0.2278392E+04  0.7818609E-02  0.8486490E-01
       -1   -1    0    0    0  501  0.00000000000E+00  0.00000000000E+00  0.11476534998E+04  0.11476534998E+04  0.50400001928E-02 0.  1.
        1   -1    0    0  501    0  0.00000000000E+00  0.00000000000E+00 -0.11308005120E+04  0.11308005120E+04  0.50400001928E-02 0. -1.
    10030    2    1    2    0    0  0.00000000000E+00  0.00000000000E+00  0.16852987848E+02  0.22784540118E+04  0.22783916829E+04 0.  0.
        2    1    3    3  502    0 -0.63933043629E+03  0.69652770826E+03  0.64395383990E+03  0.11439277963E+04  0.25500000920E-02 0.  1.
       -2    1    3    3    0  502  0.63933043629E+03 -0.69652770826E+03 -0.62710085205E+03  0.11345262156E+04  0.25500000920E-02 0. -1.
</event>
<event>
 5   0  0.7278815E-06  0.2301929E+04  0.7818609E-02  0.8477161E-01
       -1   -1    0    0    0  501  0.00000000000E+00  0.00000000000E+00  0.75420156243E+03  0.75420156245E+03  0.50400001928E-02 0. -1.
        1   -1    0    0  501    0  0.00000000000E+00  0.00000000000E+00 -0.17564526216E+04  0.17564526216E+04  0.50400001928E-02 0.  1.
    10030    2    1    2    0    0  0.00000000000E+00  0.00000000000E+00 -0.10022510592E+04  0.25106541841E+04  0.23019290272E+04 0.  0.
        5    1    3    3  502    0  0.30109677535E+03  0.63064592431E+02  0.70852037414E+03  0.77243745476E+03  0.46999998093E+01 0. -1.
       -5    1    3    3    0  502 -0.30109677535E+03 -0.63064592431E+02 -0.17107714334E+04  0.17382167293E+04  0.46999998093E+01 0.  1.
</event>
<event>
 5   0  0.1635955E-05  0.2292843E+04  0.7818609E-02  0.8480748E-01
        2   -1    0    0  501    0  0.00000000000E+00  0.00000000000E+00  0.16161345420E+04  0.16161345420E+04  0.25500000920E-02 0. -1.
       -2   -1    0    0    0  501  0.00000000000E+00  0.00000000000E+00 -0.81322574325E+03  0.81322574325E+03  0.25500000920E-02 0.  1.
    10030    2    1    2    0    0  0.00000000000E+00  0.00000000000E+00  0.80290879880E+03  0.24293602853E+04  0.22928429638E+04 0.  0.
        2    1    3    3  502    0  0.22936633340E+03  0.10904108356E+04  0.68709348410E+03  0.13090844744E+04  0.25500000920E-02 0. -1.
       -2    1    3    3    0  502 -0.22936633340E+03 -0.10904108356E+04  0.11581531470E+03  0.11202758109E+04  0.25500000920E-02 0.  1.
</event>
<event>
 5   0  0.7391007E-06  0.2317589E+04  0.7818609E-02  0.8471018E-01
       -1   -1    0    0    0  501  0.00000000000E+00  0.00000000000E+00  0.13948273444E+04  0.13948273444E+04  0.50400001928E-02 0. -1.
        1   -1    0    0  501    0  0.00000000000E+00  0.00000000000E+00 -0.96270293333E+03  0.96270293335E+03  0.50400001928E-02 0.  1.
    10030    2    1    2    0    0  0.00000000000E+00  0.00000000000E+00  0.43212441102E+03  0.23575302777E+04  0.23175887262E+04 0.  0.
        1    1    3    3  502    0 -0.33201929585E+03  0.38384155712E+03  0.12757610228E+04  0.13730030376E+04  0.50400001928E-02 0. -1.
       -1    1    3    3    0  502  0.33201929585E+03 -0.38384155712E+03 -0.84363661180E+03  0.98452724014E+03  0.50400001928E-02 0.  1.
</event>
<event>
 5   0  0.7391007E-06  0.2299343E+04  0.7818609E-02  0.8478180E-01
       -1   -1    0    0    0  501  0.00000000000E+00  0.00000000000E+00  0.60477370714E+03  0.60477370716E+03  0.50400001928E-02 0. -1.
        1   -1    0    0  501    0  0.00000000000E+00  0.00000000000E+00 -0.21855201286E+04  0.21855201286E+04  0.50400001928E-02 0.  1.
    10030    2    1    2    0    0  0.00000000000E+00  0.00000000000E+00 -0.15807464215E+04  0.27902938358E+04  0.22993434804E+04 0.  0.
        1    1    3    3  502    0 -0.36082675468E+02 -0.45640052153E+03  0.48937978006E+03  0.67014622634E+03  0.50400001928E-02 0. -1.
       -1    1    3    3    0  502  0.36082675468E+02  0.45640052153E+03 -0.20701262015E+04  0.21201476095E+04  0.50400001928E-02 0.  1.
</event>
<event>
 5   0  0.7391007E-06  0.2284340E+04  0.7818609E-02  0.8484121E-01
        1   -1    0    0  501    0  0.00000000000E+00  0.00000000000E+00  0.17810417444E+04  0.17810417444E+04  0.50400001928E-02 0. -1.
       -1   -1    0    0    0  501  0.00000000000E+00  0.00000000000E+00 -0.73246614164E+03  0.73246614166E+03  0.50400001928E-02 0.  1.
    10030    2    1    2    0    0  0.00000000000E+00  0.00000000000E+00  0.10485756027E+04  0.25135078860E+04  0.22843404078E+04 0.  0.
        1    1    3    3  502    0 -0.35875457055E+03 -0.78727050873E+03  0.13447858546E+04  0.15990461815E+04  0.50400001928E-02 0. -1.
       -1    1    3    3    0  502  0.35875457055E+03  0.78727050873E+03 -0.29621025184E+03  0.91446170457E+03  0.50400001928E-02 0.  1.
</event>
<event>
 5   0  0.1626636E-05  0.2271667E+04  0.7818609E-02  0.8489177E-01
       -2   -1    0    0    0  501  0.00000000000E+00  0.00000000000E+00  0.13900951092E+04  0.13900951092E+04  0.25500000920E-02 0. -1.
        2   -1    0    0  501    0  0.00000000000E+00  0.00000000000E+00 -0.92807908033E+03  0.92807908033E+03  0.25500000920E-02 0.  1.
    10030    2    1    2    0    0  0.00000000000E+00  0.00000000000E+00  0.46201602885E+03  0.23181741895E+04  0.22716673969E+04 0.  0.
        4    1    3    3  502    0 -0.18727770729E+03 -0.90566798706E+03 -0.44189217565E+03  0.10249769511E+04  0.12699999809E+01 0.  1.
       -4    1    3    3    0  502  0.18727770729E+03  0.90566798706E+03  0.90390820450E+03  0.12931972384E+04  0.12699999809E+01 0. -1.
</event>
<event>
 5   0  0.7183014E-06  0.2321742E+04  0.7818609E-02  0.8469397E-01
        1   -1    0    0  501    0  0.00000000000E+00  0.00000000000E+00  0.22009632011E+04  0.22009632011E+04  0.50400001928E-02 0. -1.
       -1   -1    0    0    0  501  0.00000000000E+00  0.00000000000E+00 -0.61228738935E+03  0.61228738937E+03  0.50400001928E-02 0.  1.
    10030    2    1    2    0    0  0.00000000000E+00  0.00000000000E+00  0.15886758118E+04  0.28132505905E+04  0.23217424599E+04 0.  0.
        3    1    3    3  502    0  0.20622501888E+03  0.44677689565E+03  0.20683411582E+04  0.21260699682E+04  0.10100000352E+00 0. -1.
       -3    1    3    3    0  502 -0.20622501888E+03 -0.44677689565E+03 -0.47966534642E+03  0.68718062229E+03  0.10100000352E+00 0.  1.
</event>
<event>
 5   0  0.1626636E-05  0.2302093E+04  0.7818609E-02  0.8477096E-01
       -2   -1    0    0    0  501  0.00000000000E+00  0.00000000000E+00  0.10219862510E+04  0.10219862510E+04  0.25500000920E-02 0.  1.
        2   -1    0    0  501    0  0.00000000000E+00  0.00000000000E+00 -0.12964045499E+04  0.12964045499E+04  0.25500000920E-02 0. -1.
    10030    2    1    2    0    0  0.00000000000E+00  0.00000000000E+00 -0.27441829897E+03  0.23183908009E+04  0.23020926356E+04 0.  0.
        4    1    3    3  502    0  0.20234868404E+03  0.99268793611E+03 -0.68745790000E+03  0.12243260618E+04  0.12699999809E+01 0.  1.
       -4    1    3    3    0  502 -0.20234868404E+03 -0.99268793611E+03  0.41303960103E+03  0.10940647391E+04  0.12699999809E+01 0. -1.
</event>
<event>
 5   0  0.1602809E-05  0.2299663E+04  0.7818609E-02  0.8478054E-01
        2   -1    0    0  501    0  0.00000000000E+00  0.00000000000E+00  0.19227127176E+04  0.19227127176E+04  0.25500000920E-02 0.  1.
       -2   -1    0    0    0  501  0.00000000000E+00  0.00000000000E+00 -0.68762869244E+03  0.68762869245E+03  0.25500000920E-02 0. -1.
    10030    2    1    2    0    0  0.00000000000E+00  0.00000000000E+00  0.12350840252E+04  0.26103414101E+04  0.22996629596E+04 0.  0.
        3    1    3    3  502    0  0.20702623085E+03 -0.73729710491E+03 -0.35602853285E+03  0.84452543334E+03  0.10100000352E+00 0. -1.
       -3    1    3    3    0  502 -0.20702623085E+03  0.73729710491E+03  0.15911125580E+04  0.17658159767E+04  0.10100000352E+00 0.  1.
</event>
<event>
 5   0  0.1588969E-05  0.2310283E+04  0.7818609E-02  0.8473878E-01
        2   -1    0    0  501    0  0.00000000000E+00  0.00000000000E+00  0.11678759123E+04  0.11678759123E+04  0.25500000920E-02 0.  1.
       -2   -1    0    0    0  501  0.00000000000E+00  0.00000000000E+00 -0.11425454836E+04  0.11425454836E+04  0.25500000920E-02 0. -1.
    10030    2    1    2    0    0  0.00000000000E+00  0.00000000000E+00  0.25330428660E+02  0.23104213958E+04  0.23102825359E+04 0.  0.
        1    1    3    3  502    0  0.95750457534E+03  0.54674277767E+03  0.35708201211E+03  0.11589867299E+04  0.50400001928E-02 0.  1.
       -1    1    3    3    0  502 -0.95750457534E+03 -0.54674277767E+03 -0.33175158345E+03  0.11514346659E+04  0.50400001928E-02 0. -1.
</event>
<event>
 5   0  0.1626636E-05  0.2298132E+04  0.7818609E-02  0.8478658E-01
       -2   -1    0    0    0  501  0.00000000000E+00  0.00000000000E+00  0.49807361193E+03  0.49807361193E+03  0.25500000920E-02 0.  1.
        2   -1    0    0  501    0  0.00000000000E+00  0.00000000000E+00 -0.26509181711E+04  0.26509181712E+04  0.25500000920E-02 0. -1.
    10030    2    1    2    0    0  0.00000000000E+00  0.00000000000E+00 -0.21528445592E+04  0.31489917831E+04  0.22981317529E+04 0.  0.
        4    1    3    3  502    0  0.68034772860E+03 -0.85566980523E+03 -0.15614696403E+04  0.19061041152E+04  0.12699999809E+01 0. -1.
       -4    1    3    3    0  502 -0.68034772860E+03  0.85566980523E+03 -0.59137491889E+03  0.12428876679E+04  0.12699999809E+01 0.  1.
</event>
<event>
 5   0  0.7183014E-06  0.2295443E+04  0.7818609E-02  0.8479720E-01
        1   -1    0    0  501    0  0.00000000000E+00  0.00000000000E+00  0.12337844265E+04  0.12337844265E+04  0.50400001928E-02 0. -1.
       -1   -1    0    0    0  501  0.00000000000E+00  0.00000000000E+00 -0.10676621453E+04  0.10676621454E+04  0.50400001928E-02 0.  1.
    10030    2    1    2    0    0  0.00000000000E+00  0.00000000000E+00  0.16612228115E+03  0.23014465719E+04  0.22954432493E+04 0.  0.
        3    1    3    3  502    0  0.93838937774E+03 -0.40214193643E+03 -0.44268815169E+03  0.11127738185E+04  0.10100000352E+00 0.  1.
       -3    1    3    3    0  502 -0.93838937774E+03  0.40214193643E+03  0.60881043285E+03  0.11886727534E+04  0.10100000352E+00 0. -1.
</event>
<event>
 5   0  0.1602809E-05  0.2298718E+04  0.7818609E-02  0.8478427E-01
       -2   -1    0    0    0  501  0.00000000000E+00  0.00000000000E+00  0.94793050534E+03  0.94793050535E+03  0.25500000920E-02 0.  1.
        2   -1    0    0  501    0  0.00000000000E+00  0.00000000000E+00 -0.13935892024E+04  0.13935892024E+04  0.25500000920E-02 0. -1.
    10030    2    1    2    0    0  0.00000000000E+00  0.00000000000E+00 -0.44565869708E+03  0.23415197078E+04  0.22987176572E+04 0.  0.
        3    1    3    3  502    0 -0.19485739570E+03  0.10699821471E+04 -0.60149645053E+03  0.12428311189E+04  0.10100000352E+00 0. -1.
       -3    1    3    3    0  502  0.19485739570E+03 -0.10699821471E+04  0.15583775345E+03  0.10986885889E+04  0.10100000352E+00 0.  1.
</event>
<event>
 5   0  0.7183014E-06  0.2318540E+04  0.7818609E-02  0.8470647E-01
        1   -1    0    0  501    0  0.00000000000E+00  0.00000000000E+00  0.14855423561E+04  0.14855423561E+04  0.50400001928E-02 0. -1.
       -1   -1    0    0    0  501  0.00000000000E+00  0.00000000000E+00 -0.90465740314E+03  0.90465740316E+03  0.50400001928E-02 0.  1.
    10030    2    1    2    0    0  0.00000000000E+00  0.00000000000E+00  0.58088495298E+03  0.23901997593E+04  0.23185399631E+04 0.  0.
        3    1    3    3  502    0 -0.20971746501E+03  0.48318873690E+03  0.13550528618E+04  0.14538297834E+04  0.10100000352E+00 0. -1.
       -3    1    3    3    0  502  0.20971746501E+03 -0.48318873690E+03 -0.77416790880E+03  0.93636997592E+03  0.10100000352E+00 0.  1.
</event>
<event>
 5   0  0.1626636E-05  0.2336339E+04  0.7818609E-02  0.8463729E-01
       -2   -1    0    0    0  501  0.00000000000E+00  0.00000000000E+00  0.12396987798E+04  0.12396987798E+04  0.25500000920E-02 0.  1.
        2   -1    0    0  501    0  0.00000000000E+00  0.00000000000E+00 -0.11007676972E+04  0.11007676972E+04  0.25500000920E-02 0. -1.
    10030    2    1    2    0    0  0.00000000000E+00  0.00000000000E+00  0.13893108263E+03  0.23404664770E+04  0.23363393341E+04 0.  0.
        4    1    3    3  502    0 -0.16010016757E+03 -0.11483464885E+04  0.21214971811E+03  0.11787030317E+04  0.12699999809E+01 0.  1.
       -4    1    3    3    0  502  0.16010016757E+03  0.11483464885E+04 -0.73218635483E+02  0.11617634453E+04  0.12699999809E+01 0. -1.
</event>
<event>
 5   0  0.1635955E-05  0.2302045E+04  0.7818609E-02  0.8477115E-01
       -2   -1    0    0    0  501  0.00000000000E+00  0.00000000000E+00  0.95538057025E+03  0.95538057026E+03  0.25500000920E-02 0.  1.
        2   -1    0    0  501    0  0.00000000000E+00  0.00000000000E+00 -0.13867277394E+04  0.13867277394E+04  0.25500000920E-02 0. -1.
    10030    2    1    2    0    0  0.00000000000E+00  0.00000000000E+00 -0.43134716918E+03  0.23421083097E+04  0.23020449505E+04 0.  0.
        2    1    3    3  502    0 -0.95177355511E+03  0.56388040805E+03 -0.53903940551E+03  0.12306085874E+04  0.25500000920E-02 0. -1.
       -2    1    3    3    0  502  0.95177355511E+03 -0.56388040805E+03  0.10769223632E+03  0.11114997223E+04  0.25500000920E-02 0.  1.
</event>
<event>
 5   0  0.1588969E-05  0.2293373E+04  0.7818609E-02  0.8480539E-01
       -2   -1    0    0    0  501  0.00000000000E+00  0.00000000000E+00  0.14759899938E+04  0.14759899938E+04  0.25500000920E-02 0. -1.
        2   -1    0    0  501    0  0.00000000000E+00  0.00000000000E+00 -0.89085310803E+03  0.89085310803E+03  0.25500000920E-02 0.  1.
    10030    2    1    2    0    0  0.00000000000E+00  0.00000000000E+00  0.58513688576E+03  0.23668431018E+04  0.22933733001E+04 0.  0.
        1    1    3    3  502    0 -0.10061384073E+04 -0.49035243497E+03  0.54981308131E+03  0.12470182154E+04  0.50400001928E-02 0.  1.
       -1    1    3    3    0  502  0.10061384073E+04  0.49035243497E+03  0.35323804449E+02  0.11198248864E+04  0.50400001928E-02 0. -1.
</event>
<event>
 5   0  0.1602809E-05  0.2306748E+04  0.7818609E-02  0.8475265E-01
        2   -1    0    0  501    0  0.00000000000E+00  0.00000000000E+00  0.12857042061E+04  0.12857042061E+04  0.25500000920E-02 0. -1.
       -2   -1    0    0    0  501  0.00000000000E+00  0.00000000000E+00 -0.10346636548E+04  0.10346636548E+04  0.25500000920E-02 0.  1.
    10030    2    1    2    0    0  0.00000000000E+00  0.00000000000E+00  0.25104055132E+03  0.23203678609E+04  0.23067478517E+04 0.  0.
        3    1    3    3  502    0  0.31996485193E+03 -0.43089960683E+03 -0.90139898231E+03  0.10490815570E+04  0.10100000352E+00 0.  1.
       -3    1    3    3    0  502 -0.31996485193E+03  0.43089960683E+03  0.11524395336E+04  0.12712863039E+04  0.10100000352E+00 0. -1.
</event>
<event>
 5   0  0.1635955E-05  0.2279256E+04  0.7818609E-02  0.8486145E-01
        2   -1    0    0  501    0  0.00000000000E+00  0.00000000000E+00  0.96323743594E+03  0.96323743595E+03  0.25500000920E-02 0.  1.
       -2   -1    0    0    0  501  0.00000000000E+00  0.00000000000E+00 -0.13483198675E+04  0.13483198675E+04  0.25500000920E-02 0. -1.
    10030    2    1    2    0    0  0.00000000000E+00  0.00000000000E+00 -0.38508243159E+03  0.23115573035E+04  0.22792561699E+04 0.  0.
        2    1    3    3  502    0  0.94753129273E+03 -0.40245258589E+03 -0.68831309311E+03  0.12383693103E+04  0.25500000920E-02 0.  1.
       -2    1    3    3    0  502 -0.94753129273E+03  0.40245258589E+03  0.30323066152E+03  0.10731879932E+04  0.25500000920E-02 0. -1.
</event>
<event>
 5   0  0.7202572E-06  0.2270157E+04  0.7818609E-02  0.8489781E-01
       -1   -1    0    0    0  501  0.00000000000E+00  0.00000000000E+00  0.12741256370E+04  0.12741256371E+04  0.50400001928E-02 0.  1.
        1   -1    0    0  501    0  0.00000000000E+00  0.00000000000E+00 -0.10112061066E+04  0.10112061066E+04  0.50400001928E-02 0. -1.
    10030    2    1    2    0    0  0.00000000000E+00  0.00000000000E+00  0.26291953043E+03  0.22853317437E+04  0.22701573732E+04 0.  0.
        2    1    3    3  502    0  0.79648397707E+03 -0.57080071798E+03  0.70817955128E+03  0.12090154930E+04  0.25500000920E-02 0.  1.
       -2    1    3    3    0  502 -0.79648397707E+03  0.57080071798E+03 -0.44526002085E+03  0.10763162507E+04  0.25500000920E-02 0. -1.
</event>
<event>
 5   0  0.7202572E-06  0.2297307E+04  0.7818609E-02  0.8478984E-01
        1   -1    0    0  501    0  0.00000000000E+00  0.00000000000E+00  0.93218008806E+03  0.93218008807E+03  0.50400001928E-02 0. -1.
       -1   -1    0    0    0  501  0.00000000000E+00  0.00000000000E+00 -0.14153967925E+04  0.14153967925E+04  0.50400001928E-02 0.  1.
    10030    2    1    2    0    0  0.00000000000E+00  0.00000000000E+00 -0.48321670440E+03  0.23475768805E+04  0.22973068638E+04 0.  0.
        2    1    3    3  502    0 -0.29896163035E+03 -0.29947512828E+03  0.84962652980E+03  0.94917261287E+03  0.25500000920E-02 0. -1.
       -2    1    3    3    0  502  0.29896163035E+03  0.29947512828E+03 -0.13328432342E+04  0.13984042677E+04  0.25500000920E-02 0.  1.
</event>
<event>
 5   0  0.7416556E-06  0.2302218E+04  0.7818609E-02  0.8477047E-01
       -1   -1    0    0    0  501  0.00000000000E+00  0.00000000000E+00  0.95312527078E+03  0.95312527079E+03  0.50400001928E-02 0. -1.
        1   -1    0    0  501    0  0.00000000000E+00  0.00000000000E+00 -0.13902185589E+04  0.13902185589E+04  0.50400001928E-02 0.  1.
    10030    2    1    2    0    0  0.00000000000E+00  0.00000000000E+00 -0.43709328809E+03  0.23433438297E+04  0.23022184435E+04 0.  0.
        4    1    3    3  502    0  0.46864420494E+03 -0.69546866580E+03  0.58404799814E+03  0.10219675792E+04  0.12699999809E+01 0. -1.
       -4    1    3    3    0  502 -0.46864420494E+03  0.69546866580E+03 -0.10211412862E+04  0.13213762505E+04  0.12699999809E+01 0.  1.
</event>
<event>
 5   0  0.7278815E-06  0.2300195E+04  0.7818609E-02  0.8477844E-01
       -1   -1    0    0    0  501  0.00000000000E+00  0.00000000000E+00  0.76511677280E+03  0.76511677282E+03  0.50400001928E-02 0.  1.
        1   -1    0    0  501    0  0.00000000000E+00  0.00000000000E+00 -0.17287878565E+04  0.17287878565E+04  0.50400001928E-02 0. -1.
    10030    2    1    2    0    0  0.00000000000E+00  0.00000000000E+00 -0.96367108368E+03  0.24939046293E+04  0.23001952836E+04 0.  0.
        5    1    3    3  502    0 -0.98869960788E+03  0.41365249414E+02 -0.11172484876E+04  0.14924825867E+04  0.46999998093E+01 0. -1.
       -5    1    3    3    0  502  0.98869960788E+03 -0.41365249414E+02  0.15357740392E+03  0.10014220426E+04  0.46999998093E+01 0.  1.
</event>
<event>
 5   0  0.7278815E-06  0.2297223E+04  0.7818609E-02  0.8479017E-01
       -1   -1    0    0    0  501  0.00000000000E+00  0.00000000000E+00  0.16576398930E+04  0.16576398930E+04  0.50400001928E-02 0.  1.
        1   -1    0    0  501    0  0.00000000000E+00  0.00000000000E+00 -0.79589560895E+03  0.79589560896E+03  0.50400001928E-02 0. -1.
    10030    2    1    2    0    0  0.00000000000E+00  0.00000000000E+00  0.86174428405E+03  0.24535355020E+04  0.22972229427E+04 0.  0.
        5    1    3    3  502    0 -0.27005159062E+03 -0.25266439481E+03  0.15923027764E+04  0.16346918302E+04  0.46999998093E+01 0.  1.
       -5    1    3    3    0  502  0.27005159062E+03  0.25266439481E+03 -0.73055849236E+03  0.81884367175E+03  0.46999998093E+01 0. -1.
</event>
<event>
 5   0  0.1602809E-05  0.2301082E+04  0.7818609E-02  0.8477495E-01
       -2   -1    0    0    0  501  0.00000000000E+00  0.00000000000E+00  0.77760711349E+03  0.77760711349E+03  0.25500000920E-02 0.  1.
        2   -1    0    0  501    0  0.00000000000E+00  0.00000000000E+00 -0.17023310355E+04  0.17023310355E+04  0.25500000920E-02 0. -1.
    10030    2    1    2    0    0  0.00000000000E+00  0.00000000000E+00 -0.92472392203E+03  0.24799381490E+04  0.23010821130E+04 0.  0.
        3    1    3    3  502    0  0.70561827798E+03 -0.32488606696E+03 -0.13770319206E+04  0.15810329001E+04  0.10100000352E+00 0. -1.
       -3    1    3    3    0  502 -0.70561827798E+03  0.32488606696E+03  0.45230799856E+03  0.89890524889E+03  0.10100000352E+00 0.  1.
</event>
<event>
 5   0  0.1602809E-05  0.2300560E+04  0.7818609E-02  0.8477700E-01
        2   -1    0    0  501    0  0.00000000000E+00  0.00000000000E+00  0.16415917734E+04  0.16415917734E+04  0.25500000920E-02 0.  1.
       -2   -1    0    0    0  501  0.00000000000E+00  0.00000000000E+00 -0.80601294030E+03  0.80601294030E+03  0.25500000920E-02 0. -1.
    10030    2    1    2    0    0  0.00000000000E+00  0.00000000000E+00  0.83557883309E+03  0.24476047137E+04  0.23005601162E+04 0.  0.
        3    1    3    3  502    0 -0.26868455642E+03  0.78505345508E+02  0.16048030071E+04  0.16290325909E+04  0.10100000352E+00 0.  1.
       -3    1    3    3    0  502  0.26868455642E+03 -0.78505345508E+02 -0.76922417405E+03  0.81857212283E+03  0.10100000352E+00 0. -1.
</event>
<event>
 5   0  0.7278815E-06  0.2293088E+04  0.7818609E-02  0.8480652E-01
        1   -1    0    0  501    0  0.00000000000E+00  0.00000000000E+00  0.91248925723E+03  0.91248925724E+03  0.50400001928E-02 0. -1.
       -1   -1    0    0    0  501  0.00000000000E+00  0.00000000000E+00 -0.14406337633E+04  0.14406337633E+04  0.50400001928E-02 0.  1.
    10030    2    1    2    0    0  0.00000000000E+00  0.00000000000E+00 -0.52814450610E+03  0.23531230206E+04  0.22930877285E+04 0.  0.
        5    1    3    3  502    0  0.46832339017E+03 -0.49030622913E+03  0.68469505387E+03  0.96361631518E+03  0.46999998093E+01 0. -1.
       -5    1    3    3    0  502 -0.46832339017E+03  0.49030622913E+03 -0.12128395600E+04  0.13895067054E+04  0.46999998093E+01 0.  1.
</event>
<event>
 5   0  0.1588969E-05  0.2276377E+04  0.7818609E-02  0.8487294E-01
        2   -1    0    0  501    0  0.00000000000E+00  0.00000000000E+00  0.12908089498E+04  0.12908089498E+04  0.25500000920E-02 0.  1.
       -2   -1    0    0    0  501  0.00000000000E+00  0.00000000000E+00 -0.10036137412E+04  0.10036137412E+04  0.25500000920E-02 0. -1.
    10030    2    1    2    0    0  0.00000000000E+00  0.00000000000E+00  0.28719520861E+03  0.22944226910E+04  0.22763774725E+04 0.  0.
        1    1    3    3  502    0  0.63301898953E+03 -0.94029738673E+03  0.24737682528E+03  0.11602014956E+04  0.50400001928E-02 0. -1.
       -1    1    3    3    0  502 -0.63301898953E+03  0.94029738673E+03  0.39818383325E+02  0.11342211955E+04  0.50400001928E-02 0.  1.
</event>
<event>
 5   0  0.7202572E-06  0.2296315E+04  0.7818609E-02  0.8479375E-01
        1   -1    0    0  501    0  0.00000000000E+00  0.00000000000E+00  0.11058976599E+04  0.11058976599E+04  0.50400001928E-02 0. -1.
       -1   -1    0    0    0  501  0.00000000000E+00  0.00000000000E+00 -0.11920321463E+04  0.11920321463E+04  0.50400001928E-02 0.  1.
    10030    2    1    2    0    0  0.00000000000E+00  0.00000000000E+00 -0.86134486412E+02  0.22979298062E+04  0.22963149272E+04 0.  0.
        2    1    3    3  502    0 -0.14538637252E+02 -0.11346316222E+04  0.13217092882E+03  0.11423963605E+04  0.25500000920E-02 0. -1.
       -2    1    3    3    0  502  0.14538637252E+02  0.11346316222E+04 -0.21830541523E+03  0.11555334458E+04  0.25500000920E-02 0.  1.
</event>
<event>
 5   0  0.1602809E-05  0.2317824E+04  0.7818609E-02  0.8470926E-01
       -2   -1    0    0    0  501  0.00000000000E+00  0.00000000000E+00  0.13636820616E+04  0.13636820616E+04  0.25500000920E-02 0.  1.
        2   -1    0    0  501    0  0.00000000000E+00  0.00000000000E+00 -0.98488997742E+03  0.98488997742E+03  0.25500000920E-02 0. -1.
    10030    2    1    2    0    0  0.00000000000E+00  0.00000000000E+00  0.37879208421E+03  0.23485720391E+04  0.23178238025E+04 0.  0.
        3    1    3    3  502    0  0.60215820059E+03 -0.80022667412E+03  0.78033043830E+03  0.12695955386E+04  0.10100000352E+00 0.  1.
       -3    1    3    3    0  502 -0.60215820059E+03  0.80022667412E+03 -0.40153835409E+03  0.10789765004E+04  0.10100000352E+00 0. -1.
</event>
<event>
 5   0  0.1626636E-05  0.2303845E+04  0.7818609E-02  0.8476407E-01
        2   -1    0    0  501    0  0.00000000000E+00  0.00000000000E+00  0.96036384179E+03  0.96036384179E+03  0.25500000920E-02 0. -1.
       -2   -1    0    0    0  501  0.00000000000E+00  0.00000000000E+00 -0.13816907081E+04  0.13816907081E+04  0.25500000920E-02 0.  1.
    10030    2    1    2    0    0  0.00000000000E+00  0.00000000000E+00 -0.42132686633E+03  0.23420545499E+04  0.23038453044E+04 0.  0.
        4    1    3    3  502    0 -0.10741521570E+04  0.32512695379E+03  0.53284380009E+02  0.11235440492E+04  0.12699999809E+01 0. -1.
       -4    1    3    3    0  502  0.10741521570E+04 -0.32512695379E+03 -0.47461124634E+03  0.12185105007E+04  0.12699999809E+01 0.  1.
</event>
<event>
 5   0  0.1697855E-05  0.2325111E+04  0.7818609E-02  0.8468085E-01
        2   -1    0    0  501    0  0.00000000000E+00  0.00000000000E+00  0.21930089392E+04  0.21930089392E+04  0.25500000920E-02 0.  1.
       -2   -1    0    0    0  501  0.00000000000E+00  0.00000000000E+00 -0.61629291393E+03  0.61629291393E+03  0.25500000920E-02 0. -1.
    10030    2    1    2    0    0  0.00000000000E+00  0.00000000000E+00  0.15767160253E+04  0.28093018532E+04  0.23251114979E+04 0.  0.
        5    1    3    3  502    0  0.45298133168E+03  0.99870843321E+03  0.12545948415E+04  0.16663255768E+04  0.46999998093E+01 0.  1.
       -5    1    3    3    0  502 -0.45298133168E+03 -0.99870843321E+03  0.32212118380E+03  0.11429762764E+04  0.46999998093E+01 0. -1.
</event>
<event>
 5   0  0.7391007E-06  0.2307105E+04  0.7818609E-02  0.8475125E-01
        1   -1    0    0  501    0  0.00000000000E+00  0.00000000000E+00  0.12316197509E+04  0.12316197509E+04  0.50400001928E-02 0.  1.
       -1   -1    0    0    0  501  0.00000000000E+00  0.00000000000E+00 -0.10804336995E+04  0.10804336995E+04  0.50400001928E-02 0. -1.
    10030    2    1    2    0    0  0.00000000000E+00  0.00000000000E+00  0.15118605137E+03  0.23120534504E+04  0.23071050985E+04 0.  0.
        1    1    3    3  502    0  0.37928310187E+03  0.10202171786E+03  0.11625480553E+04  0.12271031266E+04  0.50400001928E-02 0.  1.
       -1    1    3    3    0  502 -0.37928310187E+03 -0.10202171786E+03 -0.10113620039E+04  0.10849503239E+04  0.50400001928E-02 0. -1.
</event>
<event>
 5   0  0.7183014E-06  0.2298763E+04  0.7818609E-02  0.8478409E-01
       -1   -1    0    0    0  501  0.00000000000E+00  0.00000000000E+00  0.11833956637E+04  0.11833956637E+04  0.50400001928E-02 0.  1.
        1   -1    0    0  501    0  0.00000000000E+00  0.00000000000E+00 -0.11163452390E+04  0.11163452390E+04  0.50400001928E-02 0. -1.
    10030    2    1    2    0    0  0.00000000000E+00  0.00000000000E+00  0.67050424619E+02  0.22997409027E+04  0.22987632458E+04 0.  0.
        3    1    3    3  502    0  0.87391805691E+03 -0.21709489024E+03  0.74812245651E+03  0.11707049935E+04  0.10100000352E+00 0.  1.
       -3    1    3    3    0  502 -0.87391805691E+03  0.21709489024E+03 -0.68107203189E+03  0.11290359093E+04  0.10100000352E+00 0. -1.
</event>
<event>
 5   0  0.7416556E-06  0.2302984E+04  0.7818609E-02  0.8476746E-01
       -1   -1    0    0    0  501  0.00000000000E+00  0.00000000000E+00  0.10037416335E+04  0.10037416335E+04  0.50400001928E-02 0. -1.
        1   -1    0    0  501    0  0.00000000000E+00  0.00000000000E+00 -0.13209909009E+04  0.13209909009E+04  0.50400001928E-02 0.  1.
    10030    2    1    2    0    0  0.00000000000E+00  0.00000000000E+00 -0.31724926738E+03  0.23247325344E+04  0.23029837730E+04 0.  0.
        4    1    3    3  502    0  0.10166732140E+04 -0.53630378929E+03 -0.22772379074E+03  0.11717960216E+04  0.12699999809E+01 0. -1.
       -4    1    3    3    0  502 -0.10166732140E+04  0.53630378929E+03 -0.89525476640E+02  0.11529365127E+04  0.12699999809E+01 0.  1.
</event>
<event>
 5   0  0.7278815E-06  0.2303155E+04  0.7818609E-02  0.8476678E-01
        1   -1    0    0  501    0  0.00000000000E+00  0.00000000000E+00  0.11052075367E+04  0.11052075367E+04  0.50400001928E-02 0.  1.
       -1   -1    0    0    0  501  0.00000000000E+00  0.00000000000E+00 -0.11998933100E+04  0.11998933100E+04  0.50400001928E-02 0. -1.
    10030    2    1    2    0    0  0.00000000000E+00  0.00000000000E+00 -0.94685773265E+02  0.23051008467E+04  0.23031553395E+04 0.  0.
        5    1    3    3  502    0  0.14551014161E+03 -0.90487448494E+03  0.65048205311E+03  0.11238861269E+04  0.46999998093E+01 0.  1.
       -5    1    3    3    0  502 -0.14551014161E+03  0.90487448494E+03 -0.74516782637E+03  0.11812147198E+04  0.46999998093E+01 0. -1.
</event>
<event>
 5   0  0.1602809E-05  0.2309138E+04  0.7818609E-02  0.8474327E-01
        2   -1    0    0  501    0  0.00000000000E+00  0.00000000000E+00  0.21008359695E+04  0.21008359695E+04  0.25500000920E-02 0. -1.
       -2   -1    0    0    0  501  0.00000000000E+00  0.00000000000E+00 -0.63452333317E+03  0.63452333318E+03  0.25500000920E-02 0.  1.
    10030    2    1    2    0    0  0.00000000000E+00  0.00000000000E+00  0.14663126363E+04  0.27353593027E+04  0.23091378840E+04 0.  0.
        3    1    3    3  502    0  0.11082247004E+04 -0.50490157567E+02  0.35424206927E+03  0.11645594431E+04  0.10100000352E+00 0.  1.
       -3    1    3    3    0  502 -0.11082247004E+04  0.50490157567E+02  0.11120705671E+04  0.15707998596E+04  0.10100000352E+00 0. -1.
</event>
<event>
 5   0  0.7202572E-06  0.2299432E+04  0.7818609E-02  0.8478145E-01
       -1   -1    0    0    0  501  0.00000000000E+00  0.00000000000E+00  0.16326056571E+04  0.16326056571E+04  0.50400001928E-02 0.  1.
        1   -1    0    0  501    0  0.00000000000E+00  0.00000000000E+00 -0.80965495790E+03  0.80965495792E+03  0.50400001928E-02 0. -1.
    10030    2    1    2    0    0  0.00000000000E+00  0.00000000000E+00  0.82295069915E+03  0.24422606150E+04  0.22994323339E+04 0.  0.
        2    1    3    3  502    0  0.31208621076E+03  0.55821241514E+02 -0.76230949529E+03  0.82560861222E+03  0.25500000920E-02 0. -1.
       -2    1    3    3    0  502 -0.31208621076E+03 -0.55821241514E+02  0.15852601944E+04  0.16166520028E+04  0.25500000920E-02 0.  1.
</event>
<event>
 5   0  0.7416556E-06  0.2295559E+04  0.7818609E-02  0.8479674E-01
        1   -1    0    0  501    0  0.00000000000E+00  0.00000000000E+00  0.11247480373E+04  0.11247480373E+04  0.50400001928E-02 0.  1.
       -1   -1    0    0    0  501  0.00000000000E+00  0.00000000000E+00 -0.11712830176E+04  0.11712830176E+04  0.50400001928E-02 0. -1.
    10030    2    1    2    0    0  0.00000000000E+00  0.00000000000E+00 -0.46534980313E+02  0.22960310549E+04  0.22955594309E+04 0.  0.
        4    1    3    3  502    0 -0.49424433494E+03  0.53621146235E+03 -0.90978838838E+03  0.11659831558E+04  0.12699999809E+01 0. -1.
       -4    1    3    3    0  502  0.49424433494E+03 -0.53621146235E+03  0.86325340806E+03  0.11300478992E+04  0.12699999809E+01 0.  1.
</event>
<event>
 5   0  0.7183014E-06  0.2283989E+04  0.7818609E-02  0.8484261E-01
        1   -1    0    0  501    0  0.00000000000E+00  0.00000000000E+00  0.13606026508E+04  0.13606026508E+04  0.50400001928E-02 0.  1.
       -1   -1    0    0    0  501  0.00000000000E+00  0.00000000000E+00 -0.95851000322E+03  0.95851000323E+03  0.50400001928E-02 0. -1.
    10030    2    1    2    0    0  0.00000000000E+00  0.00000000000E+00  0.40209264754E+03  0.23191126540E+04  0.22839888364E+04 0.  0.
        3    1    3    3  502    0  0.65993786046E+03  0.92376370338E+03  0.32661656572E+03  0.11813279606E+04  0.10100000352E+00 0. -1.
       -3    1    3    3    0  502 -0.65993786046E+03 -0.92376370338E+03  0.75476081826E+02  0.11377846934E+04  0.10100000352E+00 0.  1.
</event>
<event>
 5   0  0.7416556E-06  0.2304236E+04  0.7818609E-02  0.8476253E-01
        1   -1    0    0  501    0  0.00000000000E+00  0.00000000000E+00  0.22692660683E+04  0.22692660684E+04  0.50400001928E-02 0.  1.
       -1   -1    0    0    0  501  0.00000000000E+00  0.00000000000E+00 -0.58493610255E+03  0.58493610257E+03  0.50400001928E-02 0. -1.
    10030    2    1    2    0    0  0.00000000000E+00  0.00000000000E+00  0.16843299658E+04  0.28542021709E+04  0.23042357950E+04 0.  0.
        4    1    3    3  502    0 -0.96214964711E+03  0.36111935187E+03  0.19705969196E+03  0.10464097022E+04  0.12699999809E+01 0. -1.
       -4    1    3    3    0  502  0.96214964711E+03 -0.36111935187E+03  0.14872702738E+04  0.18077924687E+04  0.12699999809E+01 0.  1.
</event>
<event>
 5   0  0.1635955E-05  0.2296645E+04  0.7818609E-02  0.8479245E-01
        2   -1    0    0  501    0  0.00000000000E+00  0.00000000000E+00  0.13435758144E+04  0.13435758144E+04  0.25500000920E-02 0. -1.
       -2   -1    0    0    0  501  0.00000000000E+00  0.00000000000E+00 -0.98144389458E+03  0.98144389458E+03  0.25500000920E-02 0.  1.
    10030    2    1    2    0    0  0.00000000000E+00  0.00000000000E+00  0.36213191978E+03  0.23250197089E+04  0.22966447526E+04 0.  0.
        2    1    3    3  502    0  0.98996845720E+03  0.22638737678E+03 -0.36161247565E+03  0.10779853307E+04  0.25500000920E-02 0.  1.
       -2    1    3    3    0  502 -0.98996845720E+03 -0.22638737678E+03  0.72374439543E+03  0.12470343783E+04  0.25500000920E-02 0. -1.
</event>
<event>
 5   0  0.1697855E-05  0.2311343E+04  0.7818609E-02  0.8473462E-01
       -2   -1    0    0    0  501  0.00000000000E+00  0.00000000000E+00  0.93827027668E+03  0.93827027669E+03  0.25500000920E-02 0.  1.
        2   -1    0    0  501    0  0.00000000000E+00  0.00000000000E+00 -0.14234457274E+04  0.14234457274E+04  0.25500000920E-02 0. -1.
    10030    2    1    2    0    0  0.00000000000E+00  0.00000000000E+00 -0.48517545075E+03  0.23617160041E+04  0.23113431736E+04 0.  0.
        5    1    3    3  502    0  0.89884520741E+03 -0.55735256174E+03  0.23338628834E+03  0.10830770215E+04  0.46999998093E+01 0.  1.
       -5    1    3    3    0  502 -0.89884520741E+03  0.55735256174E+03 -0.71856173909E+03  0.12786389826E+04  0.46999998093E+01 0. -1.
</event>
<event>
 5   0  0.1602809E-05  0.2290986E+04  0.7818609E-02  0.8481484E-01
        2   -1    0    0  501    0  0.00000000000E+00  0.00000000000E+00  0.18420063882E+04  0.18420063882E+04  0.25500000920E-02 0. -1.
       -2   -1    0    0    0  501  0.00000000000E+00  0.00000000000E+00 -0.71235029901E+03  0.71235029901E+03  0.25500000920E-02 0.  1.
    10030    2    1    2    0    0  0.00000000000E+00  0.00000000000E+00  0.11296560892E+04  0.25543566872E+04  0.22909856406E+04 0.  0.
        3    1    3    3  502    0  0.22074185178E+03 -0.99576184887E+03 -0.16541036901E+02  0.10200697235E+04  0.10100000352E+00 0.  1.
       -3    1    3    3    0  502 -0.22074185178E+03  0.99576184887E+03  0.11461971261E+04  0.15342869636E+04  0.10100000352E+00 0. -1.
</event>
<event>
 5   0  0.1697855E-05  0.2299874E+04  0.7818609E-02  0.8477971E-01
        2   -1    0    0  501    0  0.00000000000E+00  0.00000000000E+00  0.19438799840E+04  0.19438799840E+04  0.25500000920E-02 0.  1.
       -2   -1    0    0    0  501  0.00000000000E+00  0.00000000000E+00 -0.68026573950E+03  0.68026573951E+03  0.25500000920E-02 0. -1.
    10030    2    1    2    0    0  0.00000000000E+00  0.00000000000E+00  0.12636142444E+04  0.26241457235E+04  0.22998738703E+04 0.  0.
        5    1    3    3  502    0 -0.74192351171E+03  0.71860029372E+03  0.55072571483E+02  0.10343558176E+04  0.46999998093E+01 0. -1.
       -5    1    3    3    0  502  0.74192351171E+03 -0.71860029372E+03  0.12085416730E+04  0.15897899058E+04  0.46999998093E+01 0.  1.
</event>
<event>
 5   0  0.7416556E-06  0.2309496E+04  0.7818609E-02  0.8474186E-01
       -1   -1    0    0    0  501  0.00000000000E+00  0.00000000000E+00  0.83234740675E+03  0.83234740676E+03  0.50400001928E-02 0. -1.
        1   -1    0    0  501    0  0.00000000000E+00  0.00000000000E+00 -0.16020264796E+04  0.16020264796E+04  0.50400001928E-02 0.  1.
    10030    2    1    2    0    0  0.00000000000E+00  0.00000000000E+00 -0.76967907285E+03  0.24343738864E+04  0.23094956903E+04 0.  0.
        4    1    3    3  502    0  0.11103740064E+04  0.26093430662E+03 -0.57464218054E+03  0.12771970854E+04  0.12699999809E+01 0.  1.
       -4    1    3    3    0  502 -0.11103740064E+04 -0.26093430662E+03 -0.19503689231E+03  0.11571768010E+04  0.12699999809E+01 0. -1.
</event>
<event>
 5   0  0.7278815E-06  0.2320982E+04  0.7818609E-02  0.8469694E-01
        1   -1    0    0  501    0  0.00000000000E+00  0.00000000000E+00  0.21050306302E+04  0.21050306302E+04  0.50400001928E-02 0.  1.
       -1   -1    0    0    0  501  0.00000000000E+00  0.00000000000E+00 -0.63977161890E+03  0.63977161892E+03  0.50400001928E-02 0. -1.
    10030    2    1    2    0    0  0.00000000000E+00  0.00000000000E+00  0.14652590113E+04  0.27448022491E+04  0.23209815632E+04 0.  0.
        5    1    3    3  502    0  0.76815279341E+02 -0.10794611175E+04  0.23709176621E+03  0.11078679917E+04  0.46999998093E+01 0. -1.
       -5    1    3    3    0  502 -0.76815279341E+02  0.10794611175E+04  0.12281672451E+04  0.16369342574E+04  0.46999998093E+01 0.  1.
</event>
<event>
 5   0  0.7183014E-06  0.2294931E+04  0.7818609E-02  0.8479923E-01
       -1   -1    0    0    0  501  0.00000000000E+00  0.00000000000E+00  0.11127105748E+04  0.11127105748E+04  0.50400001928E-02 0. -1.
        1   -1    0    0  501    0  0.00000000000E+00  0.00000000000E+00 -0.11833056388E+04  0.11833056388E+04  0.50400001928E-02 0.  1.
    10030    2    1    2    0    0  0.00000000000E+00  0.00000000000E+00 -0.70595063980E+02  0.22960162137E+04  0.22949306722E+04 0.  0.
        3    1    3    3  502    0  0.63279808140E+03 -0.93934812456E+03 -0.21941821164E+03  0.11536692215E+04  0.10100000352E+00 0.  1.
       -3    1    3    3    0  502 -0.63279808140E+03  0.93934812456E+03  0.14882314766E+03  0.11423469921E+04  0.10100000352E+00 0. -1.
</event>
<event>
 5   0  0.7278815E-06  0.2297895E+04  0.7818609E-02  0.8478751E-01
       -1   -1    0    0    0  501  0.00000000000E+00  0.00000000000E+00  0.85327137961E+03  0.85327137962E+03  0.50400001928E-02 0. -1.
        1   -1    0    0  501    0  0.00000000000E+00  0.00000000000E+00 -0.15470821509E+04  0.15470821509E+04  0.50400001928E-02 0.  1.
    10030    2    1    2    0    0  0.00000000000E+00  0.00000000000E+00 -0.69381077125E+03  0.24003535305E+04  0.22978954904E+04 0.  0.
        5    1    3    3  502    0 -0.94869639408E+03 -0.60210898323E+03 -0.59738602308E+03  0.12725770021E+04  0.46999998093E+01 0.  1.
       -5    1    3    3    0  502  0.94869639408E+03  0.60210898323E+03 -0.96424748174E+02  0.11277765283E+04  0.46999998093E+01 0. -1.
</event>
<event>
 5   0  0.1635955E-05  0.2303287E+04  0.7818609E-02  0.8476626E-01
       -2   -1    0    0    0  501  0.00000000000E+00  0.00000000000E+00  0.10648930309E+04  0.10648930309E+04  0.25500000920E-02 0.  1.
        2   -1    0    0  501    0  0.00000000000E+00  0.00000000000E+00 -0.12454613641E+04  0.12454613641E+04  0.25500000920E-02 0. -1.
    10030    2    1    2    0    0  0.00000000000E+00  0.00000000000E+00 -0.18056833319E+03  0.23103543950E+04  0.23032873263E+04 0.  0.
        2    1    3    3  502    0 -0.10659016925E+04 -0.10427843010E+03 -0.51497752909E+03  0.11883695825E+04  0.25500000920E-02 0. -1.
       -2    1    3    3    0  502  0.10659016925E+04  0.10427843010E+03  0.33440919589E+03  0.11219848125E+04  0.25500000920E-02 0.  1.
</event>
<event>
 5   0  0.1602809E-05  0.2305034E+04  0.7818609E-02  0.8475939E-01
       -2   -1    0    0    0  501  0.00000000000E+00  0.00000000000E+00  0.86441875141E+03  0.86441875141E+03  0.25500000920E-02 0.  1.
        2   -1    0    0  501    0  0.00000000000E+00  0.00000000000E+00 -0.15366337089E+04  0.15366337089E+04  0.25500000920E-02 0. -1.
    10030    2    1    2    0    0  0.00000000000E+00  0.00000000000E+00 -0.67221495750E+03  0.24010524603E+04  0.23050336154E+04 0.  0.
        3    1    3    3  502    0  0.10443793400E+04 -0.32818840052E+03 -0.71147843203E+03  0.13056176322E+04  0.10100000352E+00 0. -1.
       -3    1    3    3    0  502 -0.10443793400E+04  0.32818840052E+03  0.39263474528E+02  0.10954348281E+04  0.10100000352E+00 0.  1.
</event>
<event>
 5   0  0.1602809E-05  0.2303476E+04  0.7818609E-02  0.8476552E-01
       -2   -1    0    0    0  501  0.00000000000E+00  0.00000000000E+00  0.58570741177E+03  0.58570741178E+03  0.25500000920E-02 0.  1.
        2   -1    0    0  501    0  0.00000000000E+00  0.00000000000E+00 -0.22647838605E+04  0.22647838605E+04  0.25500000920E-02 0. -1.
    10030    2    1    2    0    0  0.00000000000E+00  0.00000000000E+00 -0.16790764487E+04  0.28504912723E+04  0.23034762366E+04 0.  0.
        3    1    3    3  502    0  0.11441715312E+04  0.10503177238E+03 -0.74100145720E+03  0.13672027413E+04  0.10100000352E+00 0.  1.
       -3    1    3    3    0  502 -0.11441715312E+04 -0.10503177238E+03 -0.93807499153E+03  0.14832885309E+04  0.10100000352E+00 0. -1.
</event>
<event>
 5   0  0.7202572E-06  0.2307215E+04  0.7818609E-02  0.8475082E-01
        1   -1    0    0  501    0  0.00000000000E+00  0.00000000000E+00  0.10721070857E+04  0.10721070857E+04  0.50400001928E-02 0. -1.
       -1   -1    0    0    0  501  0.00000000000E+00  0.00000000000E+00 -0.12413038782E+04  0.12413038782E+04  0.50400001928E-02 0.  1.
    10030    2    1    2    0    0  0.00000000000E+00  0.00000000000E+00 -0.16919679250E+03  0.23134109640E+04  0.23072153635E+04 0.  0.
        2    1    3    3  502    0  0.32385767678E+03 -0.87445855164E+03  0.59637858918E+03  0.11069006166E+04  0.25500000920E-02 0. -1.
       -2    1    3    3    0  502 -0.32385767678E+03  0.87445855164E+03 -0.76557538169E+03  0.12065103474E+04  0.25500000920E-02 0.  1.
</event>
<event>
 5   0  0.1626636E-05  0.2300945E+04  0.7818609E-02  0.8477549E-01
       -2   -1    0    0    0  501  0.00000000000E+00  0.00000000000E+00  0.11213702376E+04  0.11213702376E+04  0.25500000920E-02 0. -1.
        2   -1    0    0  501    0  0.00000000000E+00  0.00000000000E+00 -0.11803296367E+04  0.11803296367E+04  0.25500000920E-02 0.  1.
    10030    2    1    2    0    0  0.00000000000E+00  0.00000000000E+00 -0.58959399089E+02  0.23016998742E+04  0.23009446104E+04 0.  0.
        4    1    3    3  502    0  0.21614326858E+02  0.88883559613E+03 -0.75984880938E+03  0.11695587724E+04  0.12699999809E+01 0.  1.
       -4    1    3    3    0  502 -0.21614326858E+02 -0.88883559613E+03  0.70088941029E+03  0.11321411018E+04  0.12699999809E+01 0. -1.
</event>
<event>
 5   0  0.1602809E-05  0.2331794E+04  0.7818609E-02  0.8465490E-01
       -2   -1    0    0    0  501  0.00000000000E+00  0.00000000000E+00  0.80384378500E+03  0.80384378500E+03  0.25500000920E-02 0. -1.
        2   -1    0    0  501    0  0.00000000000E+00  0.00000000000E+00 -0.16910202859E+04  0.16910202859E+04  0.25500000920E-02 0.  1.
    10030    2    1    2    0    0  0.00000000000E+00  0.00000000000E+00 -0.88717650086E+03  0.24948640709E+04  0.23317942852E+04 0.  0.
        3    1    3    3  502    0  0.99294957528E+00 -0.18429947322E+03 -0.16753359468E+04  0.16854429171E+04  0.10100000352E+00 0.  1.
       -3    1    3    3    0  502 -0.99294957528E+00  0.18429947322E+03  0.78815944596E+03  0.80942115381E+03  0.10100000352E+00 0. -1.
</event>
<event>
 5   0  0.1602809E-05  0.2320431E+04  0.7818609E-02  0.8469909E-01
       -2   -1    0    0    0  501  0.00000000000E+00  0.00000000000E+00  0.79026515139E+03  0.79026515139E+03  0.25500000920E-02 0.  1.
        2   -1    0    0  501    0  0.00000000000E+00  0.00000000000E+00 -0.17033530621E+04  0.17033530621E+04  0.25500000920E-02 0. -1.
    10030    2    1    2    0    0  0.00000000000E+00  0.00000000000E+00 -0.91308791068E+03  0.24936182135E+04  0.23204314818E+04 0.  0.
        3    1    3    3  502    0 -0.84823729115E+03 -0.43419391238E+01 -0.13071878971E+04  0.15582893066E+04  0.10100000352E+00 0. -1.
       -3    1    3    3    0  502  0.84823729115E+03  0.43419391238E+01  0.39409998642E+03  0.93532890687E+03  0.10100000352E+00 0.  1.
</event>
<event>
 5   0  0.1602809E-05  0.2305859E+04  0.7818609E-02  0.8475615E-01
       -2   -1    0    0    0  501  0.00000000000E+00  0.00000000000E+00  0.74547268137E+03  0.74547268137E+03  0.25500000920E-02 0.  1.
        2   -1    0    0  501    0  0.00000000000E+00  0.00000000000E+00 -0.17830918368E+04  0.17830918368E+04  0.25500000920E-02 0. -1.
    10030    2    1    2    0    0  0.00000000000E+00  0.00000000000E+00 -0.10376191554E+04  0.25285645181E+04  0.23058588445E+04 0.  0.
        3    1    3    3  502    0 -0.16355103652E+03  0.99356435352E+02  0.72793560196E+03  0.75266917938E+03  0.10100000352E+00 0.  1.
       -3    1    3    3    0  502  0.16355103652E+03 -0.99356435352E+02 -0.17655547574E+04  0.17758953388E+04  0.10100000352E+00 0. -1.
</event>
<event>
 5   0  0.1697855E-05  0.2333391E+04  0.7818609E-02  0.8464871E-01
        2   -1    0    0  501    0  0.00000000000E+00  0.00000000000E+00  0.11676105068E+04  0.11676105068E+04  0.25500000920E-02 0.  1.
       -2   -1    0    0    0  501  0.00000000000E+00  0.00000000000E+00 -0.11657809117E+04  0.11657809117E+04  0.25500000920E-02 0. -1.
    10030    2    1    2    0    0  0.00000000000E+00  0.00000000000E+00  0.18295951463E+01  0.23333914185E+04  0.23333907013E+04 0.  0.
        5    1    3    3  502    0  0.63016130799E+03  0.43789678494E+03 -0.87789095892E+03  0.11660066441E+04  0.46999998093E+01 0. -1.
       -5    1    3    3    0  502 -0.63016130799E+03 -0.43789678494E+03  0.87972055407E+03  0.11673847744E+04  0.46999998093E+01 0.  1.
</event>
<event>
 5   0  0.7183014E-06  0.2298162E+04  0.7818609E-02  0.8478646E-01
        1   -1    0    0  501    0  0.00000000000E+00  0.00000000000E+00  0.15015663698E+04  0.15015663698E+04  0.50400001928E-02 0. -1.
       -1   -1    0    0    0  501  0.00000000000E+00  0.00000000000E+00 -0.87933981160E+03  0.87933981162E+03  0.50400001928E-02 0.  1.
    10030    2    1    2    0    0  0.00000000000E+00  0.00000000000E+00  0.62222655819E+03  0.23809061814E+04  0.22981619514E+04 0.  0.
        3    1    3    3  502    0  0.68832315433E+02  0.17361464848E+03 -0.86351080109E+03  0.88347656880E+03  0.10100000352E+00 0.  1.
       -3    1    3    3    0  502 -0.68832315433E+02 -0.17361464848E+03  0.14857373593E+04  0.14974296126E+04  0.10100000352E+00 0. -1.
</event>
<event>
 5   0  0.7202572E-06  0.2296403E+04  0.7818609E-02  0.8479341E-01
        1   -1    0    0  501    0  0.00000000000E+00  0.00000000000E+00  0.77642848820E+03  0.77642848822E+03  0.50400001928E-02 0. -1.
       -1   -1    0    0    0  501  0.00000000000E+00  0.00000000000E+00 -0.16979889055E+04  0.16979889055E+04  0.50400001928E-02 0.  1.
    10030    2    1    2    0    0  0.00000000000E+00  0.00000000000E+00 -0.92156041726E+03  0.24744173937E+04  0.22964032389E+04 0.  0.
        2    1    3    3  502    0 -0.47142571400E+03 -0.51294239914E+03 -0.14442277093E+04  0.16034792749E+04  0.25500000920E-02 0.  1.
       -2    1    3    3    0  502  0.47142571400E+03  0.51294239914E+03  0.52266729203E+03  0.87093811882E+03  0.25500000920E-02 0. -1.
</event>
<event>
 5   0  0.7416556E-06  0.2307277E+04  0.7818609E-02  0.8475058E-01
       -1   -1    0    0    0  501  0.00000000000E+00  0.00000000000E+00  0.86050968725E+03  0.86050968727E+03  0.50400001928E-02 0. -1.
        1   -1    0    0  501    0  0.00000000000E+00  0.00000000000E+00 -0.15466197744E+04  0.15466197744E+04  0.50400001928E-02 0.  1.
    10030    2    1    2    0    0  0.00000000000E+00  0.00000000000E+00 -0.68611008711E+03  0.24071294616E+04  0.23072765750E+04 0.  0.
        4    1    3    3  502    0 -0.11045824312E+04  0.32559832681E+03 -0.27105327367E+03  0.11830418876E+04  0.12699999809E+01 0.  1.
       -4    1    3    3    0  502  0.11045824312E+04 -0.32559832681E+03 -0.41505681344E+03  0.12240875741E+04  0.12699999809E+01 0. -1.
</event>
<event>
 5   0  0.1602809E-05  0.2270561E+04  0.7818609E-02  0.8489620E-01
       -2   -1    0    0    0  501  0.00000000000E+00  0.00000000000E+00  0.62501396286E+03  0.62501396286E+03  0.25500000920E-02 0.  1.
        2   -1    0    0  501    0  0.00000000000E+00  0.00000000000E+00 -0.20621324493E+04  0.20621324493E+04  0.25500000920E-02 0. -1.
    10030    2    1    2    0    0  0.00000000000E+00  0.00000000000E+00 -0.14371184864E+04  0.26871464121E+04  0.22705607889E+04 0.  0.
        3    1    3    3  502    0  0.41015629279E+03  0.91368099723E+03 -0.85849067810E+02  0.10051921318E+04  0.10100000352E+00 0.  1.
       -3    1    3    3    0  502 -0.41015629279E+03 -0.91368099723E+03 -0.13512694186E+04  0.16819542803E+04  0.10100000352E+00 0. -1.
</event>
<event>
 5   0  0.1602809E-05  0.2290708E+04  0.7818609E-02  0.8481594E-01
       -2   -1    0    0    0  501  0.00000000000E+00  0.00000000000E+00  0.96167871865E+03  0.96167871865E+03  0.25500000920E-02 0.  1.
        2   -1    0    0  501    0  0.00000000000E+00  0.00000000000E+00 -0.13641098929E+04  0.13641098929E+04  0.25500000920E-02 0. -1.
    10030    2    1    2    0    0  0.00000000000E+00  0.00000000000E+00 -0.40243117430E+03  0.23257886116E+04  0.22907077107E+04 0.  0.
        3    1    3    3  502    0 -0.43785596015E+03 -0.98992853370E+03  0.17889609055E+03  0.10971235870E+04  0.10100000352E+00 0.  1.
       -3    1    3    3    0  502  0.43785596015E+03  0.98992853370E+03 -0.58132726485E+03  0.12286650246E+04  0.10100000352E+00 0. -1.
</event>
<event>
 5   0  0.1588969E-05  0.2316375E+04  0.7818609E-02  0.8471492E-01
        2   -1    0    0  501    0  0.00000000000E+00  0.00000000000E+00  0.12111405647E+04  0.12111405647E+04  0.25500000920E-02 0. -1.
       -2   -1    0    0    0  501  0.00000000000E+00  0.00000000000E+00 -0.11075497728E+04  0.11075497728E+04  0.25500000920E-02 0.  1.
    10030    2    1    2    0    0  0.00000000000E+00  0.00000000000E+00  0.10359079191E+03  0.23186903374E+04  0.23163751485E+04 0.  0.
        1    1    3    3  502    0 -0.35046117479E+03 -0.98181283980E+03 -0.45330677318E+03  0.11367790102E+04  0.50400001928E-02 0. -1.
       -1    1    3    3    0  502  0.35046117479E+03  0.98181283980E+03  0.55689756509E+03  0.11819113272E+04  0.50400001928E-02 0.  1.
</event>
<event>
 5   0  0.7391007E-06  0.2293677E+04  0.7818609E-02  0.8480419E-01
       -1   -1    0    0    0  501  0.00000000000E+00  0.00000000000E+00  0.69999276964E+03  0.69999276965E+03  0.50400001928E-02 0.  1.
        1   -1    0    0  501    0  0.00000000000E+00  0.00000000000E+00 -0.18789308418E+04  0.18789308418E+04  0.50400001928E-02 0. -1.
    10030    2    1    2    0    0  0.00000000000E+00  0.00000000000E+00 -0.11789380722E+04  0.25789236115E+04  0.22936765282E+04 0.  0.
        1    1    3    3  502    0 -0.28859688546E+03  0.63663140585E+03  0.43280474074E+03  0.82213603062E+03  0.50400001928E-02 0.  1.
       -1    1    3    3    0  502  0.28859688546E+03 -0.63663140585E+03 -0.16117428129E+04  0.17567875809E+04  0.50400001928E-02 0. -1.
</event>
<event>
 5   0  0.1635955E-05  0.2373976E+04  0.7818609E-02  0.8449311E-01
        2   -1    0    0  501    0  0.00000000000E+00  0.00000000000E+00  0.11241062143E+04  0.11241062143E+04  0.25500000920E-02 0.  1.
       -2   -1    0    0    0  501  0.00000000000E+00  0.00000000000E+00 -0.12533874285E+04  0.12533874285E+04  0.25500000920E-02 0. -1.
    10030    2    1    2    0    0  0.00000000000E+00  0.00000000000E+00 -0.12928121420E+03  0.23774936429E+04  0.23739760718E+04 0.  0.
        2    1    3    3  502    0 -0.35119005750E+03 -0.53470127373E+03 -0.10659724399E+04  0.12431963446E+04  0.25500000920E-02 0. -1.
       -2    1    3    3    0  502  0.35119005750E+03  0.53470127373E+03  0.93669122567E+03  0.11342972983E+04  0.25500000920E-02 0.  1.
</event>
<event>
 5   0  0.1602809E-05  0.2210274E+04  0.7818609E-02  0.8514164E-01
        2   -1    0    0  501    0  0.00000000000E+00  0.00000000000E+00  0.84019512483E+03  0.84019512484E+03  0.25500000920E-02 0.  1.
       -2   -1    0    0    0  501  0.00000000000E+00  0.00000000000E+00 -0.14536241010E+04  0.14536241010E+04  0.25500000920E-02 0. -1.
    10030    2    1    2    0    0  0.00000000000E+00  0.00000000000E+00 -0.61342897615E+03  0.22938192258E+04  0.22102740853E+04 0.  0.
        3    1    3    3  502    0  0.39886157197E+03 -0.72039924373E+03  0.45820868913E+03  0.94234857508E+03  0.10100000352E+00 0.  1.
       -3    1    3    3    0  502 -0.39886157197E+03  0.72039924373E+03 -0.10716376653E+04  0.13514706507E+04  0.10100000352E+00 0. -1.
</event>
<event>
 5   0  0.7391007E-06  0.2234524E+04  0.7818609E-02  0.8504194E-01
       -1   -1    0    0    0  501  0.00000000000E+00  0.00000000000E+00  0.48916887421E+03  0.48916887424E+03  0.50400001928E-02 0.  1.
        1   -1    0    0  501    0  0.00000000000E+00  0.00000000000E+00 -0.25518265919E+04  0.25518265919E+04  0.50400001928E-02 0. -1.
    10030    2    1    2    0    0  0.00000000000E+00  0.00000000000E+00 -0.20626577176E+04  0.30409954661E+04  0.22345237892E+04 0.  0.
        1    1    3    3  502    0  0.41884574233E+03  0.25349280752E+03  0.33541389553E+03  0.59345837316E+03  0.50400001928E-02 0.  1.
       -1    1    3    3    0  502 -0.41884574233E+03 -0.25349280752E+03 -0.23980716132E+04  0.24475370929E+04  0.50400001928E-02 0. -1.
</event>
<event>
 5   0  0.1626636E-05  0.2301957E+04  0.7818609E-02  0.8477150E-01
       -2   -1    0    0    0  501  0.00000000000E+00  0.00000000000E+00  0.69908853606E+03  0.69908853606E+03  0.25500000920E-02 0. -1.
        2   -1    0    0  501    0  0.00000000000E+00  0.00000000000E+00 -0.18949694447E+04  0.18949694447E+04  0.25500000920E-02 0.  1.
    10030    2    1    2    0    0  0.00000000000E+00  0.00000000000E+00 -0.11958809086E+04  0.25940579807E+04  0.23019569196E+04 0.  0.
        4    1    3    3  502    0  0.26787278070E+03 -0.32355932039E+00  0.66347155248E+03  0.71550824256E+03  0.12699999809E+01 0. -1.
       -4    1    3    3    0  502 -0.26787278070E+03  0.32355932039E+00 -0.18593524611E+04  0.18785497382E+04  0.12699999809E+01 0.  1.
</event>
<event>
 5   0  0.5704875E-06  0.2299249E+04  0.7818609E-02  0.8478217E-01
       -3   -1    0    0    0  501  0.00000000000E+00  0.00000000000E+00  0.11525086040E+04  0.11525086085E+04  0.10100000352E+00 0.  1.
        3   -1    0    0  501    0  0.00000000000E+00  0.00000000000E+00 -0.11467476920E+04  0.11467476964E+04  0.10100000352E+00 0. -1.
    10030    2    1    2    0    0  0.00000000000E+00  0.00000000000E+00  0.57609120753E+01  0.22992563049E+04  0.22992490877E+04 0.  0.
        2    1    3    3  502    0  0.46810063792E+03 -0.73050138045E+03  0.75712821982E+03  0.11515179613E+04  0.25500000920E-02 0.  1.
       -2    1    3    3    0  502 -0.46810063792E+03  0.73050138045E+03 -0.75136730774E+03  0.11477383435E+04  0.25500000920E-02 0. -1.
</event>
<event>
 5   0  0.1697855E-05  0.2289166E+04  0.7818609E-02  0.8482205E-01
       -2   -1    0    0    0  501  0.00000000000E+00  0.00000000000E+00  0.10975316089E+04  0.10975316089E+04  0.25500000920E-02 0.  1.
        2   -1    0    0  501    0  0.00000000000E+00  0.00000000000E+00 -0.11936513840E+04  0.11936513840E+04  0.25500000920E-02 0. -1.
    10030    2    1    2    0    0  0.00000000000E+00  0.00000000000E+00 -0.96119775106E+02  0.22911829929E+04  0.22891658952E+04 0.  0.
        5    1    3    3  502    0  0.28623365371E+03  0.10919886680E+04  0.14099561564E+03  0.11376602345E+04  0.46999998093E+01 0.  1.
       -5    1    3    3    0  502 -0.28623365371E+03 -0.10919886680E+04 -0.23711539075E+03  0.11535227584E+04  0.46999998093E+01 0. -1.
</event>
<event>
 5   0  0.1626636E-05  0.2304289E+04  0.7818609E-02  0.8476232E-01
       -2   -1    0    0    0  501  0.00000000000E+00  0.00000000000E+00  0.84982238002E+03  0.84982238002E+03  0.25500000920E-02 0. -1.
        2   -1    0    0  501    0  0.00000000000E+00  0.00000000000E+00 -0.15620165228E+04  0.15620165228E+04  0.25500000920E-02 0.  1.
    10030    2    1    2    0    0  0.00000000000E+00  0.00000000000E+00 -0.71219414277E+03  0.24118389028E+04  0.23042886964E+04 0.  0.
        4    1    3    3  502    0  0.11053682527E+04  0.31396894254E+03 -0.44379007854E+03  0.12318144007E+04  0.12699999809E+01 0. -1.
       -4    1    3    3    0  502 -0.11053682527E+04 -0.31396894254E+03 -0.26840406424E+03  0.11800245021E+04  0.12699999809E+01 0.  1.
</event>
<event>
 5   0  0.1602809E-05  0.2301951E+04  0.7818609E-02  0.8477152E-01
       -2   -1    0    0    0  501  0.00000000000E+00  0.00000000000E+00  0.72801650533E+03  0.72801650533E+03  0.25500000920E-02 0. -1.
        2   -1    0    0  501    0  0.00000000000E+00  0.00000000000E+00 -0.18196636007E+04  0.18196636007E+04  0.25500000920E-02 0.  1.
    10030    2    1    2    0    0  0.00000000000E+00  0.00000000000E+00 -0.10916470954E+04  0.25476801060E+04  0.23019514638E+04 0.  0.
        3    1    3    3  502    0 -0.68905248137E+02  0.93152860009E+03  0.19846068354E+03  0.95492414312E+03  0.10100000352E+00 0. -1.
       -3    1    3    3    0  502  0.68905248137E+02 -0.93152860009E+03 -0.12901077789E+04  0.15927559629E+04  0.10100000352E+00 0.  1.
</event>
<event>
 5   0  0.1602809E-05  0.2290116E+04  0.7818609E-02  0.8481828E-01
        2   -1    0    0  501    0  0.00000000000E+00  0.00000000000E+00  0.19851347379E+04  0.19851347379E+04  0.25500000920E-02 0.  1.
       -2   -1    0    0    0  501  0.00000000000E+00  0.00000000000E+00 -0.66048806523E+03  0.66048806524E+03  0.25500000920E-02 0. -1.
    10030    2    1    2    0    0  0.00000000000E+00  0.00000000000E+00  0.13246466726E+04  0.26456228031E+04  0.22901159816E+04 0.  0.
        3    1    3    3  502    0  0.84195539737E+03 -0.77190327437E+03  0.56965765184E+03  0.12764142770E+04  0.10100000352E+00 0.  1.
       -3    1    3    3    0  502 -0.84195539737E+03  0.77190327437E+03  0.75498902080E+03  0.13692085261E+04  0.10100000352E+00 0. -1.
</event>
<event>
 5   0  0.1626636E-05  0.2310006E+04  0.7818609E-02  0.8473986E-01
       -2   -1    0    0    0  501  0.00000000000E+00  0.00000000000E+00  0.12910188751E+04  0.12910188752E+04  0.25500000920E-02 0. -1.
        2   -1    0    0  501    0  0.00000000000E+00  0.00000000000E+00 -0.10333168526E+04  0.10333168526E+04  0.25500000920E-02 0.  1.
    10030    2    1    2    0    0  0.00000000000E+00  0.00000000000E+00  0.25770202251E+03  0.23243357278E+04  0.23100056803E+04 0.  0.
        4    1    3    3  502    0 -0.41392903889E+02  0.10756309658E+04 -0.29247631235E+03  0.11154547742E+04  0.12699999809E+01 0. -1.
       -4    1    3    3    0  502  0.41392903889E+02 -0.10756309658E+04  0.55017833486E+03  0.12088809536E+04  0.12699999809E+01 0.  1.
</event>
<event>
 5   0  0.1602809E-05  0.2295831E+04  0.7818609E-02  0.8479567E-01
       -2   -1    0    0    0  501  0.00000000000E+00  0.00000000000E+00  0.84164473209E+03  0.84164473209E+03  0.25500000920E-02 0.  1.
        2   -1    0    0  501    0  0.00000000000E+00  0.00000000000E+00 -0.15656373557E+04  0.15656373557E+04  0.25500000920E-02 0. -1.
    10030    2    1    2    0    0  0.00000000000E+00  0.00000000000E+00 -0.72399262364E+03  0.24072820878E+04  0.22958313813E+04 0.  0.
        3    1    3    3  502    0 -0.10949395972E+04  0.86410673334E+00 -0.72342798195E+03  0.13123419994E+04  0.10100000352E+00 0. -1.
       -3    1    3    3    0  502  0.10949395972E+04 -0.86410673334E+00 -0.56464169819E+00  0.10949400884E+04  0.10100000352E+00 0.  1.
</event>
<event>
 5   0  0.7278815E-06  0.2316537E+04  0.7818609E-02  0.8471429E-01
        1   -1    0    0  501    0  0.00000000000E+00  0.00000000000E+00  0.10315423321E+04  0.10315423322E+04  0.50400001928E-02 0. -1.
       -1   -1    0    0    0  501  0.00000000000E+00  0.00000000000E+00 -0.13005627438E+04  0.13005627439E+04  0.50400001928E-02 0.  1.
    10030    2    1    2    0    0  0.00000000000E+00  0.00000000000E+00 -0.26902041170E+03  0.23321050760E+04  0.23165366614E+04 0.  0.
        5    1    3    3  502    0 -0.10668596837E+03  0.71000864872E+03  0.78048152009E+03  0.10605034985E+04  0.46999998093E+01 0. -1.
       -5    1    3    3    0  502  0.10668596837E+03 -0.71000864872E+03 -0.10495019318E+04  0.12716015775E+04  0.46999998093E+01 0.  1.
</event>
<event>
 5   0  0.1588969E-05  0.2301079E+04  0.7818609E-02  0.8477496E-01
       -2   -1    0    0    0  501  0.00000000000E+00  0.00000000000E+00  0.74787792819E+03  0.74787792819E+03  0.25500000920E-02 0.  1.
        2   -1    0    0  501    0  0.00000000000E+00  0.00000000000E+00 -0.17699957685E+04  0.17699957685E+04  0.25500000920E-02 0. -1.
    10030    2    1    2    0    0  0.00000000000E+00  0.00000000000E+00 -0.10221178404E+04  0.25178736967E+04  0.23010786760E+04 0.  0.
        1    1    3    3  502    0  0.53072997580E+03 -0.52995558487E+02  0.60442713890E+03  0.80611103621E+03  0.50400001928E-02 0.  1.
       -1    1    3    3    0  502 -0.53072997580E+03  0.52995558487E+02 -0.16265449793E+04  0.17117626605E+04  0.50400001928E-02 0. -1.
</event>
<event>
 5   0  0.7183014E-06  0.2303891E+04  0.7818609E-02  0.8476388E-01
       -1   -1    0    0    0  501  0.00000000000E+00  0.00000000000E+00  0.12165274303E+04  0.12165274303E+04  0.50400001928E-02 0.  1.
        1   -1    0    0  501    0  0.00000000000E+00  0.00000000000E+00 -0.10907925039E+04  0.10907925039E+04  0.50400001928E-02 0. -1.
    10030    2    1    2    0    0  0.00000000000E+00  0.00000000000E+00  0.12573492641E+03  0.23073199342E+04  0.23038914920E+04 0.  0.
        3    1    3    3  502    0 -0.66003124487E+02  0.10983401933E+04 -0.27862588293E+03  0.11350506533E+04  0.10100000352E+00 0.  1.
       -3    1    3    3    0  502  0.66003124487E+02 -0.10983401933E+04  0.40436080933E+03  0.11722692809E+04  0.10100000352E+00 0. -1.
</event>
<event>
 5   0  0.1626636E-05  0.2337399E+04  0.7818609E-02  0.8463319E-01
        2   -1    0    0  501    0  0.00000000000E+00  0.00000000000E+00  0.86258192233E+03  0.86258192234E+03  0.25500000920E-02 0.  1.
       -2   -1    0    0    0  501  0.00000000000E+00  0.00000000000E+00 -0.15834538614E+04  0.15834538614E+04  0.25500000920E-02 0. -1.
    10030    2    1    2    0    0  0.00000000000E+00  0.00000000000E+00 -0.72087193907E+03  0.24460357837E+04  0.23373991321E+04 0.  0.
        4    1    3    3  502    0  0.11522449795E+04 -0.19529174058E+03 -0.35305803835E+03  0.12208435396E+04  0.12699999809E+01 0. -1.
       -4    1    3    3    0  502 -0.11522449795E+04  0.19529174058E+03 -0.36781390072E+03  0.12251922442E+04  0.12699999809E+01 0.  1.
</event>
<event>
 5   0  0.1626636E-05  0.2310369E+04  0.7818609E-02  0.8473844E-01
        2   -1    0    0  501    0  0.00000000000E+00  0.00000000000E+00  0.10375831311E+04  0.10375831311E+04  0.25500000920E-02 0. -1.
       -2   -1    0    0    0  501  0.00000000000E+00  0.00000000000E+00 -0.12861155245E+04  0.12861155245E+04  0.25500000920E-02 0.  1.
    10030    2    1    2    0    0  0.00000000000E+00  0.00000000000E+00 -0.24853239337E+03  0.23236986556E+04  0.23103694708E+04 0.  0.
        4    1    3    3  502    0  0.63213954907E+03  0.25075222079E+02 -0.10963935840E+04  0.12658237161E+04  0.12699999809E+01 0.  1.
       -4    1    3    3    0  502 -0.63213954907E+03 -0.25075222079E+02  0.84786119062E+03  0.10578749395E+04  0.12699999809E+01 0. -1.
</event>
<event>
 5   0  0.5704875E-06  0.2307048E+04  0.7818609E-02  0.8475147E-01
        3   -1    0    0  501    0  0.00000000000E+00  0.00000000000E+00  0.13266347394E+04  0.13266347432E+04  0.10100000352E+00 0.  1.
       -3   -1    0    0    0  501  0.00000000000E+00  0.00000000000E+00 -0.10030019525E+04  0.10030019576E+04  0.10100000352E+00 0. -1.
    10030    2    1    2    0    0  0.00000000000E+00  0.00000000000E+00  0.32363278687E+03  0.23296367008E+04  0.23070476755E+04 0.  0.
        5    1    3    3  502    0  0.97151817248E+03  0.82861847964E+02 -0.46056371991E+03  0.10783573969E+04  0.46999998093E+01 0. -1.
       -5    1    3    3    0  502 -0.97151817248E+03 -0.82861847964E+02  0.78419650678E+03  0.12512793040E+04  0.46999998093E+01 0.  1.
</event>
<event>
 5   0  0.1626636E-05  0.2299824E+04  0.7818609E-02  0.8477990E-01
        2   -1    0    0  501    0  0.00000000000E+00  0.00000000000E+00  0.11108907375E+04  0.11108907375E+04  0.25500000920E-02 0.  1.
       -2   -1    0    0    0  501  0.00000000000E+00  0.00000000000E+00 -0.11903042611E+04  0.11903042611E+04  0.25500000920E-02 0. -1.
    10030    2    1    2    0    0  0.00000000000E+00  0.00000000000E+00 -0.79413523546E+02  0.23011949986E+04  0.22998243224E+04 0.  0.
        4    1    3    3  502    0 -0.96555840072E+03  0.40361497188E+03 -0.51652859535E+03  0.11670524724E+04  0.12699999809E+01 0.  1.
       -4    1    3    3    0  502  0.96555840072E+03 -0.40361497188E+03  0.43711507181E+03  0.11341425262E+04  0.12699999809E+01 0. -1.
</event>
<event>
 5   0  0.1588969E-05  0.2312808E+04  0.7818609E-02  0.8472888E-01
        2   -1    0    0  501    0  0.00000000000E+00  0.00000000000E+00  0.22163861316E+04  0.22163861316E+04  0.25500000920E-02 0. -1.
       -2   -1    0    0    0  501  0.00000000000E+00  0.00000000000E+00 -0.60335600529E+03  0.60335600529E+03  0.25500000920E-02 0.  1.
    10030    2    1    2    0    0  0.00000000000E+00  0.00000000000E+00  0.16130301263E+04  0.28197421369E+04  0.23128077158E+04 0.  0.
        1    1    3    3  502    0 -0.63523113431E+03 -0.17835912562E+03 -0.35135153242E+03  0.74751486343E+03  0.50400001928E-02 0.  1.
       -1    1    3    3    0  502  0.63523113431E+03  0.17835912562E+03  0.19643816587E+04  0.20722272734E+04  0.50400001928E-02 0. -1.
</event>
<event>
 5   0  0.7416556E-06  0.2226780E+04  0.7818609E-02  0.8507363E-01
       -1   -1    0    0    0  501  0.00000000000E+00  0.00000000000E+00  0.13388057736E+04  0.13388057736E+04  0.50400001928E-02 0. -1.
        1   -1    0    0  501    0  0.00000000000E+00  0.00000000000E+00 -0.92592805285E+03  0.92592805286E+03  0.50400001928E-02 0.  1.
    10030    2    1    2    0    0  0.00000000000E+00  0.00000000000E+00  0.41287772079E+03  0.22647338265E+04  0.22267804770E+04 0.  0.
        4    1    3    3  502    0  0.56182163739E+03 -0.16729163733E+03  0.11691483683E+04  0.13078759743E+04  0.12699999809E+01 0. -1.
       -4    1    3    3    0  502 -0.56182163739E+03  0.16729163733E+03 -0.75627064751E+03  0.95685785221E+03  0.12699999809E+01 0.  1.
</event>
<event>
 5   0  0.7278815E-06  0.2302344E+04  0.7818609E-02  0.8476998E-01
        1   -1    0    0  501    0  0.00000000000E+00  0.00000000000E+00  0.14904285444E+04  0.14904285444E+04  0.50400001928E-02 0.  1.
       -1   -1    0    0    0  501  0.00000000000E+00  0.00000000000E+00 -0.88913799978E+03  0.88913799979E+03  0.50400001928E-02 0. -1.
    10030    2    1    2    0    0  0.00000000000E+00  0.00000000000E+00  0.60129054461E+03  0.23795665442E+04  0.23023437231E+04 0.  0.
        5    1    3    3  502    0  0.16802549378E+03 -0.86430720046E+03 -0.46579003029E+03  0.99611342007E+03  0.46999998093E+01 0. -1.
       -5    1    3    3    0  502 -0.16802549378E+03  0.86430720046E+03  0.10670805749E+04  0.13834531241E+04  0.46999998093E+01 0.  1.
</event>
<event>
 5   0  0.1626636E-05  0.2289730E+04  0.7818609E-02  0.8481981E-01
        2   -1    0    0  501    0  0.00000000000E+00  0.00000000000E+00  0.20764712409E+04  0.20764712409E+04  0.25500000920E-02 0.  1.
       -2   -1    0    0    0  501  0.00000000000E+00  0.00000000000E+00 -0.63122277073E+03  0.63122277074E+03  0.25500000920E-02 0. -1.
    10030    2    1    2    0    0  0.00000000000E+00  0.00000000000E+00  0.14452484702E+04  0.27076940117E+04  0.22897300540E+04 0.  0.
        4    1    3    3  502    0 -0.10002067738E+04  0.19485768986E+03  0.10551221488E+03  0.10244596381E+04  0.12699999809E+01 0. -1.
       -4    1    3    3    0  502  0.10002067738E+04 -0.19485768986E+03  0.13397362553E+04  0.16832343736E+04  0.12699999809E+01 0.  1.
</event>
<event>
 5   0  0.1588969E-05  0.2296808E+04  0.7818609E-02  0.8479181E-01
       -2   -1    0    0    0  501  0.00000000000E+00  0.00000000000E+00  0.64289584108E+03  0.64289584109E+03  0.25500000920E-02 0.  1.
        2   -1    0    0  501    0  0.00000000000E+00  0.00000000000E+00 -0.20513923902E+04  0.20513923902E+04  0.25500000920E-02 0. -1.
    10030    2    1    2    0    0  0.00000000000E+00  0.00000000000E+00 -0.14084965491E+04  0.26942882313E+04  0.22968079032E+04 0.  0.
        1    1    3    3  502    0  0.93531392419E+03 -0.54047608091E+03 -0.24704896572E+03  0.11081334407E+04  0.50400001928E-02 0.  1.
       -1    1    3    3    0  502 -0.93531392419E+03  0.54047608091E+03 -0.11614475834E+04  0.15861547906E+04  0.50400001928E-02 0. -1.
</event>
<event>
 5   0  0.1635955E-05  0.2280645E+04  0.7818609E-02  0.8485592E-01
        2   -1    0    0  501    0  0.00000000000E+00  0.00000000000E+00  0.12829924259E+04  0.12829924259E+04  0.25500000920E-02 0.  1.
       -2   -1    0    0    0  501  0.00000000000E+00  0.00000000000E+00 -0.10135177970E+04  0.10135177970E+04  0.25500000920E-02 0. -1.
    10030    2    1    2    0    0  0.00000000000E+00  0.00000000000E+00  0.26947462887E+03  0.22965102229E+04  0.22806452219E+04 0.  0.
        2    1    3    3  502    0 -0.97497512359E+03 -0.58988176569E+03  0.92031584235E+02  0.11432439817E+04  0.25500000920E-02 0. -1.
       -2    1    3    3    0  502  0.97497512359E+03  0.58988176569E+03  0.17744304464E+03  0.11532662413E+04  0.25500000920E-02 0.  1.
</event>
<event>
 5   0  0.1697855E-05  0.2299795E+04  0.7818609E-02  0.8478002E-01
        2   -1    0    0  501    0  0.00000000000E+00  0.00000000000E+00  0.10075920016E+04  0.10075920016E+04  0.25500000920E-02 0. -1.
       -2   -1    0    0    0  501  0.00000000000E+00  0.00000000000E+00 -0.13123014553E+04  0.13123014553E+04  0.25500000920E-02 0.  1.
    10030    2    1    2    0    0  0.00000000000E+00  0.00000000000E+00 -0.30470945370E+03  0.23198934570E+04  0.22997951649E+04 0.  0.
        5    1    3    3  502    0  0.21347396644E+03  0.35983220689E+03 -0.12327854865E+04  0.13018573260E+04  0.46999998093E+01 0.  1.
       -5    1    3    3    0  502 -0.21347396644E+03 -0.35983220689E+03  0.92807603278E+03  0.10180361310E+04  0.46999998093E+01 0. -1.
</event>
<event>
 5   0  0.1635955E-05  0.2291578E+04  0.7818609E-02  0.8481249E-01
        2   -1    0    0  501    0  0.00000000000E+00  0.00000000000E+00  0.60034790661E+03  0.60034790662E+03  0.25500000920E-02 0.  1.
       -2   -1    0    0    0  501  0.00000000000E+00  0.00000000000E+00 -0.21867866024E+04  0.21867866024E+04  0.25500000920E-02 0. -1.
    10030    2    1    2    0    0  0.00000000000E+00  0.00000000000E+00 -0.15864386958E+04  0.27871345090E+04  0.22915782849E+04 0.  0.
        2    1    3    3  502    0  0.13137053521E+03 -0.59416805491E+03  0.38757118822E+03  0.72146054705E+03  0.25500000920E-02 0.  1.
       -2    1    3    3    0  502 -0.13137053521E+03  0.59416805491E+03 -0.19740098840E+04  0.20656739620E+04  0.25500000920E-02 0. -1.
</event>
<event>
 5   0  0.7183014E-06  0.2303892E+04  0.7818609E-02  0.8476388E-01
       -1   -1    0    0    0  501  0.00000000000E+00  0.00000000000E+00  0.15549062009E+04  0.15549062009E+04  0.50400001928E-02 0.  1.
        1   -1    0    0  501    0  0.00000000000E+00  0.00000000000E+00 -0.85341428597E+03  0.85341428598E+03  0.50400001928E-02 0. -1.
    10030    2    1    2    0    0  0.00000000000E+00  0.00000000000E+00  0.70149191497E+03  0.24083204869E+04  0.23038916339E+04 0.  0.
        3    1    3    3  502    0  0.66439856356E+03  0.77976907087E+03 -0.19992808168E+03  0.10437607500E+04  0.10100000352E+00 0. -1.
       -3    1    3    3    0  502 -0.66439856356E+03 -0.77976907087E+03  0.90141999665E+03  0.13645597369E+04  0.10100000352E+00 0.  1.
</event>
<event>
 5   0  0.1588969E-05  0.2299282E+04  0.7818609E-02  0.8478204E-01
       -2   -1    0    0    0  501  0.00000000000E+00  0.00000000000E+00  0.17785189909E+04  0.17785189909E+04  0.25500000920E-02 0.  1.
        2   -1    0    0  501    0  0.00000000000E+00  0.00000000000E+00 -0.74313202369E+03  0.74313202370E+03  0.25500000920E-02 0. -1.
    10030    2    1    2    0    0  0.00000000000E+00  0.00000000000E+00  0.10353869672E+04  0.25216510146E+04  0.22992819895E+04 0.  0.
        1    1    3    3  502    0 -0.11258225946E+04  0.23151109609E+03  0.49081810792E+03  0.12497905094E+04  0.50400001928E-02 0.  1.
       -1    1    3    3    0  502  0.11258225946E+04 -0.23151109609E+03  0.54456885924E+03  0.12718605052E+04  0.50400001928E-02 0. -1.
</event>
<event>
 5   0  0.7202572E-06  0.2304004E+04  0.7818609E-02  0.8476344E-01
        1   -1    0    0  501    0  0.00000000000E+00  0.00000000000E+00  0.13878976689E+04  0.13878976690E+04  0.50400001928E-02 0.  1.
       -1   -1    0    0    0  501  0.00000000000E+00  0.00000000000E+00 -0.95620033721E+03  0.95620033722E+03  0.50400001928E-02 0. -1.
    10030    2    1    2    0    0  0.00000000000E+00  0.00000000000E+00  0.43169733174E+03  0.23440980062E+04  0.23040036624E+04 0.  0.
        2    1    3    3  502    0 -0.70982499118E+03 -0.80231976598E+03 -0.21524619023E+03  0.10926570585E+04  0.25500000920E-02 0.  1.
       -2    1    3    3    0  502  0.70982499118E+03  0.80231976598E+03  0.64694352197E+03  0.12514409477E+04  0.25500000920E-02 0. -1.
</event>
<event>
 5   0  0.7416556E-06  0.2291927E+04  0.7818609E-02  0.8481111E-01
        1   -1    0    0  501    0  0.00000000000E+00  0.00000000000E+00  0.18612309443E+04  0.18612309444E+04  0.50400001928E-02 0.  1.
       -1   -1    0    0    0  501  0.00000000000E+00  0.00000000000E+00 -0.70557190736E+03  0.70557190738E+03  0.50400001928E-02 0. -1.
    10030    2    1    2    0    0  0.00000000000E+00  0.00000000000E+00  0.11556590370E+04  0.25668028517E+04  0.22919269338E+04 0.  0.
        4    1    3    3  502    0  0.28636540583E+02 -0.11446556991E+04  0.52561216133E+03  0.12598914548E+04  0.12699999809E+01 0.  1.
       -4    1    3    3    0  502 -0.28636540583E+02  0.11446556991E+04  0.63004687566E+03  0.13069113969E+04  0.12699999809E+01 0. -1.
</event>
<event>
 5   0  0.1602809E-05  0.2301693E+04  0.7818609E-02  0.8477254E-01
       -2   -1    0    0    0  501  0.00000000000E+00  0.00000000000E+00  0.95807315642E+03  0.95807315643E+03  0.25500000920E-02 0. -1.
        2   -1    0    0  501    0  0.00000000000E+00  0.00000000000E+00 -0.13824076287E+04  0.13824076287E+04  0.25500000920E-02 0.  1.
    10030    2    1    2    0    0  0.00000000000E+00  0.00000000000E+00 -0.42433447229E+03  0.23404807851E+04  0.23016929772E+04 0.  0.
        3    1    3    3  502    0  0.16874950970E+03 -0.13925786092E+03 -0.13610651665E+04  0.13785381919E+04  0.10100000352E+00 0.  1.
       -3    1    3    3    0  502 -0.16874950970E+03  0.13925786092E+03  0.93673069426E+03  0.96194259320E+03  0.10100000352E+00 0. -1.
</event>
<event>
 5   0  0.1697855E-05  0.2301041E+04  0.7818609E-02  0.8477511E-01
       -2   -1    0    0    0  501  0.00000000000E+00  0.00000000000E+00  0.10740332627E+04  0.10740332627E+04  0.25500000920E-02 0.  1.
        2   -1    0    0  501    0  0.00000000000E+00  0.00000000000E+00 -0.12324550892E+04  0.12324550892E+04  0.25500000920E-02 0. -1.
    10030    2    1    2    0    0  0.00000000000E+00  0.00000000000E+00 -0.15842182649E+03  0.23064883518E+04  0.23010412951E+04 0.  0.
        5    1    3    3  502    0 -0.35891961139E+03 -0.99007750177E+03  0.38513392536E+03  0.11213505150E+04  0.46999998093E+01 0.  1.
       -5    1    3    3    0  502  0.35891961139E+03  0.99007750177E+03 -0.54355575185E+03  0.11851378368E+04  0.46999998093E+01 0. -1.
</event>
<event>
 5   0  0.1697855E-05  0.2276373E+04  0.7818609E-02  0.8487296E-01
        2   -1    0    0  501    0  0.00000000000E+00  0.00000000000E+00  0.15936939401E+04  0.15936939401E+04  0.25500000920E-02 0.  1.
       -2   -1    0    0    0  501  0.00000000000E+00  0.00000000000E+00 -0.81287154943E+03  0.81287154944E+03  0.25500000920E-02 0. -1.
    10030    2    1    2    0    0  0.00000000000E+00  0.00000000000E+00  0.78082239065E+03  0.24065654895E+04  0.22763729593E+04 0.  0.
        5    1    3    3  502    0 -0.47960691805E+03  0.83605305415E+03  0.10303744412E+04  0.14109220688E+04  0.46999998093E+01 0.  1.
       -5    1    3    3    0  502  0.47960691805E+03 -0.83605305415E+03 -0.24955205058E+03  0.99564342068E+03  0.46999998093E+01 0. -1.
</event>
<event>
 5   0  0.1588969E-05  0.2300152E+04  0.7818609E-02  0.8477861E-01
       -2   -1    0    0    0  501  0.00000000000E+00  0.00000000000E+00  0.60752561215E+03  0.60752561216E+03  0.25500000920E-02 0. -1.
        2   -1    0    0  501    0  0.00000000000E+00  0.00000000000E+00 -0.21771514709E+04  0.21771514709E+04  0.25500000920E-02 0.  1.
    10030    2    1    2    0    0  0.00000000000E+00  0.00000000000E+00 -0.15696258588E+04  0.27846770831E+04  0.23001524125E+04 0.  0.
        1    1    3    3  502    0 -0.51327067322E+03 -0.56251102274E+03 -0.18282278729E+04  0.19804753444E+04  0.50400001928E-02 0.  1.
       -1    1    3    3    0  502  0.51327067322E+03  0.56251102274E+03  0.25860201413E+03  0.80420173863E+03  0.50400001928E-02 0. -1.
</event>
<event>
 5   0  0.7416556E-06  0.2293141E+04  0.7818609E-02  0.8480630E-01
        1   -1    0    0  501    0  0.00000000000E+00  0.00000000000E+00  0.17926764224E+04  0.17926764224E+04  0.50400001928E-02 0.  1.
       -1   -1    0    0    0  501  0.00000000000E+00  0.00000000000E+00 -0.73333060222E+03  0.73333060223E+03  0.50400001928E-02 0. -1.
    10030    2    1    2    0    0  0.00000000000E+00  0.00000000000E+00  0.10593458202E+04  0.25260070247E+04  0.22931414963E+04 0.  0.
        4    1    3    3  502    0  0.25849355240E+03  0.92202175909E+02  0.17559606894E+04  0.17772787383E+04  0.12699999809E+01 0.  1.
       -4    1    3    3    0  502 -0.25849355240E+03 -0.92202175909E+02 -0.69661486923E+03  0.74872828637E+03  0.12699999809E+01 0. -1.
</event>
<event>
 5   0  0.5704875E-06  0.2297694E+04  0.7818609E-02  0.8478831E-01
       -3   -1    0    0    0  501  0.00000000000E+00  0.00000000000E+00  0.99310993205E+03  0.99310993719E+03  0.10100000352E+00 0.  1.
        3   -1    0    0  501    0  0.00000000000E+00  0.00000000000E+00 -0.13290061401E+04  0.13290061440E+04  0.10100000352E+00 0. -1.
    10030    2    1    2    0    0  0.00000000000E+00  0.00000000000E+00 -0.33589620808E+03  0.23221160812E+04  0.22976938072E+04 0.  0.
        2    1    3    3  502    0  0.37064198277E+03 -0.55795989020E+03 -0.11112253576E+04  0.12975039552E+04  0.25500000920E-02 0. -1.
       -2    1    3    3    0  502 -0.37064198277E+03  0.55795989020E+03  0.77532914953E+03  0.10246121259E+04  0.25500000920E-02 0.  1.
</event>
<event>
 5   0  0.1697855E-05  0.2296371E+04  0.7818609E-02  0.8479353E-01
        2   -1    0    0  501    0  0.00000000000E+00  0.00000000000E+00  0.15443265280E+04  0.15443265280E+04  0.25500000920E-02 0. -1.
       -2   -1    0    0    0  501  0.00000000000E+00  0.00000000000E+00 -0.85365998507E+03  0.85365998507E+03  0.25500000920E-02 0.  1.
    10030    2    1    2    0    0  0.00000000000E+00  0.00000000000E+00  0.69066654293E+03  0.23979865131E+04  0.22963708419E+04 0.  0.
        5    1    3    3  502    0  0.59652218347E+03 -0.35198197823E+03 -0.61092752629E+03  0.92357163272E+03  0.46999998093E+01 0.  1.
       -5    1    3    3    0  502 -0.59652218347E+03  0.35198197823E+03  0.13015940692E+04  0.14744148804E+04  0.46999998093E+01 0. -1.
</event>
<event>
 5   0  0.1635955E-05  0.2300070E+04  0.7818609E-02  0.8477893E-01
        2   -1    0    0  501    0  0.00000000000E+00  0.00000000000E+00  0.96490936505E+03  0.96490936506E+03  0.25500000920E-02 0.  1.
       -2   -1    0    0    0  501  0.00000000000E+00  0.00000000000E+00 -0.13706787288E+04  0.13706787288E+04  0.25500000920E-02 0. -1.
    10030    2    1    2    0    0  0.00000000000E+00  0.00000000000E+00 -0.40576936377E+03  0.23355880939E+04  0.23000702093E+04 0.  0.
        2    1    3    3  502    0  0.83815594219E+03  0.71380097432E+03 -0.54053028836E+03  0.12264543232E+04  0.25500000920E-02 0. -1.
       -2    1    3    3    0  502 -0.83815594219E+03 -0.71380097432E+03  0.13476092459E+03  0.11091337706E+04  0.25500000920E-02 0.  1.
</event>
<event>
 5   0  0.1602809E-05  0.2301047E+04  0.7818609E-02  0.8477509E-01
        2   -1    0    0  501    0  0.00000000000E+00  0.00000000000E+00  0.22668544154E+04  0.22668544154E+04  0.25500000920E-02 0.  1.
       -2   -1    0    0    0  501  0.00000000000E+00  0.00000000000E+00 -0.58393868881E+03  0.58393868881E+03  0.25500000920E-02 0. -1.
    10030    2    1    2    0    0  0.00000000000E+00  0.00000000000E+00  0.16829157266E+04  0.28507931042E+04  0.23010467141E+04 0.  0.
        3    1    3    3  502    0 -0.10768966953E+04  0.12623780445E+03  0.13181756433E+04  0.17068185353E+04  0.10100000352E+00 0.  1.
       -3    1    3    3    0  502  0.10768966953E+04 -0.12623780445E+03  0.36474008327E+03  0.11439745689E+04  0.10100000352E+00 0. -1.
</event>
<event>
 5   0  0.7391007E-06  0.2310057E+04  0.7818609E-02  0.8473966E-01
       -1   -1    0    0    0  501  0.00000000000E+00  0.00000000000E+00  0.93635981274E+03  0.93635981276E+03  0.50400001928E-02 0. -1.
        1   -1    0    0  501    0  0.00000000000E+00  0.00000000000E+00 -0.14247628604E+04  0.14247628604E+04  0.50400001928E-02 0.  1.
    10030    2    1    2    0    0  0.00000000000E+00  0.00000000000E+00 -0.48840304766E+03  0.23611226732E+04  0.23100568696E+04 0.  0.
        1    1    3    3  502    0 -0.84134067275E+03 -0.86898803013E+02  0.55975160174E+03  0.10142619904E+04  0.50400001928E-02 0. -1.
       -1    1    3    3    0  502  0.84134067275E+03  0.86898803013E+02 -0.10481546494E+04  0.13468606827E+04  0.50400001928E-02 0.  1.
</event>
<event>
 5   0  0.1602809E-05  0.2286492E+04  0.7818609E-02  0.8483266E-01
       -2   -1    0    0    0  501  0.00000000000E+00  0.00000000000E+00  0.82080647841E+03  0.82080647841E+03  0.25500000920E-02 0.  1.
        2   -1    0    0  501    0  0.00000000000E+00  0.00000000000E+00 -0.15923507565E+04  0.15923507565E+04  0.25500000920E-02 0. -1.
    10030    2    1    2    0    0  0.00000000000E+00  0.00000000000E+00 -0.77154427805E+03  0.24131572349E+04  0.22864923501E+04 0.  0.
        3    1    3    3  502    0 -0.88129143527E+03 -0.42356552074E+03  0.23943766997E+03  0.10066840379E+04  0.10100000352E+00 0.  1.
       -3    1    3    3    0  502  0.88129143527E+03  0.42356552074E+03 -0.10109819480E+04  0.14064731969E+04  0.10100000352E+00 0. -1.
</event>
<event>
 5   0  0.1697855E-05  0.2315037E+04  0.7818609E-02  0.8472016E-01
       -2   -1    0    0    0  501  0.00000000000E+00  0.00000000000E+00  0.68004516430E+03  0.68004516430E+03  0.25500000920E-02 0. -1.
        2   -1    0    0  501    0  0.00000000000E+00  0.00000000000E+00 -0.19702361238E+04  0.19702361238E+04  0.25500000920E-02 0.  1.
    10030    2    1    2    0    0  0.00000000000E+00  0.00000000000E+00 -0.12901909595E+04  0.26502812881E+04  0.23150374066E+04 0.  0.
        5    1    3    3  502    0  0.30587867257E+03 -0.38622234897E+03  0.55400801267E+03  0.74140166798E+03  0.46999998093E+01 0. -1.
       -5    1    3    3    0  502 -0.30587867257E+03  0.38622234897E+03 -0.18441989722E+04  0.19088796201E+04  0.46999998093E+01 0.  1.
</event>
<event>
 5   0  0.7391007E-06  0.2319159E+04  0.7818609E-02  0.8470405E-01
       -1   -1    0    0    0  501  0.00000000000E+00  0.00000000000E+00  0.15620274356E+04  0.15620274356E+04  0.50400001928E-02 0.  1.
        1   -1    0    0  501    0  0.00000000000E+00  0.00000000000E+00 -0.86082012756E+03  0.86082012757E+03  0.50400001928E-02 0. -1.
    10030    2    1    2    0    0  0.00000000000E+00  0.00000000000E+00  0.70120730802E+03  0.24228475632E+04  0.23191590341E+04 0.  0.
        1    1    3    3  502    0  0.11439146879E+04  0.18880157948E+03  0.37246298177E+03  0.12177501888E+04  0.50400001928E-02 0.  1.
       -1    1    3    3    0  502 -0.11439146879E+04 -0.18880157948E+03  0.32874432625E+03  0.12050973743E+04  0.50400001928E-02 0. -1.
</event>
<event>
 5   0  0.7202572E-06  0.2152046E+04  0.7818609E-02  0.8538657E-01
        1   -1    0    0  501    0  0.00000000000E+00  0.00000000000E+00  0.11183246290E+04  0.11183246290E+04  0.50400001928E-02 0. -1.
       -1   -1    0    0    0  501  0.00000000000E+00  0.00000000000E+00 -0.10353215228E+04  0.10353215228E+04  0.50400001928E-02 0.  1.
    10030    2    1    2    0    0  0.00000000000E+00  0.00000000000E+00  0.83003106234E+02  0.21536461518E+04  0.21520460570E+04 0.  0.
        2    1    3    3  502    0  0.58221939242E+03  0.49212904726E+03 -0.71844118735E+03  0.10475343239E+04  0.25500000920E-02 0.  1.
       -2    1    3    3    0  502 -0.58221939242E+03 -0.49212904726E+03  0.80144429358E+03  0.11061118279E+04  0.25500000920E-02 0. -1.
</event>
<event>
 5   0  0.1626636E-05  0.2300103E+04  0.7818609E-02  0.8477880E-01
        2   -1    0    0  501    0  0.00000000000E+00  0.00000000000E+00  0.93309032254E+03  0.93309032254E+03  0.25500000920E-02 0.  1.
       -2   -1    0    0    0  501  0.00000000000E+00  0.00000000000E+00 -0.14174605422E+04  0.14174605422E+04  0.25500000920E-02 0. -1.
    10030    2    1    2    0    0  0.00000000000E+00  0.00000000000E+00 -0.48437021968E+03  0.23505508648E+04  0.23001032277E+04 0.  0.
        4    1    3    3  502    0  0.48903102988E+03 -0.10375018026E+04 -0.32802602135E+03  0.11929643843E+04  0.12699999809E+01 0. -1.
       -4    1    3    3    0  502 -0.48903102988E+03  0.10375018026E+04 -0.15634419833E+03  0.11575864805E+04  0.12699999809E+01 0.  1.
</event>
<event>
 5   0  0.1626636E-05  0.2295620E+04  0.7818609E-02  0.8479650E-01
        2   -1    0    0  501    0  0.00000000000E+00  0.00000000000E+00  0.18070972046E+04  0.18070972046E+04  0.25500000920E-02 0. -1.
       -2   -1    0    0    0  501  0.00000000000E+00  0.00000000000E+00 -0.72905217489E+03  0.72905217489E+03  0.25500000920E-02 0.  1.
    10030    2    1    2    0    0  0.00000000000E+00  0.00000000000E+00  0.10780450297E+04  0.25361493795E+04  0.22956203060E+04 0.  0.
        4    1    3    3  502    0 -0.28680051467E+03 -0.50267251092E+03 -0.55606341917E+03  0.80258477901E+03  0.12699999809E+01 0.  1.
       -4    1    3    3    0  502  0.28680051467E+03  0.50267251092E+03  0.16341084489E+04  0.17335646005E+04  0.12699999809E+01 0. -1.
</event>
<event>
 5   0  0.1635955E-05  0.2296625E+04  0.7818609E-02  0.8479253E-01
        2   -1    0    0  501    0  0.00000000000E+00  0.00000000000E+00  0.19101092742E+04  0.19101092742E+04  0.25500000920E-02 0. -1.
       -2   -1    0    0    0  501  0.00000000000E+00  0.00000000000E+00 -0.69033800693E+03  0.69033800693E+03  0.25500000920E-02 0.  1.
    10030    2    1    2    0    0  0.00000000000E+00  0.00000000000E+00  0.12197712673E+04  0.26004472811E+04  0.22966245051E+04 0.  0.
        2    1    3    3  502    0  0.78349249680E+01 -0.10732021204E+04  0.14744926263E+03  0.10833122644E+04  0.25500000920E-02 0.  1.
       -2    1    3    3    0  502 -0.78349249680E+01  0.10732021204E+04  0.10723220046E+04  0.15171350167E+04  0.25500000920E-02 0. -1.
</event>
<event>
 5   0  0.1588969E-05  0.2287983E+04  0.7818609E-02  0.8482674E-01
        2   -1    0    0  501    0  0.00000000000E+00  0.00000000000E+00  0.10640110012E+04  0.10640110013E+04  0.25500000920E-02 0.  1.
       -2   -1    0    0    0  501  0.00000000000E+00  0.00000000000E+00 -0.12299844149E+04  0.12299844149E+04  0.25500000920E-02 0. -1.
    10030    2    1    2    0    0  0.00000000000E+00  0.00000000000E+00 -0.16597341367E+03  0.22939954162E+04  0.22879833468E+04 0.  0.
        1    1    3    3  502    0  0.79607428306E+03 -0.82084364505E+03 -0.11769551397E+03  0.11495089333E+04  0.50400001928E-02 0. -1.
       -1    1    3    3    0  502 -0.79607428306E+03  0.82084364505E+03 -0.48277899694E+02  0.11444864828E+04  0.50400001928E-02 0.  1.
</event>
<event>
 5   0  0.1626636E-05  0.2306617E+04  0.7818609E-02  0.8475317E-01
        2   -1    0    0  501    0  0.00000000000E+00  0.00000000000E+00  0.13876377717E+04  0.13876377718E+04  0.25500000920E-02 0.  1.
       -2   -1    0    0    0  501  0.00000000000E+00  0.00000000000E+00 -0.95855037787E+03  0.95855037788E+03  0.25500000920E-02 0. -1.
    10030    2    1    2    0    0  0.00000000000E+00  0.00000000000E+00  0.42908739387E+03  0.23461881496E+04  0.23066171858E+04 0.  0.
        4    1    3    3  502    0 -0.53325005244E+02  0.81296052004E+03 -0.61577586746E+03  0.10212393917E+04  0.12699999809E+01 0. -1.
       -4    1    3    3    0  502  0.53325005244E+02 -0.81296052004E+03  0.10448632613E+04  0.13249487579E+04  0.12699999809E+01 0.  1.
</event>
<event>
 5   0  0.1602809E-05  0.2323263E+04  0.7818609E-02  0.8468805E-01
        2   -1    0    0  501    0  0.00000000000E+00  0.00000000000E+00  0.13340475017E+04  0.13340475017E+04  0.25500000920E-02 0. -1.
       -2   -1    0    0    0  501  0.00000000000E+00  0.00000000000E+00 -0.10114993035E+04  0.10114993035E+04  0.25500000920E-02 0.  1.
    10030    2    1    2    0    0  0.00000000000E+00  0.00000000000E+00  0.32254819827E+03  0.23455468052E+04  0.23232633246E+04 0.  0.
        3    1    3    3  502    0  0.63027193992E+03 -0.28694170770E+03 -0.78030720568E+03  0.10432917173E+04  0.10100000352E+00 0.  1.
       -3    1    3    3    0  502 -0.63027193992E+03  0.28694170770E+03  0.11028554039E+04  0.13022550879E+04  0.10100000352E+00 0. -1.
</event>
<event>
 5   0  0.7183014E-06  0.2296175E+04  0.7818609E-02  0.8479431E-01
       -1   -1    0    0    0  501  0.00000000000E+00  0.00000000000E+00  0.82637678132E+03  0.82637678133E+03  0.50400001928E-02 0. -1.
        1   -1    0    0  501    0  0.00000000000E+00  0.00000000000E+00 -0.15950409639E+04  0.15950409639E+04  0.50400001928E-02 0.  1.
    10030    2    1    2    0    0  0.00000000000E+00  0.00000000000E+00 -0.76866418255E+03  0.24214177452E+04  0.22961749217E+04 0.  0.
        3    1    3    3  502    0  0.17712309594E+03  0.11157971489E+04 -0.59975080214E+03  0.12790922185E+04  0.10100000352E+00 0.  1.
       -3    1    3    3    0  502 -0.17712309594E+03 -0.11157971489E+04 -0.16891338041E+03  0.11423255267E+04  0.10100000352E+00 0. -1.
</event>
<event>
 5   0  0.7183014E-06  0.2293044E+04  0.7818609E-02  0.8480669E-01
        1   -1    0    0  501    0  0.00000000000E+00  0.00000000000E+00  0.13175336683E+04  0.13175336683E+04  0.50400001928E-02 0. -1.
       -1   -1    0    0    0  501  0.00000000000E+00  0.00000000000E+00 -0.99770686723E+03  0.99770686724E+03  0.50400001928E-02 0.  1.
    10030    2    1    2    0    0  0.00000000000E+00  0.00000000000E+00  0.31982680109E+03  0.23152405356E+04  0.22930437316E+04 0.  0.
        3    1    3    3  502    0  0.79158964439E+03 -0.81603778588E+03  0.30960692461E+03  0.11782988972E+04  0.10100000352E+00 0. -1.
       -3    1    3    3    0  502 -0.79158964439E+03  0.81603778588E+03  0.10219876484E+02  0.11369416384E+04  0.10100000352E+00 0.  1.
</event>
<event>
 5   0  0.7416556E-06  0.2304209E+04  0.7818609E-02  0.8476263E-01
        1   -1    0    0  501    0  0.00000000000E+00  0.00000000000E+00  0.15584320398E+04  0.15584320398E+04  0.50400001928E-02 0.  1.
       -1   -1    0    0    0  501  0.00000000000E+00  0.00000000000E+00 -0.85171808903E+03  0.85171808904E+03  0.50400001928E-02 0. -1.
    10030    2    1    2    0    0  0.00000000000E+00  0.00000000000E+00  0.70671395074E+03  0.24101501288E+04  0.23042089825E+04 0.  0.
        4    1    3    3  502    0 -0.98113419831E+02 -0.15587768235E+03  0.15429320537E+04  0.15538870713E+04  0.12699999809E+01 0.  1.
       -4    1    3    3    0  502  0.98113419831E+02  0.15587768235E+03 -0.83621810299E+03  0.85626305752E+03  0.12699999809E+01 0. -1.
</event>
<event>
 5   0  0.7391007E-06  0.2300780E+04  0.7818609E-02  0.8477614E-01
        1   -1    0    0  501    0  0.00000000000E+00  0.00000000000E+00  0.21404948126E+04  0.21404948126E+04  0.50400001928E-02 0.  1.
       -1   -1    0    0    0  501  0.00000000000E+00  0.00000000000E+00 -0.61826697129E+03  0.61826697131E+03  0.50400001928E-02 0. -1.
    10030    2    1    2    0    0  0.00000000000E+00  0.00000000000E+00  0.15222278413E+04  0.27587617839E+04  0.23007800807E+04 0.  0.
        1    1    3    3  502    0 -0.20473574962E+03  0.52638895115E+03  0.19628010358E+04  0.20424470523E+04  0.50400001928E-02 0.  1.
       -1    1    3    3    0  502  0.20473574962E+03 -0.52638895115E+03 -0.44057319449E+03  0.71631473166E+03  0.50400001928E-02 0. -1.
</event>
<event>
 5   0  0.1588969E-05  0.2294025E+04  0.7818609E-02  0.8480280E-01
       -2   -1    0    0    0  501  0.00000000000E+00  0.00000000000E+00  0.80803067788E+03  0.80803067788E+03  0.25500000920E-02 0. -1.
        2   -1    0    0  501    0  0.00000000000E+00  0.00000000000E+00 -0.16282033276E+04  0.16282033276E+04  0.25500000920E-02 0.  1.
    10030    2    1    2    0    0  0.00000000000E+00  0.00000000000E+00 -0.82017264969E+03  0.24362340055E+04  0.22940254911E+04 0.  0.
        1    1    3    3  502    0  0.15350806199E+03 -0.10999516397E+04 -0.10564501952E+03  0.11156250288E+04  0.50400001928E-02 0. -1.
       -1    1    3    3    0  502 -0.15350806199E+03  0.10999516397E+04 -0.71452763017E+03  0.13206089766E+04  0.50400001928E-02 0.  1.
</event>
<event>
 5   0  0.1626636E-05  0.2288150E+04  0.7818609E-02  0.8482608E-01
       -2   -1    0    0    0  501  0.00000000000E+00  0.00000000000E+00  0.78351520598E+03  0.78351520598E+03  0.25500000920E-02 0. -1.
        2   -1    0    0  501    0  0.00000000000E+00  0.00000000000E+00 -0.16705579768E+04  0.16705579768E+04  0.25500000920E-02 0.  1.
    10030    2    1    2    0    0  0.00000000000E+00  0.00000000000E+00 -0.88704277082E+03  0.24540731828E+04  0.22881499752E+04 0.  0.
        4    1    3    3  502    0  0.55483310446E+03  0.21192046436E+03 -0.14922602905E+04  0.16061109690E+04  0.12699999809E+01 0.  1.
       -4    1    3    3    0  502 -0.55483310446E+03 -0.21192046436E+03  0.60521751971E+03  0.84796221383E+03  0.12699999809E+01 0. -1.
</event>
<event>
 5   0  0.1635955E-05  0.2301214E+04  0.7818609E-02  0.8477443E-01
       -2   -1    0    0    0  501  0.00000000000E+00  0.00000000000E+00  0.79026407404E+03  0.79026407405E+03  0.25500000920E-02 0.  1.
        2   -1    0    0  501    0  0.00000000000E+00  0.00000000000E+00 -0.16752584990E+04  0.16752584990E+04  0.25500000920E-02 0. -1.
    10030    2    1    2    0    0  0.00000000000E+00  0.00000000000E+00 -0.88499442494E+03  0.24655225730E+04  0.23012141200E+04 0.  0.
        2    1    3    3  502    0 -0.35060259249E+03  0.10285250448E+04 -0.37186626699E+02  0.10872758577E+04  0.25500000920E-02 0.  1.
       -2    1    3    3    0  502  0.35060259249E+03 -0.10285250448E+04 -0.84780779825E+03  0.13782467153E+04  0.25500000920E-02 0. -1.
</event>
<event>
 5   0  0.7278815E-06  0.2298741E+04  0.7818609E-02  0.8478418E-01
       -1   -1    0    0    0  501  0.00000000000E+00  0.00000000000E+00  0.72781104344E+03  0.72781104346E+03  0.50400001928E-02 0. -1.
        1   -1    0    0  501    0  0.00000000000E+00  0.00000000000E+00 -0.18151037488E+04  0.18151037488E+04  0.50400001928E-02 0.  1.
    10030    2    1    2    0    0  0.00000000000E+00  0.00000000000E+00 -0.10872927054E+04  0.25429147923E+04  0.22987410062E+04 0.  0.
        5    1    3    3  502    0  0.94454253755E+03  0.40348426754E+02  0.17942085323E+03  0.96229025422E+03  0.46999998093E+01 0. -1.
       -5    1    3    3    0  502 -0.94454253755E+03 -0.40348426754E+02 -0.12667135586E+04  0.15806245381E+04  0.46999998093E+01 0.  1.
</event>
<event>
 5   0  0.7183014E-06  0.2304521E+04  0.7818609E-02  0.8476141E-01
        1   -1    0    0  501    0  0.00000000000E+00  0.00000000000E+00  0.77218081480E+03  0.77218081482E+03  0.50400001928E-02 0.  1.
       -1   -1    0    0    0  501  0.00000000000E+00  0.00000000000E+00 -0.17194212061E+04  0.17194212061E+04  0.50400001928E-02 0. -1.
    10030    2    1    2    0    0  0.00000000000E+00  0.00000000000E+00 -0.94724039129E+03  0.24916020209E+04  0.23045208334E+04 0.  0.
        3    1    3    3  502    0 -0.20445100046E+03  0.22588940991E+03 -0.16750821725E+04  0.17025646924E+04  0.10100000352E+00 0. -1.
       -3    1    3    3    0  502  0.20445100046E+03 -0.22588940991E+03  0.72784178120E+03  0.78903732849E+03  0.10100000352E+00 0.  1.
</event>
<event>
 5   0  0.1588969E-05  0.2292447E+04  0.7818609E-02  0.8480905E-01
        2   -1    0    0  501    0  0.00000000000E+00  0.00000000000E+00  0.11753569368E+04  0.11753569368E+04  0.25500000920E-02 0.  1.
       -2   -1    0    0    0  501  0.00000000000E+00  0.00000000000E+00 -0.11178122375E+04  0.11178122376E+04  0.25500000920E-02 0. -1.
    10030    2    1    2    0    0  0.00000000000E+00  0.00000000000E+00  0.57544699294E+02  0.22931691744E+04  0.22924470485E+04 0.  0.
        1    1    3    3  502    0 -0.20754176605E+03  0.19266463750E+03  0.11398135002E+04  0.11744650112E+04  0.50400001928E-02 0.  1.
       -1    1    3    3    0  502  0.20754176605E+03 -0.19266463750E+03 -0.10822688009E+04  0.11187041632E+04  0.50400001928E-02 0. -1.
</event>
<event>
 5   0  0.7416556E-06  0.2297635E+04  0.7818609E-02  0.8478854E-01
        1   -1    0    0  501    0  0.00000000000E+00  0.00000000000E+00  0.10140411827E+04  0.10140411827E+04  0.50400001928E-02 0. -1.
       -1   -1    0    0    0  501  0.00000000000E+00  0.00000000000E+00 -0.13015067035E+04  0.13015067035E+04  0.50400001928E-02 0.  1.
    10030    2    1    2    0    0  0.00000000000E+00  0.00000000000E+00 -0.28746552082E+03  0.23155478862E+04  0.22976347812E+04 0.  0.
        4    1    3    3  502    0 -0.67916277525E+03  0.61689399565E+03  0.55300335379E+03  0.10712770880E+04  0.12699999809E+01 0. -1.
       -4    1    3    3    0  502  0.67916277525E+03 -0.61689399565E+03 -0.84046887461E+03  0.12442707982E+04  0.12699999809E+01 0.  1.
</event>
<event>
 5   0  0.7183014E-06  0.2296738E+04  0.7818609E-02  0.8479208E-01
       -1   -1    0    0    0  501  0.00000000000E+00  0.00000000000E+00  0.60876378596E+03  0.60876378598E+03  0.50400001928E-02 0.  1.
        1   -1    0    0  501    0  0.00000000000E+00  0.00000000000E+00 -0.21662785360E+04  0.21662785360E+04  0.50400001928E-02 0. -1.
    10030    2    1    2    0    0  0.00000000000E+00  0.00000000000E+00 -0.15575147500E+04  0.27750423220E+04  0.22967384902E+04 0.  0.
        3    1    3    3  502    0 -0.32125767750E+03 -0.84083440911E+03 -0.16403894665E+04  0.18711190798E+04  0.10100000352E+00 0. -1.
       -3    1    3    3    0  502  0.32125767750E+03  0.84083440911E+03  0.82874716458E+02  0.90392324217E+03  0.10100000352E+00 0.  1.
</event>
<event>
 5   0  0.7391007E-06  0.2305425E+04  0.7818609E-02  0.8475785E-01
       -1   -1    0    0    0  501  0.00000000000E+00  0.00000000000E+00  0.92607114073E+03  0.92607114074E+03  0.50400001928E-02 0. -1.
        1   -1    0    0  501    0  0.00000000000E+00  0.00000000000E+00 -0.14348205161E+04  0.14348205161E+04  0.50400001928E-02 0.  1.
    10030    2    1    2    0    0  0.00000000000E+00  0.00000000000E+00 -0.50874937533E+03  0.23608916568E+04  0.23054247956E+04 0.  0.
        1    1    3    3  502    0 -0.29660797348E+03  0.48349980545E+03 -0.12820106596E+04  0.14018914662E+04  0.50400001928E-02 0.  1.
       -1    1    3    3    0  502  0.29660797348E+03 -0.48349980545E+03  0.77326128424E+03  0.95900019058E+03  0.50400001928E-02 0. -1.
</event>
<event>
 5   0  0.7278815E-06  0.2303513E+04  0.7818609E-02  0.8476537E-01
        1   -1    0    0  501    0  0.00000000000E+00  0.00000000000E+00  0.14743201557E+04  0.14743201557E+04  0.50400001928E-02 0. -1.
       -1   -1    0    0    0  501  0.00000000000E+00  0.00000000000E+00 -0.89976573171E+03  0.89976573172E+03  0.50400001928E-02 0.  1.
    10030    2    1    2    0    0  0.00000000000E+00  0.00000000000E+00  0.57455442402E+03  0.23740858875E+04  0.23035127555E+04 0.  0.
        5    1    3    3  502    0  0.92428172924E+03  0.52096419980E+03  0.74913636841E+03  0.12988178475E+04  0.46999998093E+01 0. -1.
       -5    1    3    3    0  502 -0.92428172924E+03 -0.52096419980E+03 -0.17458194439E+03  0.10752680400E+04  0.46999998093E+01 0.  1.
</event>
<event>
 5   0  0.7183014E-06  0.2337199E+04  0.7818609E-02  0.8463397E-01
       -1   -1    0    0    0  501  0.00000000000E+00  0.00000000000E+00  0.75839165367E+03  0.75839165368E+03  0.50400001928E-02 0.  1.
        1   -1    0    0  501    0  0.00000000000E+00  0.00000000000E+00 -0.18006854195E+04  0.18006854195E+04  0.50400001928E-02 0. -1.
    10030    2    1    2    0    0  0.00000000000E+00  0.00000000000E+00 -0.10422937659E+04  0.25590770732E+04  0.23371990014E+04 0.  0.
        3    1    3    3  502    0  0.70384367375E+02  0.11647724564E+04 -0.59018803828E+03  0.13076585048E+04  0.10100000352E+00 0. -1.
       -3    1    3    3    0  502 -0.70384367375E+02 -0.11647724564E+04 -0.45210572759E+03  0.12514185685E+04  0.10100000352E+00 0.  1.
</event>
<event>
 5   0  0.1626636E-05  0.2294915E+04  0.7818609E-02  0.8479929E-01
       -2   -1    0    0    0  501  0.00000000000E+00  0.00000000000E+00  0.69266836144E+03  0.69266836145E+03  0.25500000920E-02 0. -1.
        2   -1    0    0  501    0  0.00000000000E+00  0.00000000000E+00 -0.19008499452E+04  0.19008499452E+04  0.25500000920E-02 0.  1.
    10030    2    1    2    0    0  0.00000000000E+00  0.00000000000E+00 -0.12081815837E+04  0.25935183066E+04  0.22949149151E+04 0.  0.
        4    1    3    3  502    0 -0.82280316977E+03 -0.49236298047E+03 -0.13163598872E+04  0.16285672618E+04  0.12699999809E+01 0.  1.
       -4    1    3    3    0  502  0.82280316977E+03  0.49236298047E+03  0.10817830342E+03  0.96495104485E+03  0.12699999809E+01 0. -1.
</event>
<event>
 5   0  0.1588969E-05  0.2301257E+04  0.7818609E-02  0.8477426E-01
       -2   -1    0    0    0  501  0.00000000000E+00  0.00000000000E+00  0.80916318199E+03  0.80916318199E+03  0.25500000920E-02 0.  1.
        2   -1    0    0  501    0  0.00000000000E+00  0.00000000000E+00 -0.16361913609E+04  0.16361913609E+04  0.25500000920E-02 0. -1.
    10030    2    1    2    0    0  0.00000000000E+00  0.00000000000E+00 -0.82702817896E+03  0.24453545429E+04  0.23012568809E+04 0.  0.
        1    1    3    3  502    0 -0.35692845150E+03  0.62259122527E+03  0.54220813109E+03  0.89944839247E+03  0.50400001928E-02 0.  1.
       -1    1    3    3    0  502  0.35692845150E+03 -0.62259122527E+03 -0.13692363100E+04  0.15459061505E+04  0.50400001928E-02 0. -1.
</event>
<event>
 5   0  0.7416556E-06  0.2293884E+04  0.7818609E-02  0.8480336E-01
       -1   -1    0    0    0  501  0.00000000000E+00  0.00000000000E+00  0.13168366618E+04  0.13168366618E+04  0.50400001928E-02 0. -1.
        1   -1    0    0  501    0  0.00000000000E+00  0.00000000000E+00 -0.99896689295E+03  0.99896689296E+03  0.50400001928E-02 0.  1.
    10030    2    1    2    0    0  0.00000000000E+00  0.00000000000E+00  0.31786976889E+03  0.23158035548E+04  0.22938842417E+04 0.  0.
        4    1    3    3  502    0  0.76221942876E+03 -0.85701799854E+03  0.15485793972E+03  0.11573421714E+04  0.12699999809E+01 0.  1.
       -4    1    3    3    0  502 -0.76221942876E+03  0.85701799854E+03  0.16301182917E+03  0.11584613834E+04  0.12699999809E+01 0. -1.
</event>
<event>
 5   0  0.1697855E-05  0.2304551E+04  0.7818609E-02  0.8476129E-01
       -2   -1    0    0    0  501  0.00000000000E+00  0.00000000000E+00  0.87394706475E+03  0.87394706475E+03  0.25500000920E-02 0.  1.
        2   -1    0    0  501    0  0.00000000000E+00  0.00000000000E+00 -0.15192434894E+04  0.15192434894E+04  0.25500000920E-02 0. -1.
    10030    2    1    2    0    0  0.00000000000E+00  0.00000000000E+00 -0.64529642463E+03  0.23931905541E+04  0.23045506184E+04 0.  0.
        5    1    3    3  502    0  0.10885387796E+04  0.37670082040E+03 -0.35373479518E+03  0.12049774181E+04  0.46999998093E+01 0. -1.
       -5    1    3    3    0  502 -0.10885387796E+04 -0.37670082040E+03 -0.29156162945E+03  0.11882131360E+04  0.46999998093E+01 0.  1.
</event>
<event>
 5   0  0.7416556E-06  0.2314818E+04  0.7818609E-02  0.8472102E-01
       -1   -1    0    0    0  501  0.00000000000E+00  0.00000000000E+00  0.24568537322E+04  0.24568537322E+04  0.50400001928E-02 0.  1.
        1   -1    0    0  501    0  0.00000000000E+00  0.00000000000E+00 -0.54524825974E+03  0.54524825976E+03  0.50400001928E-02 0. -1.
    10030    2    1    2    0    0  0.00000000000E+00  0.00000000000E+00  0.19116054725E+04  0.30021019920E+04  0.23148176792E+04 0.  0.
        4    1    3    3  502    0  0.81919887542E+03 -0.41393375439E+03  0.41354317510E+02  0.91877077826E+03  0.12699999809E+01 0. -1.
       -4    1    3    3    0  502 -0.81919887542E+03  0.41393375439E+03  0.18702511550E+04  0.20833312137E+04  0.12699999809E+01 0.  1.
</event>
<event>
 5   0  0.7391007E-06  0.2290363E+04  0.7818609E-02  0.8481731E-01
       -1   -1    0    0    0  501  0.00000000000E+00  0.00000000000E+00  0.19474706977E+04  0.19474706978E+04  0.50400001928E-02 0.  1.
        1   -1    0    0  501    0  0.00000000000E+00  0.00000000000E+00 -0.67340695453E+03  0.67340695455E+03  0.50400001928E-02 0. -1.
    10030    2    1    2    0    0  0.00000000000E+00  0.00000000000E+00  0.12740637432E+04  0.26208776523E+04  0.22903626889E+04 0.  0.
        1    1    3    3  502    0  0.77303030340E+03 -0.21852093904E+03  0.15709664648E+04  0.17644440723E+04  0.50400001928E-02 0. -1.
       -1    1    3    3    0  502 -0.77303030340E+03  0.21852093904E+03 -0.29690272160E+03  0.85643357997E+03  0.50400001928E-02 0.  1.
</event>
<event>
 5   0  0.7391007E-06  0.2259953E+04  0.7818609E-02  0.8493881E-01
       -1   -1    0    0    0  501  0.00000000000E+00  0.00000000000E+00  0.99466426620E+03  0.99466426621E+03  0.50400001928E-02 0. -1.
        1   -1    0    0  501    0  0.00000000000E+00  0.00000000000E+00 -0.12836958609E+04  0.12836958609E+04  0.50400001928E-02 0.  1.
    10030    2    1    2    0    0  0.00000000000E+00  0.00000000000E+00 -0.28903159466E+03  0.22783601271E+04  0.22599525672E+04 0.  0.
        1    1    3    3  502    0 -0.59570800558E+03 -0.73520686532E+03 -0.76716211455E+03  0.12181686553E+04  0.50400001928E-02 0.  1.
       -1    1    3    3    0  502  0.59570800558E+03  0.73520686532E+03  0.47813051989E+03  0.10601914718E+04  0.50400001928E-02 0. -1.
</event>
<event>
 5   0  0.7183014E-06  0.2301001E+04  0.7818609E-02  0.8477527E-01
        1   -1    0    0  501    0  0.00000000000E+00  0.00000000000E+00  0.26810109966E+04  0.26810109966E+04  0.50400001928E-02 0.  1.
       -1   -1    0    0    0  501  0.00000000000E+00  0.00000000000E+00 -0.49371349409E+03  0.49371349412E+03  0.50400001928E-02 0. -1.
    10030    2    1    2    0    0  0.00000000000E+00  0.00000000000E+00  0.21872975025E+04  0.31747244907E+04  0.23010009186E+04 0.  0.
        3    1    3    3  502    0 -0.51695783969E+03  0.65175031497E+03 -0.28792749425E+01  0.83188471648E+03  0.10100000352E+00 0. -1.
       -3    1    3    3    0  502  0.51695783969E+03 -0.65175031497E+03  0.21901767774E+04  0.23428397742E+04  0.10100000352E+00 0.  1.
</event>
<event>
 5   0  0.1697855E-05  0.2310531E+04  0.7818609E-02  0.8473781E-01
        2   -1    0    0  501    0  0.00000000000E+00  0.00000000000E+00  0.11363280098E+04  0.11363280098E+04  0.25500000920E-02 0. -1.
       -2   -1    0    0    0  501  0.00000000000E+00  0.00000000000E+00 -0.11745181313E+04  0.11745181313E+04  0.25500000920E-02 0.  1.
    10030    2    1    2    0    0  0.00000000000E+00  0.00000000000E+00 -0.38190121585E+02  0.23108461411E+04  0.23105305457E+04 0.  0.
        5    1    3    3  502    0 -0.69510701598E+03 -0.16947135610E+03 -0.92625889542E+03  0.11704152834E+04  0.46999998093E+01 0.  1.
       -5    1    3    3    0  502  0.69510701598E+03  0.16947135610E+03  0.88806877384E+03  0.11404308577E+04  0.46999998093E+01 0. -1.
</event>
<event>
 5   0  0.1588969E-05  0.2298703E+04  0.7818609E-02  0.8478433E-01
       -2   -1    0    0    0  501  0.00000000000E+00  0.00000000000E+00  0.11345037254E+04  0.11345037254E+04  0.25500000920E-02 0. -1.
        2   -1    0    0  501    0  0.00000000000E+00  0.00000000000E+00 -0.11643938714E+04  0.11643938714E+04  0.25500000920E-02 0.  1.
    10030    2    1    2    0    0  0.00000000000E+00  0.00000000000E+00 -0.29890146034E+02  0.22988975968E+04  0.22987032735E+04 0.  0.
        1    1    3    3  502    0  0.78112749693E+03 -0.81864883319E+03  0.18672292551E+03  0.11468267216E+04  0.50400001928E-02 0. -1.
       -1    1    3    3    0  502 -0.78112749693E+03  0.81864883319E+03 -0.21661307154E+03  0.11520708751E+04  0.50400001928E-02 0.  1.
</event>
<event>
 5   0  0.7416556E-06  0.2236070E+04  0.7818609E-02  0.8503563E-01
        1   -1    0    0  501    0  0.00000000000E+00  0.00000000000E+00  0.10988000253E+04  0.10988000253E+04  0.50400001928E-02 0.  1.
       -1   -1    0    0    0  501  0.00000000000E+00  0.00000000000E+00 -0.11376068542E+04  0.11376068542E+04  0.50400001928E-02 0. -1.
    10030    2    1    2    0    0  0.00000000000E+00  0.00000000000E+00 -0.38806828856E+02  0.22364068795E+04  0.22360701601E+04 0.  0.
        4    1    3    3  502    0  0.58800524351E+03 -0.23822898706E+02 -0.97016906053E+03  0.11347014214E+04  0.12699999809E+01 0. -1.
       -4    1    3    3    0  502 -0.58800524351E+03  0.23822898706E+02  0.93136223167E+03  0.11017054581E+04  0.12699999809E+01 0.  1.
</event>
<event>
 5   0  0.7183014E-06  0.2304008E+04  0.7818609E-02  0.8476342E-01
        1   -1    0    0  501    0  0.00000000000E+00  0.00000000000E+00  0.20255755664E+04  0.20255755665E+04  0.50400001928E-02 0.  1.
       -1   -1    0    0    0  501  0.00000000000E+00  0.00000000000E+00 -0.65517832621E+03  0.65517832623E+03  0.50400001928E-02 0. -1.
    10030    2    1    2    0    0  0.00000000000E+00  0.00000000000E+00  0.13703972402E+04  0.26807538927E+04  0.23040079941E+04 0.  0.
        3    1    3    3  502    0  0.10625027958E+04  0.22416485582E+03  0.11327388702E+04  0.15691588294E+04  0.10100000352E+00 0.  1.
       -3    1    3    3    0  502 -0.10625027958E+04 -0.22416485582E+03  0.23765837004E+03  0.11115950633E+04  0.10100000352E+00 0. -1.
</event>
<event>
 5   0  0.1697855E-05  0.2283948E+04  0.7818609E-02  0.8484277E-01
        2   -1    0    0  501    0  0.00000000000E+00  0.00000000000E+00  0.14521206301E+04  0.14521206301E+04  0.25500000920E-02 0.  1.
       -2   -1    0    0    0  501  0.00000000000E+00  0.00000000000E+00 -0.89806894554E+03  0.89806894554E+03  0.25500000920E-02 0. -1.
    10030    2    1    2    0    0  0.00000000000E+00  0.00000000000E+00  0.55405168452E+03  0.23501895756E+04  0.22839478480E+04 0.  0.
        5    1    3    3  502    0 -0.80629293844E+03  0.79146861289E+03  0.44782637491E+03  0.12153606131E+04  0.46999998093E+01 0.  1.
       -5    1    3    3    0  502  0.80629293844E+03 -0.79146861289E+03  0.10622530961E+03  0.11348289625E+04  0.46999998093E+01 0. -1.
</event>
<event>
 5   0  0.7183014E-06  0.2310778E+04  0.7818609E-02  0.8473684E-01
       -1   -1    0    0    0  501  0.00000000000E+00  0.00000000000E+00  0.16709385358E+04  0.16709385358E+04  0.50400001928E-02 0. -1.
        1   -1    0    0  501    0  0.00000000000E+00  0.00000000000E+00 -0.79890666794E+03  0.79890666796E+03  0.50400001928E-02 0.  1.
    10030    2    1    2    0    0  0.00000000000E+00  0.00000000000E+00  0.87203186788E+03  0.24698452038E+04  0.23107781702E+04 0.  0.
        3    1    3    3  502    0 -0.51530777400E+03  0.34020864248E+03  0.14797832340E+04  0.16034470531E+04  0.10100000352E+00 0. -1.
       -3    1    3    3    0  502  0.51530777400E+03 -0.34020864248E+03 -0.60775136607E+03  0.86639815070E+03  0.10100000352E+00 0.  1.
</event>
<event>
 5   0  0.7183014E-06  0.2284229E+04  0.7818609E-02  0.8484165E-01
       -1   -1    0    0    0  501  0.00000000000E+00  0.00000000000E+00  0.13863665692E+04  0.13863665692E+04  0.50400001928E-02 0.  1.
        1   -1    0    0  501    0  0.00000000000E+00  0.00000000000E+00 -0.94089529781E+03  0.94089529782E+03  0.50400001928E-02 0. -1.
    10030    2    1    2    0    0  0.00000000000E+00  0.00000000000E+00  0.44547127140E+03  0.23272618670E+04  0.22842292232E+04 0.  0.
        3    1    3    3  502    0 -0.10506062967E+04 -0.28637451422E+03 -0.12819757937E+03  0.10964572872E+04  0.10100000352E+00 0.  1.
       -3    1    3    3    0  502  0.10506062967E+04  0.28637451422E+03  0.57366885077E+03  0.12308045798E+04  0.10100000352E+00 0. -1.
</event>
<event>
 5   0  0.1626636E-05  0.2312300E+04  0.7818609E-02  0.8473087E-01
       -2   -1    0    0    0  501  0.00000000000E+00  0.00000000000E+00  0.11524207588E+04  0.11524207588E+04  0.25500000920E-02 0.  1.
        2   -1    0    0  501    0  0.00000000000E+00  0.00000000000E+00 -0.11598915465E+04  0.11598915465E+04  0.25500000920E-02 0. -1.
    10030    2    1    2    0    0  0.00000000000E+00  0.00000000000E+00 -0.74707876518E+01  0.23123123053E+04  0.23123002367E+04 0.  0.
        4    1    3    3  502    0  0.65616381051E+03 -0.46116324160E+03  0.82901081027E+03  0.11534656554E+04  0.12699999809E+01 0.  1.
       -4    1    3    3    0  502 -0.65616381051E+03  0.46116324160E+03 -0.83648159793E+03  0.11588466500E+04  0.12699999809E+01 0. -1.
</event>
<event>
 5   0  0.1635955E-05  0.2301427E+04  0.7818609E-02  0.8477359E-01
       -2   -1    0    0    0  501  0.00000000000E+00  0.00000000000E+00  0.60394165668E+03  0.60394165669E+03  0.25500000920E-02 0.  1.
        2   -1    0    0  501    0  0.00000000000E+00  0.00000000000E+00 -0.21924986291E+04  0.21924986291E+04  0.25500000920E-02 0. -1.
    10030    2    1    2    0    0  0.00000000000E+00  0.00000000000E+00 -0.15885569725E+04  0.27964402858E+04  0.23014267352E+04 0.  0.
        2    1    3    3  502    0 -0.81105821355E+02  0.24067826648E+03  0.56946005039E+03  0.62352941487E+03  0.25500000920E-02 0.  1.
       -2    1    3    3    0  502  0.81105821355E+02 -0.24067826648E+03 -0.21580170229E+04  0.21729108710E+04  0.25500000920E-02 0. -1.
</event>
<event>
 5   0  0.7202572E-06  0.2243550E+04  0.7818609E-02  0.8500517E-01
        1   -1    0    0  501    0  0.00000000000E+00  0.00000000000E+00  0.18773939320E+04  0.18773939320E+04  0.50400001928E-02 0. -1.
       -1   -1    0    0    0  501  0.00000000000E+00  0.00000000000E+00 -0.67027995022E+03  0.67027995024E+03  0.50400001928E-02 0.  1.
    10030    2    1    2    0    0  0.00000000000E+00  0.00000000000E+00  0.12071139817E+04  0.25476738822E+04  0.22435503215E+04 0.  0.
        2    1    3    3  502    0 -0.67581554206E+02 -0.11197369120E+04  0.60494438737E+03  0.12744943038E+04  0.25500000920E-02 0. -1.
       -2    1    3    3    0  502  0.67581554206E+02  0.11197369120E+04  0.60216959437E+03  0.12731795784E+04  0.25500000920E-02 0.  1.
</event>
<event>
 5   0  0.1635955E-05  0.2306891E+04  0.7818609E-02  0.8475209E-01
       -2   -1    0    0    0  501  0.00000000000E+00  0.00000000000E+00  0.49061047166E+03  0.49061047166E+03  0.25500000920E-02 0.  1.
        2   -1    0    0  501    0  0.00000000000E+00  0.00000000000E+00 -0.27117973343E+04  0.27117973343E+04  0.25500000920E-02 0. -1.
    10030    2    1    2    0    0  0.00000000000E+00  0.00000000000E+00 -0.22211868626E+04  0.32024078060E+04  0.23068906946E+04 0.  0.
        2    1    3    3  502    0 -0.19344517428E+03  0.16835196702E+03 -0.26717220983E+04  0.26840011906E+04  0.25500000920E-02 0. -1.
       -2    1    3    3    0  502  0.19344517428E+03 -0.16835196702E+03  0.45053523571E+03  0.51840661538E+03  0.25500000920E-02 0.  1.
</event>
<event>
 5   0  0.7202572E-06  0.2295464E+04  0.7818609E-02  0.8479712E-01
       -1   -1    0    0    0  501  0.00000000000E+00  0.00000000000E+00  0.15173787154E+04  0.15173787154E+04  0.50400001928E-02 0. -1.
        1   -1    0    0  501    0  0.00000000000E+00  0.00000000000E+00 -0.86813470758E+03  0.86813470759E+03  0.50400001928E-02 0.  1.
    10030    2    1    2    0    0  0.00000000000E+00  0.00000000000E+00  0.64924400778E+03  0.23855134230E+04  0.22954643342E+04 0.  0.
        2    1    3    3  502    0  0.40371213564E+02  0.10861913352E+04  0.70765608834E+03  0.12970036974E+04  0.25500000920E-02 0. -1.
       -2    1    3    3    0  502 -0.40371213564E+02 -0.10861913352E+04 -0.58412080557E+02  0.10885097256E+04  0.25500000920E-02 0.  1.
</event>
<event>
 5   0  0.5704875E-06  0.2305191E+04  0.7818609E-02  0.8475877E-01
        3   -1    0    0  501    0  0.00000000000E+00  0.00000000000E+00  0.66051275900E+03  0.66051276672E+03  0.10100000352E+00 0.  1.
       -3   -1    0    0    0  501  0.00000000000E+00  0.00000000000E+00 -0.20112805779E+04  0.20112805804E+04  0.10100000352E+00 0. -1.
    10030    2    1    2    0    0  0.00000000000E+00  0.00000000000E+00 -0.13507678189E+04  0.26717933471E+04  0.23051910960E+04 0.  0.
        5    1    3    3  502    0  0.12825296806E+03  0.39679927116E+03 -0.19207682978E+04  0.19655206509E+04  0.46999998093E+01 0. -1.
       -5    1    3    3    0  502 -0.12825296806E+03 -0.39679927116E+03  0.57000047893E+03  0.70627269619E+03  0.46999998093E+01 0.  1.
</event>
<event>
 5   0  0.7391007E-06  0.2317154E+04  0.7818609E-02  0.8471188E-01
       -1   -1    0    0    0  501  0.00000000000E+00  0.00000000000E+00  0.66620119288E+03  0.66620119290E+03  0.50400001928E-02 0. -1.
        1   -1    0    0  501    0  0.00000000000E+00  0.00000000000E+00 -0.20148581245E+04  0.20148581245E+04  0.50400001928E-02 0.  1.
    10030    2    1    2    0    0  0.00000000000E+00  0.00000000000E+00 -0.13486569316E+04  0.26810593174E+04  0.23171541909E+04 0.  0.
        1    1    3    3  502    0  0.23165983328E+03  0.54879314458E+03  0.47544265712E+03  0.76215871978E+03  0.50400001928E-02 0. -1.
       -1    1    3    3    0  502 -0.23165983328E+03 -0.54879314458E+03 -0.18240995887E+04  0.19189005976E+04  0.50400001928E-02 0.  1.
</event>
<event>
 5   0  0.1635955E-05  0.2317126E+04  0.7818609E-02  0.8471199E-01
       -2   -1    0    0    0  501  0.00000000000E+00  0.00000000000E+00  0.73650564381E+03  0.73650564381E+03  0.25500000920E-02 0.  1.
        2   -1    0    0  501    0  0.00000000000E+00  0.00000000000E+00 -0.18224822316E+04  0.18224822316E+04  0.25500000920E-02 0. -1.
    10030    2    1    2    0    0  0.00000000000E+00  0.00000000000E+00 -0.10859765878E+04  0.25589878754E+04  0.23171261937E+04 0.  0.
        2    1    3    3  502    0 -0.43159263479E+03 -0.38144327979E+03  0.56717308334E+03  0.80836655335E+03  0.25500000920E-02 0.  1.
       -2    1    3    3    0  502  0.43159263479E+03  0.38144327979E+03 -0.16531496712E+04  0.17506213221E+04  0.25500000920E-02 0. -1.
</event>
<event>
 5   0  0.1626636E-05  0.2298664E+04  0.7818609E-02  0.8478448E-01
       -2   -1    0    0    0  501  0.00000000000E+00  0.00000000000E+00  0.12065341365E+04  0.12065341365E+04  0.25500000920E-02 0.  1.
        2   -1    0    0  501    0  0.00000000000E+00  0.00000000000E+00 -0.10948417265E+04  0.10948417265E+04  0.25500000920E-02 0. -1.
    10030    2    1    2    0    0  0.00000000000E+00  0.00000000000E+00  0.11169240999E+03  0.23013758630E+04  0.22986638876E+04 0.  0.
        4    1    3    3  502    0  0.43304613629E+03  0.37571529383E+03 -0.94145721963E+03  0.11022859191E+04  0.12699999809E+01 0. -1.
       -4    1    3    3    0  502 -0.43304613629E+03 -0.37571529383E+03  0.10531496296E+04  0.11990899438E+04  0.12699999809E+01 0.  1.
</event>
<event>
 5   0  0.1588969E-05  0.2318533E+04  0.7818609E-02  0.8470650E-01
       -2   -1    0    0    0  501  0.00000000000E+00  0.00000000000E+00  0.54581322802E+03  0.54581322803E+03  0.25500000920E-02 0. -1.
        2   -1    0    0  501    0  0.00000000000E+00  0.00000000000E+00 -0.24621944634E+04  0.24621944634E+04  0.25500000920E-02 0.  1.
    10030    2    1    2    0    0  0.00000000000E+00  0.00000000000E+00 -0.19163812354E+04  0.30080076914E+04  0.23185325601E+04 0.  0.
        1    1    3    3  502    0 -0.65979651254E+03 -0.32873505518E+03  0.20258010997E+03  0.76448471237E+03  0.50400001928E-02 0. -1.
       -1    1    3    3    0  502  0.65979651254E+03  0.32873505518E+03 -0.21189613453E+04  0.22435229790E+04  0.50400001928E-02 0.  1.
</event>
<event>
 5   0  0.1588969E-05  0.2305042E+04  0.7818609E-02  0.8475936E-01
       -2   -1    0    0    0  501  0.00000000000E+00  0.00000000000E+00  0.13131769180E+04  0.13131769180E+04  0.25500000920E-02 0.  1.
        2   -1    0    0  501    0  0.00000000000E+00  0.00000000000E+00 -0.10115202475E+04  0.10115202475E+04  0.25500000920E-02 0. -1.
    10030    2    1    2    0    0  0.00000000000E+00  0.00000000000E+00  0.30165667052E+03  0.23246971656E+04  0.23050423347E+04 0.  0.
        1    1    3    3  502    0  0.79618050375E+03  0.44435367617E+03  0.86178718439E+03  0.12546038161E+04  0.50400001928E-02 0.  1.
       -1    1    3    3    0  502 -0.79618050375E+03 -0.44435367617E+03 -0.56013051388E+03  0.10700933495E+04  0.50400001928E-02 0. -1.
</event>
<event>
 5   0  0.7202572E-06  0.2294337E+04  0.7818609E-02  0.8480157E-01
        1   -1    0    0  501    0  0.00000000000E+00  0.00000000000E+00  0.14986733585E+04  0.14986733585E+04  0.50400001928E-02 0. -1.
       -1   -1    0    0    0  501  0.00000000000E+00  0.00000000000E+00 -0.87810670663E+03  0.87810670664E+03  0.50400001928E-02 0.  1.
    10030    2    1    2    0    0  0.00000000000E+00  0.00000000000E+00  0.62056665188E+03  0.23767800652E+04  0.22943366163E+04 0.  0.
        2    1    3    3  502    0  0.88981489961E+03  0.19578272134E+03 -0.41182523365E+03  0.99985071517E+03  0.25500000920E-02 0.  1.
       -2    1    3    3    0  502 -0.88981489961E+03 -0.19578272134E+03  0.10323918855E+04  0.13769293500E+04  0.25500000920E-02 0. -1.
</event>
<event>
 5   0  0.5704875E-06  0.2299730E+04  0.7818609E-02  0.8478028E-01
        4   -1    0    0  501    0  0.00000000000E+00  0.00000000000E+00  0.95835731603E+03  0.95835815752E+03  0.12699999809E+01 0.  1.
       -4   -1    0    0    0  501  0.00000000000E+00  0.00000000000E+00 -0.13796393769E+04  0.13796399614E+04  0.12699999809E+01 0. -1.
    10030    2    1    2    0    0  0.00000000000E+00  0.00000000000E+00 -0.42128206086E+03  0.23379981189E+04  0.22997296862E+04 0.  0.
        1    1    3    3  502    0  0.68011180284E+03  0.86772761237E+03 -0.54270430440E+03  0.12288332823E+04  0.50400001928E-02 0.  1.
       -1    1    3    3    0  502 -0.68011180284E+03 -0.86772761237E+03  0.12142224355E+03  0.11091648367E+04  0.50400001928E-02 0. -1.
</event>
<event>
 5   0  0.1588969E-05  0.2305881E+04  0.7818609E-02  0.8475606E-01
        2   -1    0    0  501    0  0.00000000000E+00  0.00000000000E+00  0.10605391181E+04  0.10605391181E+04  0.25500000920E-02 0. -1.
       -2   -1    0    0    0  501  0.00000000000E+00  0.00000000000E+00 -0.12533929683E+04  0.12533929683E+04  0.25500000920E-02 0.  1.
    10030    2    1    2    0    0  0.00000000000E+00  0.00000000000E+00 -0.19285385023E+03  0.23139320864E+04  0.23058814135E+04 0.  0.
        1    1    3    3  502    0 -0.45696997248E+03 -0.50419047912E+03  0.83754415346E+03  0.10791245544E+04  0.50400001928E-02 0. -1.
       -1    1    3    3    0  502  0.45696997248E+03  0.50419047912E+03 -0.10303980037E+04  0.12348075320E+04  0.50400001928E-02 0.  1.
</event>
<event>
 5   0  0.1697855E-05  0.2300931E+04  0.7818609E-02  0.8477554E-01
        2   -1    0    0  501    0  0.00000000000E+00  0.00000000000E+00  0.23748535496E+04  0.23748535496E+04  0.25500000920E-02 0.  1.
       -2   -1    0    0    0  501  0.00000000000E+00  0.00000000000E+00 -0.55732738637E+03  0.55732738637E+03  0.25500000920E-02 0. -1.
    10030    2    1    2    0    0  0.00000000000E+00  0.00000000000E+00  0.18175261632E+04  0.29321809360E+04  0.23009310479E+04 0.  0.
        5    1    3    3  502    0  0.73898125957E+02  0.97355492320E+03  0.13331713061E+03  0.98542664304E+03  0.46999998093E+01 0. -1.
       -5    1    3    3    0  502 -0.73898125957E+02 -0.97355492320E+03  0.16842090326E+04  0.19467542929E+04  0.46999998093E+01 0.  1.
</event>
<event>
 5   0  0.1626636E-05  0.2299210E+04  0.7818609E-02  0.8478233E-01
        2   -1    0    0  501    0  0.00000000000E+00  0.00000000000E+00  0.20115443032E+04  0.20115443032E+04  0.25500000920E-02 0. -1.
       -2   -1    0    0    0  501  0.00000000000E+00  0.00000000000E+00 -0.65700336335E+03  0.65700336335E+03  0.25500000920E-02 0.  1.
    10030    2    1    2    0    0  0.00000000000E+00  0.00000000000E+00  0.13545409399E+04  0.26685476666E+04  0.22992097536E+04 0.  0.
        4    1    3    3  502    0 -0.43205723302E+03  0.36604837089E+03 -0.48390303483E+03  0.74486819133E+03  0.12699999809E+01 0.  1.
       -4    1    3    3    0  502  0.43205723302E+03 -0.36604837089E+03  0.18384439747E+04  0.19236794752E+04  0.12699999809E+01 0. -1.
</event>
<event>
 5   0  0.7391007E-06  0.2295497E+04  0.7818609E-02  0.8479699E-01
       -1   -1    0    0    0  501  0.00000000000E+00  0.00000000000E+00  0.83762382477E+03  0.83762382479E+03  0.50400001928E-02 0. -1.
        1   -1    0    0  501    0  0.00000000000E+00  0.00000000000E+00 -0.15726946333E+04  0.15726946333E+04  0.50400001928E-02 0.  1.
    10030    2    1    2    0    0  0.00000000000E+00  0.00000000000E+00 -0.73507080848E+03  0.24103184581E+04  0.22954968908E+04 0.  0.
        1    1    3    3  502    0 -0.46640403081E+03 -0.52993843388E+03 -0.13177655534E+04  0.14949493361E+04  0.50400001928E-02 0.  1.
       -1    1    3    3    0  502  0.46640403081E+03  0.52993843388E+03  0.58269474494E+03  0.91536912197E+03  0.50400001928E-02 0. -1.
</event>
<event>
 5   0  0.1602809E-05  0.2298588E+04  0.7818609E-02  0.8478478E-01
        2   -1    0    0  501    0  0.00000000000E+00  0.00000000000E+00  0.26001698732E+04  0.26001698732E+04  0.25500000920E-02 0.  1.
       -2   -1    0    0    0  501  0.00000000000E+00  0.00000000000E+00 -0.50799632943E+03  0.50799632944E+03  0.25500000920E-02 0. -1.
    10030    2    1    2    0    0  0.00000000000E+00  0.00000000000E+00  0.20921735438E+04  0.31081662027E+04  0.22985880462E+04 0.  0.
        3    1    3    3  502    0  0.68034971197E+03 -0.61483584169E+03  0.19829015000E+04  0.21846732506E+04  0.10100000352E+00 0.  1.
       -3    1    3    3    0  502 -0.68034971197E+03  0.61483584169E+03  0.10927204377E+03  0.92349295209E+03  0.10100000352E+00 0. -1.
</event>
<event>
 5   0  0.1588969E-05  0.2297857E+04  0.7818609E-02  0.8478766E-01
        2   -1    0    0  501    0  0.00000000000E+00  0.00000000000E+00  0.20378174710E+04  0.20378174710E+04  0.25500000920E-02 0. -1.
       -2   -1    0    0    0  501  0.00000000000E+00  0.00000000000E+00 -0.64777005777E+03  0.64777005777E+03  0.25500000920E-02 0.  1.
    10030    2    1    2    0    0  0.00000000000E+00  0.00000000000E+00  0.13900474133E+04  0.26855875288E+04  0.22978573854E+04 0.  0.
        1    1    3    3  502    0 -0.23517225810E+03  0.44538715321E+03 -0.51186842349E+03  0.71811210143E+03  0.50400001928E-02 0.  1.
       -1    1    3    3    0  502  0.23517225810E+03 -0.44538715321E+03  0.19019158368E+04  0.19674754274E+04  0.50400001928E-02 0. -1.
</event>
<event>
 5   0  0.7416556E-06  0.2298634E+04  0.7818609E-02  0.8478460E-01
       -1   -1    0    0    0  501  0.00000000000E+00  0.00000000000E+00  0.13675680241E+04  0.13675680241E+04  0.50400001928E-02 0. -1.
        1   -1    0    0  501    0  0.00000000000E+00  0.00000000000E+00 -0.96589704753E+03  0.96589704755E+03  0.50400001928E-02 0.  1.
    10030    2    1    2    0    0  0.00000000000E+00  0.00000000000E+00  0.40167097652E+03  0.23334650716E+04  0.22986343048E+04 0.  0.
        4    1    3    3  502    0 -0.80262561418E+03  0.82260149497E+03  0.20781039319E+03  0.11679331610E+04  0.12699999809E+01 0.  1.
       -4    1    3    3    0  502  0.80262561418E+03 -0.82260149497E+03  0.19386058333E+03  0.11655319106E+04  0.12699999809E+01 0. -1.
</event>
<event>
 5   0  0.1602809E-05  0.2292680E+04  0.7818609E-02  0.8480813E-01
       -2   -1    0    0    0  501  0.00000000000E+00  0.00000000000E+00  0.50366740546E+03  0.50366740547E+03  0.25500000920E-02 0.  1.
        2   -1    0    0  501    0  0.00000000000E+00  0.00000000000E+00 -0.26090529969E+04  0.26090529969E+04  0.25500000920E-02 0. -1.
    10030    2    1    2    0    0  0.00000000000E+00  0.00000000000E+00 -0.21053855914E+04  0.31127204023E+04  0.22926796145E+04 0.  0.
        3    1    3    3  502    0  0.11627451131E+03 -0.39849821247E+03  0.39803818356E+03  0.57511302637E+03  0.10100000352E+00 0.  1.
       -3    1    3    3    0  502 -0.11627451131E+03  0.39849821247E+03 -0.25034237750E+04  0.25376073760E+04  0.10100000352E+00 0. -1.
</event>
<event>
 5   0  0.1588969E-05  0.2288214E+04  0.7818609E-02  0.8482583E-01
        2   -1    0    0  501    0  0.00000000000E+00  0.00000000000E+00  0.19029148743E+04  0.19029148743E+04  0.25500000920E-02 0.  1.
       -2   -1    0    0    0  501  0.00000000000E+00  0.00000000000E+00 -0.68788215263E+03  0.68788215264E+03  0.25500000920E-02 0. -1.
    10030    2    1    2    0    0  0.00000000000E+00  0.00000000000E+00  0.12150327216E+04  0.25907970269E+04  0.22882143081E+04 0.  0.
        1    1    3    3  502    0  0.66129353406E+02  0.35913546808E+03  0.18351590642E+04  0.18711387353E+04  0.50400001928E-02 0.  1.
       -1    1    3    3    0  502 -0.66129353406E+02 -0.35913546808E+03 -0.62012634260E+03  0.71965829157E+03  0.50400001928E-02 0. -1.
</event>
<event>
 5   0  0.7202572E-06  0.2274839E+04  0.7818609E-02  0.8487908E-01
       -1   -1    0    0    0  501  0.00000000000E+00  0.00000000000E+00  0.78832693086E+03  0.78832693088E+03  0.50400001928E-02 0. -1.
        1   -1    0    0  501    0  0.00000000000E+00  0.00000000000E+00 -0.16410997409E+04  0.16410997409E+04  0.50400001928E-02 0.  1.
    10030    2    1    2    0    0  0.00000000000E+00  0.00000000000E+00 -0.85277281003E+03  0.24294266718E+04  0.22748390026E+04 0.  0.
        2    1    3    3  502    0 -0.48632555878E+03 -0.80766705907E+03  0.25315934722E+03  0.97618045592E+03  0.25500000920E-02 0. -1.
       -2    1    3    3    0  502  0.48632555878E+03  0.80766705907E+03 -0.11059321572E+04  0.14532462158E+04  0.25500000920E-02 0.  1.
</event>
<event>
 5   0  0.1697855E-05  0.2298247E+04  0.7818609E-02  0.8478612E-01
        2   -1    0    0  501    0  0.00000000000E+00  0.00000000000E+00  0.11663150957E+04  0.11663150957E+04  0.25500000920E-02 0. -1.
       -2   -1    0    0    0  501  0.00000000000E+00  0.00000000000E+00 -0.11321857271E+04  0.11321857271E+04  0.25500000920E-02 0.  1.
    10030    2    1    2    0    0  0.00000000000E+00  0.00000000000E+00  0.34129368649E+02  0.22985008228E+04  0.22982474232E+04 0.  0.
        5    1    3    3  502    0  0.50599274413E+03  0.95519848416E+03  0.40701845114E+03  0.11550406533E+04  0.46999998093E+01 0. -1.
       -5    1    3    3    0  502 -0.50599274413E+03 -0.95519848416E+03 -0.37288908250E+03  0.11434601694E+04  0.46999998093E+01 0.  1.
</event>
<event>
 5   0  0.7391007E-06  0.2303345E+04  0.7818609E-02  0.8476603E-01
        1   -1    0    0  501    0  0.00000000000E+00  0.00000000000E+00  0.19354524243E+04  0.19354524243E+04  0.50400001928E-02 0.  1.
       -1   -1    0    0    0  501  0.00000000000E+00  0.00000000000E+00 -0.68529160210E+03  0.68529160211E+03  0.50400001928E-02 0. -1.
    10030    2    1    2    0    0  0.00000000000E+00  0.00000000000E+00  0.12501608222E+04  0.26207440264E+04  0.23033447789E+04 0.  0.
        1    1    3    3  502    0  0.43524349069E+03  0.66047335352E+03  0.15774988417E+04  0.17646995615E+04  0.50400001928E-02 0.  1.
       -1    1    3    3    0  502 -0.43524349069E+03 -0.66047335352E+03 -0.32733801946E+03  0.85604446492E+03  0.50400001928E-02 0. -1.
</event>
<event>
 5   0  0.1588969E-05  0.2304623E+04  0.7818609E-02  0.8476101E-01
        2   -1    0    0  501    0  0.00000000000E+00  0.00000000000E+00  0.12109048309E+04  0.12109048309E+04  0.25500000920E-02 0.  1.
       -2   -1    0    0    0  501  0.00000000000E+00  0.00000000000E+00 -0.10965533236E+04  0.10965533236E+04  0.25500000920E-02 0. -1.
    10030    2    1    2    0    0  0.00000000000E+00  0.00000000000E+00  0.11435150737E+03  0.23074581545E+04  0.23046229339E+04 0.  0.
        1    1    3    3  502    0  0.95958222178E+03 -0.53464959708E+03 -0.29135231006E+03  0.11364569506E+04  0.50400001928E-02 0. -1.
       -1    1    3    3    0  502 -0.95958222178E+03  0.53464959708E+03  0.40570381743E+03  0.11710012039E+04  0.50400001928E-02 0.  1.
</event>
<event>
 5   0  0.1635955E-05  0.2241631E+04  0.7818609E-02  0.8501297E-01
       -2   -1    0    0    0  501  0.00000000000E+00  0.00000000000E+00  0.87755183236E+03  0.87755183237E+03  0.25500000920E-02 0. -1.
        2   -1    0    0  501    0  0.00000000000E+00  0.00000000000E+00 -0.14315139707E+04  0.14315139707E+04  0.25500000920E-02 0.  1.
    10030    2    1    2    0    0  0.00000000000E+00  0.00000000000E+00 -0.55396213829E+03  0.23090658030E+04  0.22416312882E+04 0.  0.
        2    1    3    3  502    0 -0.12018412575E+02 -0.23766987253E+03  0.85122826379E+03  0.88386705314E+03  0.25500000920E-02 0. -1.
       -2    1    3    3    0  502  0.12018412575E+02  0.23766987253E+03 -0.14051904021E+04  0.14251987499E+04  0.25500000920E-02 0.  1.
</event>
<event>
 5   0  0.7278815E-06  0.2292430E+04  0.7818609E-02  0.8480912E-01
        1   -1    0    0  501    0  0.00000000000E+00  0.00000000000E+00  0.20360250767E+04  0.20360250767E+04  0.50400001928E-02 0. -1.
       -1   -1    0    0    0  501  0.00000000000E+00  0.00000000000E+00 -0.64528116187E+03  0.64528116189E+03  0.50400001928E-02 0.  1.
    10030    2    1    2    0    0  0.00000000000E+00  0.00000000000E+00  0.13907439149E+04  0.26813062386E+04  0.22924298263E+04 0.  0.
        5    1    3    3  502    0 -0.29919267705E+03 -0.49693001684E+03 -0.46092975663E+03  0.74090082344E+03  0.46999998093E+01 0. -1.
       -5    1    3    3    0  502  0.29919267705E+03  0.49693001684E+03  0.18516736715E+04  0.19404054152E+04  0.46999998093E+01 0.  1.
</event>
<event>
 5   0  0.7183014E-06  0.2296390E+04  0.7818609E-02  0.8479346E-01
       -1   -1    0    0    0  501  0.00000000000E+00  0.00000000000E+00  0.20393640768E+04  0.20393640768E+04  0.50400001928E-02 0. -1.
        1   -1    0    0  501    0  0.00000000000E+00  0.00000000000E+00 -0.64645235826E+03  0.64645235828E+03  0.50400001928E-02 0.  1.
    10030    2    1    2    0    0  0.00000000000E+00  0.00000000000E+00  0.13929117186E+04  0.26858164351E+04  0.22963899641E+04 0.  0.
        3    1    3    3  502    0  0.10228596506E+04  0.43484149562E+03  0.10334552796E+04  0.15176820538E+04  0.10100000352E+00 0. -1.
       -3    1    3    3    0  502 -0.10228596506E+04 -0.43484149562E+03  0.35945643897E+03  0.11681343813E+04  0.10100000352E+00 0.  1.
</event>
<event>
 5   0  0.1602809E-05  0.2305801E+04  0.7818609E-02  0.8475638E-01
        2   -1    0    0  501    0  0.00000000000E+00  0.00000000000E+00  0.10950219222E+04  0.10950219222E+04  0.25500000920E-02 0.  1.
       -2   -1    0    0    0  501  0.00000000000E+00  0.00000000000E+00 -0.12138378578E+04  0.12138378578E+04  0.25500000920E-02 0. -1.
    10030    2    1    2    0    0  0.00000000000E+00  0.00000000000E+00 -0.11881593556E+03  0.23088597800E+04  0.23058005675E+04 0.  0.
        3    1    3    3  502    0  0.19291289365E+03  0.11334639270E+04  0.25694176807E+02  0.11500504595E+04  0.10100000352E+00 0. -1.
       -3    1    3    3    0  502 -0.19291289365E+03 -0.11334639270E+04 -0.14451011237E+03  0.11588093205E+04  0.10100000352E+00 0.  1.
</event>
<event>
 5   0  0.1697855E-05  0.2270684E+04  0.7818609E-02  0.8489570E-01
        2   -1    0    0  501    0  0.00000000000E+00  0.00000000000E+00  0.83368678609E+03  0.83368678610E+03  0.25500000920E-02 0.  1.
       -2   -1    0    0    0  501  0.00000000000E+00  0.00000000000E+00 -0.15461461863E+04  0.15461461863E+04  0.25500000920E-02 0. -1.
    10030    2    1    2    0    0  0.00000000000E+00  0.00000000000E+00 -0.71245940019E+03  0.23798329724E+04  0.22706841655E+04 0.  0.
        5    1    3    3  502    0 -0.41948143016E+03  0.33998126545E+02  0.74890344939E+03  0.85906868723E+03  0.46999998093E+01 0.  1.
       -5    1    3    3    0  502  0.41948143016E+03 -0.33998126545E+02 -0.14613628496E+04  0.15207642852E+04  0.46999998093E+01 0. -1.
</event>
<event>
 5   0  0.7278815E-06  0.2295791E+04  0.7818609E-02  0.8479582E-01
       -1   -1    0    0    0  501  0.00000000000E+00  0.00000000000E+00  0.11835359174E+04  0.11835359174E+04  0.50400001928E-02 0. -1.
        1   -1    0    0  501    0  0.00000000000E+00  0.00000000000E+00 -0.11133287915E+04  0.11133287915E+04  0.50400001928E-02 0.  1.
    10030    2    1    2    0    0  0.00000000000E+00  0.00000000000E+00  0.70207125865E+02  0.22968647090E+04  0.22957914650E+04 0.  0.
        5    1    3    3  502    0  0.74271770958E+03 -0.79647326845E+03 -0.32789281446E+03  0.11373368240E+04  0.46999998093E+01 0.  1.
       -5    1    3    3    0  502 -0.74271770958E+03  0.79647326845E+03  0.39809994032E+03  0.11595278849E+04  0.46999998093E+01 0. -1.
</event>
<event>
 5   0  0.1588969E-05  0.2305566E+04  0.7818609E-02  0.8475730E-01
       -2   -1    0    0    0  501  0.00000000000E+00  0.00000000000E+00  0.69568946717E+03  0.69568946717E+03  0.25500000920E-02 0. -1.
        2   -1    0    0  501    0  0.00000000000E+00  0.00000000000E+00 -0.19102031324E+04  0.19102031324E+04  0.25500000920E-02 0.  1.
    10030    2    1    2    0    0  0.00000000000E+00  0.00000000000E+00 -0.12145136652E+04  0.26058925996E+04  0.23055656133E+04 0.  0.
        1    1    3    3  502    0  0.30155166757E+03 -0.77300541704E+03  0.29726150268E+03  0.88138254123E+03  0.50400001928E-02 0. -1.
       -1    1    3    3    0  502 -0.30155166757E+03  0.77300541704E+03 -0.15117751679E+04  0.17245100583E+04  0.50400001928E-02 0.  1.
</event>
<event>
 5   0  0.7391007E-06  0.2301447E+04  0.7818609E-02  0.8477351E-01
        1   -1    0    0  501    0  0.00000000000E+00  0.00000000000E+00  0.67387444340E+03  0.67387444342E+03  0.50400001928E-02 0.  1.
       -1   -1    0    0    0  501  0.00000000000E+00  0.00000000000E+00 -0.19650017626E+04  0.19650017626E+04  0.50400001928E-02 0. -1.
    10030    2    1    2    0    0  0.00000000000E+00  0.00000000000E+00 -0.12911273192E+04  0.26388762060E+04  0.23014469093E+04 0.  0.
        1    1    3    3  502    0 -0.43325273498E+03  0.10627655967E+04 -0.54972806250E+03  0.12725484622E+04  0.50400001928E-02 0. -1.
       -1    1    3    3    0  502  0.43325273498E+03 -0.10627655967E+04 -0.74139925671E+03  0.13663277439E+04  0.50400001928E-02 0.  1.
</event>
<event>
 5   0  0.1602809E-05  0.2295879E+04  0.7818609E-02  0.8479548E-01
        2   -1    0    0  501    0  0.00000000000E+00  0.00000000000E+00  0.92876902071E+03  0.92876902071E+03  0.25500000920E-02 0.  1.
       -2   -1    0    0    0  501  0.00000000000E+00  0.00000000000E+00 -0.14188294260E+04  0.14188294260E+04  0.25500000920E-02 0. -1.
    10030    2    1    2    0    0  0.00000000000E+00  0.00000000000E+00 -0.49006040526E+03  0.23475984467E+04  0.22958787568E+04 0.  0.
        3    1    3    3  502    0  0.26278945114E+03 -0.89895152076E+03 -0.92375466103E+03  0.13154827313E+04  0.10100000352E+00 0. -1.
       -3    1    3    3    0  502 -0.26278945114E+03  0.89895152076E+03  0.43369425577E+03  0.10321157154E+04  0.10100000352E+00 0.  1.
</event>
<event>
 5   0  0.1626636E-05  0.2297836E+04  0.7818609E-02  0.8478775E-01
        2   -1    0    0  501    0  0.00000000000E+00  0.00000000000E+00  0.15673771976E+04  0.15673771976E+04  0.25500000920E-02 0. -1.
       -2   -1    0    0    0  501  0.00000000000E+00  0.00000000000E+00 -0.84217924538E+03  0.84217924538E+03  0.25500000920E-02 0.  1.
    10030    2    1    2    0    0  0.00000000000E+00  0.00000000000E+00  0.72519795220E+03  0.24095564430E+04  0.22978359780E+04 0.  0.
        4    1    3    3  502    0  0.11446367088E+04 -0.20880124832E+02  0.26103020761E+03  0.11742093327E+04  0.12699999809E+01 0.  1.
       -4    1    3    3    0  502 -0.11446367088E+04  0.20880124832E+02  0.46416774460E+03  0.12353471103E+04  0.12699999809E+01 0. -1.
</event>
<event>
 5   0  0.1635955E-05  0.2286320E+04  0.7818609E-02  0.8483334E-01
       -2   -1    0    0    0  501  0.00000000000E+00  0.00000000000E+00  0.81818853093E+03  0.81818853093E+03  0.25500000920E-02 0.  1.
        2   -1    0    0  501    0  0.00000000000E+00  0.00000000000E+00 -0.15972056537E+04  0.15972056537E+04  0.25500000920E-02 0. -1.
    10030    2    1    2    0    0  0.00000000000E+00  0.00000000000E+00 -0.77901712278E+03  0.24153941846E+04  0.22863204915E+04 0.  0.
        2    1    3    3  502    0 -0.55343093174E+03 -0.82396085347E+02 -0.14426516660E+04  0.15473586335E+04  0.25500000920E-02 0. -1.
       -2    1    3    3    0  502  0.55343093174E+03  0.82396085347E+02  0.66363454325E+03  0.86803555117E+03  0.25500000920E-02 0.  1.
</event>
<event>
 5   0  0.1635955E-05  0.2314171E+04  0.7818609E-02  0.8472354E-01
       -2   -1    0    0    0  501  0.00000000000E+00  0.00000000000E+00  0.51785671513E+03  0.51785671514E+03  0.25500000920E-02 0.  1.
        2   -1    0    0  501    0  0.00000000000E+00  0.00000000000E+00 -0.25853623768E+04  0.25853623768E+04  0.25500000920E-02 0. -1.
    10030    2    1    2    0    0  0.00000000000E+00  0.00000000000E+00 -0.20675056616E+04  0.31032190919E+04  0.23141713574E+04 0.  0.
        2    1    3    3  502    0  0.21563788878E+03 -0.77482209555E+03 -0.21492524718E+04  0.22948061283E+04  0.25500000920E-02 0. -1.
       -2    1    3    3    0  502 -0.21563788878E+03  0.77482209555E+03  0.81746810137E+02  0.80841296366E+03  0.25500000920E-02 0.  1.
</event>
<event>
 5   0  0.1588969E-05  0.2280187E+04  0.7818609E-02  0.8485774E-01
        2   -1    0    0  501    0  0.00000000000E+00  0.00000000000E+00  0.19955649385E+04  0.19955649385E+04  0.25500000920E-02 0.  1.
       -2   -1    0    0    0  501  0.00000000000E+00  0.00000000000E+00 -0.65135076259E+03  0.65135076260E+03  0.25500000920E-02 0. -1.
    10030    2    1    2    0    0  0.00000000000E+00  0.00000000000E+00  0.13442141759E+04  0.26469157011E+04  0.22801866103E+04 0.  0.
        1    1    3    3  502    0  0.40693457883E+03  0.49917914555E+03  0.17641770839E+04  0.18780565365E+04  0.50400001928E-02 0.  1.
       -1    1    3    3    0  502 -0.40693457883E+03 -0.49917914555E+03 -0.41996290804E+03  0.76885916458E+03  0.50400001928E-02 0. -1.
</event>
<event>
 5   0  0.7278815E-06  0.2305129E+04  0.7818609E-02  0.8475901E-01
       -1   -1    0    0    0  501  0.00000000000E+00  0.00000000000E+00  0.12368878073E+04  0.12368878074E+04  0.50400001928E-02 0.  1.
        1   -1    0    0  501    0  0.00000000000E+00  0.00000000000E+00 -0.10739902132E+04  0.10739902132E+04  0.50400001928E-02 0. -1.
    10030    2    1    2    0    0  0.00000000000E+00  0.00000000000E+00  0.16289759419E+03  0.23108780205E+04  0.23051294106E+04 0.  0.
        5    1    3    3  502    0  0.73699079908E+03 -0.84334789690E+03  0.35414222461E+03  0.11746616187E+04  0.46999998093E+01 0.  1.
       -5    1    3    3    0  502 -0.73699079908E+03  0.84334789690E+03 -0.19124463043E+03  0.11362164018E+04  0.46999998093E+01 0. -1.
</event>
<event>
 5   0  0.7391007E-06  0.2299945E+04  0.7818609E-02  0.8477943E-01
        1   -1    0    0  501    0  0.00000000000E+00  0.00000000000E+00  0.21798319589E+04  0.21798319589E+04  0.50400001928E-02 0.  1.
       -1   -1    0    0    0  501  0.00000000000E+00  0.00000000000E+00 -0.60666905214E+03  0.60666905216E+03  0.50400001928E-02 0. -1.
    10030    2    1    2    0    0  0.00000000000E+00  0.00000000000E+00  0.15731629068E+04  0.27865010111E+04  0.22999448588E+04 0.  0.
        1    1    3    3  502    0  0.55903732183E+03  0.97507268761E+03  0.49193001590E+03  0.12269004091E+04  0.50400001928E-02 0.  1.
       -1    1    3    3    0  502 -0.55903732183E+03 -0.97507268761E+03  0.10812328909E+04  0.15596006020E+04  0.50400001928E-02 0. -1.
</event>
<event>
 5   0  0.1588969E-05  0.2295599E+04  0.7818609E-02  0.8479658E-01
        2   -1    0    0  501    0  0.00000000000E+00  0.00000000000E+00  0.12458517379E+04  0.12458517379E+04  0.25500000920E-02 0.  1.
       -2   -1    0    0    0  501  0.00000000000E+00  0.00000000000E+00 -0.10574641060E+04  0.10574641060E+04  0.25500000920E-02 0. -1.
    10030    2    1    2    0    0  0.00000000000E+00  0.00000000000E+00  0.18838763186E+03  0.23033158439E+04  0.22955988275E+04 0.  0.
        1    1    3    3  502    0 -0.10884673444E+03  0.10001268248E+04 -0.46024155380E+03  0.11063107905E+04  0.50400001928E-02 0. -1.
       -1    1    3    3    0  502  0.10884673444E+03 -0.10001268248E+04  0.64862918565E+03  0.11970050534E+04  0.50400001928E-02 0.  1.
</event>
<event>
 5   0  0.7202572E-06  0.2301197E+04  0.7818609E-02  0.8477449E-01
        1   -1    0    0  501    0  0.00000000000E+00  0.00000000000E+00  0.13355222373E+04  0.13355222373E+04  0.50400001928E-02 0.  1.
       -1   -1    0    0    0  501  0.00000000000E+00  0.00000000000E+00 -0.99128020028E+03  0.99128020029E+03  0.50400001928E-02 0. -1.
    10030    2    1    2    0    0  0.00000000000E+00  0.00000000000E+00  0.34424203704E+03  0.23268024376E+04  0.23011968633E+04 0.  0.
        2    1    3    3  502    0 -0.35053374570E+03  0.88122515317E+03  0.83086473439E+03  0.12608599781E+04  0.25500000920E-02 0. -1.
       -2    1    3    3    0  502  0.35053374570E+03 -0.88122515317E+03 -0.48662269735E+03  0.10659424595E+04  0.25500000920E-02 0.  1.
</event>
<event>
 5   0  0.7183014E-06  0.2269236E+04  0.7818609E-02  0.8490151E-01
       -1   -1    0    0    0  501  0.00000000000E+00  0.00000000000E+00  0.82575355484E+03  0.82575355485E+03  0.50400001928E-02 0.  1.
        1   -1    0    0  501    0  0.00000000000E+00  0.00000000000E+00 -0.15590098733E+04  0.15590098733E+04  0.50400001928E-02 0. -1.
    10030    2    1    2    0    0  0.00000000000E+00  0.00000000000E+00 -0.73325631842E+03  0.23847634281E+04  0.22692359462E+04 0.  0.
        3    1    3    3  502    0 -0.29768873547E+03  0.10316097527E+04 -0.75207115533E+03  0.13108959906E+04  0.10100000352E+00 0. -1.
       -3    1    3    3    0  502  0.29768873547E+03 -0.10316097527E+04  0.18814836907E+02  0.10738674376E+04  0.10100000352E+00 0.  1.
</event>
<event>
 5   0  0.7416556E-06  0.2305882E+04  0.7818609E-02  0.8475605E-01
       -1   -1    0    0    0  501  0.00000000000E+00  0.00000000000E+00  0.49012896082E+03  0.49012896084E+03  0.50400001928E-02 0.  1.
        1   -1    0    0  501    0  0.00000000000E+00  0.00000000000E+00 -0.27120890982E+04  0.27120890982E+04  0.50400001928E-02 0. -1.
    10030    2    1    2    0    0  0.00000000000E+00  0.00000000000E+00 -0.22219601373E+04  0.32022180590E+04  0.23058824006E+04 0.  0.
        4    1    3    3  502    0  0.73073534372E+03  0.48097941045E+02  0.12566772482E+03  0.74302190039E+03  0.12699999809E+01 0.  1.
       -4    1    3    3    0  502 -0.73073534372E+03 -0.48097941045E+02 -0.23476278622E+04  0.24591961586E+04  0.12699999809E+01 0. -1.
</event>
<event>
 5   0  0.1588969E-05  0.2299643E+04  0.7818609E-02  0.8478062E-01
        2   -1    0    0  501    0  0.00000000000E+00  0.00000000000E+00  0.15863684256E+04  0.15863684256E+04  0.25500000920E-02 0. -1.
       -2   -1    0    0    0  501  0.00000000000E+00  0.00000000000E+00 -0.83340612286E+03  0.83340612286E+03  0.25500000920E-02 0.  1.
    10030    2    1    2    0    0  0.00000000000E+00  0.00000000000E+00  0.75296230272E+03  0.24197745484E+04  0.22996427192E+04 0.  0.
        1    1    3    3  502    0 -0.67320941443E+03 -0.91232850586E+03  0.17535490885E+03  0.11473027335E+04  0.50400001928E-02 0.  1.
       -1    1    3    3    0  502  0.67320941443E+03  0.91232850586E+03  0.57760739388E+03  0.12724718149E+04  0.50400001928E-02 0. -1.
</event>
<event>
 5   0  0.7202572E-06  0.2303969E+04  0.7818609E-02  0.8476358E-01
        1   -1    0    0  501    0  0.00000000000E+00  0.00000000000E+00  0.25246443054E+04  0.25246443054E+04  0.50400001928E-02 0. -1.
       -1   -1    0    0    0  501  0.00000000000E+00  0.00000000000E+00 -0.52564583763E+03  0.52564583765E+03  0.50400001928E-02 0.  1.
    10030    2    1    2    0    0  0.00000000000E+00  0.00000000000E+00  0.19989984678E+04  0.30502901430E+04  0.23039694188E+04 0.  0.
        2    1    3    3  502    0  0.24968919437E+03  0.93003474450E+02  0.24832881703E+04  0.24975416867E+04  0.25500000920E-02 0. -1.
       -2    1    3    3    0  502 -0.24968919437E+03 -0.93003474450E+02 -0.48428970252E+03  0.55274845636E+03  0.25500000920E-02 0.  1.
</event>
<event>
 5   0  0.7278815E-06  0.2297748E+04  0.7818609E-02  0.8478810E-01
        1   -1    0    0  501    0  0.00000000000E+00  0.00000000000E+00  0.60450985614E+03  0.60450985616E+03  0.50400001928E-02 0.  1.
       -1   -1    0    0    0  501  0.00000000000E+00  0.00000000000E+00 -0.21834409844E+04  0.21834409844E+04  0.50400001928E-02 0. -1.
    10030    2    1    2    0    0  0.00000000000E+00  0.00000000000E+00 -0.15789311283E+04  0.27879508406E+04  0.22977481110E+04 0.  0.
        5    1    3    3  502    0  0.45431140391E+03  0.47905411867E+03 -0.19302623457E+04  0.20400555173E+04  0.46999998093E+01 0. -1.
       -5    1    3    3    0  502 -0.45431140391E+03 -0.47905411867E+03  0.35133121740E+03  0.74789532333E+03  0.46999998093E+01 0.  1.
</event>
<event>
 5   0  0.7278815E-06  0.2295653E+04  0.7818609E-02  0.8479637E-01
       -1   -1    0    0    0  501  0.00000000000E+00  0.00000000000E+00  0.10131738777E+04  0.10131738777E+04  0.50400001928E-02 0. -1.
        1   -1    0    0  501    0  0.00000000000E+00  0.00000000000E+00 -0.13003751584E+04  0.13003751584E+04  0.50400001928E-02 0.  1.
    10030    2    1    2    0    0  0.00000000000E+00  0.00000000000E+00 -0.28720128067E+03  0.23135490361E+04  0.22956534073E+04 0.  0.
        5    1    3    3  502    0 -0.17424511000E+03  0.33744748751E+03 -0.12352119326E+04  0.12922858715E+04  0.46999998093E+01 0.  1.
       -5    1    3    3    0  502  0.17424511000E+03 -0.33744748751E+03  0.94801065192E+03  0.10212631646E+04  0.46999998093E+01 0. -1.
</event>
<event>
 5   0  0.1588969E-05  0.2294627E+04  0.7818609E-02  0.8480043E-01
       -2   -1    0    0    0  501  0.00000000000E+00  0.00000000000E+00  0.80051057047E+03  0.80051057047E+03  0.25500000920E-02 0. -1.
        2   -1    0    0  501    0  0.00000000000E+00  0.00000000000E+00 -0.16443608830E+04  0.16443608830E+04  0.25500000920E-02 0.  1.
    10030    2    1    2    0    0  0.00000000000E+00  0.00000000000E+00 -0.84385031254E+03  0.24448714535E+04  0.22946270011E+04 0.  0.
        1    1    3    3  502    0 -0.11423484159E+04 -0.29852201580E+02 -0.53098547961E+03  0.12600780281E+04  0.50400001928E-02 0. -1.
       -1    1    3    3    0  502  0.11423484159E+04  0.29852201580E+02 -0.31286483292E+03  0.11847934254E+04  0.50400001928E-02 0.  1.
</event>
<event>
 5   0  0.7278815E-06  0.2318636E+04  0.7818609E-02  0.8470609E-01
       -1   -1    0    0    0  501  0.00000000000E+00  0.00000000000E+00  0.81778780762E+03  0.81778780763E+03  0.50400001928E-02 0.  1.
        1   -1    0    0  501    0  0.00000000000E+00  0.00000000000E+00 -0.16434801060E+04  0.16434801060E+04  0.50400001928E-02 0. -1.
    10030    2    1    2    0    0  0.00000000000E+00  0.00000000000E+00 -0.82569229838E+03  0.24612679136E+04  0.23186357996E+04 0.  0.
        5    1    3    3  502    0 -0.80670028925E+03 -0.79315352315E+03 -0.14401215939E+03  0.11404470439E+04  0.46999998093E+01 0.  1.
       -5    1    3    3    0  502  0.80670028925E+03  0.79315352315E+03 -0.68168013899E+03  0.13208208697E+04  0.46999998093E+01 0. -1.
</event>
<event>
 5   0  0.1635955E-05  0.2303899E+04  0.7818609E-02  0.8476385E-01
        2   -1    0    0  501    0  0.00000000000E+00  0.00000000000E+00  0.16566714749E+04  0.16566714749E+04  0.25500000920E-02 0.  1.
       -2   -1    0    0    0  501  0.00000000000E+00  0.00000000000E+00 -0.80099624671E+03  0.80099624672E+03  0.25500000920E-02 0. -1.
    10030    2    1    2    0    0  0.00000000000E+00  0.00000000000E+00  0.85567522814E+03  0.24576677216E+04  0.23038989851E+04 0.  0.
        2    1    3    3  502    0 -0.32468923243E+03 -0.10960072274E+04  0.57994741069E+03  0.12817932514E+04  0.25500000920E-02 0. -1.
       -2    1    3    3    0  502  0.32468923243E+03  0.10960072274E+04  0.27572781745E+03  0.11758744701E+04  0.25500000920E-02 0.  1.
</event>
<event>
 5   0  0.7202572E-06  0.2216022E+04  0.7818609E-02  0.8511789E-01
        1   -1    0    0  501    0  0.00000000000E+00  0.00000000000E+00  0.10258367133E+04  0.10258367133E+04  0.50400001928E-02 0. -1.
       -1   -1    0    0    0  501  0.00000000000E+00  0.00000000000E+00 -0.11967675093E+04  0.11967675093E+04  0.50400001928E-02 0.  1.
    10030    2    1    2    0    0  0.00000000000E+00  0.00000000000E+00 -0.17093079593E+03  0.22226042226E+04  0.22160217042E+04 0.  0.
        2    1    3    3  502    0  0.49610130072E+03 -0.49328556713E+03 -0.94722707270E+03  0.11775764428E+04  0.25500000920E-02 0.  1.
       -2    1    3    3    0  502 -0.49610130072E+03  0.49328556713E+03  0.77629627677E+03  0.10450277798E+04  0.25500000920E-02 0. -1.
</event>
<event>
 5   0  0.1697855E-05  0.2302863E+04  0.7818609E-02  0.8476793E-01
       -2   -1    0    0    0  501  0.00000000000E+00  0.00000000000E+00  0.86461992686E+03  0.86461992686E+03  0.25500000920E-02 0. -1.
        2   -1    0    0  501    0  0.00000000000E+00  0.00000000000E+00 -0.15333847483E+04  0.15333847483E+04  0.25500000920E-02 0.  1.
    10030    2    1    2    0    0  0.00000000000E+00  0.00000000000E+00 -0.66876482143E+03  0.23980046752E+04  0.23028634427E+04 0.  0.
        5    1    3    3  502    0  0.53163398367E+03  0.10192969399E+04 -0.26712306068E+03  0.11802447898E+04  0.46999998093E+01 0.  1.
       -5    1    3    3    0  502 -0.53163398367E+03 -0.10192969399E+04 -0.40164176076E+03  0.12177598853E+04  0.46999998093E+01 0. -1.
</event>
<event>
 5   0  0.1626636E-05  0.2305352E+04  0.7818609E-02  0.8475814E-01
       -2   -1    0    0    0  501  0.00000000000E+00  0.00000000000E+00  0.55129822053E+03  0.55129822053E+03  0.25500000920E-02 0.  1.
        2   -1    0    0  501    0  0.00000000000E+00  0.00000000000E+00 -0.24100608302E+04  0.24100608302E+04  0.25500000920E-02 0. -1.
    10030    2    1    2    0    0  0.00000000000E+00  0.00000000000E+00 -0.18587626097E+04  0.29613590508E+04  0.23053522482E+04 0.  0.
        4    1    3    3  502    0 -0.44826671961E+03 -0.18333248154E+03 -0.22730234849E+04  0.23240463047E+04  0.12699999809E+01 0. -1.
       -4    1    3    3    0  502  0.44826671961E+03  0.18333248154E+03  0.41426087517E+03  0.63731274606E+03  0.12699999809E+01 0.  1.
</event>
<event>
 5   0  0.1626636E-05  0.2292395E+04  0.7818609E-02  0.8480926E-01
        2   -1    0    0  501    0  0.00000000000E+00  0.00000000000E+00  0.83506087682E+03  0.83506087682E+03  0.25500000920E-02 0. -1.
       -2   -1    0    0    0  501  0.00000000000E+00  0.00000000000E+00 -0.15732611615E+04  0.15732611615E+04  0.25500000920E-02 0.  1.
    10030    2    1    2    0    0  0.00000000000E+00  0.00000000000E+00 -0.73820028464E+03  0.24083220383E+04  0.22923951186E+04 0.  0.
        4    1    3    3  502    0 -0.45140594839E+03  0.90278558518E+03 -0.93968463433E+03  0.13790569125E+04  0.12699999809E+01 0.  1.
       -4    1    3    3    0  502  0.45140594839E+03 -0.90278558518E+03  0.20148434970E+03  0.10292651258E+04  0.12699999809E+01 0. -1.
</event>
<event>
 5   0  0.7278815E-06  0.2298947E+04  0.7818609E-02  0.8478336E-01
        1   -1    0    0  501    0  0.00000000000E+00  0.00000000000E+00  0.20558718106E+04  0.20558718106E+04  0.50400001928E-02 0.  1.
       -1   -1    0    0    0  501  0.00000000000E+00  0.00000000000E+00 -0.64269040867E+03  0.64269040869E+03  0.50400001928E-02 0. -1.
    10030    2    1    2    0    0  0.00000000000E+00  0.00000000000E+00  0.14131814019E+04  0.26985622193E+04  0.22989467973E+04 0.  0.
        5    1    3    3  502    0  0.26814732845E+03 -0.45321821855E+03 -0.49275635816E+03  0.72120777997E+03  0.46999998093E+01 0. -1.
       -5    1    3    3    0  502 -0.26814732845E+03  0.45321821855E+03  0.19059377601E+04  0.19773544393E+04  0.46999998093E+01 0.  1.
</event>
<event>
 5   0  0.5704875E-06  0.2301331E+04  0.7818609E-02  0.8477396E-01
       -3   -1    0    0    0  501  0.00000000000E+00  0.00000000000E+00  0.92994509801E+03  0.92994510350E+03  0.10100000352E+00 0. -1.
        3   -1    0    0  501    0  0.00000000000E+00  0.00000000000E+00 -0.14237734627E+04  0.14237734662E+04  0.10100000352E+00 0.  1.
    10030    2    1    2    0    0  0.00000000000E+00  0.00000000000E+00 -0.49382836464E+03  0.23537185697E+04  0.23013310609E+04 0.  0.
        4    1    3    3  502    0  0.27432279133E+03 -0.10861734739E+04 -0.51557959029E+03  0.12332273659E+04  0.12699999809E+01 0.  1.
       -4    1    3    3    0  502 -0.27432279133E+03  0.10861734739E+04  0.21751225647E+02  0.11204912038E+04  0.12699999809E+01 0. -1.
</event>
<event>
 5   0  0.7278815E-06  0.2306714E+04  0.7818609E-02  0.8475279E-01
       -1   -1    0    0    0  501  0.00000000000E+00  0.00000000000E+00  0.61464550674E+03  0.61464550676E+03  0.50400001928E-02 0.  1.
        1   -1    0    0  501    0  0.00000000000E+00  0.00000000000E+00 -0.21642261562E+04  0.21642261562E+04  0.50400001928E-02 0. -1.
    10030    2    1    2    0    0  0.00000000000E+00  0.00000000000E+00 -0.15495806494E+04  0.27788716629E+04  0.23067135778E+04 0.  0.
        5    1    3    3  502    0  0.10231471102E+04 -0.43036158873E+03 -0.11522419570E+04  0.15999139738E+04  0.46999998093E+01 0. -1.
       -5    1    3    3    0  502 -0.10231471102E+04  0.43036158873E+03 -0.39733869246E+03  0.11789576891E+04  0.46999998093E+01 0.  1.
</event>
<event>
 5   0  0.1626636E-05  0.2300123E+04  0.7818609E-02  0.8477872E-01
        2   -1    0    0  501    0  0.00000000000E+00  0.00000000000E+00  0.14692873666E+04  0.14692873666E+04  0.25500000920E-02 0. -1.
       -2   -1    0    0    0  501  0.00000000000E+00  0.00000000000E+00 -0.90019281501E+03  0.90019281502E+03  0.25500000920E-02 0.  1.
    10030    2    1    2    0    0  0.00000000000E+00  0.00000000000E+00  0.56909455158E+03  0.23694801816E+04  0.23001234146E+04 0.  0.
        4    1    3    3  502    0 -0.61733544738E+03 -0.47630810210E+03 -0.58632419952E+03  0.97557682556E+03  0.12699999809E+01 0.  1.
       -4    1    3    3    0  502  0.61733544738E+03  0.47630810210E+03  0.11554187511E+04  0.13939033561E+04  0.12699999809E+01 0. -1.
</event>
<event>
 5   0  0.1697855E-05  0.2299256E+04  0.7818609E-02  0.8478214E-01
       -2   -1    0    0    0  501  0.00000000000E+00  0.00000000000E+00  0.50875300208E+03  0.50875300209E+03  0.25500000920E-02 0. -1.
        2   -1    0    0  501    0  0.00000000000E+00  0.00000000000E+00 -0.25978120395E+04  0.25978120395E+04  0.25500000920E-02 0.  1.
    10030    2    1    2    0    0  0.00000000000E+00  0.00000000000E+00 -0.20890590374E+04  0.31065650416E+04  0.22992561179E+04 0.  0.
        5    1    3    3  502    0 -0.20899721323E+03 -0.88996046228E+03 -0.19863592908E+04  0.21866309203E+04  0.46999998093E+01 0.  1.
       -5    1    3    3    0  502  0.20899721323E+03  0.88996046228E+03 -0.10269974664E+03  0.91993412129E+03  0.46999998093E+01 0. -1.
</event>
<event>
 5   0  0.7183014E-06  0.2298125E+04  0.7818609E-02  0.8478661E-01
       -1   -1    0    0    0  501  0.00000000000E+00  0.00000000000E+00  0.90761415229E+03  0.90761415230E+03  0.50400001928E-02 0. -1.
        1   -1    0    0  501    0  0.00000000000E+00  0.00000000000E+00 -0.14547419655E+04  0.14547419656E+04  0.50400001928E-02 0.  1.
    10030    2    1    2    0    0  0.00000000000E+00  0.00000000000E+00 -0.54712781326E+03  0.23623561179E+04  0.22981247972E+04 0.  0.
        3    1    3    3  502    0  0.41927175597E+03 -0.22504992214E+03  0.80156906181E+03  0.93217447072E+03  0.10100000352E+00 0. -1.
       -3    1    3    3    0  502 -0.41927175597E+03  0.22504992214E+03 -0.13486968751E+04  0.14301816471E+04  0.10100000352E+00 0.  1.
</event>
<event>
 5   0  0.1626636E-05  0.2283369E+04  0.7818609E-02  0.8484508E-01
        2   -1    0    0  501    0  0.00000000000E+00  0.00000000000E+00  0.68428598105E+03  0.68428598105E+03  0.25500000920E-02 0.  1.
       -2   -1    0    0    0  501  0.00000000000E+00  0.00000000000E+00 -0.19048225951E+04  0.19048225951E+04  0.25500000920E-02 0. -1.
    10030    2    1    2    0    0  0.00000000000E+00  0.00000000000E+00 -0.12205366140E+04  0.25891085761E+04  0.22833689130E+04 0.  0.
        4    1    3    3  502    0 -0.70966107025E+03  0.80826486924E+03 -0.17621935061E+03  0.10899384413E+04  0.12699999809E+01 0.  1.
       -4    1    3    3    0  502  0.70966107025E+03 -0.80826486924E+03 -0.10443172634E+04  0.14991701348E+04  0.12699999809E+01 0. -1.
</event>
<event>
 5   0  0.1588969E-05  0.2292714E+04  0.7818609E-02  0.8480799E-01
       -2   -1    0    0    0  501  0.00000000000E+00  0.00000000000E+00  0.14269071476E+04  0.14269071476E+04  0.25500000920E-02 0. -1.
        2   -1    0    0  501    0  0.00000000000E+00  0.00000000000E+00 -0.92096725726E+03  0.92096725726E+03  0.25500000920E-02 0.  1.
    10030    2    1    2    0    0  0.00000000000E+00  0.00000000000E+00  0.50593989036E+03  0.23478744049E+04  0.22927143408E+04 0.  0.
        1    1    3    3  502    0  0.58329353422E+03 -0.84604749604E+03 -0.26729533835E+03  0.10618260265E+04  0.50400001928E-02 0.  1.
       -1    1    3    3    0  502 -0.58329353422E+03  0.84604749604E+03  0.77323522870E+03  0.12860483784E+04  0.50400001928E-02 0. -1.
</event>
<event>
 5   0  0.7183014E-06  0.2296818E+04  0.7818609E-02  0.8479177E-01
       -1   -1    0    0    0  501  0.00000000000E+00  0.00000000000E+00  0.86851714161E+03  0.86851714163E+03  0.50400001928E-02 0.  1.
        1   -1    0    0  501    0  0.00000000000E+00  0.00000000000E+00 -0.15184994018E+04  0.15184994018E+04  0.50400001928E-02 0. -1.
    10030    2    1    2    0    0  0.00000000000E+00  0.00000000000E+00 -0.64998226023E+03  0.23870165435E+04  0.22968175897E+04 0.  0.
        3    1    3    3  502    0 -0.61462139602E+03 -0.87345969797E+03  0.11366438970E+03  0.10740628045E+04  0.10100000352E+00 0.  1.
       -3    1    3    3    0  502  0.61462139602E+03  0.87345969797E+03 -0.76364664993E+03  0.13129537389E+04  0.10100000352E+00 0. -1.
</event>
<event>
 5   0  0.1602809E-05  0.2296915E+04  0.7818609E-02  0.8479138E-01
        2   -1    0    0  501    0  0.00000000000E+00  0.00000000000E+00  0.15741902765E+04  0.15741902765E+04  0.25500000920E-02 0.  1.
       -2   -1    0    0    0  501  0.00000000000E+00  0.00000000000E+00 -0.83786250189E+03  0.83786250189E+03  0.25500000920E-02 0. -1.
    10030    2    1    2    0    0  0.00000000000E+00  0.00000000000E+00  0.73632777460E+03  0.24120527784E+04  0.22969153258E+04 0.  0.
        3    1    3    3  502    0  0.41162967528E+03  0.10393522024E+04  0.91792881136E+02  0.11216585637E+04  0.10100000352E+00 0. -1.
       -3    1    3    3    0  502 -0.41162967528E+03 -0.10393522024E+04  0.64453489346E+03  0.12903942147E+04  0.10100000352E+00 0.  1.
</event>
<event>
 5   0  0.7183014E-06  0.2299194E+04  0.7818609E-02  0.8478239E-01
       -1   -1    0    0    0  501  0.00000000000E+00  0.00000000000E+00  0.12609990942E+04  0.12609990942E+04  0.50400001928E-02 0. -1.
        1   -1    0    0  501    0  0.00000000000E+00  0.00000000000E+00 -0.10480362230E+04  0.10480362230E+04  0.50400001928E-02 0.  1.
    10030    2    1    2    0    0  0.00000000000E+00  0.00000000000E+00  0.21296287125E+03  0.23090353172E+04  0.22991935350E+04 0.  0.
        3    1    3    3  502    0  0.82791107673E+03 -0.16630365006E+03 -0.67690827944E+03  0.10822654406E+04  0.10100000352E+00 0.  1.
       -3    1    3    3    0  502 -0.82791107673E+03  0.16630365006E+03  0.88987115069E+03  0.12267698766E+04  0.10100000352E+00 0. -1.
</event>
<event>
 5   0  0.7278815E-06  0.2301173E+04  0.7818609E-02  0.8477459E-01
        1   -1    0    0  501    0  0.00000000000E+00  0.00000000000E+00  0.11250794558E+04  0.11250794558E+04  0.50400001928E-02 0. -1.
       -1   -1    0    0    0  501  0.00000000000E+00  0.00000000000E+00 -0.11766715729E+04  0.11766715729E+04  0.50400001928E-02 0.  1.
    10030    2    1    2    0    0  0.00000000000E+00  0.00000000000E+00 -0.51592117043E+02  0.23017510287E+04  0.23011727557E+04 0.  0.
        5    1    3    3  502    0  0.45659014329E+03 -0.62850895905E+02 -0.10802915675E+04  0.11745112834E+04  0.46999998093E+01 0.  1.
       -5    1    3    3    0  502 -0.45659014329E+03  0.62850895905E+02  0.10286994505E+04  0.11272397453E+04  0.46999998093E+01 0. -1.
</event>
<event>
 5   0  0.7391007E-06  0.2278343E+04  0.7818609E-02  0.8486510E-01
       -1   -1    0    0    0  501  0.00000000000E+00  0.00000000000E+00  0.54792031109E+03  0.54792031111E+03  0.50400001928E-02 0.  1.
        1   -1    0    0  501    0  0.00000000000E+00  0.00000000000E+00 -0.23684307411E+04  0.23684307411E+04  0.50400001928E-02 0. -1.
    10030    2    1    2    0    0  0.00000000000E+00  0.00000000000E+00 -0.18205104300E+04  0.29163510522E+04  0.22783426507E+04 0.  0.
        1    1    3    3  502    0 -0.50387270823E+03 -0.71846428802E+03 -0.18400489148E+04  0.20385923202E+04  0.50400001928E-02 0. -1.
       -1    1    3    3    0  502  0.50387270823E+03  0.71846428802E+03  0.19538484722E+02  0.87775873204E+03  0.50400001928E-02 0.  1.
</event>
<event>
 5   0  0.7391007E-06  0.2294846E+04  0.7818609E-02  0.8479956E-01
        1   -1    0    0  501    0  0.00000000000E+00  0.00000000000E+00  0.12746530591E+04  0.12746530592E+04  0.50400001928E-02 0.  1.
       -1   -1    0    0    0  501  0.00000000000E+00  0.00000000000E+00 -0.10328922513E+04  0.10328922513E+04  0.50400001928E-02 0. -1.
    10030    2    1    2    0    0  0.00000000000E+00  0.00000000000E+00  0.24176080788E+03  0.23075453104E+04  0.22948457620E+04 0.  0.
        1    1    3    3  502    0 -0.81111501946E+03 -0.57854982534E+03 -0.45143696939E+03  0.10938111412E+04  0.50400001928E-02 0. -1.
       -1    1    3    3    0  502  0.81111501946E+03  0.57854982534E+03  0.69319777727E+03  0.12137341693E+04  0.50400001928E-02 0.  1.
</event>
<event>
 5   0  0.1602809E-05  0.2305822E+04  0.7818609E-02  0.8475629E-01
       -2   -1    0    0    0  501  0.00000000000E+00  0.00000000000E+00  0.69976990990E+03  0.69976990990E+03  0.25500000920E-02 0.  1.
        2   -1    0    0  501    0  0.00000000000E+00  0.00000000000E+00 -0.18994867293E+04  0.18994867293E+04  0.25500000920E-02 0. -1.
    10030    2    1    2    0    0  0.00000000000E+00  0.00000000000E+00 -0.11997168194E+04  0.25992566392E+04  0.23058218990E+04 0.  0.
        3    1    3    3  502    0  0.73284519519E+03 -0.75991428308E+03 -0.11221474966E+04  0.15406968593E+04  0.10100000352E+00 0. -1.
       -3    1    3    3    0  502 -0.73284519519E+03  0.75991428308E+03 -0.77569322806E+02  0.10585597800E+04  0.10100000352E+00 0.  1.
</event>
<event>
 5   0  0.7391007E-06  0.2304617E+04  0.7818609E-02  0.8476103E-01
       -1   -1    0    0    0  501  0.00000000000E+00  0.00000000000E+00  0.68254935842E+03  0.68254935844E+03  0.50400001928E-02 0.  1.
        1   -1    0    0  501    0  0.00000000000E+00  0.00000000000E+00 -0.19453757982E+04  0.19453757982E+04  0.50400001928E-02 0. -1.
    10030    2    1    2    0    0  0.00000000000E+00  0.00000000000E+00 -0.12628264398E+04  0.26279251566E+04  0.23046171074E+04 0.  0.
        1    1    3    3  502    0 -0.10667626753E+04 -0.32444129849E+03 -0.29980674965E+03  0.11546119906E+04  0.50400001928E-02 0.  1.
       -1    1    3    3    0  502  0.10667626753E+04  0.32444129849E+03 -0.96301969011E+03  0.14733131660E+04  0.50400001928E-02 0. -1.
</event>
<event>
 5   0  0.7202572E-06  0.2297626E+04  0.7818609E-02  0.8478858E-01
        1   -1    0    0  501    0  0.00000000000E+00  0.00000000000E+00  0.11029517222E+04  0.11029517223E+04  0.50400001928E-02 0.  1.
       -1   -1    0    0    0  501  0.00000000000E+00  0.00000000000E+00 -0.11965810392E+04  0.11965810392E+04  0.50400001928E-02 0. -1.
    10030    2    1    2    0    0  0.00000000000E+00  0.00000000000E+00 -0.93629316971E+02  0.22995327615E+04  0.22976258338E+04 0.  0.
        2    1    3    3  502    0  0.80431610579E+03  0.65246205342E+03 -0.54435901787E+03  0.11700247303E+04  0.25500000920E-02 0.  1.
       -2    1    3    3    0  502 -0.80431610579E+03 -0.65246205342E+03  0.45072970090E+03  0.11295080312E+04  0.25500000920E-02 0. -1.
</event>
<event>
 5   0  0.7278815E-06  0.2232131E+04  0.7818609E-02  0.8505172E-01
        1   -1    0    0  501    0  0.00000000000E+00  0.00000000000E+00  0.14096671744E+04  0.14096671745E+04  0.50400001928E-02 0.  1.
       -1   -1    0    0    0  501  0.00000000000E+00  0.00000000000E+00 -0.88361405472E+03  0.88361405473E+03  0.50400001928E-02 0. -1.
    10030    2    1    2    0    0  0.00000000000E+00  0.00000000000E+00  0.52605311973E+03  0.22932812292E+04  0.22321305767E+04 0.  0.
        5    1    3    3  502    0 -0.10366229244E+04  0.26513024179E+03 -0.62997185052E+02  0.10718544061E+04  0.46999998093E+01 0. -1.
       -5    1    3    3    0  502  0.10366229244E+04 -0.26513024179E+03  0.58905030478E+03  0.12214268231E+04  0.46999998093E+01 0.  1.
</event>
<event>
 5   0  0.1626636E-05  0.2276262E+04  0.7818609E-02  0.8487340E-01
       -2   -1    0    0    0  501  0.00000000000E+00  0.00000000000E+00  0.68162030283E+03  0.68162030283E+03  0.25500000920E-02 0. -1.
        2   -1    0    0  501    0  0.00000000000E+00  0.00000000000E+00 -0.19003860557E+04  0.19003860557E+04  0.25500000920E-02 0.  1.
    10030    2    1    2    0    0  0.00000000000E+00  0.00000000000E+00 -0.12187657528E+04  0.25820063585E+04  0.22762616008E+04 0.  0.
        4    1    3    3  502    0 -0.29461643801E+03 -0.10570716703E+04 -0.95182834249E+03  0.14526452313E+04  0.12699999809E+01 0.  1.
       -4    1    3    3    0  502  0.29461643801E+03  0.10570716703E+04 -0.26693741036E+03  0.11293611272E+04  0.12699999809E+01 0. -1.
</event>
<event>
 5   0  0.1602809E-05  0.2295900E+04  0.7818609E-02  0.8479539E-01
       -2   -1    0    0    0  501  0.00000000000E+00  0.00000000000E+00  0.51753581106E+03  0.51753581107E+03  0.25500000920E-02 0.  1.
        2   -1    0    0  501    0  0.00000000000E+00  0.00000000000E+00 -0.25462772363E+04  0.25462772363E+04  0.25500000920E-02 0. -1.
    10030    2    1    2    0    0  0.00000000000E+00  0.00000000000E+00 -0.20287414252E+04  0.30638130474E+04  0.22959003939E+04 0.  0.
        3    1    3    3  502    0 -0.10915329473E+04  0.60015437043E+02 -0.14818998442E+04  0.18414866782E+04  0.10100000352E+00 0. -1.
       -3    1    3    3    0  502  0.10915329473E+04 -0.60015437043E+02 -0.54684158106E+03  0.12223263691E+04  0.10100000352E+00 0.  1.
</event>
<event>
 5   0  0.7416556E-06  0.2301906E+04  0.7818609E-02  0.8477170E-01
       -1   -1    0    0    0  501  0.00000000000E+00  0.00000000000E+00  0.84519605622E+03  0.84519605623E+03  0.50400001928E-02 0.  1.
        1   -1    0    0  501    0  0.00000000000E+00  0.00000000000E+00 -0.15673205965E+04  0.15673205965E+04  0.50400001928E-02 0. -1.
    10030    2    1    2    0    0  0.00000000000E+00  0.00000000000E+00 -0.72212454030E+03  0.24125166528E+04  0.23019063291E+04 0.  0.
        4    1    3    3  502    0  0.10754706912E+04  0.40835823632E+03 -0.39882002618E+03  0.12175601353E+04  0.12699999809E+01 0.  1.
       -4    1    3    3    0  502 -0.10754706912E+04 -0.40835823632E+03 -0.32330451412E+03  0.11949565175E+04  0.12699999809E+01 0. -1.
</event>
<event>
 5   0  0.7202572E-06  0.2301280E+04  0.7818609E-02  0.8477417E-01
        1   -1    0    0  501    0  0.00000000000E+00  0.00000000000E+00  0.13338903818E+04  0.13338903818E+04  0.50400001928E-02 0. -1.
       -1   -1    0    0    0  501  0.00000000000E+00  0.00000000000E+00 -0.99256423090E+03  0.99256423091E+03  0.50400001928E-02 0.  1.
    10030    2    1    2    0    0  0.00000000000E+00  0.00000000000E+00  0.34132615091E+03  0.23264546127E+04  0.23012795406E+04 0.  0.
        2    1    3    3  502    0 -0.90997490480E+03  0.66174273563E+03 -0.72833023441E+02  0.11275027383E+04  0.25500000920E-02 0.  1.
       -2    1    3    3    0  502  0.90997490480E+03 -0.66174273563E+03  0.41415917435E+03  0.11989518744E+04  0.25500000920E-02 0. -1.
</event>
<event>
 5   0  0.7416556E-06  0.2301320E+04  0.7818609E-02  0.8477401E-01
        1   -1    0    0  501    0  0.00000000000E+00  0.00000000000E+00  0.18335431677E+04  0.18335431677E+04  0.50400001928E-02 0.  1.
       -1   -1    0    0    0  501  0.00000000000E+00  0.00000000000E+00 -0.72210925918E+03  0.72210925920E+03  0.50400001928E-02 0. -1.
    10030    2    1    2    0    0  0.00000000000E+00  0.00000000000E+00  0.11114339085E+04  0.25556524269E+04  0.23013200547E+04 0.  0.
        4    1    3    3  502    0 -0.20736850353E+03  0.81556132080E+03  0.14272242488E+04  0.16568381435E+04  0.12699999809E+01 0.  1.
       -4    1    3    3    0  502  0.20736850353E+03 -0.81556132080E+03 -0.31579034029E+03  0.89881428347E+03  0.12699999809E+01 0. -1.
</event>
<event>
 5   0  0.7391007E-06  0.2298174E+04  0.7818609E-02  0.8478642E-01
        1   -1    0    0  501    0  0.00000000000E+00  0.00000000000E+00  0.14763415897E+04  0.14763415897E+04  0.50400001928E-02 0.  1.
       -1   -1    0    0    0  501  0.00000000000E+00  0.00000000000E+00 -0.89437339761E+03  0.89437339763E+03  0.50400001928E-02 0. -1.
    10030    2    1    2    0    0  0.00000000000E+00  0.00000000000E+00  0.58196819212E+03  0.23707149874E+04  0.22981737477E+04 0.  0.
        1    1    3    3  502    0  0.24343564700E+03 -0.33746053773E+03  0.13958954430E+04  0.14565934974E+04  0.50400001928E-02 0.  1.
       -1    1    3    3    0  502 -0.24343564700E+03  0.33746053773E+03 -0.81392725088E+03  0.91412149001E+03  0.50400001928E-02 0. -1.
</event>
<event>
 5   0  0.5704875E-06  0.2298334E+04  0.7818609E-02  0.8478578E-01
        3   -1    0    0  501    0  0.00000000000E+00  0.00000000000E+00  0.17006092227E+04  0.17006092257E+04  0.10100000352E+00 0. -1.
       -3   -1    0    0    0  501  0.00000000000E+00  0.00000000000E+00 -0.77653633950E+03  0.77653634606E+03  0.10100000352E+00 0.  1.
    10030    2    1    2    0    0  0.00000000000E+00  0.00000000000E+00  0.92407288317E+03  0.24771455717E+04  0.22983340684E+04 0.  0.
        5    1    3    3  502    0  0.77973740142E+03 -0.38713009607E+03  0.12705324068E+04  0.15401736309E+04  0.46999998093E+01 0. -1.
       -5    1    3    3    0  502 -0.77973740142E+03  0.38713009607E+03 -0.34645952363E+03  0.93697194087E+03  0.46999998093E+01 0.  1.
</event>
<event>
 5   0  0.7391007E-06  0.2290761E+04  0.7818609E-02  0.8481573E-01
       -1   -1    0    0    0  501  0.00000000000E+00  0.00000000000E+00  0.84503305254E+03  0.84503305255E+03  0.50400001928E-02 0. -1.
        1   -1    0    0  501    0  0.00000000000E+00  0.00000000000E+00 -0.15524789534E+04  0.15524789534E+04  0.50400001928E-02 0.  1.
    10030    2    1    2    0    0  0.00000000000E+00  0.00000000000E+00 -0.70744590086E+03  0.23975120060E+04  0.22907605977E+04 0.  0.
        1    1    3    3  502    0  0.79323528384E+03 -0.54992868596E+02  0.50910383416E+03  0.94415737307E+03  0.50400001928E-02 0. -1.
       -1    1    3    3    0  502 -0.79323528384E+03  0.54992868596E+02 -0.12165497350E+04  0.14533546329E+04  0.50400001928E-02 0.  1.
</event>
<event>
 5   0  0.1626636E-05  0.2289492E+04  0.7818609E-02  0.8482076E-01
       -2   -1    0    0    0  501  0.00000000000E+00  0.00000000000E+00  0.15791828453E+04  0.15791828453E+04  0.25500000920E-02 0. -1.
        2   -1    0    0  501    0  0.00000000000E+00  0.00000000000E+00 -0.82982390162E+03  0.82982390162E+03  0.25500000920E-02 0.  1.
    10030    2    1    2    0    0  0.00000000000E+00  0.00000000000E+00  0.74935894370E+03  0.24090067469E+04  0.22894922320E+04 0.  0.
        4    1    3    3  502    0  0.95983036203E+02 -0.31654147152E+03  0.15278032200E+04  0.15632004153E+04  0.12699999809E+01 0. -1.
       -4    1    3    3    0  502 -0.95983036203E+02  0.31654147152E+03 -0.77844427631E+03  0.84580633164E+03  0.12699999809E+01 0.  1.
</event>
<event>
 5   0  0.1626636E-05  0.2310392E+04  0.7818609E-02  0.8473835E-01
        2   -1    0    0  501    0  0.00000000000E+00  0.00000000000E+00  0.12390402439E+04  0.12390402439E+04  0.25500000920E-02 0. -1.
       -2   -1    0    0    0  501  0.00000000000E+00  0.00000000000E+00 -0.10770250478E+04  0.10770250478E+04  0.25500000920E-02 0.  1.
    10030    2    1    2    0    0  0.00000000000E+00  0.00000000000E+00  0.16201519608E+03  0.23160652917E+04  0.23103916360E+04 0.  0.
        4    1    3    3  502    0 -0.10797355799E+04  0.40446585649E+03  0.97400226124E+01  0.11530472811E+04  0.12699999809E+01 0.  1.
       -4    1    3    3    0  502  0.10797355799E+04 -0.40446585649E+03  0.15227517347E+03  0.11630180106E+04  0.12699999809E+01 0. -1.
</event>
<event>
 5   0  0.7391007E-06  0.2300680E+04  0.7818609E-02  0.8477653E-01
       -1   -1    0    0    0  501  0.00000000000E+00  0.00000000000E+00  0.69435925467E+03  0.69435925469E+03  0.50400001928E-02 0.  1.
        1   -1    0    0  501    0  0.00000000000E+00  0.00000000000E+00 -0.19057598688E+04  0.19057598688E+04  0.50400001928E-02 0. -1.
    10030    2    1    2    0    0  0.00000000000E+00  0.00000000000E+00 -0.12114006141E+04  0.26001191235E+04  0.23006799013E+04 0.  0.
        1    1    3    3  502    0 -0.65278738031E+02  0.18255848536E+03  0.67576160197E+03  0.70302393767E+03  0.50400001928E-02 0.  1.
       -1    1    3    3    0  502  0.65278738031E+02 -0.18255848536E+03 -0.18871622161E+04  0.18970951858E+04  0.50400001928E-02 0. -1.
</event>
<event>
 5   0  0.7416556E-06  0.2297377E+04  0.7818609E-02  0.8478956E-01
        1   -1    0    0  501    0  0.00000000000E+00  0.00000000000E+00  0.21600128208E+04  0.21600128209E+04  0.50400001928E-02 0. -1.
       -1   -1    0    0    0  501  0.00000000000E+00  0.00000000000E+00 -0.61086910726E+03  0.61086910728E+03  0.50400001928E-02 0.  1.
    10030    2    1    2    0    0  0.00000000000E+00  0.00000000000E+00  0.15491437136E+04  0.27708819281E+04  0.22973768551E+04 0.  0.
        4    1    3    3  502    0  0.45199973741E+03  0.10552557458E+04  0.72610137967E+03  0.13583421064E+04  0.12699999809E+01 0.  1.
       -4    1    3    3    0  502 -0.45199973741E+03 -0.10552557458E+04  0.82304233392E+03  0.14125398217E+04  0.12699999809E+01 0. -1.
</event>
<event>
 5   0  0.1626636E-05  0.2303244E+04  0.7818609E-02  0.8476643E-01
        2   -1    0    0  501    0  0.00000000000E+00  0.00000000000E+00  0.14923102118E+04  0.14923102118E+04  0.25500000920E-02 0.  1.
       -2   -1    0    0    0  501  0.00000000000E+00  0.00000000000E+00 -0.88871119044E+03  0.88871119045E+03  0.25500000920E-02 0. -1.
    10030    2    1    2    0    0  0.00000000000E+00  0.00000000000E+00  0.60359902132E+03  0.23810214022E+04  0.23032436127E+04 0.  0.
        4    1    3    3  502    0  0.75932956763E+03 -0.49119108287E+03 -0.43528642046E+03  0.10036562922E+04  0.12699999809E+01 0. -1.
       -4    1    3    3    0  502 -0.75932956763E+03  0.49119108287E+03  0.10388854418E+04  0.13773651100E+04  0.12699999809E+01 0.  1.
</event>
<event>
 5   0  0.1626636E-05  0.2299174E+04  0.7818609E-02  0.8478247E-01
        2   -1    0    0  501    0  0.00000000000E+00  0.00000000000E+00  0.17689852411E+04  0.17689852412E+04  0.25500000920E-02 0.  1.
       -2   -1    0    0    0  501  0.00000000000E+00  0.00000000000E+00 -0.74706680939E+03  0.74706680939E+03  0.25500000920E-02 0. -1.
    10030    2    1    2    0    0  0.00000000000E+00  0.00000000000E+00  0.10219184318E+04  0.25160520505E+04  0.22991739038E+04 0.  0.
        4    1    3    3  502    0  0.67626737999E+03  0.18627169794E+02  0.15280752235E+04  0.16711373499E+04  0.12699999809E+01 0.  1.
       -4    1    3    3    0  502 -0.67626737999E+03 -0.18627169794E+02 -0.50615679171E+03  0.84491470066E+03  0.12699999809E+01 0. -1.
</event>
<event>
 5   0  0.1697855E-05  0.2306325E+04  0.7818609E-02  0.8475431E-01
       -2   -1    0    0    0  501  0.00000000000E+00  0.00000000000E+00  0.69205316010E+03  0.69205316010E+03  0.25500000920E-02 0. -1.
        2   -1    0    0  501    0  0.00000000000E+00  0.00000000000E+00 -0.19215060250E+04  0.19215060250E+04  0.25500000920E-02 0.  1.
    10030    2    1    2    0    0  0.00000000000E+00  0.00000000000E+00 -0.12294528649E+04  0.26135591851E+04  0.23063254903E+04 0.  0.
        5    1    3    3  502    0 -0.65714530379E+03 -0.50578530628E+03 -0.15227858337E+04  0.17339427648E+04  0.46999998093E+01 0.  1.
       -5    1    3    3    0  502  0.65714530379E+03  0.50578530628E+03  0.29333296877E+03  0.87961642032E+03  0.46999998093E+01 0. -1.
</event>
<event>
 5   0  0.1588969E-05  0.2308646E+04  0.7818609E-02  0.8474520E-01
       -2   -1    0    0    0  501  0.00000000000E+00  0.00000000000E+00  0.10540969290E+04  0.10540969290E+04  0.25500000920E-02 0. -1.
        2   -1    0    0  501    0  0.00000000000E+00  0.00000000000E+00 -0.12640790116E+04  0.12640790117E+04  0.25500000920E-02 0.  1.
    10030    2    1    2    0    0  0.00000000000E+00  0.00000000000E+00 -0.20998208261E+03  0.23181759407E+04  0.23086461871E+04 0.  0.
        1    1    3    3  502    0  0.92132329154E+03  0.61814016231E+03 -0.42494080505E+03  0.11880692554E+04  0.50400001928E-02 0.  1.
       -1    1    3    3    0  502 -0.92132329154E+03 -0.61814016231E+03  0.21495872244E+03  0.11301066853E+04  0.50400001928E-02 0. -1.
</event>
<event>
 5   0  0.7278815E-06  0.2295243E+04  0.7818609E-02  0.8479799E-01
       -1   -1    0    0    0  501  0.00000000000E+00  0.00000000000E+00  0.76479596231E+03  0.76479596232E+03  0.50400001928E-02 0. -1.
        1   -1    0    0  501    0  0.00000000000E+00  0.00000000000E+00 -0.17220733644E+04  0.17220733644E+04  0.50400001928E-02 0.  1.
    10030    2    1    2    0    0  0.00000000000E+00  0.00000000000E+00 -0.95727740213E+03  0.24868693268E+04  0.22952426939E+04 0.  0.
        5    1    3    3  502    0  0.97003395004E+03  0.24726651423E+03  0.12937710575E+03  0.10093894782E+04  0.46999998093E+01 0. -1.
       -5    1    3    3    0  502 -0.97003395004E+03 -0.24726651423E+03 -0.10866545079E+04  0.14774798485E+04  0.46999998093E+01 0.  1.
</event>
<event>
 5   0  0.1697855E-05  0.2316227E+04  0.7818609E-02  0.8471550E-01
        2   -1    0    0  501    0  0.00000000000E+00  0.00000000000E+00  0.16825468558E+04  0.16825468558E+04  0.25500000920E-02 0. -1.
       -2   -1    0    0    0  501  0.00000000000E+00  0.00000000000E+00 -0.79714106720E+03  0.79714106720E+03  0.25500000920E-02 0.  1.
    10030    2    1    2    0    0  0.00000000000E+00  0.00000000000E+00  0.88540578859E+03  0.24796879230E+04  0.23162272740E+04 0.  0.
        5    1    3    3  502    0  0.25408340810E+03 -0.49777089890E+02  0.16511547912E+04  0.16713378986E+04  0.46999998093E+01 0. -1.
       -5    1    3    3    0  502 -0.25408340810E+03  0.49777089890E+02 -0.76574900258E+03  0.80835002437E+03  0.46999998093E+01 0.  1.
</event>
<event>
 5   0  0.7202572E-06  0.2293284E+04  0.7818609E-02  0.8480574E-01
        1   -1    0    0  501    0  0.00000000000E+00  0.00000000000E+00  0.19352640079E+04  0.19352640079E+04  0.50400001928E-02 0. -1.
       -1   -1    0    0    0  501  0.00000000000E+00  0.00000000000E+00 -0.67938415909E+03  0.67938415911E+03  0.50400001928E-02 0.  1.
    10030    2    1    2    0    0  0.00000000000E+00  0.00000000000E+00  0.12558798488E+04  0.26146481670E+04  0.22932838557E+04 0.  0.
        2    1    3    3  502    0 -0.21924772395E+03  0.40691321718E+03  0.18243406560E+04  0.18819847927E+04  0.25500000920E-02 0. -1.
       -2    1    3    3    0  502  0.21924772395E+03 -0.40691321718E+03 -0.56846080718E+03  0.73266337433E+03  0.25500000920E-02 0.  1.
</event>
<event>
 5   0  0.1697855E-05  0.2288630E+04  0.7818609E-02  0.8482418E-01
       -2   -1    0    0    0  501  0.00000000000E+00  0.00000000000E+00  0.56492086541E+03  0.56492086541E+03  0.25500000920E-02 0.  1.
        2   -1    0    0  501    0  0.00000000000E+00  0.00000000000E+00 -0.23179475596E+04  0.23179475596E+04  0.25500000920E-02 0. -1.
    10030    2    1    2    0    0  0.00000000000E+00  0.00000000000E+00 -0.17530266942E+04  0.28828684250E+04  0.22886301067E+04 0.  0.
        5    1    3    3  502    0  0.69301841206E+03  0.84887605799E+03 -0.46146023572E+03  0.11890469799E+04  0.46999998093E+01 0.  1.
       -5    1    3    3    0  502 -0.69301841206E+03 -0.84887605799E+03 -0.12915664585E+04  0.16938214451E+04  0.46999998093E+01 0. -1.
</event>
<event>
 5   0  0.7183014E-06  0.2302057E+04  0.7818609E-02  0.8477110E-01
        1   -1    0    0  501    0  0.00000000000E+00  0.00000000000E+00  0.10165253998E+04  0.10165253998E+04  0.50400001928E-02 0. -1.
       -1   -1    0    0    0  501  0.00000000000E+00  0.00000000000E+00 -0.13033286139E+04  0.13033286140E+04  0.50400001928E-02 0.  1.
    10030    2    1    2    0    0  0.00000000000E+00  0.00000000000E+00 -0.28680321419E+03  0.23198540137E+04  0.23020570283E+04 0.  0.
        3    1    3    3  502    0  0.51222159851E+02  0.10660695493E+04  0.29090426819E+03  0.11062338347E+04  0.10100000352E+00 0.  1.
       -3    1    3    3    0  502 -0.51222159851E+02 -0.10660695493E+04 -0.57770748238E+03  0.12136201790E+04  0.10100000352E+00 0. -1.
</event>
<event>
 5   0  0.7416556E-06  0.2287137E+04  0.7818609E-02  0.8483010E-01
       -1   -1    0    0    0  501  0.00000000000E+00  0.00000000000E+00  0.87530151259E+03  0.87530151261E+03  0.50400001928E-02 0. -1.
        1   -1    0    0  501    0  0.00000000000E+00  0.00000000000E+00 -0.14940548556E+04  0.14940548557E+04  0.50400001928E-02 0.  1.
    10030    2    1    2    0    0  0.00000000000E+00  0.00000000000E+00 -0.61875334305E+03  0.23693563683E+04  0.22871366160E+04 0.  0.
        4    1    3    3  502    0 -0.10255573136E+04 -0.22065143177E+03  0.16228388090E+03  0.10615048416E+04  0.12699999809E+01 0. -1.
       -4    1    3    3    0  502  0.10255573136E+04  0.22065143177E+03 -0.78103722395E+03  0.13078515267E+04  0.12699999809E+01 0.  1.
</event>
<event>
 5   0  0.7183014E-06  0.2286897E+04  0.7818609E-02  0.8483105E-01
       -1   -1    0    0    0  501  0.00000000000E+00  0.00000000000E+00  0.10983786178E+04  0.10983786178E+04  0.50400001928E-02 0. -1.
        1   -1    0    0  501    0  0.00000000000E+00  0.00000000000E+00 -0.11903680433E+04  0.11903680433E+04  0.50400001928E-02 0.  1.
    10030    2    1    2    0    0  0.00000000000E+00  0.00000000000E+00 -0.91989425492E+02  0.22887466611E+04  0.22868972920E+04 0.  0.
        3    1    3    3  502    0 -0.10266950078E+04 -0.33966586665E+03  0.32578820871E+03  0.11294306119E+04  0.10100000352E+00 0. -1.
       -3    1    3    3    0  502  0.10266950078E+04  0.33966586665E+03 -0.41777763420E+03  0.11593160492E+04  0.10100000352E+00 0.  1.
</event>
<event>
 5   0  0.7183014E-06  0.2303219E+04  0.7818609E-02  0.8476653E-01
       -1   -1    0    0    0  501  0.00000000000E+00  0.00000000000E+00  0.80611997542E+03  0.80611997544E+03  0.50400001928E-02 0. -1.
        1   -1    0    0  501    0  0.00000000000E+00  0.00000000000E+00 -0.16451694118E+04  0.16451694118E+04  0.50400001928E-02 0.  1.
    10030    2    1    2    0    0  0.00000000000E+00  0.00000000000E+00 -0.83904943637E+03  0.24512893872E+04  0.23032185531E+04 0.  0.
        3    1    3    3  502    0  0.22879439431E+03 -0.10777850770E+04 -0.62969958702E+02  0.11035999153E+04  0.10100000352E+00 0.  1.
       -3    1    3    3    0  502 -0.22879439431E+03  0.10777850770E+04 -0.77607947767E+03  0.13476894720E+04  0.10100000352E+00 0. -1.
</event>
<event>
 5   0  0.1635955E-05  0.2319064E+04  0.7818609E-02  0.8470442E-01
        2   -1    0    0  501    0  0.00000000000E+00  0.00000000000E+00  0.15350509421E+04  0.15350509421E+04  0.25500000920E-02 0. -1.
       -2   -1    0    0    0  501  0.00000000000E+00  0.00000000000E+00 -0.87587597696E+03  0.87587597697E+03  0.25500000920E-02 0.  1.
    10030    2    1    2    0    0  0.00000000000E+00  0.00000000000E+00  0.65917496517E+03  0.24109269191E+04  0.23190638142E+04 0.  0.
        2    1    3    3  502    0  0.11218683589E+04  0.24946089492E+03  0.48961648699E+03  0.12492172177E+04  0.25500000920E-02 0. -1.
       -2    1    3    3    0  502 -0.11218683589E+04 -0.24946089492E+03  0.16955847818E+03  0.11617097014E+04  0.25500000920E-02 0.  1.
</event>
<event>
 5   0  0.7278815E-06  0.2355945E+04  0.7818609E-02  0.8456184E-01
        1   -1    0    0  501    0  0.00000000000E+00  0.00000000000E+00  0.14665038973E+04  0.14665038974E+04  0.50400001928E-02 0.  1.
       -1   -1    0    0    0  501  0.00000000000E+00  0.00000000000E+00 -0.94620895375E+03  0.94620895376E+03  0.50400001928E-02 0. -1.
    10030    2    1    2    0    0  0.00000000000E+00  0.00000000000E+00  0.52029494360E+03  0.24127128511E+04  0.23559449216E+04 0.  0.
        5    1    3    3  502    0 -0.52282697443E+02 -0.59691384321E+03 -0.77846796551E+03  0.98238184022E+03  0.46999998093E+01 0.  1.
       -5    1    3    3    0  502  0.52282697443E+02  0.59691384321E+03  0.12987629091E+04  0.14303310109E+04  0.46999998093E+01 0. -1.
</event>
<event>
 5   0  0.7202572E-06  0.2301013E+04  0.7818609E-02  0.8477522E-01
        1   -1    0    0  501    0  0.00000000000E+00  0.00000000000E+00  0.18289275632E+04  0.18289275632E+04  0.50400001928E-02 0.  1.
       -1   -1    0    0    0  501  0.00000000000E+00  0.00000000000E+00 -0.72373855183E+03  0.72373855185E+03  0.50400001928E-02 0. -1.
    10030    2    1    2    0    0  0.00000000000E+00  0.00000000000E+00  0.11051890114E+04  0.25526661151E+04  0.23010131560E+04 0.  0.
        2    1    3    3  502    0  0.37990705435E+03 -0.58951041499E+02  0.17555591577E+04  0.17971623609E+04  0.25500000920E-02 0.  1.
       -2    1    3    3    0  502 -0.37990705435E+03  0.58951041499E+02 -0.65037014635E+03  0.75550375413E+03  0.25500000920E-02 0. -1.
</event>
<event>
 5   0  0.7183014E-06  0.2315600E+04  0.7818609E-02  0.8471796E-01
        1   -1    0    0  501    0  0.00000000000E+00  0.00000000000E+00  0.12672675372E+04  0.12672675372E+04  0.50400001928E-02 0. -1.
       -1   -1    0    0    0  501  0.00000000000E+00  0.00000000000E+00 -0.10577880218E+04  0.10577880218E+04  0.50400001928E-02 0.  1.
    10030    2    1    2    0    0  0.00000000000E+00  0.00000000000E+00  0.20947951540E+03  0.23250555590E+04  0.23155996383E+04 0.  0.
        3    1    3    3  502    0 -0.56901779174E+03  0.10079776476E+04  0.13130959344E+03  0.11649216304E+04  0.10100000352E+00 0. -1.
       -3    1    3    3    0  502  0.56901779174E+03 -0.10079776476E+04  0.78169921954E+02  0.11601339286E+04  0.10100000352E+00 0.  1.
</event>
<event>
 5   0  0.1588969E-05  0.2297888E+04  0.7818609E-02  0.8478754E-01
        2   -1    0    0  501    0  0.00000000000E+00  0.00000000000E+00  0.10224892788E+04  0.10224892788E+04  0.25500000920E-02 0.  1.
       -2   -1    0    0    0  501  0.00000000000E+00  0.00000000000E+00 -0.12910380988E+04  0.12910380988E+04  0.25500000920E-02 0. -1.
    10030    2    1    2    0    0  0.00000000000E+00  0.00000000000E+00 -0.26854882002E+03  0.23135273775E+04  0.22978882605E+04 0.  0.
        1    1    3    3  502    0  0.77973879934E+03  0.84040190545E+03 -0.57567586020E+02  0.11478597409E+04  0.50400001928E-02 0. -1.
       -1    1    3    3    0  502 -0.77973879934E+03 -0.84040190545E+03 -0.21098123400E+03  0.11656676366E+04  0.50400001928E-02 0.  1.
</event>
<event>
 5   0  0.1635955E-05  0.2316120E+04  0.7818609E-02  0.8471592E-01
       -2   -1    0    0    0  501  0.00000000000E+00  0.00000000000E+00  0.11858283530E+04  0.11858283531E+04  0.25500000920E-02 0. -1.
        2   -1    0    0  501    0  0.00000000000E+00  0.00000000000E+00 -0.11309422457E+04  0.11309422457E+04  0.25500000920E-02 0.  1.
    10030    2    1    2    0    0  0.00000000000E+00  0.00000000000E+00  0.54886107391E+02  0.23167705987E+04  0.23161203601E+04 0.  0.
        2    1    3    3  502    0 -0.59181131804E+02 -0.11494191342E+04  0.15568446031E+03  0.11614234386E+04  0.25500000920E-02 0. -1.
       -2    1    3    3    0  502  0.59181131804E+02  0.11494191342E+04 -0.10079835292E+03  0.11553471601E+04  0.25500000920E-02 0.  1.
</event>
<event>
 5   0  0.7183014E-06  0.2242660E+04  0.7818609E-02  0.8500879E-01
       -1   -1    0    0    0  501  0.00000000000E+00  0.00000000000E+00  0.10206449294E+04  0.10206449294E+04  0.50400001928E-02 0. -1.
        1   -1    0    0  501    0  0.00000000000E+00  0.00000000000E+00 -0.12319470160E+04  0.12319470160E+04  0.50400001928E-02 0.  1.
    10030    2    1    2    0    0  0.00000000000E+00  0.00000000000E+00 -0.21130208662E+03  0.22525919455E+04  0.22426595597E+04 0.  0.
        3    1    3    3  502    0 -0.10956676464E+03 -0.10080945721E+04 -0.58643675227E+03  0.11713955851E+04  0.10100000352E+00 0. -1.
       -3    1    3    3    0  502  0.10956676464E+03  0.10080945721E+04  0.37513466565E+03  0.10811963604E+04  0.10100000352E+00 0.  1.
</event>
<event>
 5   0  0.1588969E-05  0.2305922E+04  0.7818609E-02  0.8475590E-01
       -2   -1    0    0    0  501  0.00000000000E+00  0.00000000000E+00  0.10945078596E+04  0.10945078596E+04  0.25500000920E-02 0.  1.
        2   -1    0    0  501    0  0.00000000000E+00  0.00000000000E+00 -0.12145360161E+04  0.12145360161E+04  0.25500000920E-02 0. -1.
    10030    2    1    2    0    0  0.00000000000E+00  0.00000000000E+00 -0.12002815646E+03  0.23090438757E+04  0.23059221282E+04 0.  0.
        1    1    3    3  502    0  0.20449276155E+03 -0.13767601216E+03  0.10678087243E+04  0.10958957276E+04  0.50400001928E-02 0.  1.
       -1    1    3    3    0  502 -0.20449276155E+03  0.13767601216E+03 -0.11878368808E+04  0.12131481481E+04  0.50400001928E-02 0. -1.
</event>
<event>
 5   0  0.7391007E-06  0.2294052E+04  0.7818609E-02  0.8480270E-01
        1   -1    0    0  501    0  0.00000000000E+00  0.00000000000E+00  0.15719005258E+04  0.15719005259E+04  0.50400001928E-02 0. -1.
       -1   -1    0    0    0  501  0.00000000000E+00  0.00000000000E+00 -0.83699255522E+03  0.83699255524E+03  0.50400001928E-02 0.  1.
    10030    2    1    2    0    0  0.00000000000E+00  0.00000000000E+00  0.73490797062E+03  0.24088930811E+04  0.22940523427E+04 0.  0.
        1    1    3    3  502    0 -0.22716172555E+03 -0.17015242579E+03  0.15344459178E+04  0.15604738294E+04  0.50400001928E-02 0. -1.
       -1    1    3    3    0  502  0.22716172555E+03  0.17015242579E+03 -0.79953794721E+03  0.84841925167E+03  0.50400001928E-02 0.  1.
</event>
<event>
 5   0  0.7183014E-06  0.2303491E+04  0.7818609E-02  0.8476546E-01
        1   -1    0    0  501    0  0.00000000000E+00  0.00000000000E+00  0.12985386814E+04  0.12985386815E+04  0.50400001928E-02 0.  1.
       -1   -1    0    0    0  501  0.00000000000E+00  0.00000000000E+00 -0.10215463207E+04  0.10215463207E+04  0.50400001928E-02 0. -1.
    10030    2    1    2    0    0  0.00000000000E+00  0.00000000000E+00  0.27699236074E+03  0.23200850022E+04  0.23034907531E+04 0.  0.
        3    1    3    3  502    0  0.94870331150E+03  0.45843767141E+02 -0.51763962926E+03  0.10817071786E+04  0.10100000352E+00 0. -1.
       -3    1    3    3    0  502 -0.94870331150E+03 -0.45843767141E+02  0.79463199000E+03  0.12383778236E+04  0.10100000352E+00 0.  1.
</event>
<event>
 5   0  0.1626636E-05  0.2300219E+04  0.7818609E-02  0.8477835E-01
        2   -1    0    0  501    0  0.00000000000E+00  0.00000000000E+00  0.12443087164E+04  0.12443087164E+04  0.25500000920E-02 0. -1.
       -2   -1    0    0    0  501  0.00000000000E+00  0.00000000000E+00 -0.10630413872E+04  0.10630413872E+04  0.25500000920E-02 0.  1.
    10030    2    1    2    0    0  0.00000000000E+00  0.00000000000E+00  0.18126732920E+03  0.23073501036E+04  0.23002188279E+04 0.  0.
        4    1    3    3  502    0 -0.34173548678E+03  0.67707761618E+03 -0.77664661683E+03  0.10855407968E+04  0.12699999809E+01 0.  1.
       -4    1    3    3    0  502  0.34173548678E+03 -0.67707761618E+03  0.95791394604E+03  0.12218093068E+04  0.12699999809E+01 0. -1.
</event>
<event>
 5   0  0.1697855E-05  0.2295461E+04  0.7818609E-02  0.8479713E-01
        2   -1    0    0  501    0  0.00000000000E+00  0.00000000000E+00  0.16680018021E+04  0.16680018021E+04  0.25500000920E-02 0. -1.
       -2   -1    0    0    0  501  0.00000000000E+00  0.00000000000E+00 -0.78973855850E+03  0.78973855850E+03  0.25500000920E-02 0.  1.
    10030    2    1    2    0    0  0.00000000000E+00  0.00000000000E+00  0.87826324360E+03  0.24577403606E+04  0.22954610332E+04 0.  0.
        5    1    3    3  502    0 -0.16071695450E+03 -0.20490597469E+01  0.16558816433E+04  0.16636707140E+04  0.46999998093E+01 0. -1.
       -5    1    3    3    0  502  0.16071695450E+03  0.20490597469E+01 -0.77761839969E+03  0.79406964659E+03  0.46999998093E+01 0.  1.
</event>
<event>
 5   0  0.1588969E-05  0.2306177E+04  0.7818609E-02  0.8475490E-01
       -2   -1    0    0    0  501  0.00000000000E+00  0.00000000000E+00  0.66993658581E+03  0.66993658581E+03  0.25500000920E-02 0. -1.
        2   -1    0    0  501    0  0.00000000000E+00  0.00000000000E+00 -0.19846849253E+04  0.19846849253E+04  0.25500000920E-02 0.  1.
    10030    2    1    2    0    0  0.00000000000E+00  0.00000000000E+00 -0.13147483395E+04  0.26546215111E+04  0.23061769601E+04 0.  0.
        1    1    3    3  502    0 -0.76795185796E+03 -0.50141185826E+02  0.33105711633E+03  0.83777264753E+03  0.50400001928E-02 0. -1.
       -1    1    3    3    0  502  0.76795185796E+03  0.50141185826E+02 -0.16458054558E+04  0.18168488636E+04  0.50400001928E-02 0.  1.
</event>
<event>
 5   0  0.1697855E-05  0.2283266E+04  0.7818609E-02  0.8484548E-01
        2   -1    0    0  501    0  0.00000000000E+00  0.00000000000E+00  0.12414536381E+04  0.12414536381E+04  0.25500000920E-02 0.  1.
       -2   -1    0    0    0  501  0.00000000000E+00  0.00000000000E+00 -0.10498387980E+04  0.10498387980E+04  0.25500000920E-02 0. -1.
    10030    2    1    2    0    0  0.00000000000E+00  0.00000000000E+00  0.19161484014E+03  0.22912924362E+04  0.22832662528E+04 0.  0.
        5    1    3    3  502    0  0.44245583147E+03 -0.77916382572E+03 -0.61409762794E+03  0.10862787012E+04  0.46999998093E+01 0. -1.
       -5    1    3    3    0  502 -0.44245583147E+03  0.77916382572E+03  0.80571246808E+03  0.12050137349E+04  0.46999998093E+01 0.  1.
</event>
<event>
 5   0  0.1626636E-05  0.2306843E+04  0.7818609E-02  0.8475228E-01
       -2   -1    0    0    0  501  0.00000000000E+00  0.00000000000E+00  0.70978958171E+03  0.70978958172E+03  0.25500000920E-02 0. -1.
        2   -1    0    0  501    0  0.00000000000E+00  0.00000000000E+00 -0.18743324535E+04  0.18743324535E+04  0.25500000920E-02 0.  1.
    10030    2    1    2    0    0  0.00000000000E+00  0.00000000000E+00 -0.11645428718E+04  0.25841220352E+04  0.23068434261E+04 0.  0.
        4    1    3    3  502    0  0.92044593071E+03 -0.13325482077E+03  0.18193245763E+03  0.94767008534E+03  0.12699999809E+01 0.  1.
       -4    1    3    3    0  502 -0.92044593071E+03  0.13325482077E+03 -0.13464753294E+04  0.16364519499E+04  0.12699999809E+01 0. -1.
</event>
<event>
 5   0  0.7183014E-06  0.2295789E+04  0.7818609E-02  0.8479583E-01
        1   -1    0    0  501    0  0.00000000000E+00  0.00000000000E+00  0.12242540849E+04  0.12242540849E+04  0.50400001928E-02 0. -1.
       -1   -1    0    0    0  501  0.00000000000E+00  0.00000000000E+00 -0.10762975820E+04  0.10762975820E+04  0.50400001928E-02 0.  1.
    10030    2    1    2    0    0  0.00000000000E+00  0.00000000000E+00  0.14795650294E+03  0.23005516669E+04  0.22957889374E+04 0.  0.
        3    1    3    3  502    0  0.25003631143E+03  0.40149416743E+03 -0.97411028363E+03  0.10828696036E+04  0.10100000352E+00 0.  1.
       -3    1    3    3    0  502 -0.25003631143E+03 -0.40149416743E+03  0.11220667866E+04  0.12176820633E+04  0.10100000352E+00 0. -1.
</event>
<event>
 5   0  0.7183014E-06  0.2305729E+04  0.7818609E-02  0.8475666E-01
        1   -1    0    0  501    0  0.00000000000E+00  0.00000000000E+00  0.14089647365E+04  0.14089647365E+04  0.50400001928E-02 0.  1.
       -1   -1    0    0    0  501  0.00000000000E+00  0.00000000000E+00 -0.94331461139E+03  0.94331461141E+03  0.50400001928E-02 0. -1.
    10030    2    1    2    0    0  0.00000000000E+00  0.00000000000E+00  0.46565012513E+03  0.23522793479E+04  0.23057294056E+04 0.  0.
        3    1    3    3  502    0 -0.30662165390E+03  0.88061799155E+03 -0.45879382919E+03  0.10392288841E+04  0.10100000352E+00 0. -1.
       -3    1    3    3    0  502  0.30662165390E+03 -0.88061799155E+03  0.92444395433E+03  0.13130504638E+04  0.10100000352E+00 0.  1.
</event>
<event>
 5   0  0.1602809E-05  0.2296676E+04  0.7818609E-02  0.8479233E-01
        2   -1    0    0  501    0  0.00000000000E+00  0.00000000000E+00  0.14963874839E+04  0.14963874840E+04  0.25500000920E-02 0.  1.
       -2   -1    0    0    0  501  0.00000000000E+00  0.00000000000E+00 -0.88124222609E+03  0.88124222610E+03  0.25500000920E-02 0. -1.
    10030    2    1    2    0    0  0.00000000000E+00  0.00000000000E+00  0.61514525785E+03  0.23776297100E+04  0.22966757172E+04 0.  0.
        3    1    3    3  502    0  0.54057211318E+03  0.67001875444E+03  0.10943181035E+04  0.13923632653E+04  0.10100000352E+00 0.  1.
       -3    1    3    3    0  502 -0.54057211318E+03 -0.67001875444E+03 -0.47917284565E+03  0.98526644470E+03  0.10100000352E+00 0. -1.
</event>
<event>
 5   0  0.1626636E-05  0.2306801E+04  0.7818609E-02  0.8475244E-01
        2   -1    0    0  501    0  0.00000000000E+00  0.00000000000E+00  0.76922727204E+03  0.76922727205E+03  0.25500000920E-02 0. -1.
       -2   -1    0    0    0  501  0.00000000000E+00  0.00000000000E+00 -0.17294407871E+04  0.17294407871E+04  0.25500000920E-02 0.  1.
    10030    2    1    2    0    0  0.00000000000E+00  0.00000000000E+00 -0.96021351510E+03  0.24986680592E+04  0.23068012648E+04 0.  0.
        4    1    3    3  502    0 -0.38437981310E+02 -0.28374859985E+03  0.73011496075E+03  0.78425774789E+03  0.12699999809E+01 0. -1.
       -4    1    3    3    0  502  0.38437981310E+02  0.28374859985E+03 -0.16903284759E+04  0.17144103113E+04  0.12699999809E+01 0.  1.
</event>
<event>
 5   0  0.7202572E-06  0.2298667E+04  0.7818609E-02  0.8478447E-01
        1   -1    0    0  501    0  0.00000000000E+00  0.00000000000E+00  0.18472867779E+04  0.18472867779E+04  0.50400001928E-02 0.  1.
       -1   -1    0    0    0  501  0.00000000000E+00  0.00000000000E+00 -0.71508521517E+03  0.71508521519E+03  0.50400001928E-02 0. -1.
    10030    2    1    2    0    0  0.00000000000E+00  0.00000000000E+00  0.11322015628E+04  0.25623719931E+04  0.22986669729E+04 0.  0.
        2    1    3    3  502    0  0.10814547103E+04  0.73435783458E+02  0.99207929941E+03  0.14694075136E+04  0.25500000920E-02 0.  1.
       -2    1    3    3    0  502 -0.10814547103E+04 -0.73435783458E+02  0.14012226334E+03  0.10929644795E+04  0.25500000920E-02 0. -1.
</event>
<event>
 5   0  0.7391007E-06  0.2303473E+04  0.7818609E-02  0.8476553E-01
       -1   -1    0    0    0  501  0.00000000000E+00  0.00000000000E+00  0.15344844441E+04  0.15344844441E+04  0.50400001928E-02 0. -1.
        1   -1    0    0  501    0  0.00000000000E+00  0.00000000000E+00 -0.86445785714E+03  0.86445785716E+03  0.50400001928E-02 0.  1.
    10030    2    1    2    0    0  0.00000000000E+00  0.00000000000E+00  0.67002658691E+03  0.23989423012E+04  0.23034731467E+04 0.  0.
        1    1    3    3  502    0 -0.78472491567E+03  0.83573011094E+03  0.21970345995E+03  0.11672650179E+04  0.50400001928E-02 0.  1.
       -1    1    3    3    0  502  0.78472491567E+03 -0.83573011094E+03  0.45032312696E+03  0.12316772833E+04  0.50400001928E-02 0. -1.
</event>
<event>
 5   0  0.7202572E-06  0.2301927E+04  0.7818609E-02  0.8477162E-01
        1   -1    0    0  501    0  0.00000000000E+00  0.00000000000E+00  0.10319101195E+04  0.10319101195E+04  0.50400001928E-02 0.  1.
       -1   -1    0    0    0  501  0.00000000000E+00  0.00000000000E+00 -0.12837520296E+04  0.12837520296E+04  0.50400001928E-02 0. -1.
    10030    2    1    2    0    0  0.00000000000E+00  0.00000000000E+00 -0.25184191011E+03  0.23156621491E+04  0.23019267671E+04 0.  0.
        2    1    3    3  502    0  0.86794213447E+03 -0.61934149785E+03 -0.56187650097E+03  0.12052438102E+04  0.25500000920E-02 0. -1.
       -2    1    3    3    0  502 -0.86794213447E+03  0.61934149785E+03  0.31003459085E+03  0.11104183389E+04  0.25500000920E-02 0.  1.
</event>
<event>
 5   0  0.1626636E-05  0.2287684E+04  0.7818609E-02  0.8482793E-01
        2   -1    0    0  501    0  0.00000000000E+00  0.00000000000E+00  0.12662385117E+04  0.12662385117E+04  0.25500000920E-02 0. -1.
       -2   -1    0    0    0  501  0.00000000000E+00  0.00000000000E+00 -0.10332761418E+04  0.10332761418E+04  0.25500000920E-02 0.  1.
    10030    2    1    2    0    0  0.00000000000E+00  0.00000000000E+00  0.23296236985E+03  0.22995146535E+04  0.22876835830E+04 0.  0.
        4    1    3    3  502    0 -0.43645181575E+03  0.91154093026E+03  0.65495246249E+03  0.12043095101E+04  0.12699999809E+01 0. -1.
       -4    1    3    3    0  502  0.43645181575E+03 -0.91154093026E+03 -0.42199009264E+03  0.10952051434E+04  0.12699999809E+01 0.  1.
</event>
<event>
 5   0  0.1626636E-05  0.2296380E+04  0.7818609E-02  0.8479350E-01
        2   -1    0    0  501    0  0.00000000000E+00  0.00000000000E+00  0.19031172792E+04  0.19031172792E+04  0.25500000920E-02 0. -1.
       -2   -1    0    0    0  501  0.00000000000E+00  0.00000000000E+00 -0.69272699720E+03  0.69272699721E+03  0.25500000920E-02 0.  1.
    10030    2    1    2    0    0  0.00000000000E+00  0.00000000000E+00  0.12103902820E+04  0.25958442764E+04  0.22963803850E+04 0.  0.
        4    1    3    3  502    0 -0.23098215303E+03  0.17200212961E+02 -0.66604306224E+03  0.70516918254E+03  0.12699999809E+01 0.  1.
       -4    1    3    3    0  502  0.23098215303E+03 -0.17200212961E+02  0.18764333442E+04  0.18906750939E+04  0.12699999809E+01 0. -1.
</event>
<event>
 5   0  0.1697855E-05  0.2308670E+04  0.7818609E-02  0.8474511E-01
        2   -1    0    0  501    0  0.00000000000E+00  0.00000000000E+00  0.11720251577E+04  0.11720251577E+04  0.25500000920E-02 0.  1.
       -2   -1    0    0    0  501  0.00000000000E+00  0.00000000000E+00 -0.11369116958E+04  0.11369116958E+04  0.25500000920E-02 0. -1.
    10030    2    1    2    0    0  0.00000000000E+00  0.00000000000E+00  0.35113461872E+02  0.23089368535E+04  0.23086698417E+04 0.  0.
        5    1    3    3  502    0  0.10299402582E+03 -0.19233164981E+03 -0.11160944541E+04  0.11372282767E+04  0.46999998093E+01 0. -1.
       -5    1    3    3    0  502 -0.10299402582E+03  0.19233164981E+03  0.11512079160E+04  0.11717085767E+04  0.46999998093E+01 0.  1.
</event>
<event>
 5   0  0.7183014E-06  0.2297692E+04  0.7818609E-02  0.8478832E-01
       -1   -1    0    0    0  501  0.00000000000E+00  0.00000000000E+00  0.90804641475E+03  0.90804641476E+03  0.50400001928E-02 0. -1.
        1   -1    0    0  501    0  0.00000000000E+00  0.00000000000E+00 -0.14535020628E+04  0.14535020628E+04  0.50400001928E-02 0.  1.
    10030    2    1    2    0    0  0.00000000000E+00  0.00000000000E+00 -0.54545564808E+03  0.23615484776E+04  0.22976921787E+04 0.  0.
        3    1    3    3  502    0  0.18430500345E+03  0.57324026896E+03  0.73286758977E+03  0.94850812046E+03  0.10100000352E+00 0. -1.
       -3    1    3    3    0  502 -0.18430500345E+03 -0.57324026896E+03 -0.12783232378E+04  0.14130403571E+04  0.10100000352E+00 0.  1.
</event>
<event>
 5   0  0.7202572E-06  0.2296428E+04  0.7818609E-02  0.8479331E-01
       -1   -1    0    0    0  501  0.00000000000E+00  0.00000000000E+00  0.83089478868E+03  0.83089478869E+03  0.50400001928E-02 0. -1.
        1   -1    0    0  501    0  0.00000000000E+00  0.00000000000E+00 -0.15867174802E+04  0.15867174802E+04  0.50400001928E-02 0.  1.
    10030    2    1    2    0    0  0.00000000000E+00  0.00000000000E+00 -0.75582269156E+03  0.24176122689E+04  0.22964279091E+04 0.  0.
        2    1    3    3  502    0 -0.96442310587E+03  0.73372811403E+02  0.27353161865E+03  0.10051442896E+04  0.25500000920E-02 0. -1.
       -2    1    3    3    0  502  0.96442310587E+03 -0.73372811403E+02 -0.10293543102E+04  0.14124679793E+04  0.25500000920E-02 0.  1.
</event>
<event>
 5   0  0.1588969E-05  0.2274661E+04  0.7818609E-02  0.8487980E-01
        2   -1    0    0  501    0  0.00000000000E+00  0.00000000000E+00  0.12523543713E+04  0.12523543713E+04  0.25500000920E-02 0.  1.
       -2   -1    0    0    0  501  0.00000000000E+00  0.00000000000E+00 -0.10328709250E+04  0.10328709250E+04  0.25500000920E-02 0. -1.
    10030    2    1    2    0    0  0.00000000000E+00  0.00000000000E+00  0.21948344625E+03  0.22852252963E+04  0.22746607816E+04 0.  0.
        1    1    3    3  502    0  0.13614346635E+03  0.57232685595E+03  0.10876212203E+04  0.12365326491E+04  0.50400001928E-02 0.  1.
       -1    1    3    3    0  502 -0.13614346635E+03 -0.57232685595E+03 -0.86813777404E+03  0.10486926472E+04  0.50400001928E-02 0. -1.
</event>
<event>
 5   0  0.7416556E-06  0.2296794E+04  0.7818609E-02  0.8479186E-01
       -1   -1    0    0    0  501  0.00000000000E+00  0.00000000000E+00  0.92193323889E+03  0.92193323890E+03  0.50400001928E-02 0.  1.
        1   -1    0    0  501    0  0.00000000000E+00  0.00000000000E+00 -0.14304888782E+04  0.14304888782E+04  0.50400001928E-02 0. -1.
    10030    2    1    2    0    0  0.00000000000E+00  0.00000000000E+00 -0.50855563932E+03  0.23524221171E+04  0.22967936300E+04 0.  0.
        4    1    3    3  502    0 -0.35275908426E+03  0.78206063622E+03  0.52759585209E+03  0.10071826082E+04  0.12699999809E+01 0.  1.
       -4    1    3    3    0  502  0.35275908426E+03 -0.78206063622E+03 -0.10361514914E+04  0.13452395089E+04  0.12699999809E+01 0. -1.
</event>
<event>
 5   0  0.1626636E-05  0.2256153E+04  0.7818609E-02  0.8495413E-01
        2   -1    0    0  501    0  0.00000000000E+00  0.00000000000E+00  0.16299760797E+04  0.16299760797E+04  0.25500000920E-02 0. -1.
       -2   -1    0    0    0  501  0.00000000000E+00  0.00000000000E+00 -0.78072098986E+03  0.78072098986E+03  0.25500000920E-02 0.  1.
    10030    2    1    2    0    0  0.00000000000E+00  0.00000000000E+00  0.84925508980E+03  0.24106970695E+04  0.22561529544E+04 0.  0.
        4    1    3    3  502    0  0.38620108320E+03 -0.60104326476E+03 -0.50818528564E+03  0.87673153257E+03  0.12699999809E+01 0.  1.
       -4    1    3    3    0  502 -0.38620108320E+03  0.60104326476E+03  0.13574403754E+04  0.15339655369E+04  0.12699999809E+01 0. -1.
</event>
<event>
 5   0  0.1635955E-05  0.2284500E+04  0.7818609E-02  0.8484058E-01
       -2   -1    0    0    0  501  0.00000000000E+00  0.00000000000E+00  0.21629502789E+04  0.21629502789E+04  0.25500000920E-02 0. -1.
        2   -1    0    0  501    0  0.00000000000E+00  0.00000000000E+00 -0.60322018266E+03  0.60322018267E+03  0.25500000920E-02 0.  1.
    10030    2    1    2    0    0  0.00000000000E+00  0.00000000000E+00  0.15597300963E+04  0.27661704616E+04  0.22845001750E+04 0.  0.
        2    1    3    3  502    0  0.25394740958E+03 -0.81964278722E+03 -0.13304267175E+03  0.86833400140E+03  0.25500000920E-02 0.  1.
       -2    1    3    3    0  502 -0.25394740958E+03  0.81964278722E+03  0.16927727680E+04  0.18978364602E+04  0.25500000920E-02 0. -1.
</event>
<event>
 5   0  0.7416556E-06  0.2301887E+04  0.7818609E-02  0.8477177E-01
       -1   -1    0    0    0  501  0.00000000000E+00  0.00000000000E+00  0.97912323676E+03  0.97912323677E+03  0.50400001928E-02 0. -1.
        1   -1    0    0  501    0  0.00000000000E+00  0.00000000000E+00 -0.13529159869E+04  0.13529159869E+04  0.50400001928E-02 0.  1.
    10030    2    1    2    0    0  0.00000000000E+00  0.00000000000E+00 -0.37379275011E+03  0.23320392236E+04  0.23018874691E+04 0.  0.
        4    1    3    3  502    0  0.35026426143E+03  0.24130112566E+03 -0.12703714993E+04  0.13396852785E+04  0.12699999809E+01 0.  1.
       -4    1    3    3    0  502 -0.35026426143E+03 -0.24130112566E+03  0.89657874923E+03  0.99235394519E+03  0.12699999809E+01 0. -1.
</event>
<event>
 5   0  0.1626636E-05  0.2291128E+04  0.7818609E-02  0.8481427E-01
        2   -1    0    0  501    0  0.00000000000E+00  0.00000000000E+00  0.18038910650E+04  0.18038910650E+04  0.25500000920E-02 0.  1.
       -2   -1    0    0    0  501  0.00000000000E+00  0.00000000000E+00 -0.72749233543E+03  0.72749233544E+03  0.25500000920E-02 0. -1.
    10030    2    1    2    0    0  0.00000000000E+00  0.00000000000E+00  0.10763987296E+04  0.25313834004E+04  0.22911280399E+04 0.  0.
        4    1    3    3  502    0 -0.43750910437E+03  0.43307471500E+03  0.16056068036E+04  0.17195763275E+04  0.12699999809E+01 0.  1.
       -4    1    3    3    0  502  0.43750910437E+03 -0.43307471500E+03 -0.52920807407E+03  0.81180707298E+03  0.12699999809E+01 0. -1.
</event>
<event>
 5   0  0.7183014E-06  0.2308253E+04  0.7818609E-02  0.8474674E-01
        1   -1    0    0  501    0  0.00000000000E+00  0.00000000000E+00  0.23412986498E+04  0.23412986498E+04  0.50400001928E-02 0.  1.
       -1   -1    0    0    0  501  0.00000000000E+00  0.00000000000E+00 -0.56891834424E+03  0.56891834426E+03  0.50400001928E-02 0. -1.
    10030    2    1    2    0    0  0.00000000000E+00  0.00000000000E+00  0.17723803055E+04  0.29102169940E+04  0.23082528035E+04 0.  0.
        3    1    3    3  502    0 -0.23159003494E+03  0.98023877257E+03  0.15966144315E+04  0.18877710795E+04  0.10100000352E+00 0.  1.
       -3    1    3    3    0  502  0.23159003494E+03 -0.98023877257E+03  0.17576587407E+03  0.10224459146E+04  0.10100000352E+00 0. -1.
</event>
<event>
 5   0  0.1697855E-05  0.2298777E+04  0.7818609E-02  0.8478403E-01
       -2   -1    0    0    0  501  0.00000000000E+00  0.00000000000E+00  0.12036790328E+04  0.12036790328E+04  0.25500000920E-02 0.  1.
        2   -1    0    0  501    0  0.00000000000E+00  0.00000000000E+00 -0.10975467020E+04  0.10975467020E+04  0.25500000920E-02 0. -1.
    10030    2    1    2    0    0  0.00000000000E+00  0.00000000000E+00  0.10613233077E+03  0.23012257347E+04  0.22987770250E+04 0.  0.
        5    1    3    3  502    0  0.40190205961E+02 -0.98716418476E+03  0.64102772849E+03  0.11777296035E+04  0.46999998093E+01 0.  1.
       -5    1    3    3    0  502 -0.40190205961E+02  0.98716418476E+03 -0.53489539772E+03  0.11234961312E+04  0.46999998093E+01 0. -1.
</event>
<event>
 5   0  0.1697855E-05  0.2290804E+04  0.7818609E-02  0.8481556E-01
        2   -1    0    0  501    0  0.00000000000E+00  0.00000000000E+00  0.94215997659E+03  0.94215997659E+03  0.25500000920E-02 0. -1.
       -2   -1    0    0    0  501  0.00000000000E+00  0.00000000000E+00 -0.13924866760E+04  0.13924866760E+04  0.25500000920E-02 0.  1.
    10030    2    1    2    0    0  0.00000000000E+00  0.00000000000E+00 -0.45032669941E+03  0.23346466526E+04  0.22908035394E+04 0.  0.
        5    1    3    3  502    0  0.95626082191E+03 -0.55156308634E+03 -0.53640392917E+03  0.12273580826E+04  0.46999998093E+01 0.  1.
       -5    1    3    3    0  502 -0.95626082191E+03  0.55156308634E+03  0.86077229766E+02  0.11072885700E+04  0.46999998093E+01 0. -1.
</event>
<event>
 5   0  0.1588969E-05  0.2321070E+04  0.7818609E-02  0.8469660E-01
        2   -1    0    0  501    0  0.00000000000E+00  0.00000000000E+00  0.17093907080E+04  0.17093907080E+04  0.25500000920E-02 0. -1.
       -2   -1    0    0    0  501  0.00000000000E+00  0.00000000000E+00 -0.78790701020E+03  0.78790701021E+03  0.25500000920E-02 0.  1.
    10030    2    1    2    0    0  0.00000000000E+00  0.00000000000E+00  0.92148369776E+03  0.24972977182E+04  0.23210695138E+04 0.  0.
        1    1    3    3  502    0  0.63486675429E+03  0.60115631260E+03  0.12818331376E+04  0.15516252449E+04  0.50400001928E-02 0. -1.
       -1    1    3    3    0  502 -0.63486675429E+03 -0.60115631260E+03 -0.36034943987E+03  0.94567247328E+03  0.50400001928E-02 0.  1.
</event>
<event>
 5   0  0.7202572E-06  0.2299872E+04  0.7818609E-02  0.8477971E-01
        1   -1    0    0  501    0  0.00000000000E+00  0.00000000000E+00  0.17763736859E+04  0.17763736859E+04  0.50400001928E-02 0.  1.
       -1   -1    0    0    0  501  0.00000000000E+00  0.00000000000E+00 -0.74441167710E+03  0.74441167711E+03  0.50400001928E-02 0. -1.
    10030    2    1    2    0    0  0.00000000000E+00  0.00000000000E+00  0.10319620088E+04  0.25207853630E+04  0.22998724440E+04 0.  0.
        2    1    3    3  502    0  0.62237330398E+03 -0.93101063306E+03  0.22969463936E+03  0.11431924404E+04  0.25500000920E-02 0.  1.
       -2    1    3    3    0  502 -0.62237330398E+03  0.93101063306E+03  0.80226736940E+03  0.13775929226E+04  0.25500000920E-02 0. -1.
</event>
<event>
 5   0  0.7183014E-06  0.2317115E+04  0.7818609E-02  0.8471203E-01
        1   -1    0    0  501    0  0.00000000000E+00  0.00000000000E+00  0.20124543700E+04  0.20124543700E+04  0.50400001928E-02 0.  1.
       -1   -1    0    0    0  501  0.00000000000E+00  0.00000000000E+00 -0.66697445290E+03  0.66697445292E+03  0.50400001928E-02 0. -1.
    10030    2    1    2    0    0  0.00000000000E+00  0.00000000000E+00  0.13454799171E+04  0.26794288229E+04  0.23171151481E+04 0.  0.
        3    1    3    3  502    0  0.43947436002E+03 -0.92066333599E+02 -0.56226651598E+03  0.71955372842E+03  0.10100000352E+00 0. -1.
       -3    1    3    3    0  502 -0.43947436002E+03  0.92066333599E+02  0.19077464330E+04  0.19598750945E+04  0.10100000352E+00 0.  1.
</event>
<event>
 5   0  0.7183014E-06  0.2291996E+04  0.7818609E-02  0.8481084E-01
       -1   -1    0    0    0  501  0.00000000000E+00  0.00000000000E+00  0.15719777975E+04  0.15719777975E+04  0.50400001928E-02 0. -1.
        1   -1    0    0  501    0  0.00000000000E+00  0.00000000000E+00 -0.83545143910E+03  0.83545143911E+03  0.50400001928E-02 0.  1.
    10030    2    1    2    0    0  0.00000000000E+00  0.00000000000E+00  0.73652635841E+03  0.24074292366E+04  0.22919957358E+04 0.  0.
        3    1    3    3  502    0 -0.45089072740E+03  0.61657115847E+03 -0.52907497301E+03  0.92918393161E+03  0.10100000352E+00 0.  1.
       -3    1    3    3    0  502  0.45089072740E+03 -0.61657115847E+03  0.12656013314E+04  0.14782453050E+04  0.10100000352E+00 0. -1.
</event>
<event>
 5   0  0.1626636E-05  0.2297869E+04  0.7818609E-02  0.8478762E-01
        2   -1    0    0  501    0  0.00000000000E+00  0.00000000000E+00  0.18798987573E+04  0.18798987573E+04  0.25500000920E-02 0.  1.
       -2   -1    0    0    0  501  0.00000000000E+00  0.00000000000E+00 -0.70219235757E+03  0.70219235757E+03  0.25500000920E-02 0. -1.
    10030    2    1    2    0    0  0.00000000000E+00  0.00000000000E+00  0.11777063997E+04  0.25820911148E+04  0.22978690479E+04 0.  0.
        4    1    3    3  502    0  0.46897084489E+03 -0.60358382401E+03 -0.37503513230E+03  0.85141062322E+03  0.12699999809E+01 0. -1.
       -4    1    3    3    0  502 -0.46897084489E+03  0.60358382401E+03  0.15527415320E+04  0.17306804916E+04  0.12699999809E+01 0.  1.
</event>
<event>
 5   0  0.7278815E-06  0.2290718E+04  0.7818609E-02  0.8481590E-01
        1   -1    0    0  501    0  0.00000000000E+00  0.00000000000E+00  0.17916690440E+04  0.17916690441E+04  0.50400001928E-02 0. -1.
       -1   -1    0    0    0  501  0.00000000000E+00  0.00000000000E+00 -0.73219270742E+03  0.73219270744E+03  0.50400001928E-02 0.  1.
    10030    2    1    2    0    0  0.00000000000E+00  0.00000000000E+00  0.10594763366E+04  0.25238617515E+04  0.22907177986E+04 0.  0.
        5    1    3    3  502    0 -0.36369355427E+03 -0.10493575566E+04  0.22123916705E+03  0.11324279854E+04  0.46999998093E+01 0.  1.
       -5    1    3    3    0  502  0.36369355427E+03  0.10493575566E+04  0.83823716958E+03  0.13914337661E+04  0.46999998093E+01 0. -1.
</event>
<event>
 5   0  0.7416556E-06  0.2298581E+04  0.7818609E-02  0.8478481E-01
       -1   -1    0    0    0  501  0.00000000000E+00  0.00000000000E+00  0.66203850763E+03  0.66203850765E+03  0.50400001928E-02 0. -1.
        1   -1    0    0  501    0  0.00000000000E+00  0.00000000000E+00 -0.19951531017E+04  0.19951531018E+04  0.50400001928E-02 0.  1.
    10030    2    1    2    0    0  0.00000000000E+00  0.00000000000E+00 -0.13331145941E+04  0.26571916094E+04  0.22985805898E+04 0.  0.
        4    1    3    3  502    0 -0.74990547359E+03 -0.46737562281E+03  0.18298990053E+03  0.90237747574E+03  0.12699999809E+01 0. -1.
       -4    1    3    3    0  502  0.74990547359E+03  0.46737562281E+03 -0.15161044946E+04  0.17548141337E+04  0.12699999809E+01 0.  1.
</event>
<event>
 5   0  0.7202572E-06  0.2302803E+04  0.7818609E-02  0.8476817E-01
        1   -1    0    0  501    0  0.00000000000E+00  0.00000000000E+00  0.13012014909E+04  0.13012014910E+04  0.50400001928E-02 0.  1.
       -1   -1    0    0    0  501  0.00000000000E+00  0.00000000000E+00 -0.10188472419E+04  0.10188472419E+04  0.50400001928E-02 0. -1.
    10030    2    1    2    0    0  0.00000000000E+00  0.00000000000E+00  0.28235424909E+03  0.23200487328E+04  0.23028031181E+04 0.  0.
        2    1    3    3  502    0 -0.16940182172E+03 -0.87820638278E+03  0.87171578853E+03  0.12489322816E+04  0.25500000920E-02 0.  1.
       -2    1    3    3    0  502  0.16940182172E+03  0.87820638278E+03 -0.58936153944E+03  0.10711164513E+04  0.25500000920E-02 0. -1.
</event>
<event>
 5   0  0.1602809E-05  0.2305797E+04  0.7818609E-02  0.8475639E-01
       -2   -1    0    0    0  501  0.00000000000E+00  0.00000000000E+00  0.86669967313E+03  0.86669967314E+03  0.25500000920E-02 0.  1.
        2   -1    0    0  501    0  0.00000000000E+00  0.00000000000E+00 -0.15336055182E+04  0.15336055182E+04  0.25500000920E-02 0. -1.
    10030    2    1    2    0    0  0.00000000000E+00  0.00000000000E+00 -0.66690584505E+03  0.24003051913E+04  0.23057973903E+04 0.  0.
        3    1    3    3  502    0 -0.50758723647E+03  0.73750918368E+03  0.42268697900E+03  0.99006509436E+03  0.10100000352E+00 0.  1.
       -3    1    3    3    0  502  0.50758723647E+03 -0.73750918368E+03 -0.10895928241E+04  0.14102400970E+04  0.10100000352E+00 0. -1.
</event>
<event>
 5   0  0.1626636E-05  0.2293118E+04  0.7818609E-02  0.8480640E-01
       -2   -1    0    0    0  501  0.00000000000E+00  0.00000000000E+00  0.97052841588E+03  0.97052841588E+03  0.25500000920E-02 0.  1.
        2   -1    0    0  501    0  0.00000000000E+00  0.00000000000E+00 -0.13545171465E+04  0.13545171465E+04  0.25500000920E-02 0. -1.
    10030    2    1    2    0    0  0.00000000000E+00  0.00000000000E+00 -0.38398873064E+03  0.23250455624E+04  0.22931178605E+04 0.  0.
        4    1    3    3  502    0 -0.66161590235E+02 -0.10293746845E+04  0.31558150849E+03  0.10786949979E+04  0.12699999809E+01 0.  1.
       -4    1    3    3    0  502  0.66161590235E+02  0.10293746845E+04 -0.69957023913E+03  0.12463505645E+04  0.12699999809E+01 0. -1.
</event>
<event>
 5   0  0.1588969E-05  0.2296602E+04  0.7818609E-02  0.8479262E-01
        2   -1    0    0  501    0  0.00000000000E+00  0.00000000000E+00  0.21463163906E+04  0.21463163906E+04  0.25500000920E-02 0.  1.
       -2   -1    0    0    0  501  0.00000000000E+00  0.00000000000E+00 -0.61435284484E+03  0.61435284485E+03  0.25500000920E-02 0. -1.
    10030    2    1    2    0    0  0.00000000000E+00  0.00000000000E+00  0.15319635458E+04  0.27606692355E+04  0.22966023431E+04 0.  0.
        1    1    3    3  502    0  0.45918889415E+03  0.10277274680E+04  0.49314336630E+03  0.12289298470E+04  0.50400001928E-02 0.  1.
       -1    1    3    3    0  502 -0.45918889415E+03 -0.10277274680E+04  0.10388201795E+04  0.15317393885E+04  0.50400001928E-02 0. -1.
</event>
<event>
 5   0  0.1602809E-05  0.2298320E+04  0.7818609E-02  0.8478584E-01
        2   -1    0    0  501    0  0.00000000000E+00  0.00000000000E+00  0.14529009041E+04  0.14529009041E+04  0.25500000920E-02 0.  1.
       -2   -1    0    0    0  501  0.00000000000E+00  0.00000000000E+00 -0.90891824371E+03  0.90891824371E+03  0.25500000920E-02 0. -1.
    10030    2    1    2    0    0  0.00000000000E+00  0.00000000000E+00  0.54398266041E+03  0.23618191478E+04  0.22983195061E+04 0.  0.
        3    1    3    3  502    0  0.24263895743E+03 -0.10826232237E+04 -0.35648204425E+02  0.11100529325E+04  0.10100000352E+00 0. -1.
       -3    1    3    3    0  502 -0.24263895743E+03  0.10826232237E+04  0.57963086483E+03  0.12517662154E+04  0.10100000352E+00 0.  1.
</event>
<event>
 5   0  0.7278815E-06  0.2298448E+04  0.7818609E-02  0.8478533E-01
        1   -1    0    0  501    0  0.00000000000E+00  0.00000000000E+00  0.10721776668E+04  0.10721776669E+04  0.50400001928E-02 0. -1.
       -1   -1    0    0    0  501  0.00000000000E+00  0.00000000000E+00 -0.12318071766E+04  0.12318071766E+04  0.50400001928E-02 0.  1.
    10030    2    1    2    0    0  0.00000000000E+00  0.00000000000E+00 -0.15962950974E+03  0.23039848434E+04  0.22984482980E+04 0.  0.
        5    1    3    3  502    0  0.20639099568E+03  0.28125942949E+03  0.10178068561E+04  0.10759446994E+04  0.46999998093E+01 0. -1.
       -5    1    3    3    0  502 -0.20639099568E+03 -0.28125942949E+03 -0.11774363659E+04  0.12280401441E+04  0.46999998093E+01 0.  1.
</event>
<event>
 5   0  0.7416556E-06  0.2297626E+04  0.7818609E-02  0.8478858E-01
        1   -1    0    0  501    0  0.00000000000E+00  0.00000000000E+00  0.10621110565E+04  0.10621110565E+04  0.50400001928E-02 0.  1.
       -1   -1    0    0    0  501  0.00000000000E+00  0.00000000000E+00 -0.12425926469E+04  0.12425926469E+04  0.50400001928E-02 0. -1.
    10030    2    1    2    0    0  0.00000000000E+00  0.00000000000E+00 -0.18048159044E+03  0.23047037035E+04  0.22976260697E+04 0.  0.
        4    1    3    3  502    0  0.93674229472E+03  0.75886591393E+02 -0.75297631510E+03  0.12042507403E+04  0.12699999809E+01 0. -1.
       -4    1    3    3    0  502 -0.93674229472E+03 -0.75886591393E+02  0.57249472466E+03  0.11004529632E+04  0.12699999809E+01 0.  1.
</event>
<event>
 5   0  0.7278815E-06  0.2306038E+04  0.7818609E-02  0.8475544E-01
        1   -1    0    0  501    0  0.00000000000E+00  0.00000000000E+00  0.11944829596E+04  0.11944829596E+04  0.50400001928E-02 0. -1.
       -1   -1    0    0    0  501  0.00000000000E+00  0.00000000000E+00 -0.11129948298E+04  0.11129948298E+04  0.50400001928E-02 0.  1.
    10030    2    1    2    0    0  0.00000000000E+00  0.00000000000E+00  0.81488129761E+02  0.23074777894E+04  0.23060384717E+04 0.  0.
        5    1    3    3  502    0 -0.74785044502E+03  0.39809035102E+03 -0.74184065694E+03  0.11261020673E+04  0.46999998093E+01 0. -1.
       -5    1    3    3    0  502  0.74785044502E+03 -0.39809035102E+03  0.82332878670E+03  0.11813757221E+04  0.46999998093E+01 0.  1.
</event>
<event>
 5   0  0.7391007E-06  0.2299908E+04  0.7818609E-02  0.8477957E-01
        1   -1    0    0  501    0  0.00000000000E+00  0.00000000000E+00  0.13883233825E+04  0.13883233825E+04  0.50400001928E-02 0.  1.
       -1   -1    0    0    0  501  0.00000000000E+00  0.00000000000E+00 -0.95251152114E+03  0.95251152115E+03  0.50400001928E-02 0. -1.
    10030    2    1    2    0    0  0.00000000000E+00  0.00000000000E+00  0.43581186134E+03  0.23408349036E+04  0.22999078389E+04 0.  0.
        1    1    3    3  502    0  0.21433311690E+01 -0.29993383312E+03  0.13478093592E+04  0.13807805644E+04  0.50400001928E-02 0.  1.
       -1    1    3    3    0  502 -0.21433311690E+01  0.29993383312E+03 -0.91199749789E+03  0.96005433925E+03  0.50400001928E-02 0. -1.
</event>
<event>
 5   0  0.1626636E-05  0.2359341E+04  0.7818609E-02  0.8454884E-01
        2   -1    0    0  501    0  0.00000000000E+00  0.00000000000E+00  0.20920186988E+04  0.20920186988E+04  0.25500000920E-02 0.  1.
       -2   -1    0    0    0  501  0.00000000000E+00  0.00000000000E+00 -0.66520579916E+03  0.66520579916E+03  0.25500000920E-02 0. -1.
    10030    2    1    2    0    0  0.00000000000E+00  0.00000000000E+00  0.14268128996E+04  0.27572244979E+04  0.23593414084E+04 0.  0.
        4    1    3    3  502    0 -0.22785096634E+03  0.10501756519E+04  0.12821356926E+04  0.16729191582E+04  0.12699999809E+01 0.  1.
       -4    1    3    3    0  502  0.22785096634E+03 -0.10501756519E+04  0.14467720697E+03  0.10843053397E+04  0.12699999809E+01 0. -1.
</event>
<event>
 5   0  0.1588969E-05  0.2293781E+04  0.7818609E-02  0.8480377E-01
        2   -1    0    0  501    0  0.00000000000E+00  0.00000000000E+00  0.10032570323E+04  0.10032570323E+04  0.25500000920E-02 0.  1.
       -2   -1    0    0    0  501  0.00000000000E+00  0.00000000000E+00 -0.13110872108E+04  0.13110872108E+04  0.25500000920E-02 0. -1.
    10030    2    1    2    0    0  0.00000000000E+00  0.00000000000E+00 -0.30783017856E+03  0.23143442431E+04  0.22937806907E+04 0.  0.
        1    1    3    3  502    0 -0.39743111260E+03 -0.92411782139E+03  0.40185171691E+03  0.10832497586E+04  0.50400001928E-02 0.  1.
       -1    1    3    3    0  502  0.39743111260E+03  0.92411782139E+03 -0.70968189547E+03  0.12310944845E+04  0.50400001928E-02 0. -1.
</event>
<event>
 5   0  0.1635955E-05  0.2295744E+04  0.7818609E-02  0.8479601E-01
       -2   -1    0    0    0  501  0.00000000000E+00  0.00000000000E+00  0.54084448959E+03  0.54084448960E+03  0.25500000920E-02 0. -1.
        2   -1    0    0  501    0  0.00000000000E+00  0.00000000000E+00 -0.24362092174E+04  0.24362092174E+04  0.25500000920E-02 0.  1.
    10030    2    1    2    0    0  0.00000000000E+00  0.00000000000E+00 -0.18953647278E+04  0.29770537070E+04  0.22957441763E+04 0.  0.
        2    1    3    3  502    0 -0.11034483497E+04  0.79230410740E+02 -0.55066164439E+03  0.12357604804E+04  0.25500000920E-02 0. -1.
       -2    1    3    3    0  502  0.11034483497E+04 -0.79230410740E+02 -0.13447030834E+04  0.17412932266E+04  0.25500000920E-02 0.  1.
</event>
<event>
 5   0  0.7183014E-06  0.2293067E+04  0.7818609E-02  0.8480660E-01
       -1   -1    0    0    0  501  0.00000000000E+00  0.00000000000E+00  0.74986665860E+03  0.74986665862E+03  0.50400001928E-02 0. -1.
        1   -1    0    0  501    0  0.00000000000E+00  0.00000000000E+00 -0.17530311727E+04  0.17530311727E+04  0.50400001928E-02 0.  1.
    10030    2    1    2    0    0  0.00000000000E+00  0.00000000000E+00 -0.10031645141E+04  0.25028978313E+04  0.22930674895E+04 0.  0.
        3    1    3    3  502    0  0.26714534096E+03  0.90606694994E+02  0.71139687766E+03  0.76528539390E+03  0.10100000352E+00 0. -1.
       -3    1    3    3    0  502 -0.26714534096E+03 -0.90606694994E+02 -0.17145613917E+04  0.17376124374E+04  0.10100000352E+00 0.  1.
</event>
<event>
 5   0  0.1602809E-05  0.2302522E+04  0.7818609E-02  0.8476927E-01
       -2   -1    0    0    0  501  0.00000000000E+00  0.00000000000E+00  0.53839978179E+03  0.53839978180E+03  0.25500000920E-02 0. -1.
        2   -1    0    0  501    0  0.00000000000E+00  0.00000000000E+00 -0.24617424928E+04  0.24617424928E+04  0.25500000920E-02 0.  1.
    10030    2    1    2    0    0  0.00000000000E+00  0.00000000000E+00 -0.19233427110E+04  0.30001422746E+04  0.23025217662E+04 0.  0.
        3    1    3    3  502    0  0.88047120846E+02 -0.89721253832E+03 -0.28734201208E+02  0.90198020983E+03  0.10100000352E+00 0. -1.
       -3    1    3    3    0  502 -0.88047120846E+02  0.89721253832E+03 -0.18946085098E+04  0.20981620647E+04  0.10100000352E+00 0.  1.
</event>
<event>
 5   0  0.1697855E-05  0.2297000E+04  0.7818609E-02  0.8479105E-01
       -2   -1    0    0    0  501  0.00000000000E+00  0.00000000000E+00  0.64724423781E+03  0.64724423781E+03  0.25500000920E-02 0. -1.
        2   -1    0    0  501    0  0.00000000000E+00  0.00000000000E+00 -0.20379513974E+04  0.20379513974E+04  0.25500000920E-02 0.  1.
    10030    2    1    2    0    0  0.00000000000E+00  0.00000000000E+00 -0.13907071596E+04  0.26851956352E+04  0.22970000426E+04 0.  0.
        5    1    3    3  502    0 -0.82689610815E+03 -0.31455735344E+03  0.16075656027E+03  0.89920423928E+03  0.46999998093E+01 0. -1.
       -5    1    3    3    0  502  0.82689610815E+03  0.31455735344E+03 -0.15514637198E+04  0.17859913959E+04  0.46999998093E+01 0.  1.
</event>
<event>
 5   0  0.1588969E-05  0.2300389E+04  0.7818609E-02  0.8477768E-01
       -2   -1    0    0    0  501  0.00000000000E+00  0.00000000000E+00  0.12442256185E+04  0.12442256185E+04  0.25500000920E-02 0. -1.
        2   -1    0    0  501    0  0.00000000000E+00  0.00000000000E+00 -0.10632694957E+04  0.10632694957E+04  0.25500000920E-02 0.  1.
    10030    2    1    2    0    0  0.00000000000E+00  0.00000000000E+00  0.18095612286E+03  0.23074951142E+04  0.23003887897E+04 0.  0.
        1    1    3    3  502    0  0.10839314519E+04  0.10425754072E+03  0.46198703199E+03  0.11828816699E+04  0.50400001928E-02 0.  1.
       -1    1    3    3    0  502 -0.10839314519E+04 -0.10425754072E+03 -0.28103090913E+03  0.11246134443E+04  0.50400001928E-02 0. -1.
</event>
<event>
 5   0  0.7183014E-06  0.2297140E+04  0.7818609E-02  0.8479050E-01
       -1   -1    0    0    0  501  0.00000000000E+00  0.00000000000E+00  0.77206070403E+03  0.77206070405E+03  0.50400001928E-02 0.  1.
        1   -1    0    0  501    0  0.00000000000E+00  0.00000000000E+00 -0.17086908991E+04  0.17086908992E+04  0.50400001928E-02 0. -1.
    10030    2    1    2    0    0  0.00000000000E+00  0.00000000000E+00 -0.93663019512E+03  0.24807516032E+04  0.22971400468E+04 0.  0.
        3    1    3    3  502    0  0.57143263113E+02 -0.27524439369E+02 -0.17067981840E+04  0.17079762875E+04  0.10100000352E+00 0. -1.
       -3    1    3    3    0  502 -0.57143263113E+02  0.27524439369E+02  0.77016798892E+03  0.77277531575E+03  0.10100000352E+00 0.  1.
</event>
<event>
 5   0  0.7416556E-06  0.2292422E+04  0.7818609E-02  0.8480915E-01
       -1   -1    0    0    0  501  0.00000000000E+00  0.00000000000E+00  0.14272292190E+04  0.14272292190E+04  0.50400001928E-02 0. -1.
        1   -1    0    0  501    0  0.00000000000E+00  0.00000000000E+00 -0.92052465326E+03  0.92052465327E+03  0.50400001928E-02 0.  1.
    10030    2    1    2    0    0  0.00000000000E+00  0.00000000000E+00  0.50670456574E+03  0.23477538723E+04  0.22924220222E+04 0.  0.
        4    1    3    3  502    0  0.30233907335E+03  0.73598612610E+03  0.10983201618E+04  0.13562423396E+04  0.12699999809E+01 0. -1.
       -4    1    3    3    0  502 -0.30233907335E+03 -0.73598612610E+03 -0.59161559602E+03  0.99151153268E+03  0.12699999809E+01 0.  1.
</event>
<event>
 5   0  0.7183014E-06  0.2301377E+04  0.7818609E-02  0.8477379E-01
        1   -1    0    0  501    0  0.00000000000E+00  0.00000000000E+00  0.90860256658E+03  0.90860256659E+03  0.50400001928E-02 0.  1.
       -1   -1    0    0    0  501  0.00000000000E+00  0.00000000000E+00 -0.14572746777E+04  0.14572746777E+04  0.50400001928E-02 0. -1.
    10030    2    1    2    0    0  0.00000000000E+00  0.00000000000E+00 -0.54867211109E+03  0.23658772443E+04  0.23013765553E+04 0.  0.
        3    1    3    3  502    0  0.71083544128E+03  0.73572771061E+03 -0.81588406746E+03  0.13085293694E+04  0.10100000352E+00 0. -1.
       -3    1    3    3    0  502 -0.71083544128E+03 -0.73572771061E+03  0.26721195637E+03  0.10573478749E+04  0.10100000352E+00 0.  1.
</event>
<event>
 5   0  0.1626636E-05  0.2282152E+04  0.7818609E-02  0.8484992E-01
        2   -1    0    0  501    0  0.00000000000E+00  0.00000000000E+00  0.72614157950E+03  0.72614157951E+03  0.25500000920E-02 0.  1.
       -2   -1    0    0    0  501  0.00000000000E+00  0.00000000000E+00 -0.17931141810E+04  0.17931141810E+04  0.25500000920E-02 0. -1.
    10030    2    1    2    0    0  0.00000000000E+00  0.00000000000E+00 -0.10669726015E+04  0.25192557605E+04  0.22821522856E+04 0.  0.
        4    1    3    3  502    0 -0.87659724689E+03  0.57051233304E+03 -0.29856090512E+02  0.10463269348E+04  0.12699999809E+01 0.  1.
       -4    1    3    3    0  502  0.87659724689E+03 -0.57051233304E+03 -0.10371165110E+04  0.14729288257E+04  0.12699999809E+01 0. -1.
</event>
<event>
 5   0  0.1697855E-05  0.2296382E+04  0.7818609E-02  0.8479349E-01
       -2   -1    0    0    0  501  0.00000000000E+00  0.00000000000E+00  0.11685782281E+04  0.11685782281E+04  0.25500000920E-02 0.  1.
        2   -1    0    0  501    0  0.00000000000E+00  0.00000000000E+00 -0.11281598245E+04  0.11281598245E+04  0.25500000920E-02 0. -1.
    10030    2    1    2    0    0  0.00000000000E+00  0.00000000000E+00  0.40418403626E+02  0.22967380526E+04  0.22963823800E+04 0.  0.
        5    1    3    3  502    0 -0.42963304738E+03  0.79085742675E+03 -0.69283943268E+03  0.11358206700E+04  0.46999998093E+01 0. -1.
       -5    1    3    3    0  502  0.42963304738E+03 -0.79085742675E+03  0.73325783631E+03  0.11609173827E+04  0.46999998093E+01 0.  1.
</event>
<event>
 5   0  0.1635955E-05  0.2367787E+04  0.7818609E-02  0.8451663E-01
        2   -1    0    0  501    0  0.00000000000E+00  0.00000000000E+00  0.12327369315E+04  0.12327369315E+04  0.25500000920E-02 0.  1.
       -2   -1    0    0    0  501  0.00000000000E+00  0.00000000000E+00 -0.11369850428E+04  0.11369850428E+04  0.25500000920E-02 0. -1.
    10030    2    1    2    0    0  0.00000000000E+00  0.00000000000E+00  0.95751888686E+02  0.23697219743E+04  0.23677866904E+04 0.  0.
        2    1    3    3  502    0 -0.84037262864E+03  0.14004390747E+03 -0.77484521815E+03  0.11516178025E+04  0.25500000920E-02 0. -1.
       -2    1    3    3    0  502  0.84037262864E+03 -0.14004390747E+03  0.87059710683E+03  0.12181041718E+04  0.25500000920E-02 0.  1.
</event>
<event>
 5   0  0.1602809E-05  0.2315870E+04  0.7818609E-02  0.8471690E-01
       -2   -1    0    0    0  501  0.00000000000E+00  0.00000000000E+00  0.13404952461E+04  0.13404952461E+04  0.25500000920E-02 0.  1.
        2   -1    0    0  501    0  0.00000000000E+00  0.00000000000E+00 -0.10002371008E+04  0.10002371008E+04  0.25500000920E-02 0. -1.
    10030    2    1    2    0    0  0.00000000000E+00  0.00000000000E+00  0.34025814533E+03  0.23407323469E+04  0.23158696670E+04 0.  0.
        3    1    3    3  502    0  0.52793161997E+03  0.94916909772E+02 -0.86709075473E+03  0.10195917822E+04  0.10100000352E+00 0. -1.
       -3    1    3    3    0  502 -0.52793161997E+03 -0.94916909772E+02  0.12073489001E+04  0.13211405647E+04  0.10100000352E+00 0.  1.
</event>
<event>
 5   0  0.1635955E-05  0.2312571E+04  0.7818609E-02  0.8472981E-01
        2   -1    0    0  501    0  0.00000000000E+00  0.00000000000E+00  0.14671408580E+04  0.14671408580E+04  0.25500000920E-02 0.  1.
       -2   -1    0    0    0  501  0.00000000000E+00  0.00000000000E+00 -0.91129399953E+03  0.91129399954E+03  0.25500000920E-02 0. -1.
    10030    2    1    2    0    0  0.00000000000E+00  0.00000000000E+00  0.55584685850E+03  0.23784348576E+04  0.23125714349E+04 0.  0.
        2    1    3    3  502    0  0.37927450809E+03 -0.88245765469E+03 -0.38416250137E+03  0.10344861006E+04  0.25500000920E-02 0. -1.
       -2    1    3    3    0  502 -0.37927450809E+03  0.88245765469E+03  0.94000935987E+03  0.13439487570E+04  0.25500000920E-02 0.  1.
</event>
<event>
 5   0  0.1602809E-05  0.2247029E+04  0.7818609E-02  0.8499105E-01
       -2   -1    0    0    0  501  0.00000000000E+00  0.00000000000E+00  0.94968273111E+03  0.94968273111E+03  0.25500000920E-02 0. -1.
        2   -1    0    0  501    0  0.00000000000E+00  0.00000000000E+00 -0.13291650266E+04  0.13291650266E+04  0.25500000920E-02 0.  1.
    10030    2    1    2    0    0  0.00000000000E+00  0.00000000000E+00 -0.37948229553E+03  0.22788477577E+04  0.22470292144E+04 0.  0.
        3    1    3    3  502    0  0.86168381841E+03 -0.24569755551E+03  0.49766112103E+03  0.10249550689E+04  0.10100000352E+00 0.  1.
       -3    1    3    3    0  502 -0.86168381841E+03  0.24569755551E+03 -0.87714341656E+03  0.12538926888E+04  0.10100000352E+00 0. -1.
</event>
<event>
 5   0  0.1602809E-05  0.2290731E+04  0.7818609E-02  0.8481585E-01
       -2   -1    0    0    0  501  0.00000000000E+00  0.00000000000E+00  0.56406672194E+03  0.56406672195E+03  0.25500000920E-02 0. -1.
        2   -1    0    0  501    0  0.00000000000E+00  0.00000000000E+00 -0.23257205795E+04  0.23257205795E+04  0.25500000920E-02 0.  1.
    10030    2    1    2    0    0  0.00000000000E+00  0.00000000000E+00 -0.17616538576E+04  0.28897873014E+04  0.22907305240E+04 0.  0.
        3    1    3    3  502    0 -0.10861197750E+04 -0.38363031426E+02 -0.13369537681E+04  0.17229548096E+04  0.10100000352E+00 0. -1.
       -3    1    3    3    0  502  0.10861197750E+04  0.38363031426E+02 -0.42470008948E+03  0.11668324918E+04  0.10100000352E+00 0.  1.
</event>
<event>
 5   0  0.1626636E-05  0.2278484E+04  0.7818609E-02  0.8486453E-01
       -2   -1    0    0    0  501  0.00000000000E+00  0.00000000000E+00  0.55188324109E+03  0.55188324109E+03  0.25500000920E-02 0. -1.
        2   -1    0    0  501    0  0.00000000000E+00  0.00000000000E+00 -0.23517147521E+04  0.23517147521E+04  0.25500000920E-02 0.  1.
    10030    2    1    2    0    0  0.00000000000E+00  0.00000000000E+00 -0.17998315110E+04  0.29035979932E+04  0.22784836708E+04 0.  0.
        4    1    3    3  502    0  0.55818704307E+03 -0.49342949232E+03 -0.19982481575E+04  0.21326140651E+04  0.12699999809E+01 0.  1.
       -4    1    3    3    0  502 -0.55818704307E+03  0.49342949232E+03  0.19841664643E+03  0.77098392812E+03  0.12699999809E+01 0. -1.
</event>
<event>
 5   0  0.7278815E-06  0.2309520E+04  0.7818609E-02  0.8474177E-01
        1   -1    0    0  501    0  0.00000000000E+00  0.00000000000E+00  0.17931187668E+04  0.17931187668E+04  0.50400001928E-02 0. -1.
       -1   -1    0    0    0  501  0.00000000000E+00  0.00000000000E+00 -0.74365966212E+03  0.74365966214E+03  0.50400001928E-02 0.  1.
    10030    2    1    2    0    0  0.00000000000E+00  0.00000000000E+00  0.10494591047E+04  0.25367784289E+04  0.23095195139E+04 0.  0.
        5    1    3    3  502    0 -0.95024875189E+03  0.11658513663E+03  0.12339285420E+04  0.15617831223E+04  0.46999998093E+01 0. -1.
       -5    1    3    3    0  502  0.95024875189E+03 -0.11658513663E+03 -0.18446943731E+03  0.97499530658E+03  0.46999998093E+01 0.  1.
</event>
<event>
 5   0  0.7202572E-06  0.2288770E+04  0.7818609E-02  0.8482362E-01
        1   -1    0    0  501    0  0.00000000000E+00  0.00000000000E+00  0.13927142585E+04  0.13927142585E+04  0.50400001928E-02 0.  1.
       -1   -1    0    0    0  501  0.00000000000E+00  0.00000000000E+00 -0.94033430331E+03  0.94033430333E+03  0.50400001928E-02 0. -1.
    10030    2    1    2    0    0  0.00000000000E+00  0.00000000000E+00  0.45237995519E+03  0.23330485618E+04  0.22887699683E+04 0.  0.
        2    1    3    3  502    0  0.42568771044E+03  0.54404107391E+02  0.13075845532E+04  0.13762075415E+04  0.25500000920E-02 0.  1.
       -2    1    3    3    0  502 -0.42568771044E+03 -0.54404107391E+02 -0.85520459797E+03  0.95684102030E+03  0.25500000920E-02 0. -1.
</event>
<event>
 5   0  0.7202572E-06  0.2311252E+04  0.7818609E-02  0.8473498E-01
       -1   -1    0    0    0  501  0.00000000000E+00  0.00000000000E+00  0.49660569531E+03  0.49660569534E+03  0.50400001928E-02 0. -1.
        1   -1    0    0  501    0  0.00000000000E+00  0.00000000000E+00 -0.26891989260E+04  0.26891989260E+04  0.50400001928E-02 0.  1.
    10030    2    1    2    0    0  0.00000000000E+00  0.00000000000E+00 -0.21925932306E+04  0.31858046213E+04  0.23112520438E+04 0.  0.
        2    1    3    3  502    0 -0.76025958575E+02 -0.12062267782E+03 -0.26770281167E+04  0.26808225071E+04  0.25500000920E-02 0.  1.
       -2    1    3    3    0  502  0.76025958575E+02  0.12062267782E+03  0.48443488609E+03  0.50498211419E+03  0.25500000920E-02 0. -1.
</event>
<event>
 5   0  0.7183014E-06  0.2302849E+04  0.7818609E-02  0.8476799E-01
       -1   -1    0    0    0  501  0.00000000000E+00  0.00000000000E+00  0.13457643034E+04  0.13457643034E+04  0.50400001928E-02 0.  1.
        1   -1    0    0  501    0  0.00000000000E+00  0.00000000000E+00 -0.98514922987E+03  0.98514922989E+03  0.50400001928E-02 0. -1.
    10030    2    1    2    0    0  0.00000000000E+00  0.00000000000E+00  0.36061507353E+03  0.23309135333E+04  0.23028492501E+04 0.  0.
        3    1    3    3  502    0  0.36916543330E+03 -0.95932149281E+03 -0.34485824166E+03  0.10842084951E+04  0.10100000352E+00 0. -1.
       -3    1    3    3    0  502 -0.36916543330E+03  0.95932149281E+03  0.70547331520E+03  0.12467050382E+04  0.10100000352E+00 0.  1.
</event>
<event>
 5   0  0.1588969E-05  0.2303483E+04  0.7818609E-02  0.8476549E-01
        2   -1    0    0  501    0  0.00000000000E+00  0.00000000000E+00  0.87664386984E+03  0.87664386985E+03  0.25500000920E-02 0.  1.
       -2   -1    0    0    0  501  0.00000000000E+00  0.00000000000E+00 -0.15131667492E+04  0.15131667492E+04  0.25500000920E-02 0. -1.
    10030    2    1    2    0    0  0.00000000000E+00  0.00000000000E+00 -0.63652287937E+03  0.23898106191E+04  0.23034828888E+04 0.  0.
        1    1    3    3  502    0  0.12169746876E+03  0.62678612667E+03 -0.13127454129E+04  0.14597847929E+04  0.50400001928E-02 0. -1.
       -1    1    3    3    0  502 -0.12169746876E+03 -0.62678612667E+03  0.67622253351E+03  0.93002582617E+03  0.50400001928E-02 0.  1.
</event>
<event>
 5   0  0.7183014E-06  0.2299336E+04  0.7818609E-02  0.8478183E-01
       -1   -1    0    0    0  501  0.00000000000E+00  0.00000000000E+00  0.12198141496E+04  0.12198141496E+04  0.50400001928E-02 0. -1.
        1   -1    0    0  501    0  0.00000000000E+00  0.00000000000E+00 -0.10835558106E+04  0.10835558106E+04  0.50400001928E-02 0.  1.
    10030    2    1    2    0    0  0.00000000000E+00  0.00000000000E+00  0.13625833897E+03  0.23033699602E+04  0.22993361735E+04 0.  0.
        3    1    3    3  502    0 -0.69265907022E+03  0.86560981901E+03  0.37309674076E+03  0.11697256663E+04  0.10100000352E+00 0.  1.
       -3    1    3    3    0  502  0.69265907022E+03 -0.86560981901E+03 -0.23683840179E+03  0.11336442939E+04  0.10100000352E+00 0. -1.
</event>
<event>
 5   0  0.1602809E-05  0.2299727E+04  0.7818609E-02  0.8478029E-01
       -2   -1    0    0    0  501  0.00000000000E+00  0.00000000000E+00  0.10241804833E+04  0.10241804833E+04  0.25500000920E-02 0.  1.
        2   -1    0    0  501    0  0.00000000000E+00  0.00000000000E+00 -0.12909701215E+04  0.12909701215E+04  0.25500000920E-02 0. -1.
    10030    2    1    2    0    0  0.00000000000E+00  0.00000000000E+00 -0.26678963815E+03  0.23151506048E+04  0.22997272908E+04 0.  0.
        3    1    3    3  502    0  0.13349476462E+03  0.10490456044E+04  0.32115172135E+03  0.11051949921E+04  0.10100000352E+00 0.  1.
       -3    1    3    3    0  502 -0.13349476462E+03 -0.10490456044E+04 -0.58794135950E+03  0.12099556127E+04  0.10100000352E+00 0. -1.
</event>
<event>
 5   0  0.7391007E-06  0.2291898E+04  0.7818609E-02  0.8481122E-01
       -1   -1    0    0    0  501  0.00000000000E+00  0.00000000000E+00  0.72091163500E+03  0.72091163502E+03  0.50400001928E-02 0.  1.
        1   -1    0    0  501    0  0.00000000000E+00  0.00000000000E+00 -0.18215811290E+04  0.18215811290E+04  0.50400001928E-02 0. -1.
    10030    2    1    2    0    0  0.00000000000E+00  0.00000000000E+00 -0.11006694940E+04  0.25424927640E+04  0.22918979297E+04 0.  0.
        1    1    3    3  502    0 -0.15961996385E+03  0.59690174426E+03 -0.16209644438E+04  0.17347322426E+04  0.50400001928E-02 0. -1.
       -1    1    3    3    0  502  0.15961996385E+03 -0.59690174426E+03  0.52029494985E+03  0.80776052146E+03  0.50400001928E-02 0.  1.
</event>
<event>
 5   0  0.1626636E-05  0.2304572E+04  0.7818609E-02  0.8476121E-01
        2   -1    0    0  501    0  0.00000000000E+00  0.00000000000E+00  0.21829192345E+04  0.21829192345E+04  0.25500000920E-02 0. -1.
       -2   -1    0    0    0  501  0.00000000000E+00  0.00000000000E+00 -0.60825094037E+03  0.60825094038E+03  0.25500000920E-02 0.  1.
    10030    2    1    2    0    0  0.00000000000E+00  0.00000000000E+00  0.15746682941E+04  0.27911701748E+04  0.23045716974E+04 0.  0.
        4    1    3    3  502    0 -0.82219608479E+03  0.78129387106E+03  0.10335707980E+04  0.15345021089E+04  0.12699999809E+01 0.  1.
       -4    1    3    3    0  502  0.82219608479E+03 -0.78129387106E+03  0.54109749604E+03  0.12566680659E+04  0.12699999809E+01 0. -1.
</event>
<event>
 5   0  0.1626636E-05  0.2296848E+04  0.7818609E-02  0.8479165E-01
        2   -1    0    0  501    0  0.00000000000E+00  0.00000000000E+00  0.16654599909E+04  0.16654599909E+04  0.25500000920E-02 0.  1.
       -2   -1    0    0    0  501  0.00000000000E+00  0.00000000000E+00 -0.79189995099E+03  0.79189995099E+03  0.25500000920E-02 0. -1.
    10030    2    1    2    0    0  0.00000000000E+00  0.00000000000E+00  0.87356003989E+03  0.24573599419E+04  0.22968480012E+04 0.  0.
        4    1    3    3  502    0  0.77286218926E+03 -0.84868289420E+03  0.39824261512E+03  0.12149804163E+04  0.12699999809E+01 0.  1.
       -4    1    3    3    0  502 -0.77286218926E+03  0.84868289420E+03  0.47531742476E+03  0.12423795256E+04  0.12699999809E+01 0. -1.
</event>
<event>
 5   0  0.7278815E-06  0.2309506E+04  0.7818609E-02  0.8474183E-01
       -1   -1    0    0    0  501  0.00000000000E+00  0.00000000000E+00  0.10847615299E+04  0.10847615299E+04  0.50400001928E-02 0.  1.
        1   -1    0    0  501    0  0.00000000000E+00  0.00000000000E+00 -0.12292602233E+04  0.12292602234E+04  0.50400001928E-02 0. -1.
    10030    2    1    2    0    0  0.00000000000E+00  0.00000000000E+00 -0.14449869347E+03  0.23140217532E+04  0.23095057484E+04 0.  0.
        5    1    3    3  502    0 -0.19268175182E+03  0.55996950097E+03 -0.10655202392E+04  0.12190355080E+04  0.46999998093E+01 0. -1.
       -5    1    3    3    0  502  0.19268175182E+03 -0.55996950097E+03  0.92102154577E+03  0.10949862452E+04  0.46999998093E+01 0.  1.
</event>
<event>
 5   0  0.7183014E-06  0.2294156E+04  0.7818609E-02  0.8480229E-01
       -1   -1    0    0    0  501  0.00000000000E+00  0.00000000000E+00  0.11464311429E+04  0.11464311429E+04  0.50400001928E-02 0. -1.
        1   -1    0    0  501    0  0.00000000000E+00  0.00000000000E+00 -0.11477256108E+04  0.11477256109E+04  0.50400001928E-02 0.  1.
    10030    2    1    2    0    0  0.00000000000E+00  0.00000000000E+00 -0.12944679138E+01  0.22941567538E+04  0.22941563886E+04 0.  0.
        3    1    3    3  502    0  0.81141136628E+03 -0.71848868318E+03  0.37508408679E+03  0.11468663721E+04  0.10100000352E+00 0. -1.
       -3    1    3    3    0  502 -0.81141136628E+03  0.71848868318E+03 -0.37637855470E+03  0.11472903817E+04  0.10100000352E+00 0.  1.
</event>
<event>
 5   0  0.7202572E-06  0.2300073E+04  0.7818609E-02  0.8477892E-01
        1   -1    0    0  501    0  0.00000000000E+00  0.00000000000E+00  0.19541185657E+04  0.19541185657E+04  0.50400001928E-02 0. -1.
       -1   -1    0    0    0  501  0.00000000000E+00  0.00000000000E+00 -0.67681873886E+03  0.67681873888E+03  0.50400001928E-02 0.  1.
    10030    2    1    2    0    0  0.00000000000E+00  0.00000000000E+00  0.12772998269E+04  0.26309373046E+04  0.23000730973E+04 0.  0.
        2    1    3    3  502    0 -0.29238078375E+02 -0.86460721267E+03 -0.22810086359E+03  0.89466781623E+03  0.25500000920E-02 0.  1.
       -2    1    3    3    0  502  0.29238078375E+02  0.86460721267E+03  0.15054006904E+04  0.17362694884E+04  0.25500000920E-02 0. -1.
</event>
<event>
 5   0  0.1626636E-05  0.2380020E+04  0.7818609E-02  0.8447022E-01
       -2   -1    0    0    0  501  0.00000000000E+00  0.00000000000E+00  0.85247398473E+03  0.85247398474E+03  0.25500000920E-02 0. -1.
        2   -1    0    0  501    0  0.00000000000E+00  0.00000000000E+00 -0.16611928514E+04  0.16611928514E+04  0.25500000920E-02 0.  1.
    10030    2    1    2    0    0  0.00000000000E+00  0.00000000000E+00 -0.80871886662E+03  0.25136668361E+04  0.23800199070E+04 0.  0.
        4    1    3    3  502    0 -0.15296688505E+03 -0.78688299685E+03  0.52453862020E+03  0.95798021672E+03  0.12699999809E+01 0. -1.
       -4    1    3    3    0  502  0.15296688505E+03  0.78688299685E+03 -0.13332574868E+04  0.15556866194E+04  0.12699999809E+01 0.  1.
</event>
<event>
 5   0  0.7183014E-06  0.2304515E+04  0.7818609E-02  0.8476143E-01
       -1   -1    0    0    0  501  0.00000000000E+00  0.00000000000E+00  0.10472513254E+04  0.10472513254E+04  0.50400001928E-02 0. -1.
        1   -1    0    0  501    0  0.00000000000E+00  0.00000000000E+00 -0.12677921899E+04  0.12677921899E+04  0.50400001928E-02 0.  1.
    10030    2    1    2    0    0  0.00000000000E+00  0.00000000000E+00 -0.22054086447E+03  0.23150435153E+04  0.23045147439E+04 0.  0.
        3    1    3    3  502    0 -0.10125051952E+04 -0.29728357758E+03 -0.57515110482E+03  0.12018082623E+04  0.10100000352E+00 0. -1.
       -3    1    3    3    0  502  0.10125051952E+04  0.29728357758E+03  0.35461024034E+03  0.11132352530E+04  0.10100000352E+00 0.  1.
</event>
<event>
 5   0  0.1635955E-05  0.2297349E+04  0.7818609E-02  0.8478967E-01
        2   -1    0    0  501    0  0.00000000000E+00  0.00000000000E+00  0.17366696230E+04  0.17366696230E+04  0.25500000920E-02 0. -1.
       -2   -1    0    0    0  501  0.00000000000E+00  0.00000000000E+00 -0.75976047766E+03  0.75976047766E+03  0.25500000920E-02 0.  1.
    10030    2    1    2    0    0  0.00000000000E+00  0.00000000000E+00  0.97690914537E+03  0.24964301007E+04  0.22973488567E+04 0.  0.
        2    1    3    3  502    0 -0.13856444195E+03  0.44646401000E+03  0.16286279080E+04  0.16943904743E+04  0.25500000920E-02 0. -1.
       -2    1    3    3    0  502  0.13856444195E+03 -0.44646401000E+03 -0.65171876259E+03  0.80203962640E+03  0.25500000920E-02 0.  1.
</event>
<event>
 5   0  0.1626636E-05  0.2288037E+04  0.7818609E-02  0.8482653E-01
       -2   -1    0    0    0  501  0.00000000000E+00  0.00000000000E+00  0.92384915596E+03  0.92384915597E+03  0.25500000920E-02 0.  1.
        2   -1    0    0  501    0  0.00000000000E+00  0.00000000000E+00 -0.14166579753E+04  0.14166579753E+04  0.25500000920E-02 0. -1.
    10030    2    1    2    0    0  0.00000000000E+00  0.00000000000E+00 -0.49280881936E+03  0.23405071313E+04  0.22880369532E+04 0.  0.
        4    1    3    3  502    0 -0.75242358939E+03 -0.80847107190E+03 -0.55159150377E+03  0.12345126698E+04  0.12699999809E+01 0. -1.
       -4    1    3    3    0  502  0.75242358939E+03  0.80847107190E+03  0.58782684404E+02  0.11059944615E+04  0.12699999809E+01 0.  1.
</event>
<event>
 5   0  0.7278815E-06  0.2298432E+04  0.7818609E-02  0.8478540E-01
       -1   -1    0    0    0  501  0.00000000000E+00  0.00000000000E+00  0.17194266053E+04  0.17194266053E+04  0.50400001928E-02 0. -1.
        1   -1    0    0  501    0  0.00000000000E+00  0.00000000000E+00 -0.76810324026E+03  0.76810324027E+03  0.50400001928E-02 0.  1.
    10030    2    1    2    0    0  0.00000000000E+00  0.00000000000E+00  0.95132336507E+03  0.24875298456E+04  0.22984317671E+04 0.  0.
        5    1    3    3  502    0 -0.97565986457E+03 -0.37009853955E+03  0.99671719135E+03  0.14430358103E+04  0.46999998093E+01 0. -1.
       -5    1    3    3    0  502  0.97565986457E+03  0.37009853955E+03 -0.45393826278E+02  0.10444940353E+04  0.46999998093E+01 0.  1.
</event>
<event>
 5   0  0.7202572E-06  0.2294887E+04  0.7818609E-02  0.8479940E-01
        1   -1    0    0  501    0  0.00000000000E+00  0.00000000000E+00  0.15203360122E+04  0.15203360122E+04  0.50400001928E-02 0. -1.
       -1   -1    0    0    0  501  0.00000000000E+00  0.00000000000E+00 -0.86601028777E+03  0.86601028778E+03  0.50400001928E-02 0.  1.
    10030    2    1    2    0    0  0.00000000000E+00  0.00000000000E+00  0.65432572443E+03  0.23863463000E+04  0.22948870364E+04 0.  0.
        2    1    3    3  502    0  0.92930507213E+03 -0.11912076527E+02  0.10269439443E+04  0.13850500639E+04  0.25500000920E-02 0. -1.
       -2    1    3    3    0  502 -0.92930507213E+03  0.11912076527E+02 -0.37261821989E+03  0.10012962361E+04  0.25500000920E-02 0.  1.
</event>
<event>
 5   0  0.1635955E-05  0.2282764E+04  0.7818609E-02  0.8484748E-01
       -2   -1    0    0    0  501  0.00000000000E+00  0.00000000000E+00  0.72256298681E+03  0.72256298681E+03  0.25500000920E-02 0. -1.
        2   -1    0    0  501    0  0.00000000000E+00  0.00000000000E+00 -0.18029611968E+04  0.18029611968E+04  0.25500000920E-02 0.  1.
    10030    2    1    2    0    0  0.00000000000E+00  0.00000000000E+00 -0.10803982100E+04  0.25255241836E+04  0.22827641380E+04 0.  0.
        2    1    3    3  502    0 -0.90300484750E+03 -0.52381947598E+03 -0.29661530211E+02  0.10443583697E+04  0.25500000920E-02 0. -1.
       -2    1    3    3    0  502  0.90300484750E+03  0.52381947598E+03 -0.10507366798E+04  0.14811658139E+04  0.25500000920E-02 0.  1.
</event>
<event>
 5   0  0.1602809E-05  0.2300393E+04  0.7818609E-02  0.8477766E-01
       -2   -1    0    0    0  501  0.00000000000E+00  0.00000000000E+00  0.61692387206E+03  0.61692387207E+03  0.25500000920E-02 0.  1.
        2   -1    0    0  501    0  0.00000000000E+00  0.00000000000E+00 -0.21444340292E+04  0.21444340292E+04  0.25500000920E-02 0. -1.
    10030    2    1    2    0    0  0.00000000000E+00  0.00000000000E+00 -0.15275101571E+04  0.27613579013E+04  0.23003934835E+04 0.  0.
        3    1    3    3  502    0 -0.19083377857E+03 -0.26201579752E+03 -0.20884726776E+04  0.21134776896E+04  0.10100000352E+00 0. -1.
       -3    1    3    3    0  502  0.19083377857E+03  0.26201579752E+03  0.56096252042E+03  0.64788021170E+03  0.10100000352E+00 0.  1.
</event>
<event>
 5   0  0.1697855E-05  0.2293839E+04  0.7818609E-02  0.8480354E-01
        2   -1    0    0  501    0  0.00000000000E+00  0.00000000000E+00  0.21084368724E+04  0.21084368724E+04  0.25500000920E-02 0. -1.
       -2   -1    0    0    0  501  0.00000000000E+00  0.00000000000E+00 -0.62388604683E+03  0.62388604684E+03  0.25500000920E-02 0.  1.
    10030    2    1    2    0    0  0.00000000000E+00  0.00000000000E+00  0.14845508256E+04  0.27323229192E+04  0.22938390051E+04 0.  0.
        5    1    3    3  502    0 -0.10747004583E+04 -0.34228610759E+03  0.49452215104E+03  0.12315498781E+04  0.46999998093E+01 0. -1.
       -5    1    3    3    0  502  0.10747004583E+04  0.34228610759E+03  0.99002867452E+03  0.15007730411E+04  0.46999998093E+01 0.  1.
</event>
<event>
 5   0  0.7202572E-06  0.2295711E+04  0.7818609E-02  0.8479614E-01
       -1   -1    0    0    0  501  0.00000000000E+00  0.00000000000E+00  0.86062019732E+03  0.86062019734E+03  0.50400001928E-02 0. -1.
        1   -1    0    0  501    0  0.00000000000E+00  0.00000000000E+00 -0.15309567873E+04  0.15309567873E+04  0.50400001928E-02 0.  1.
    10030    2    1    2    0    0  0.00000000000E+00  0.00000000000E+00 -0.67033658995E+03  0.23915769846E+04  0.22957110727E+04 0.  0.
        2    1    3    3  502    0  0.10083682072E+04 -0.54081612926E+03 -0.24035219695E+03  0.11692124296E+04  0.25500000920E-02 0.  1.
       -2    1    3    3    0  502 -0.10083682072E+04  0.54081612926E+03 -0.42998439300E+03  0.12223645550E+04  0.25500000920E-02 0. -1.
</event>
<event>
 5   0  0.1635955E-05  0.2302210E+04  0.7818609E-02  0.8477050E-01
       -2   -1    0    0    0  501  0.00000000000E+00  0.00000000000E+00  0.11257108534E+04  0.11257108535E+04  0.25500000920E-02 0. -1.
        2   -1    0    0  501    0  0.00000000000E+00  0.00000000000E+00 -0.11770715907E+04  0.11770715907E+04  0.25500000920E-02 0.  1.
    10030    2    1    2    0    0  0.00000000000E+00  0.00000000000E+00 -0.51360737294E+02  0.23027824442E+04  0.23022096038E+04 0.  0.
        2    1    3    3  502    0  0.65683822492E+03  0.30408384129E+03 -0.92096666936E+03  0.11713594847E+04  0.25500000920E-02 0.  1.
       -2    1    3    3    0  502 -0.65683822492E+03 -0.30408384129E+03  0.86960593206E+03  0.11314229595E+04  0.25500000920E-02 0. -1.
</event>
<event>
 5   0  0.7202572E-06  0.2313829E+04  0.7818609E-02  0.8472488E-01
        1   -1    0    0  501    0  0.00000000000E+00  0.00000000000E+00  0.18506348320E+04  0.18506348320E+04  0.50400001928E-02 0. -1.
       -1   -1    0    0    0  501  0.00000000000E+00  0.00000000000E+00 -0.72323908110E+03  0.72323908111E+03  0.50400001928E-02 0.  1.
    10030    2    1    2    0    0  0.00000000000E+00  0.00000000000E+00  0.11273957509E+04  0.25738739131E+04  0.23138292378E+04 0.  0.
        2    1    3    3  502    0  0.15811547038E+03 -0.11338567912E+04  0.37816013340E+03  0.12056686159E+04  0.25500000920E-02 0.  1.
       -2    1    3    3    0  502 -0.15811547038E+03  0.11338567912E+04  0.74923561751E+03  0.13682052972E+04  0.25500000920E-02 0. -1.
</event>
<event>
 5   0  0.1697855E-05  0.2308689E+04  0.7818609E-02  0.8474503E-01
       -2   -1    0    0    0  501  0.00000000000E+00  0.00000000000E+00  0.63516122556E+03  0.63516122556E+03  0.25500000920E-02 0. -1.
        2   -1    0    0  501    0  0.00000000000E+00  0.00000000000E+00 -0.20979101604E+04  0.20979101604E+04  0.25500000920E-02 0.  1.
    10030    2    1    2    0    0  0.00000000000E+00  0.00000000000E+00 -0.14627489348E+04  0.27330713860E+04  0.23086889687E+04 0.  0.
        5    1    3    3  502    0  0.69436611509E+03 -0.63498412747E+03  0.60228268834E+02  0.94286726440E+03  0.46999998093E+01 0. -1.
       -5    1    3    3    0  502 -0.69436611509E+03  0.63498412747E+03 -0.15229772037E+04  0.17902041216E+04  0.46999998093E+01 0.  1.
</event>
<event>
 5   0  0.7391007E-06  0.2230651E+04  0.7818609E-02  0.8505778E-01
       -1   -1    0    0    0  501  0.00000000000E+00  0.00000000000E+00  0.19686676922E+04  0.19686676922E+04  0.50400001928E-02 0. -1.
        1   -1    0    0  501    0  0.00000000000E+00  0.00000000000E+00 -0.63187429497E+03  0.63187429499E+03  0.50400001928E-02 0.  1.
    10030    2    1    2    0    0  0.00000000000E+00  0.00000000000E+00  0.13367933972E+04  0.26005419871E+04  0.22306505867E+04 0.  0.
        1    1    3    3  502    0 -0.79857390627E+03  0.77682117447E+03  0.60693797161E+03  0.12686784945E+04  0.50400001928E-02 0.  1.
       -1    1    3    3    0  502  0.79857390627E+03 -0.77682117447E+03  0.72985542558E+03  0.13318634927E+04  0.50400001928E-02 0. -1.
</event>
<event>
 5   0  0.7202572E-06  0.2288006E+04  0.7818609E-02  0.8482665E-01
        1   -1    0    0  501    0  0.00000000000E+00  0.00000000000E+00  0.30376559633E+04  0.30376559633E+04  0.50400001928E-02 0. -1.
       -1   -1    0    0    0  501  0.00000000000E+00  0.00000000000E+00 -0.43083971425E+03  0.43083971428E+03  0.50400001928E-02 0.  1.
    10030    2    1    2    0    0  0.00000000000E+00  0.00000000000E+00  0.26068162491E+04  0.34684956776E+04  0.22880059679E+04 0.  0.
        2    1    3    3  502    0 -0.47521222765E+03  0.71024106006E+03  0.24563989528E+04  0.26008008074E+04  0.25500000920E-02 0. -1.
       -2    1    3    3    0  502  0.47521222765E+03 -0.71024106006E+03  0.15041729629E+03  0.86769487018E+03  0.25500000920E-02 0.  1.
</event>
<event>
 5   0  0.7391007E-06  0.2297802E+04  0.7818609E-02  0.8478788E-01
       -1   -1    0    0    0  501  0.00000000000E+00  0.00000000000E+00  0.17644522403E+04  0.17644522403E+04  0.50400001928E-02 0.  1.
        1   -1    0    0  501    0  0.00000000000E+00  0.00000000000E+00 -0.74809219350E+03  0.74809219352E+03  0.50400001928E-02 0. -1.
    10030    2    1    2    0    0  0.00000000000E+00  0.00000000000E+00  0.10163600468E+04  0.25125444339E+04  0.22978015117E+04 0.  0.
        1    1    3    3  502    0 -0.24347316030E+03  0.81081804663E+03 -0.34111061122E+03  0.91272204621E+03  0.50400001928E-02 0. -1.
       -1    1    3    3    0  502  0.24347316030E+03 -0.81081804663E+03  0.13574706581E+04  0.15998223876E+04  0.50400001928E-02 0.  1.
</event>
<event>
 5   0  0.1697855E-05  0.2306375E+04  0.7818609E-02  0.8475412E-01
        2   -1    0    0  501    0  0.00000000000E+00  0.00000000000E+00  0.11015670320E+04  0.11015670320E+04  0.25500000920E-02 0. -1.
       -2   -1    0    0    0  501  0.00000000000E+00  0.00000000000E+00 -0.12072269014E+04  0.12072269014E+04  0.25500000920E-02 0.  1.
    10030    2    1    2    0    0  0.00000000000E+00  0.00000000000E+00 -0.10565986948E+03  0.23087939334E+04  0.23063749519E+04 0.  0.
        5    1    3    3  502    0  0.13908582112E+03  0.93026571056E+03 -0.72067289372E+03  0.11849601966E+04  0.46999998093E+01 0.  1.
       -5    1    3    3    0  502 -0.13908582112E+03 -0.93026571056E+03  0.61501302424E+03  0.11238337368E+04  0.46999998093E+01 0. -1.
</event>
<event>
 5   0  0.7278815E-06  0.2299148E+04  0.7818609E-02  0.8478257E-01
        1   -1    0    0  501    0  0.00000000000E+00  0.00000000000E+00  0.20843958437E+04  0.20843958437E+04  0.50400001928E-02 0.  1.
       -1   -1    0    0    0  501  0.00000000000E+00  0.00000000000E+00 -0.63400619444E+03  0.63400619446E+03  0.50400001928E-02 0. -1.
    10030    2    1    2    0    0  0.00000000000E+00  0.00000000000E+00  0.14503896492E+04  0.27184020381E+04  0.22991475608E+04 0.  0.
        5    1    3    3  502    0 -0.91002570429E+03 -0.24515796595E+03  0.15034381660E+04  0.17744288151E+04  0.46999998093E+01 0.  1.
       -5    1    3    3    0  502  0.91002570429E+03  0.24515796595E+03 -0.53048516770E+02  0.94397322307E+03  0.46999998093E+01 0. -1.
</event>
<event>
 5   0  0.7183014E-06  0.2295282E+04  0.7818609E-02  0.8479784E-01
       -1   -1    0    0    0  501  0.00000000000E+00  0.00000000000E+00  0.11420981290E+04  0.11420981290E+04  0.50400001928E-02 0.  1.
        1   -1    0    0  501    0  0.00000000000E+00  0.00000000000E+00 -0.11532105938E+04  0.11532105938E+04  0.50400001928E-02 0. -1.
    10030    2    1    2    0    0  0.00000000000E+00  0.00000000000E+00 -0.11112464863E+02  0.22953087228E+04  0.22952818228E+04 0.  0.
        3    1    3    3  502    0 -0.11097882920E+04  0.15311452086E+03 -0.25456827056E+03  0.11488599237E+04  0.10100000352E+00 0. -1.
       -3    1    3    3    0  502  0.11097882920E+04 -0.15311452086E+03  0.24345580570E+03  0.11464487992E+04  0.10100000352E+00 0.  1.
</event>
<event>
 5   0  0.1588969E-05  0.2370867E+04  0.7818609E-02  0.8450492E-01
       -2   -1    0    0    0  501  0.00000000000E+00  0.00000000000E+00  0.11629825341E+04  0.11629825341E+04  0.25500000920E-02 0. -1.
        2   -1    0    0  501    0  0.00000000000E+00  0.00000000000E+00 -0.12083183243E+04  0.12083183243E+04  0.25500000920E-02 0.  1.
    10030    2    1    2    0    0  0.00000000000E+00  0.00000000000E+00 -0.45335790182E+02  0.23713008584E+04  0.23708674420E+04 0.  0.
        1    1    3    3  502    0 -0.68835010726E+03  0.78077813957E+03  0.54472121730E+03  0.11748027826E+04  0.50400001928E-02 0. -1.
       -1    1    3    3    0  502  0.68835010726E+03 -0.78077813957E+03 -0.59005700748E+03  0.11964980758E+04  0.50400001928E-02 0.  1.
</event>
<event>
 5   0  0.7183014E-06  0.2294463E+04  0.7818609E-02  0.8480108E-01
       -1   -1    0    0    0  501  0.00000000000E+00  0.00000000000E+00  0.63403003594E+03  0.63403003596E+03  0.50400001928E-02 0. -1.
        1   -1    0    0  501    0  0.00000000000E+00  0.00000000000E+00 -0.20758317915E+04  0.20758317915E+04  0.50400001928E-02 0.  1.
    10030    2    1    2    0    0  0.00000000000E+00  0.00000000000E+00 -0.14418017556E+04  0.27098618275E+04  0.22944626433E+04 0.  0.
        3    1    3    3  502    0  0.73500690617E+02  0.11020712723E+04 -0.10871698131E+04  0.15498069730E+04  0.10100000352E+00 0.  1.
       -3    1    3    3    0  502 -0.73500690617E+02 -0.11020712723E+04 -0.35463194246E+03  0.11600548545E+04  0.10100000352E+00 0. -1.
</event>
<event>
 5   0  0.1602809E-05  0.2302907E+04  0.7818609E-02  0.8476776E-01
        2   -1    0    0  501    0  0.00000000000E+00  0.00000000000E+00  0.14801408221E+04  0.14801408221E+04  0.25500000920E-02 0. -1.
       -2   -1    0    0    0  501  0.00000000000E+00  0.00000000000E+00 -0.89575608466E+03  0.89575608467E+03  0.25500000920E-02 0.  1.
    10030    2    1    2    0    0  0.00000000000E+00  0.00000000000E+00  0.58438473745E+03  0.23758969068E+04  0.23029069869E+04 0.  0.
        3    1    3    3  502    0 -0.16248940222E+03  0.67060753065E+03 -0.65883086385E+03  0.95403112285E+03  0.10100000352E+00 0.  1.
       -3    1    3    3    0  502  0.16248940222E+03 -0.67060753065E+03  0.12432156013E+04  0.14218657839E+04  0.10100000352E+00 0. -1.
</event>
<event>
 5   0  0.7391007E-06  0.2374198E+04  0.7818609E-02  0.8449227E-01
        1   -1    0    0  501    0  0.00000000000E+00  0.00000000000E+00  0.10804070952E+04  0.10804070952E+04  0.50400001928E-02 0.  1.
       -1   -1    0    0    0  501  0.00000000000E+00  0.00000000000E+00 -0.13043269993E+04  0.13043269993E+04  0.50400001928E-02 0. -1.
    10030    2    1    2    0    0  0.00000000000E+00  0.00000000000E+00 -0.22391990402E+03  0.23847340945E+04  0.23741980916E+04 0.  0.
        1    1    3    3  502    0  0.89798009136E+03  0.60739329801E+03  0.37382799676E+03  0.11467529089E+04  0.50400001928E-02 0. -1.
       -1    1    3    3    0  502 -0.89798009136E+03 -0.60739329801E+03 -0.59774790078E+03  0.12379811856E+04  0.50400001928E-02 0.  1.
</event>
<event>
 5   0  0.7391007E-06  0.2293037E+04  0.7818609E-02  0.8480672E-01
       -1   -1    0    0    0  501  0.00000000000E+00  0.00000000000E+00  0.97661536127E+03  0.97661536128E+03  0.50400001928E-02 0. -1.
        1   -1    0    0  501    0  0.00000000000E+00  0.00000000000E+00 -0.13459796295E+04  0.13459796295E+04  0.50400001928E-02 0.  1.
    10030    2    1    2    0    0  0.00000000000E+00  0.00000000000E+00 -0.36936426822E+03  0.23225949908E+04  0.22930367482E+04 0.  0.
        1    1    3    3  502    0 -0.11344004915E+03 -0.90376752115E+03 -0.88996233761E+03  0.12734588095E+04  0.50400001928E-02 0.  1.
       -1    1    3    3    0  502  0.11344004915E+03  0.90376752115E+03  0.52059806939E+03  0.10491361813E+04  0.50400001928E-02 0. -1.
</event>
<event>
 5   0  0.1588969E-05  0.2374883E+04  0.7818609E-02  0.8448967E-01
        2   -1    0    0  501    0  0.00000000000E+00  0.00000000000E+00  0.17803892268E+04  0.17803892268E+04  0.25500000920E-02 0. -1.
       -2   -1    0    0    0  501  0.00000000000E+00  0.00000000000E+00 -0.79197131926E+03  0.79197131926E+03  0.25500000920E-02 0.  1.
    10030    2    1    2    0    0  0.00000000000E+00  0.00000000000E+00  0.98841790751E+03  0.25723605460E+04  0.23748829064E+04 0.  0.
        1    1    3    3  502    0 -0.10710629422E+03 -0.58048631885E+03  0.16102141666E+04  0.17150002294E+04  0.50400001928E-02 0. -1.
       -1    1    3    3    0  502  0.10710629422E+03  0.58048631885E+03 -0.62179625909E+03  0.85736031659E+03  0.50400001928E-02 0.  1.
</event>
<event>
 5   0  0.7183014E-06  0.2304021E+04  0.7818609E-02  0.8476337E-01
       -1   -1    0    0    0  501  0.00000000000E+00  0.00000000000E+00  0.67481801937E+03  0.67481801938E+03  0.50400001928E-02 0. -1.
        1   -1    0    0  501    0  0.00000000000E+00  0.00000000000E+00 -0.19666465486E+04  0.19666465486E+04  0.50400001928E-02 0.  1.
    10030    2    1    2    0    0  0.00000000000E+00  0.00000000000E+00 -0.12918285292E+04  0.26414645680E+04  0.23040212922E+04 0.  0.
        3    1    3    3  502    0  0.89675887989E+03  0.24682309479E+03  0.13336581064E+03  0.93961937955E+03  0.10100000352E+00 0. -1.
       -3    1    3    3    0  502 -0.89675887989E+03 -0.24682309479E+03 -0.14251943398E+04  0.17018451884E+04  0.10100000352E+00 0.  1.
</event>
<event>
 5   0  0.7391007E-06  0.2296317E+04  0.7818609E-02  0.8479375E-01
       -1   -1    0    0    0  501  0.00000000000E+00  0.00000000000E+00  0.80673780086E+03  0.80673780088E+03  0.50400001928E-02 0.  1.
        1   -1    0    0  501    0  0.00000000000E+00  0.00000000000E+00 -0.16340717707E+04  0.16340717708E+04  0.50400001928E-02 0. -1.
    10030    2    1    2    0    0  0.00000000000E+00  0.00000000000E+00 -0.82733396988E+03  0.24408095716E+04  0.22963165869E+04 0.  0.
        1    1    3    3  502    0 -0.41241968884E+03 -0.93200999975E+03  0.14831202799E+03  0.10299170341E+04  0.50400001928E-02 0.  1.
       -1    1    3    3    0  502  0.41241968884E+03  0.93200999975E+03 -0.97564599787E+03  0.14108925376E+04  0.50400001928E-02 0. -1.
</event>
<event>
 5   0  0.1602809E-05  0.2296946E+04  0.7818609E-02  0.8479126E-01
       -2   -1    0    0    0  501  0.00000000000E+00  0.00000000000E+00  0.90960698478E+03  0.90960698478E+03  0.25500000920E-02 0.  1.
        2   -1    0    0  501    0  0.00000000000E+00  0.00000000000E+00 -0.14500659625E+04  0.14500659625E+04  0.25500000920E-02 0. -1.
    10030    2    1    2    0    0  0.00000000000E+00  0.00000000000E+00 -0.54045897773E+03  0.23596729473E+04  0.22969459096E+04 0.  0.
        3    1    3    3  502    0  0.11050507377E+04 -0.28586445739E+03 -0.40071994758E+03  0.12097239799E+04  0.10100000352E+00 0. -1.
       -3    1    3    3    0  502 -0.11050507377E+04  0.28586445739E+03 -0.13973903015E+03  0.11499489674E+04  0.10100000352E+00 0.  1.
</event>
<event>
 5   0  0.1697855E-05  0.2290966E+04  0.7818609E-02  0.8481492E-01
        2   -1    0    0  501    0  0.00000000000E+00  0.00000000000E+00  0.11836184039E+04  0.11836184039E+04  0.25500000920E-02 0. -1.
       -2   -1    0    0    0  501  0.00000000000E+00  0.00000000000E+00 -0.11085762762E+04  0.11085762762E+04  0.25500000920E-02 0.  1.
    10030    2    1    2    0    0  0.00000000000E+00  0.00000000000E+00  0.75042127701E+02  0.22921946802E+04  0.22909659821E+04 0.  0.
        5    1    3    3  502    0 -0.10680937529E+04 -0.36627673595E+02 -0.37494187901E+03  0.11325940818E+04  0.46999998093E+01 0.  1.
       -5    1    3    3    0  502  0.10680937529E+04  0.36627673595E+02  0.44998400671E+03  0.11596005984E+04  0.46999998093E+01 0. -1.
</event>
<event>
 5   0  0.1635955E-05  0.2303903E+04  0.7818609E-02  0.8476384E-01
       -2   -1    0    0    0  501  0.00000000000E+00  0.00000000000E+00  0.90345881171E+03  0.90345881171E+03  0.25500000920E-02 0.  1.
        2   -1    0    0  501    0  0.00000000000E+00  0.00000000000E+00 -0.14687905132E+04  0.14687905132E+04  0.25500000920E-02 0. -1.
    10030    2    1    2    0    0  0.00000000000E+00  0.00000000000E+00 -0.56533170154E+03  0.23722493250E+04  0.23039025429E+04 0.  0.
        2    1    3    3  502    0  0.91197002533E+03 -0.48956654974E+03 -0.80326036519E+03  0.13101877530E+04  0.25500000920E-02 0. -1.
       -2    1    3    3    0  502 -0.91197002533E+03  0.48956654974E+03  0.23792866365E+03  0.10620615720E+04  0.25500000920E-02 0.  1.
</event>
<event>
 5   0  0.1635955E-05  0.2299069E+04  0.7818609E-02  0.8478288E-01
        2   -1    0    0  501    0  0.00000000000E+00  0.00000000000E+00  0.10255001865E+04  0.10255001865E+04  0.25500000920E-02 0. -1.
       -2   -1    0    0    0  501  0.00000000000E+00  0.00000000000E+00 -0.12885707279E+04  0.12885707279E+04  0.25500000920E-02 0.  1.
    10030    2    1    2    0    0  0.00000000000E+00  0.00000000000E+00 -0.26307054145E+03  0.23140709144E+04  0.22990689610E+04 0.  0.
        2    1    3    3  502    0 -0.69156961590E+03 -0.61250527226E+03 -0.82010320423E+03  0.12353139309E+04  0.25500000920E-02 0.  1.
       -2    1    3    3    0  502  0.69156961590E+03  0.61250527226E+03  0.55703266278E+03  0.10787569836E+04  0.25500000920E-02 0. -1.
</event>
<event>
 5   0  0.1602809E-05  0.2177864E+04  0.7818609E-02  0.8527698E-01
       -2   -1    0    0    0  501  0.00000000000E+00  0.00000000000E+00  0.68531677014E+03  0.68531677014E+03  0.25500000920E-02 0. -1.
        2   -1    0    0  501    0  0.00000000000E+00  0.00000000000E+00 -0.17302554912E+04  0.17302554912E+04  0.25500000920E-02 0.  1.
    10030    2    1    2    0    0  0.00000000000E+00  0.00000000000E+00 -0.10449387210E+04  0.24155722613E+04  0.21778641874E+04 0.  0.
        3    1    3    3  502    0 -0.40763445285E+03 -0.67293353839E+03  0.31254085069E+03  0.84657379347E+03  0.10100000352E+00 0. -1.
       -3    1    3    3    0  502  0.40763445285E+03  0.67293353839E+03 -0.13574795717E+04  0.15689984678E+04  0.10100000352E+00 0.  1.
</event>
<event>
 5   0  0.7202572E-06  0.2300172E+04  0.7818609E-02  0.8477853E-01
       -1   -1    0    0    0  501  0.00000000000E+00  0.00000000000E+00  0.12554797727E+04  0.12554797727E+04  0.50400001928E-02 0. -1.
        1   -1    0    0  501    0  0.00000000000E+00  0.00000000000E+00 -0.10535397191E+04  0.10535397191E+04  0.50400001928E-02 0.  1.
    10030    2    1    2    0    0  0.00000000000E+00  0.00000000000E+00  0.20194005356E+03  0.23090194918E+04  0.23001719997E+04 0.  0.
        2    1    3    3  502    0 -0.59164283602E+03 -0.98484402453E+03  0.15350495668E+03  0.11591042963E+04  0.25500000920E-02 0. -1.
       -2    1    3    3    0  502  0.59164283602E+03  0.98484402453E+03  0.48435096880E+02  0.11499151954E+04  0.25500000920E-02 0.  1.
</event>
<event>
 5   0  0.1588969E-05  0.2301974E+04  0.7818609E-02  0.8477143E-01
        2   -1    0    0  501    0  0.00000000000E+00  0.00000000000E+00  0.14432132088E+04  0.14432132088E+04  0.25500000920E-02 0. -1.
       -2   -1    0    0    0  501  0.00000000000E+00  0.00000000000E+00 -0.91793136412E+03  0.91793136412E+03  0.25500000920E-02 0.  1.
    10030    2    1    2    0    0  0.00000000000E+00  0.00000000000E+00  0.52528184468E+03  0.23611445729E+04  0.23019736484E+04 0.  0.
        1    1    3    3  502    0  0.75648765522E+03 -0.85018816938E+03  0.43933968181E+03  0.12198823107E+04  0.50400001928E-02 0. -1.
       -1    1    3    3    0  502 -0.75648765522E+03  0.85018816938E+03  0.85942162869E+02  0.11412622623E+04  0.50400001928E-02 0.  1.
</event>
<event>
 5   0  0.7183014E-06  0.2231023E+04  0.7818609E-02  0.8505626E-01
       -1   -1    0    0    0  501  0.00000000000E+00  0.00000000000E+00  0.14512208001E+04  0.14512208001E+04  0.50400001928E-02 0.  1.
        1   -1    0    0  501    0  0.00000000000E+00  0.00000000000E+00 -0.85746108937E+03  0.85746108938E+03  0.50400001928E-02 0. -1.
    10030    2    1    2    0    0  0.00000000000E+00  0.00000000000E+00  0.59375971071E+03  0.23086818895E+04  0.22310225173E+04 0.  0.
        3    1    3    3  502    0 -0.33091217438E+03  0.65555007640E+03  0.11658214937E+04  0.13778202115E+04  0.10100000352E+00 0.  1.
       -3    1    3    3    0  502  0.33091217438E+03 -0.65555007640E+03 -0.57206178297E+03  0.93086167799E+03  0.10100000352E+00 0. -1.
</event>
<event>
 5   0  0.7183014E-06  0.2287061E+04  0.7818609E-02  0.8483040E-01
       -1   -1    0    0    0  501  0.00000000000E+00  0.00000000000E+00  0.74602717906E+03  0.74602717907E+03  0.50400001928E-02 0.  1.
        1   -1    0    0  501    0  0.00000000000E+00  0.00000000000E+00 -0.17528337239E+04  0.17528337239E+04  0.50400001928E-02 0. -1.
    10030    2    1    2    0    0  0.00000000000E+00  0.00000000000E+00 -0.10068065448E+04  0.24988609030E+04  0.22870606450E+04 0.  0.
        3    1    3    3  502    0  0.62325034560E+02  0.11201170631E+04 -0.26126065953E+03  0.11518696920E+04  0.10100000352E+00 0.  1.
       -3    1    3    3    0  502 -0.62325034560E+02 -0.11201170631E+04 -0.74554588531E+03  0.13469912109E+04  0.10100000352E+00 0. -1.
</event>
<event>
 5   0  0.7416556E-06  0.2271160E+04  0.7818609E-02  0.8489380E-01
        1   -1    0    0  501    0  0.00000000000E+00  0.00000000000E+00  0.94862948056E+03  0.94862948058E+03  0.50400001928E-02 0.  1.
       -1   -1    0    0    0  501  0.00000000000E+00  0.00000000000E+00 -0.13593732573E+04  0.13593732574E+04  0.50400001928E-02 0. -1.
    10030    2    1    2    0    0  0.00000000000E+00  0.00000000000E+00 -0.41074377679E+03  0.23080027379E+04  0.22711596571E+04 0.  0.
        4    1    3    3  502    0 -0.91744731357E+03 -0.32365321586E+03  0.38985932199E+03  0.10480710287E+04  0.12699999809E+01 0.  1.
       -4    1    3    3    0  502  0.91744731357E+03  0.32365321586E+03 -0.80060309878E+03  0.12599317093E+04  0.12699999809E+01 0. -1.
</event>
<event>
 5   0  0.1626636E-05  0.2304506E+04  0.7818609E-02  0.8476147E-01
        2   -1    0    0  501    0  0.00000000000E+00  0.00000000000E+00  0.19588268882E+04  0.19588268882E+04  0.25500000920E-02 0. -1.
       -2   -1    0    0    0  501  0.00000000000E+00  0.00000000000E+00 -0.67779703028E+03  0.67779703029E+03  0.25500000920E-02 0.  1.
    10030    2    1    2    0    0  0.00000000000E+00  0.00000000000E+00  0.12810298579E+04  0.26366239185E+04  0.23045060622E+04 0.  0.
        4    1    3    3  502    0  0.47768337063E+03 -0.94441190687E+03  0.11923171796E+03  0.10650413456E+04  0.12699999809E+01 0.  1.
       -4    1    3    3    0  502 -0.47768337063E+03  0.94441190687E+03  0.11617981399E+04  0.15715825728E+04  0.12699999809E+01 0. -1.
</event>
<event>
 5   0  0.7183014E-06  0.2272956E+04  0.7818609E-02  0.8488661E-01
        1   -1    0    0  501    0  0.00000000000E+00  0.00000000000E+00  0.12138505696E+04  0.12138505696E+04  0.50400001928E-02 0. -1.
       -1   -1    0    0    0  501  0.00000000000E+00  0.00000000000E+00 -0.10640374218E+04  0.10640374218E+04  0.50400001928E-02 0.  1.
    10030    2    1    2    0    0  0.00000000000E+00  0.00000000000E+00  0.14981314784E+03  0.22778879914E+04  0.22729561637E+04 0.  0.
        3    1    3    3  502    0 -0.86249376149E+03  0.44966618128E+03 -0.51415042694E+03  0.11002026336E+04  0.10100000352E+00 0.  1.
       -3    1    3    3    0  502  0.86249376149E+03 -0.44966618128E+03  0.66396357478E+03  0.11776853578E+04  0.10100000352E+00 0. -1.
</event>
<event>
 5   0  0.1697855E-05  0.2292936E+04  0.7818609E-02  0.8480712E-01
       -2   -1    0    0    0  501  0.00000000000E+00  0.00000000000E+00  0.47828607974E+03  0.47828607975E+03  0.25500000920E-02 0.  1.
        2   -1    0    0  501    0  0.00000000000E+00  0.00000000000E+00 -0.27481219342E+04  0.27481219342E+04  0.25500000920E-02 0. -1.
    10030    2    1    2    0    0  0.00000000000E+00  0.00000000000E+00 -0.22698358545E+04  0.32264080140E+04  0.22929356437E+04 0.  0.
        5    1    3    3  502    0  0.44954097559E+03 -0.10200509412E+04 -0.15118951646E+04  0.18784142488E+04  0.46999998093E+01 0. -1.
       -5    1    3    3    0  502 -0.44954097559E+03  0.10200509412E+04 -0.75794068988E+03  0.13479937651E+04  0.46999998093E+01 0.  1.
</event>
<event>
 5   0  0.7183014E-06  0.2275297E+04  0.7818609E-02  0.8487725E-01
       -1   -1    0    0    0  501  0.00000000000E+00  0.00000000000E+00  0.13399653404E+04  0.13399653405E+04  0.50400001928E-02 0. -1.
        1   -1    0    0  501    0  0.00000000000E+00  0.00000000000E+00 -0.96587877675E+03  0.96587877676E+03  0.50400001928E-02 0.  1.
    10030    2    1    2    0    0  0.00000000000E+00  0.00000000000E+00  0.37408656369E+03  0.23058441172E+04  0.22752969775E+04 0.  0.
        3    1    3    3  502    0 -0.14041097794E+03 -0.95792744731E+01 -0.95702264591E+03  0.96731554325E+03  0.10100000352E+00 0.  1.
       -3    1    3    3    0  502  0.14041097794E+03  0.95792744731E+01  0.13311092096E+04  0.13385285740E+04  0.10100000352E+00 0. -1.
</event>
<event>
 5   0  0.1588969E-05  0.2298899E+04  0.7818609E-02  0.8478355E-01
        2   -1    0    0  501    0  0.00000000000E+00  0.00000000000E+00  0.13302268149E+04  0.13302268149E+04  0.25500000920E-02 0. -1.
       -2   -1    0    0    0  501  0.00000000000E+00  0.00000000000E+00 -0.99324018170E+03  0.99324018170E+03  0.25500000920E-02 0.  1.
    10030    2    1    2    0    0  0.00000000000E+00  0.00000000000E+00  0.33698663320E+03  0.23234669966E+04  0.22988994961E+04 0.  0.
        1    1    3    3  502    0  0.11533979856E+03  0.30548026127E+03 -0.94537931345E+03  0.10001817362E+04  0.50400001928E-02 0.  1.
       -1    1    3    3    0  502 -0.11533979856E+03 -0.30548026127E+03  0.12823659466E+04  0.13232852604E+04  0.50400001928E-02 0. -1.
</event>
<event>
 5   0  0.7183014E-06  0.2299553E+04  0.7818609E-02  0.8478098E-01
        1   -1    0    0  501    0  0.00000000000E+00  0.00000000000E+00  0.10987101713E+04  0.10987101713E+04  0.50400001928E-02 0.  1.
       -1   -1    0    0    0  501  0.00000000000E+00  0.00000000000E+00 -0.12032158141E+04  0.12032158141E+04  0.50400001928E-02 0. -1.
    10030    2    1    2    0    0  0.00000000000E+00  0.00000000000E+00 -0.10450564283E+03  0.23019259854E+04  0.22995525245E+04 0.  0.
        3    1    3    3  502    0  0.36539406903E+02 -0.11818331072E+03 -0.11965350298E+04  0.12029125117E+04  0.10100000352E+00 0. -1.
       -3    1    3    3    0  502 -0.36539406903E+02  0.11818331072E+03  0.10920293869E+04  0.10990134737E+04  0.10100000352E+00 0.  1.
</event>
<event>
 5   0  0.1697855E-05  0.2299935E+04  0.7818609E-02  0.8477947E-01
       -2   -1    0    0    0  501  0.00000000000E+00  0.00000000000E+00  0.38004863846E+03  0.38004863846E+03  0.25500000920E-02 0. -1.
        2   -1    0    0  501    0  0.00000000000E+00  0.00000000000E+00 -0.34796223154E+04  0.34796223154E+04  0.25500000920E-02 0.  1.
    10030    2    1    2    0    0  0.00000000000E+00  0.00000000000E+00 -0.30995736769E+04  0.38596709538E+04  0.22999354107E+04 0.  0.
        5    1    3    3  502    0  0.76537693115E+02 -0.54497129800E+03  0.14470433418E+03  0.56904584037E+03  0.46999998093E+01 0. -1.
       -5    1    3    3    0  502 -0.76537693115E+02  0.54497129800E+03 -0.32442780111E+04  0.32906251135E+04  0.46999998093E+01 0.  1.
</event>
<event>
 5   0  0.1602809E-05  0.2299477E+04  0.7818609E-02  0.8478127E-01
        2   -1    0    0  501    0  0.00000000000E+00  0.00000000000E+00  0.92744238134E+03  0.92744238135E+03  0.25500000920E-02 0.  1.
       -2   -1    0    0    0  501  0.00000000000E+00  0.00000000000E+00 -0.14253165413E+04  0.14253165413E+04  0.25500000920E-02 0. -1.
    10030    2    1    2    0    0  0.00000000000E+00  0.00000000000E+00 -0.49787415996E+03  0.23527589227E+04  0.22994773034E+04 0.  0.
        3    1    3    3  502    0  0.71761027148E+03  0.12701697676E+03  0.66093836749E+03  0.98383807100E+03  0.10100000352E+00 0.  1.
       -3    1    3    3    0  502 -0.71761027148E+03 -0.12701697676E+03 -0.11588125274E+04  0.13689208517E+04  0.10100000352E+00 0. -1.
</event>
<event>
 5   0  0.1602809E-05  0.2295016E+04  0.7818609E-02  0.8479889E-01
        2   -1    0    0  501    0  0.00000000000E+00  0.00000000000E+00  0.14056429447E+04  0.14056429447E+04  0.25500000920E-02 0. -1.
       -2   -1    0    0    0  501  0.00000000000E+00  0.00000000000E+00 -0.93677778983E+03  0.93677778983E+03  0.25500000920E-02 0.  1.
    10030    2    1    2    0    0  0.00000000000E+00  0.00000000000E+00  0.46886515484E+03  0.23424207345E+04  0.22950164191E+04 0.  0.
        3    1    3    3  502    0 -0.15543868312E+03  0.29167381474E+03  0.13560117097E+04  0.13957086249E+04  0.10100000352E+00 0. -1.
       -3    1    3    3    0  502  0.15543868312E+03 -0.29167381474E+03 -0.88714655491E+03  0.94671210962E+03  0.10100000352E+00 0.  1.
</event>
<event>
 5   0  0.7391007E-06  0.2299591E+04  0.7818609E-02  0.8478083E-01
        1   -1    0    0  501    0  0.00000000000E+00  0.00000000000E+00  0.15921101021E+04  0.15921101021E+04  0.50400001928E-02 0. -1.
       -1   -1    0    0    0  501  0.00000000000E+00  0.00000000000E+00 -0.83036294568E+03  0.83036294569E+03  0.50400001928E-02 0.  1.
    10030    2    1    2    0    0  0.00000000000E+00  0.00000000000E+00  0.76174715645E+03  0.24224730478E+04  0.22995906021E+04 0.  0.
        1    1    3    3  502    0  0.98191278085E+03 -0.52751927100E+03  0.83662625922E+02  0.11177784778E+04  0.50400001928E-02 0.  1.
       -1    1    3    3    0  502 -0.98191278085E+03  0.52751927100E+03  0.67808453053E+03  0.13046945700E+04  0.50400001928E-02 0. -1.
</event>
<event>
 5   0  0.7416556E-06  0.2300429E+04  0.7818609E-02  0.8477752E-01
        1   -1    0    0  501    0  0.00000000000E+00  0.00000000000E+00  0.20041871032E+04  0.20041871032E+04  0.50400001928E-02 0. -1.
       -1   -1    0    0    0  501  0.00000000000E+00  0.00000000000E+00 -0.66011483853E+03  0.66011483855E+03  0.50400001928E-02 0.  1.
    10030    2    1    2    0    0  0.00000000000E+00  0.00000000000E+00  0.13440722647E+04  0.26643019418E+04  0.23004292174E+04 0.  0.
        4    1    3    3  502    0  0.22886395992E+03 -0.73170273788E+03  0.16651168043E+04  0.18331347997E+04  0.12699999809E+01 0. -1.
       -4    1    3    3    0  502 -0.22886395992E+03  0.73170273788E+03 -0.32104453965E+03  0.83116714210E+03  0.12699999809E+01 0.  1.
</event>
<event>
 5   0  0.7391007E-06  0.2299787E+04  0.7818609E-02  0.8478005E-01
       -1   -1    0    0    0  501  0.00000000000E+00  0.00000000000E+00  0.11457446644E+04  0.11457446644E+04  0.50400001928E-02 0. -1.
        1   -1    0    0  501    0  0.00000000000E+00  0.00000000000E+00 -0.11540576474E+04  0.11540576474E+04  0.50400001928E-02 0.  1.
    10030    2    1    2    0    0  0.00000000000E+00  0.00000000000E+00 -0.83129830250E+01  0.22998023118E+04  0.22997872875E+04 0.  0.
        1    1    3    3  502    0 -0.82459440076E+02 -0.99030599047E+03  0.57442302044E+03  0.11478097928E+04  0.50400001928E-02 0. -1.
       -1    1    3    3    0  502  0.82459440076E+02  0.99030599047E+03 -0.58273600347E+03  0.11519925190E+04  0.50400001928E-02 0.  1.
</event>
<event>
 5   0  0.5704875E-06  0.2297498E+04  0.7818609E-02  0.8478908E-01
        3   -1    0    0  501    0  0.00000000000E+00  0.00000000000E+00  0.65871398405E+03  0.65871399180E+03  0.10100000352E+00 0. -1.
       -3   -1    0    0    0  501  0.00000000000E+00  0.00000000000E+00 -0.20033341242E+04  0.20033341267E+04  0.10100000352E+00 0.  1.
    10030    2    1    2    0    0  0.00000000000E+00  0.00000000000E+00 -0.13446201401E+04  0.26620481185E+04  0.22974979574E+04 0.  0.
        4    1    3    3  502    0  0.97375357383E+03  0.24631328423E+02 -0.13778835860E+04  0.16874144465E+04  0.12699999809E+01 0.  1.
       -4    1    3    3    0  502 -0.97375357383E+03 -0.24631328423E+02  0.33263445849E+02  0.97463367201E+03  0.12699999809E+01 0. -1.
</event>
<event>
 5   0  0.7183014E-06  0.2316346E+04  0.7818609E-02  0.8471504E-01
        1   -1    0    0  501    0  0.00000000000E+00  0.00000000000E+00  0.27681915789E+04  0.27681915789E+04  0.50400001928E-02 0.  1.
       -1   -1    0    0    0  501  0.00000000000E+00  0.00000000000E+00 -0.48456364433E+03  0.48456364436E+03  0.50400001928E-02 0. -1.
    10030    2    1    2    0    0  0.00000000000E+00  0.00000000000E+00  0.22836279346E+04  0.32527552233E+04  0.23163462606E+04 0.  0.
        3    1    3    3  502    0 -0.24027298155E+03  0.91149209801E+03  0.20867639099E+04  0.22897887624E+04  0.10100000352E+00 0.  1.
       -3    1    3    3    0  502  0.24027298155E+03 -0.91149209801E+03  0.19686402465E+03  0.96296646089E+03  0.10100000352E+00 0. -1.
</event>
<event>
 5   0  0.7416556E-06  0.2308629E+04  0.7818609E-02  0.8474527E-01
        1   -1    0    0  501    0  0.00000000000E+00  0.00000000000E+00  0.18853899197E+04  0.18853899197E+04  0.50400001928E-02 0.  1.
       -1   -1    0    0    0  501  0.00000000000E+00  0.00000000000E+00 -0.70671932342E+03  0.70671932344E+03  0.50400001928E-02 0. -1.
    10030    2    1    2    0    0  0.00000000000E+00  0.00000000000E+00  0.11786705963E+04  0.25921092431E+04  0.23086285872E+04 0.  0.
        4    1    3    3  502    0 -0.69789868742E+03 -0.23526648721E+03 -0.40864092071E+03  0.84226000313E+03  0.12699999809E+01 0. -1.
       -4    1    3    3    0  502  0.69789868742E+03  0.23526648721E+03  0.15873115170E+04  0.17498492400E+04  0.12699999809E+01 0.  1.
</event>
<event>
 5   0  0.7202572E-06  0.2297866E+04  0.7818609E-02  0.8478763E-01
        1   -1    0    0  501    0  0.00000000000E+00  0.00000000000E+00  0.19416782201E+04  0.19416782201E+04  0.50400001928E-02 0. -1.
       -1   -1    0    0    0  501  0.00000000000E+00  0.00000000000E+00 -0.67984868567E+03  0.67984868569E+03  0.50400001928E-02 0.  1.
    10030    2    1    2    0    0  0.00000000000E+00  0.00000000000E+00  0.12618295344E+04  0.26215269058E+04  0.22978663024E+04 0.  0.
        2    1    3    3  502    0 -0.88835449783E+03  0.39888624544E+03 -0.64690560047E+02  0.97594509025E+03  0.25500000920E-02 0. -1.
       -2    1    3    3    0  502  0.88835449783E+03 -0.39888624544E+03  0.13265200945E+04  0.16455818156E+04  0.25500000920E-02 0.  1.
</event>
<event>
 5   0  0.1635955E-05  0.2441604E+04  0.7818609E-02  0.8424090E-01
       -2   -1    0    0    0  501  0.00000000000E+00  0.00000000000E+00  0.10335739758E+04  0.10335739758E+04  0.25500000920E-02 0.  1.
        2   -1    0    0  501    0  0.00000000000E+00  0.00000000000E+00 -0.14419456721E+04  0.14419456721E+04  0.25500000920E-02 0. -1.
    10030    2    1    2    0    0  0.00000000000E+00  0.00000000000E+00 -0.40837169628E+03  0.24755196479E+04  0.24416039983E+04 0.  0.
        2    1    3    3  502    0  0.10541319287E+04 -0.19713915292E+03  0.38726933104E+03  0.11401909943E+04  0.25500000920E-02 0.  1.
       -2    1    3    3    0  502 -0.10541319287E+04  0.19713915292E+03 -0.79564102733E+03  0.13353286536E+04  0.25500000920E-02 0. -1.
</event>
<event>
 5   0  0.7278815E-06  0.2291191E+04  0.7818609E-02  0.8481402E-01
        1   -1    0    0  501    0  0.00000000000E+00  0.00000000000E+00  0.92215487259E+03  0.92215487260E+03  0.50400001928E-02 0.  1.
       -1   -1    0    0    0  501  0.00000000000E+00  0.00000000000E+00 -0.14231766782E+04  0.14231766783E+04  0.50400001928E-02 0. -1.
    10030    2    1    2    0    0  0.00000000000E+00  0.00000000000E+00 -0.50102180566E+03  0.23453315509E+04  0.22911912259E+04 0.  0.
        5    1    3    3  502    0 -0.83970076985E+03 -0.74674527381E+03 -0.22442763310E+02  0.11239446848E+04  0.46999998093E+01 0.  1.
       -5    1    3    3    0  502  0.83970076985E+03  0.74674527381E+03 -0.47857904235E+03  0.12213868661E+04  0.46999998093E+01 0. -1.
</event>
<event>
 5   0  0.7183014E-06  0.2294393E+04  0.7818609E-02  0.8480135E-01
        1   -1    0    0  501    0  0.00000000000E+00  0.00000000000E+00  0.18432425308E+04  0.18432425308E+04  0.50400001928E-02 0.  1.
       -1   -1    0    0    0  501  0.00000000000E+00  0.00000000000E+00 -0.71399172272E+03  0.71399172274E+03  0.50400001928E-02 0. -1.
    10030    2    1    2    0    0  0.00000000000E+00  0.00000000000E+00  0.11292508080E+04  0.25572342535E+04  0.22943930875E+04 0.  0.
        3    1    3    3  502    0 -0.61837656717E+03 -0.82093524626E+03 -0.34009198292E+01  0.10277819972E+04  0.10100000352E+00 0.  1.
       -3    1    3    3    0  502  0.61837656717E+03  0.82093524626E+03  0.11326517279E+04  0.15294522563E+04  0.10100000352E+00 0. -1.
</event>
<event>
 5   0  0.1635955E-05  0.2299400E+04  0.7818609E-02  0.8478158E-01
       -2   -1    0    0    0  501  0.00000000000E+00  0.00000000000E+00  0.89605833352E+03  0.89605833353E+03  0.25500000920E-02 0. -1.
        2   -1    0    0  501    0  0.00000000000E+00  0.00000000000E+00 -0.14751382096E+04  0.14751382096E+04  0.25500000920E-02 0.  1.
    10030    2    1    2    0    0  0.00000000000E+00  0.00000000000E+00 -0.57907987607E+03  0.23711965431E+04  0.22993998224E+04 0.  0.
        2    1    3    3  502    0  0.10740508902E+04 -0.35008909165E+03 -0.50989928186E+03  0.12394131533E+04  0.25500000920E-02 0.  1.
       -2    1    3    3    0  502 -0.10740508902E+04  0.35008909165E+03 -0.69180594211E+02  0.11317833898E+04  0.25500000920E-02 0. -1.
</event>
<event>
 5   0  0.7202572E-06  0.2309370E+04  0.7818609E-02  0.8474236E-01
       -1   -1    0    0    0  501  0.00000000000E+00  0.00000000000E+00  0.13561225459E+04  0.13561225459E+04  0.50400001928E-02 0.  1.
        1   -1    0    0  501    0  0.00000000000E+00  0.00000000000E+00 -0.98316850367E+03  0.98316850368E+03  0.50400001928E-02 0. -1.
    10030    2    1    2    0    0  0.00000000000E+00  0.00000000000E+00  0.37295404227E+03  0.23392910496E+04  0.23093695887E+04 0.  0.
        2    1    3    3  502    0 -0.25333421789E+03 -0.81190886950E+03  0.97757127154E+03  0.12957699754E+04  0.25500000920E-02 0.  1.
       -2    1    3    3    0  502  0.25333421789E+03  0.81190886950E+03 -0.60461722927E+03  0.10435210742E+04  0.25500000920E-02 0. -1.
</event>
<event>
 5   0  0.7278815E-06  0.2316342E+04  0.7818609E-02  0.8471505E-01
        1   -1    0    0  501    0  0.00000000000E+00  0.00000000000E+00  0.10987102273E+04  0.10987102273E+04  0.50400001928E-02 0.  1.
       -1   -1    0    0    0  501  0.00000000000E+00  0.00000000000E+00 -0.12208496122E+04  0.12208496122E+04  0.50400001928E-02 0. -1.
    10030    2    1    2    0    0  0.00000000000E+00  0.00000000000E+00 -0.12213938485E+03  0.23195598395E+04  0.23163419048E+04 0.  0.
        5    1    3    3  502    0  0.78767327999E+03  0.82542643381E+03 -0.26029298148E+03  0.11702702764E+04  0.46999998093E+01 0. -1.
       -5    1    3    3    0  502 -0.78767327999E+03 -0.82542643381E+03  0.13815359663E+03  0.11492895631E+04  0.46999998093E+01 0.  1.
</event>
<event>
 5   0  0.1588969E-05  0.2303560E+04  0.7818609E-02  0.8476519E-01
        2   -1    0    0  501    0  0.00000000000E+00  0.00000000000E+00  0.22467149603E+04  0.22467149603E+04  0.25500000920E-02 0.  1.
       -2   -1    0    0    0  501  0.00000000000E+00  0.00000000000E+00 -0.59046081999E+03  0.59046082000E+03  0.25500000920E-02 0. -1.
    10030    2    1    2    0    0  0.00000000000E+00  0.00000000000E+00  0.16562541403E+04  0.28371757803E+04  0.23035599907E+04 0.  0.
        1    1    3    3  502    0 -0.37916994463E+03  0.40486981151E+02 -0.51045884567E+03  0.63716346074E+03  0.50400001928E-02 0. -1.
       -1    1    3    3    0  502  0.37916994463E+03 -0.40486981151E+02  0.21667129860E+04  0.22000123195E+04  0.50400001928E-02 0.  1.
</event>
<event>
 5   0  0.1635955E-05  0.2304496E+04  0.7818609E-02  0.8476151E-01
        2   -1    0    0  501    0  0.00000000000E+00  0.00000000000E+00  0.80822138695E+03  0.80822138696E+03  0.25500000920E-02 0.  1.
       -2   -1    0    0    0  501  0.00000000000E+00  0.00000000000E+00 -0.16427120210E+04  0.16427120210E+04  0.25500000920E-02 0. -1.
    10030    2    1    2    0    0  0.00000000000E+00  0.00000000000E+00 -0.83449063403E+03  0.24509334079E+04  0.23044955960E+04 0.  0.
        2    1    3    3  502    0  0.72301475084E+03 -0.83180194573E+02 -0.13673219339E+04  0.15489475606E+04  0.25500000920E-02 0. -1.
       -2    1    3    3    0  502 -0.72301475084E+03  0.83180194573E+02  0.53283129983E+03  0.90198584733E+03  0.25500000920E-02 0.  1.
</event>
<event>
 5   0  0.1626636E-05  0.2289469E+04  0.7818609E-02  0.8482085E-01
       -2   -1    0    0    0  501  0.00000000000E+00  0.00000000000E+00  0.90918781141E+03  0.90918781141E+03  0.25500000920E-02 0. -1.
        2   -1    0    0  501    0  0.00000000000E+00  0.00000000000E+00 -0.14413054308E+04  0.14413054308E+04  0.25500000920E-02 0.  1.
    10030    2    1    2    0    0  0.00000000000E+00  0.00000000000E+00 -0.53211761942E+03  0.23504932422E+04  0.22894692225E+04 0.  0.
        4    1    3    3  502    0  0.42194440644E+02  0.51563653034E+03 -0.13144302831E+04  0.14125827354E+04  0.12699999809E+01 0.  1.
       -4    1    3    3    0  502 -0.42194440644E+02 -0.51563653034E+03  0.78231266368E+03  0.93791050687E+03  0.12699999809E+01 0. -1.
</event>
<event>
 5   0  0.1697855E-05  0.2299054E+04  0.7818609E-02  0.8478294E-01
        2   -1    0    0  501    0  0.00000000000E+00  0.00000000000E+00  0.89642135360E+03  0.89642135360E+03  0.25500000920E-02 0.  1.
       -2   -1    0    0    0  501  0.00000000000E+00  0.00000000000E+00 -0.14740974645E+04  0.14740974645E+04  0.25500000920E-02 0. -1.
    10030    2    1    2    0    0  0.00000000000E+00  0.00000000000E+00 -0.57767611088E+03  0.23705188181E+04  0.22990541050E+04 0.  0.
        5    1    3    3  502    0 -0.52111300798E+03  0.21335483524E+03  0.74446661011E+03  0.93345148581E+03  0.46999998093E+01 0.  1.
       -5    1    3    3    0  502  0.52111300798E+03 -0.21335483524E+03 -0.13221427210E+04  0.14370673323E+04  0.46999998093E+01 0. -1.
</event>
<event>
 5   0  0.1626636E-05  0.2301247E+04  0.7818609E-02  0.8477430E-01
        2   -1    0    0  501    0  0.00000000000E+00  0.00000000000E+00  0.13012480467E+04  0.13012480467E+04  0.25500000920E-02 0.  1.
       -2   -1    0    0    0  501  0.00000000000E+00  0.00000000000E+00 -0.10174343271E+04  0.10174343271E+04  0.25500000920E-02 0. -1.
    10030    2    1    2    0    0  0.00000000000E+00  0.00000000000E+00  0.28381371956E+03  0.23186823739E+04  0.23012469931E+04 0.  0.
        4    1    3    3  502    0  0.15388556667E+02  0.74247901627E+03 -0.74362673239E+03  0.10509492030E+04  0.12699999809E+01 0. -1.
       -4    1    3    3    0  502 -0.15388556667E+02 -0.74247901627E+03  0.10274404520E+04  0.12677331709E+04  0.12699999809E+01 0.  1.
</event>
<event>
 5   0  0.1588969E-05  0.2291856E+04  0.7818609E-02  0.8481139E-01
       -2   -1    0    0    0  501  0.00000000000E+00  0.00000000000E+00  0.89658756333E+03  0.89658756334E+03  0.25500000920E-02 0. -1.
        2   -1    0    0  501    0  0.00000000000E+00  0.00000000000E+00 -0.14646101299E+04  0.14646101299E+04  0.25500000920E-02 0.  1.
    10030    2    1    2    0    0  0.00000000000E+00  0.00000000000E+00 -0.56802256655E+03  0.23611976932E+04  0.22918562150E+04 0.  0.
        1    1    3    3  502    0 -0.52264882841E+03  0.57702984200E+03 -0.11503000288E+04  0.13889979815E+04  0.50400001928E-02 0.  1.
       -1    1    3    3    0  502  0.52264882841E+03 -0.57702984200E+03  0.58227746223E+03  0.97219971171E+03  0.50400001928E-02 0. -1.
</event>
<event>
 5   0  0.7202572E-06  0.2294325E+04  0.7818609E-02  0.8480162E-01
       -1   -1    0    0    0  501  0.00000000000E+00  0.00000000000E+00  0.13683998256E+04  0.13683998256E+04  0.50400001928E-02 0.  1.
        1   -1    0    0  501    0  0.00000000000E+00  0.00000000000E+00 -0.96169404060E+03  0.96169404061E+03  0.50400001928E-02 0. -1.
    10030    2    1    2    0    0  0.00000000000E+00  0.00000000000E+00  0.40670578502E+03  0.23300938662E+04  0.22943251361E+04 0.  0.
        2    1    3    3  502    0  0.81575033207E+03 -0.47502762526E+03  0.86534479208E+03  0.12805941817E+04  0.25500000920E-02 0.  1.
       -2    1    3    3    0  502 -0.81575033207E+03  0.47502762526E+03 -0.45863900706E+03  0.10494996845E+04  0.25500000920E-02 0. -1.
</event>
<event>
 5   0  0.1635955E-05  0.2309950E+04  0.7818609E-02  0.8474008E-01
       -2   -1    0    0    0  501  0.00000000000E+00  0.00000000000E+00  0.61802120174E+03  0.61802120174E+03  0.25500000920E-02 0. -1.
        2   -1    0    0  501    0  0.00000000000E+00  0.00000000000E+00 -0.21584486849E+04  0.21584486849E+04  0.25500000920E-02 0.  1.
    10030    2    1    2    0    0  0.00000000000E+00  0.00000000000E+00 -0.15404274831E+04  0.27764698866E+04  0.23099498264E+04 0.  0.
        2    1    3    3  502    0  0.61684990823E+03  0.44474082145E+03 -0.18150691104E+04  0.19679365039E+04  0.25500000920E-02 0.  1.
       -2    1    3    3    0  502 -0.61684990823E+03 -0.44474082145E+03  0.27464162731E+03  0.80853338274E+03  0.25500000920E-02 0. -1.
</event>
<event>
 5   0  0.1602809E-05  0.2295611E+04  0.7818609E-02  0.8479654E-01
        2   -1    0    0  501    0  0.00000000000E+00  0.00000000000E+00  0.15021039141E+04  0.15021039141E+04  0.25500000920E-02 0.  1.
       -2   -1    0    0    0  501  0.00000000000E+00  0.00000000000E+00 -0.87707489687E+03  0.87707489688E+03  0.25500000920E-02 0. -1.
    10030    2    1    2    0    0  0.00000000000E+00  0.00000000000E+00  0.62502901720E+03  0.23791788110E+04  0.22956111479E+04 0.  0.
        3    1    3    3  502    0 -0.97330305299E+03 -0.47117174857E+03  0.71140990984E+03  0.12943823699E+04  0.10100000352E+00 0.  1.
       -3    1    3    3    0  502  0.97330305299E+03  0.47117174857E+03 -0.86380892643E+02  0.10847964410E+04  0.10100000352E+00 0. -1.
</event>
<event>
 5   0  0.1697855E-05  0.2292871E+04  0.7818609E-02  0.8480737E-01
       -2   -1    0    0    0  501  0.00000000000E+00  0.00000000000E+00  0.63705533623E+03  0.63705533624E+03  0.25500000920E-02 0.  1.
        2   -1    0    0  501    0  0.00000000000E+00  0.00000000000E+00 -0.20631093046E+04  0.20631093046E+04  0.25500000920E-02 0. -1.
    10030    2    1    2    0    0  0.00000000000E+00  0.00000000000E+00 -0.14260539683E+04  0.27001646408E+04  0.22928713804E+04 0.  0.
        5    1    3    3  502    0  0.10263344618E+04  0.50976001872E+03 -0.75163827202E+03  0.13704743289E+04  0.46999998093E+01 0.  1.
       -5    1    3    3    0  502 -0.10263344618E+04 -0.50976001872E+03 -0.67441569631E+03  0.13296903119E+04  0.46999998093E+01 0. -1.
</event>
<event>
 5   0  0.1588969E-05  0.2296170E+04  0.7818609E-02  0.8479433E-01
        2   -1    0    0  501    0  0.00000000000E+00  0.00000000000E+00  0.11131739930E+04  0.11131739930E+04  0.25500000920E-02 0. -1.
       -2   -1    0    0    0  501  0.00000000000E+00  0.00000000000E+00 -0.11840906665E+04  0.11840906665E+04  0.25500000920E-02 0.  1.
    10030    2    1    2    0    0  0.00000000000E+00  0.00000000000E+00 -0.70916673520E+02  0.22972646594E+04  0.22961697979E+04 0.  0.
        1    1    3    3  502    0  0.12733648228E+03 -0.12648836146E+03 -0.11699677531E+04  0.11836546914E+04  0.50400001928E-02 0.  1.
       -1    1    3    3    0  502 -0.12733648228E+03  0.12648836146E+03  0.10990510796E+04  0.11136099680E+04  0.50400001928E-02 0. -1.
</event>
<event>
 5   0  0.7391007E-06  0.2300792E+04  0.7818609E-02  0.8477609E-01
        1   -1    0    0  501    0  0.00000000000E+00  0.00000000000E+00  0.10931319128E+04  0.10931319128E+04  0.50400001928E-02 0.  1.
       -1   -1    0    0    0  501  0.00000000000E+00  0.00000000000E+00 -0.12106599404E+04  0.12106599404E+04  0.50400001928E-02 0. -1.
    10030    2    1    2    0    0  0.00000000000E+00  0.00000000000E+00 -0.11752802767E+03  0.23037918532E+04  0.23007920518E+04 0.  0.
        1    1    3    3  502    0  0.23800215646E+03  0.95471350705E+02 -0.11816766693E+04  0.12091813578E+04  0.50400001928E-02 0. -1.
       -1    1    3    3    0  502 -0.23800215646E+03 -0.95471350705E+02  0.10641486416E+04  0.10946104954E+04  0.50400001928E-02 0.  1.
</event>
<event>
 5   0  0.1635955E-05  0.2297882E+04  0.7818609E-02  0.8478757E-01
       -2   -1    0    0    0  501  0.00000000000E+00  0.00000000000E+00  0.55390879423E+03  0.55390879424E+03  0.25500000920E-02 0.  1.
        2   -1    0    0  501    0  0.00000000000E+00  0.00000000000E+00 -0.23831822035E+04  0.23831822035E+04  0.25500000920E-02 0. -1.
    10030    2    1    2    0    0  0.00000000000E+00  0.00000000000E+00 -0.18292734092E+04  0.29370909977E+04  0.22978821386E+04 0.  0.
        2    1    3    3  502    0 -0.82389731264E+03  0.21816100840E+03  0.70190913937E+02  0.85517704118E+03  0.25500000920E-02 0.  1.
       -2    1    3    3    0  502  0.82389731264E+03 -0.21816100840E+03 -0.18994643232E+04  0.20819139565E+04  0.25500000920E-02 0. -1.
</event>
<event>
 5   0  0.7278815E-06  0.2297195E+04  0.7818609E-02  0.8479028E-01
        1   -1    0    0  501    0  0.00000000000E+00  0.00000000000E+00  0.93385682784E+03  0.93385682785E+03  0.50400001928E-02 0.  1.
       -1   -1    0    0    0  501  0.00000000000E+00  0.00000000000E+00 -0.14127180249E+04  0.14127180249E+04  0.50400001928E-02 0. -1.
    10030    2    1    2    0    0  0.00000000000E+00  0.00000000000E+00 -0.47886119710E+03  0.23465748528E+04  0.22971951362E+04 0.  0.
        5    1    3    3  502    0  0.47689069650E+03  0.55293996784E+03  0.66624322234E+03  0.98846824216E+03  0.46999998093E+01 0.  1.
       -5    1    3    3    0  502 -0.47689069650E+03 -0.55293996784E+03 -0.11451044194E+04  0.13581066106E+04  0.46999998093E+01 0. -1.
</event>
<event>
 5   0  0.1697855E-05  0.2295975E+04  0.7818609E-02  0.8479510E-01
        2   -1    0    0  501    0  0.00000000000E+00  0.00000000000E+00  0.13361279836E+04  0.13361279836E+04  0.25500000920E-02 0. -1.
       -2   -1    0    0    0  501  0.00000000000E+00  0.00000000000E+00 -0.98633913019E+03  0.98633913019E+03  0.25500000920E-02 0.  1.
    10030    2    1    2    0    0  0.00000000000E+00  0.00000000000E+00  0.34978885345E+03  0.23224671138E+04  0.22959750114E+04 0.  0.
        5    1    3    3  502    0  0.11634058383E+03 -0.16039209131E+03 -0.96890134582E+03  0.98896545052E+03  0.46999998093E+01 0.  1.
       -5    1    3    3    0  502 -0.11634058383E+03  0.16039209131E+03  0.13186901993E+04  0.13335016633E+04  0.46999998093E+01 0. -1.
</event>
<event>
 5   0  0.7416556E-06  0.2302419E+04  0.7818609E-02  0.8476968E-01
       -1   -1    0    0    0  501  0.00000000000E+00  0.00000000000E+00  0.13317906071E+04  0.13317906071E+04  0.50400001928E-02 0. -1.
        1   -1    0    0  501    0  0.00000000000E+00  0.00000000000E+00 -0.99511429638E+03  0.99511429639E+03  0.50400001928E-02 0.  1.
    10030    2    1    2    0    0  0.00000000000E+00  0.00000000000E+00  0.33667631071E+03  0.23269049035E+04  0.23024194865E+04 0.  0.
        4    1    3    3  502    0  0.28260554312E+03 -0.11116854430E+04  0.26721439930E+03  0.11777587042E+04  0.12699999809E+01 0.  1.
       -4    1    3    3    0  502 -0.28260554312E+03  0.11116854430E+04  0.69461911414E+02  0.11491461993E+04  0.12699999809E+01 0. -1.
</event>
<event>
 5   0  0.1626636E-05  0.2305751E+04  0.7818609E-02  0.8475657E-01
        2   -1    0    0  501    0  0.00000000000E+00  0.00000000000E+00  0.12961813535E+04  0.12961813535E+04  0.25500000920E-02 0.  1.
       -2   -1    0    0    0  501  0.00000000000E+00  0.00000000000E+00 -0.10254139803E+04  0.10254139804E+04  0.25500000920E-02 0. -1.
    10030    2    1    2    0    0  0.00000000000E+00  0.00000000000E+00  0.27076737315E+03  0.23215953338E+04  0.23057514879E+04 0.  0.
        4    1    3    3  502    0 -0.19874112682E+02  0.38270472272E+03 -0.95940694051E+03  0.10331123731E+04  0.12699999809E+01 0. -1.
       -4    1    3    3    0  502  0.19874112682E+02 -0.38270472272E+03  0.12301743137E+04  0.12884829607E+04  0.12699999809E+01 0.  1.
</event>
<event>
 5   0  0.7391007E-06  0.2285335E+04  0.7818609E-02  0.8483726E-01
       -1   -1    0    0    0  501  0.00000000000E+00  0.00000000000E+00  0.10048402545E+04  0.10048402545E+04  0.50400001928E-02 0. -1.
        1   -1    0    0  501    0  0.00000000000E+00  0.00000000000E+00 -0.12993991860E+04  0.12993991860E+04  0.50400001928E-02 0.  1.
    10030    2    1    2    0    0  0.00000000000E+00  0.00000000000E+00 -0.29455893156E+03  0.23042394405E+04  0.22853346440E+04 0.  0.
        1    1    3    3  502    0 -0.75528297438E+03 -0.82260830164E+03  0.96697036016E+02  0.11209313566E+04  0.50400001928E-02 0.  1.
       -1    1    3    3    0  502  0.75528297438E+03  0.82260830164E+03 -0.39125596757E+03  0.11833080839E+04  0.50400001928E-02 0. -1.
</event>
<event>
 5   0  0.1588969E-05  0.2299890E+04  0.7818609E-02  0.8477965E-01
        2   -1    0    0  501    0  0.00000000000E+00  0.00000000000E+00  0.18646612074E+04  0.18646612074E+04  0.25500000920E-02 0.  1.
       -2   -1    0    0    0  501  0.00000000000E+00  0.00000000000E+00 -0.70917605150E+03  0.70917605150E+03  0.25500000920E-02 0. -1.
    10030    2    1    2    0    0  0.00000000000E+00  0.00000000000E+00  0.11554851559E+04  0.25738372589E+04  0.22998896256E+04 0.  0.
        1    1    3    3  502    0 -0.10874582430E+04  0.12990531366E+03  0.97012270852E+03  0.14630717311E+04  0.50400001928E-02 0.  1.
       -1    1    3    3    0  502  0.10874582430E+04 -0.12990531366E+03  0.18536244742E+03  0.11107655278E+04  0.50400001928E-02 0. -1.
</event>
<event>
 5   0  0.7416556E-06  0.2260685E+04  0.7818609E-02  0.8493586E-01
       -1   -1    0    0    0  501  0.00000000000E+00  0.00000000000E+00  0.48485889481E+03  0.48485889484E+03  0.50400001928E-02 0.  1.
        1   -1    0    0  501    0  0.00000000000E+00  0.00000000000E+00 -0.26351469918E+04  0.26351469918E+04  0.50400001928E-02 0. -1.
    10030    2    1    2    0    0  0.00000000000E+00  0.00000000000E+00 -0.21502880970E+04  0.31200058867E+04  0.22606852573E+04 0.  0.
        4    1    3    3  502    0  0.19716170393E+03 -0.50143556516E+03 -0.24465108182E+04  0.25051401477E+04  0.12699999809E+01 0. -1.
       -4    1    3    3    0  502 -0.19716170393E+03  0.50143556516E+03  0.29622272113E+03  0.61486573894E+03  0.12699999809E+01 0.  1.
</event>
<event>
 5   0  0.1602809E-05  0.2333602E+04  0.7818609E-02  0.8464789E-01
        2   -1    0    0  501    0  0.00000000000E+00  0.00000000000E+00  0.10149554896E+04  0.10149554896E+04  0.25500000920E-02 0.  1.
       -2   -1    0    0    0  501  0.00000000000E+00  0.00000000000E+00 -0.13413634337E+04  0.13413634337E+04  0.25500000920E-02 0. -1.
    10030    2    1    2    0    0  0.00000000000E+00  0.00000000000E+00 -0.32640794413E+03  0.23563189233E+04  0.23336016632E+04 0.  0.
        3    1    3    3  502    0 -0.86569685463E+03 -0.29447425234E+03 -0.89502008634E+03  0.12795339365E+04  0.10100000352E+00 0. -1.
       -3    1    3    3    0  502  0.86569685463E+03  0.29447425234E+03  0.56861214222E+03  0.10767849868E+04  0.10100000352E+00 0.  1.
</event>
<event>
 5   0  0.7183014E-06  0.2297553E+04  0.7818609E-02  0.8478887E-01
       -1   -1    0    0    0  501  0.00000000000E+00  0.00000000000E+00  0.10174128641E+04  0.10174128641E+04  0.50400001928E-02 0.  1.
        1   -1    0    0  501    0  0.00000000000E+00  0.00000000000E+00 -0.12971006661E+04  0.12971006661E+04  0.50400001928E-02 0. -1.
    10030    2    1    2    0    0  0.00000000000E+00  0.00000000000E+00 -0.27968780200E+03  0.23145135303E+04  0.22975525272E+04 0.  0.
        3    1    3    3  502    0  0.49704519777E+03 -0.95114693733E+03 -0.55268932059E+03  0.12071453601E+04  0.10100000352E+00 0. -1.
       -3    1    3    3    0  502 -0.49704519777E+03  0.95114693733E+03  0.27300151858E+03  0.11073681702E+04  0.10100000352E+00 0.  1.
</event>
<event>
 5   0  0.1588969E-05  0.2310528E+04  0.7818609E-02  0.8473782E-01
       -2   -1    0    0    0  501  0.00000000000E+00  0.00000000000E+00  0.21218012560E+04  0.21218012560E+04  0.25500000920E-02 0.  1.
        2   -1    0    0  501    0  0.00000000000E+00  0.00000000000E+00 -0.62901014527E+03  0.62901014528E+03  0.25500000920E-02 0. -1.
    10030    2    1    2    0    0  0.00000000000E+00  0.00000000000E+00  0.14927911107E+04  0.27508114013E+04  0.23105276595E+04 0.  0.
        1    1    3    3  502    0 -0.41539007532E+03 -0.56352124612E+03  0.18404955907E+04  0.19691442631E+04  0.50400001928E-02 0.  1.
       -1    1    3    3    0  502  0.41539007532E+03  0.56352124612E+03 -0.34770447996E+03  0.78166713818E+03  0.50400001928E-02 0. -1.
</event>
<event>
 5   0  0.7416556E-06  0.2306106E+04  0.7818609E-02  0.8475518E-01
       -1   -1    0    0    0  501  0.00000000000E+00  0.00000000000E+00  0.90288278732E+03  0.90288278733E+03  0.50400001928E-02 0. -1.
        1   -1    0    0  501    0  0.00000000000E+00  0.00000000000E+00 -0.14725399036E+04  0.14725399036E+04  0.50400001928E-02 0.  1.
    10030    2    1    2    0    0  0.00000000000E+00  0.00000000000E+00 -0.56965711626E+03  0.23754226909E+04  0.23061057501E+04 0.  0.
        4    1    3    3  502    0  0.78369028944E+03  0.77337572478E+03  0.67879966441E+02  0.11031272747E+04  0.12699999809E+01 0. -1.
       -4    1    3    3    0  502 -0.78369028944E+03 -0.77337572478E+03 -0.63753708270E+03  0.12722954162E+04  0.12699999809E+01 0.  1.
</event>
<event>
 5   0  0.1602809E-05  0.2309293E+04  0.7818609E-02  0.8474266E-01
        2   -1    0    0  501    0  0.00000000000E+00  0.00000000000E+00  0.16609671545E+04  0.16609671545E+04  0.25500000920E-02 0. -1.
       -2   -1    0    0    0  501  0.00000000000E+00  0.00000000000E+00 -0.80266986553E+03  0.80266986553E+03  0.25500000920E-02 0.  1.
    10030    2    1    2    0    0  0.00000000000E+00  0.00000000000E+00  0.85829728901E+03  0.24636370201E+04  0.23092927771E+04 0.  0.
        3    1    3    3  502    0 -0.73605129862E+03 -0.72291315692E+03 -0.12399671919E+03  0.10391102652E+04  0.10100000352E+00 0.  1.
       -3    1    3    3    0  502  0.73605129862E+03  0.72291315692E+03  0.98229400819E+03  0.14245267549E+04  0.10100000352E+00 0. -1.
</event>
<event>
 5   0  0.7416556E-06  0.2311136E+04  0.7818609E-02  0.8473543E-01
        1   -1    0    0  501    0  0.00000000000E+00  0.00000000000E+00  0.19863409405E+04  0.19863409405E+04  0.50400001928E-02 0. -1.
       -1   -1    0    0    0  501  0.00000000000E+00  0.00000000000E+00 -0.67225968704E+03  0.67225968706E+03  0.50400001928E-02 0.  1.
    10030    2    1    2    0    0  0.00000000000E+00  0.00000000000E+00  0.13140812535E+04  0.26586006276E+04  0.23111355988E+04 0.  0.
        4    1    3    3  502    0 -0.29807542047E+03  0.27672681870E+03  0.19012791672E+04  0.19442969868E+04  0.12699999809E+01 0. -1.
       -4    1    3    3    0  502  0.29807542047E+03 -0.27672681870E+03 -0.58719791369E+03  0.71430364077E+03  0.12699999809E+01 0.  1.
</event>
<event>
 5   0  0.5704875E-06  0.2277279E+04  0.7818609E-02  0.8486934E-01
        3   -1    0    0  501    0  0.00000000000E+00  0.00000000000E+00  0.70929818771E+03  0.70929819490E+03  0.10100000352E+00 0.  1.
       -3   -1    0    0    0  501  0.00000000000E+00  0.00000000000E+00 -0.18278621837E+04  0.18278621865E+04  0.10100000352E+00 0. -1.
    10030    2    1    2    0    0  0.00000000000E+00  0.00000000000E+00 -0.11185639960E+04  0.25371603814E+04  0.22772785047E+04 0.  0.
        4    1    3    3  502    0  0.11110960205E+03 -0.72413247876E+03  0.41184717687E+03  0.84043613705E+03  0.12699999809E+01 0.  1.
       -4    1    3    3    0  502 -0.11110960205E+03  0.72413247876E+03 -0.15304111729E+04  0.16967242444E+04  0.12699999809E+01 0. -1.
</event>
<event>
 5   0  0.7416556E-06  0.2301086E+04  0.7818609E-02  0.8477493E-01
        1   -1    0    0  501    0  0.00000000000E+00  0.00000000000E+00  0.14060541847E+04  0.14060541847E+04  0.50400001928E-02 0. -1.
       -1   -1    0    0    0  501  0.00000000000E+00  0.00000000000E+00 -0.94146351356E+03  0.94146351358E+03  0.50400001928E-02 0.  1.
    10030    2    1    2    0    0  0.00000000000E+00  0.00000000000E+00  0.46459067114E+03  0.23475176983E+04  0.23010855812E+04 0.  0.
        4    1    3    3  502    0  0.31769346335E+03 -0.29098136524E+03 -0.85607184511E+03  0.95836314019E+03  0.12699999809E+01 0.  1.
       -4    1    3    3    0  502 -0.31769346335E+03  0.29098136524E+03  0.13206625163E+04  0.13891545581E+04  0.12699999809E+01 0. -1.
</event>
<event>
 5   0  0.7278815E-06  0.2296301E+04  0.7818609E-02  0.8479381E-01
       -1   -1    0    0    0  501  0.00000000000E+00  0.00000000000E+00  0.84485299670E+03  0.84485299671E+03  0.50400001928E-02 0.  1.
        1   -1    0    0  501    0  0.00000000000E+00  0.00000000000E+00 -0.15603303954E+04  0.15603303954E+04  0.50400001928E-02 0. -1.
    10030    2    1    2    0    0  0.00000000000E+00  0.00000000000E+00 -0.71547739870E+03  0.24051833921E+04  0.22963012088E+04 0.  0.
        5    1    3    3  502    0  0.46929791823E+03 -0.80680897678E+03 -0.10580573165E+04  0.14109176574E+04  0.46999998093E+01 0. -1.
       -5    1    3    3    0  502 -0.46929791823E+03  0.80680897678E+03  0.34257991780E+03  0.99426573467E+03  0.46999998093E+01 0.  1.
</event>
<event>
 5   0  0.1635955E-05  0.2310462E+04  0.7818609E-02  0.8473807E-01
       -2   -1    0    0    0  501  0.00000000000E+00  0.00000000000E+00  0.67077795440E+03  0.67077795440E+03  0.25500000920E-02 0.  1.
        2   -1    0    0  501    0  0.00000000000E+00  0.00000000000E+00 -0.19895688635E+04  0.19895688635E+04  0.25500000920E-02 0. -1.
    10030    2    1    2    0    0  0.00000000000E+00  0.00000000000E+00 -0.13187909091E+04  0.26603468179E+04  0.23104622329E+04 0.  0.
        2    1    3    3  502    0 -0.20355457397E+03 -0.93903338508E+03 -0.13978780455E+04  0.16962550495E+04  0.25500000920E-02 0. -1.
       -2    1    3    3    0  502  0.20355457397E+03  0.93903338508E+03  0.79087136333E+02  0.96409176846E+03  0.25500000920E-02 0.  1.
</event>
<event>
 5   0  0.1626636E-05  0.2305984E+04  0.7818609E-02  0.8475565E-01
       -2   -1    0    0    0  501  0.00000000000E+00  0.00000000000E+00  0.99069541984E+03  0.99069541984E+03  0.25500000920E-02 0.  1.
        2   -1    0    0  501    0  0.00000000000E+00  0.00000000000E+00 -0.13418760620E+04  0.13418760620E+04  0.25500000920E-02 0. -1.
    10030    2    1    2    0    0  0.00000000000E+00  0.00000000000E+00 -0.35118064219E+03  0.23325714819E+04  0.23059839276E+04 0.  0.
        4    1    3    3  502    0 -0.12991105213E+03 -0.97582265293E+03 -0.78274597421E+03  0.12576961495E+04  0.12699999809E+01 0. -1.
       -4    1    3    3    0  502  0.12991105213E+03  0.97582265293E+03  0.43156533202E+03  0.10748753324E+04  0.12699999809E+01 0.  1.
</event>
<event>
 5   0  0.1602809E-05  0.2302897E+04  0.7818609E-02  0.8476780E-01
       -2   -1    0    0    0  501  0.00000000000E+00  0.00000000000E+00  0.18862128920E+04  0.18862128920E+04  0.25500000920E-02 0. -1.
        2   -1    0    0  501    0  0.00000000000E+00  0.00000000000E+00 -0.70290803591E+03  0.70290803591E+03  0.25500000920E-02 0.  1.
    10030    2    1    2    0    0  0.00000000000E+00  0.00000000000E+00  0.11833048561E+04  0.25891209279E+04  0.23028974786E+04 0.  0.
        3    1    3    3  502    0 -0.72303053729E+03 -0.64715804950E+03 -0.10526808967E+03  0.97604717088E+03  0.10100000352E+00 0.  1.
       -3    1    3    3    0  502  0.72303053729E+03  0.64715804950E+03  0.12885729458E+04  0.16130737571E+04  0.10100000352E+00 0. -1.
</event>
<event>
 5   0  0.1697855E-05  0.2308400E+04  0.7818609E-02  0.8474616E-01
       -2   -1    0    0    0  501  0.00000000000E+00  0.00000000000E+00  0.92930546207E+03  0.92930546207E+03  0.25500000920E-02 0.  1.
        2   -1    0    0  501    0  0.00000000000E+00  0.00000000000E+00 -0.14335197970E+04  0.14335197970E+04  0.25500000920E-02 0. -1.
    10030    2    1    2    0    0  0.00000000000E+00  0.00000000000E+00 -0.50421433491E+03  0.23628252590E+04  0.23084001190E+04 0.  0.
        5    1    3    3  502    0 -0.18130113206E+03 -0.87139348132E+03  0.50003667434E+03  0.10209091367E+04  0.46999998093E+01 0.  1.
       -5    1    3    3    0  502  0.18130113206E+03  0.87139348132E+03 -0.10042510093E+04  0.13419161223E+04  0.46999998093E+01 0. -1.
</event>
<event>
 5   0  0.7416556E-06  0.2299037E+04  0.7818609E-02  0.8478301E-01
        1   -1    0    0  501    0  0.00000000000E+00  0.00000000000E+00  0.14871229334E+04  0.14871229334E+04  0.50400001928E-02 0.  1.
       -1   -1    0    0    0  501  0.00000000000E+00  0.00000000000E+00 -0.88855614654E+03  0.88855614656E+03  0.50400001928E-02 0. -1.
    10030    2    1    2    0    0  0.00000000000E+00  0.00000000000E+00  0.59856678686E+03  0.23756790800E+04  0.22990365140E+04 0.  0.
        4    1    3    3  502    0  0.10848411441E+04  0.30667553440E+03  0.53140594219E+03  0.12463242273E+04  0.12699999809E+01 0.  1.
       -4    1    3    3    0  502 -0.10848411441E+04 -0.30667553440E+03  0.67160844670E+02  0.11293548527E+04  0.12699999809E+01 0. -1.
</event>
<event>
 5   0  0.7391007E-06  0.2301637E+04  0.7818609E-02  0.8477276E-01
       -1   -1    0    0    0  501  0.00000000000E+00  0.00000000000E+00  0.92609474893E+03  0.92609474895E+03  0.50400001928E-02 0. -1.
        1   -1    0    0  501    0  0.00000000000E+00  0.00000000000E+00 -0.14300728238E+04  0.14300728238E+04  0.50400001928E-02 0.  1.
    10030    2    1    2    0    0  0.00000000000E+00  0.00000000000E+00 -0.50397807488E+03  0.23561675728E+04  0.23016367504E+04 0.  0.
        1    1    3    3  502    0  0.11006561095E+04 -0.25535123434E+03 -0.28329726290E+02  0.11302436453E+04  0.50400001928E-02 0. -1.
       -1    1    3    3    0  502 -0.11006561095E+04  0.25535123434E+03 -0.47564834859E+03  0.12259239275E+04  0.50400001928E-02 0.  1.
</event>
<event>
 5   0  0.1602809E-05  0.2326078E+04  0.7818609E-02  0.8467709E-01
        2   -1    0    0  501    0  0.00000000000E+00  0.00000000000E+00  0.15986560744E+04  0.15986560744E+04  0.25500000920E-02 0. -1.
       -2   -1    0    0    0  501  0.00000000000E+00  0.00000000000E+00 -0.84612300581E+03  0.84612300581E+03  0.25500000920E-02 0.  1.
    10030    2    1    2    0    0  0.00000000000E+00  0.00000000000E+00  0.75253306858E+03  0.24447790802E+04  0.23260779720E+04 0.  0.
        3    1    3    3  502    0  0.11320438895E+04  0.15008222624E+03  0.60799823317E+03  0.12937194070E+04  0.10100000352E+00 0. -1.
       -3    1    3    3    0  502 -0.11320438895E+04 -0.15008222624E+03  0.14453483541E+03  0.11510596732E+04  0.10100000352E+00 0.  1.
</event>
<event>
 5   0  0.1588969E-05  0.2314482E+04  0.7818609E-02  0.8472233E-01
        2   -1    0    0  501    0  0.00000000000E+00  0.00000000000E+00  0.22942605309E+04  0.22942605309E+04  0.25500000920E-02 0.  1.
       -2   -1    0    0    0  501  0.00000000000E+00  0.00000000000E+00 -0.58372060642E+03  0.58372060643E+03  0.25500000920E-02 0. -1.
    10030    2    1    2    0    0  0.00000000000E+00  0.00000000000E+00  0.17105399244E+04  0.28779811373E+04  0.23144823597E+04 0.  0.
        1    1    3    3  502    0  0.23678983110E+03  0.55320266410E+03 -0.37387918157E+03  0.70844072025E+03  0.50400001928E-02 0. -1.
       -1    1    3    3    0  502 -0.23678983110E+03 -0.55320266410E+03  0.20844191060E+04  0.21695404170E+04  0.50400001928E-02 0.  1.
</event>
<event>
 5   0  0.1602809E-05  0.2298017E+04  0.7818609E-02  0.8478703E-01
        2   -1    0    0  501    0  0.00000000000E+00  0.00000000000E+00  0.73120729693E+03  0.73120729693E+03  0.25500000920E-02 0. -1.
       -2   -1    0    0    0  501  0.00000000000E+00  0.00000000000E+00 -0.18055356492E+04  0.18055356492E+04  0.25500000920E-02 0.  1.
    10030    2    1    2    0    0  0.00000000000E+00  0.00000000000E+00 -0.10743283523E+04  0.25367429462E+04  0.22980172685E+04 0.  0.
        3    1    3    3  502    0  0.64802710559E+03  0.16758685730E+03 -0.15680968526E+04  0.17049786608E+04  0.10100000352E+00 0.  1.
       -3    1    3    3    0  502 -0.64802710559E+03 -0.16758685730E+03  0.49376850032E+03  0.83176428538E+03  0.10100000352E+00 0. -1.
</event>
<event>
 5   0  0.7183014E-06  0.2293508E+04  0.7818609E-02  0.8480485E-01
        1   -1    0    0  501    0  0.00000000000E+00  0.00000000000E+00  0.94291044250E+03  0.94291044251E+03  0.50400001928E-02 0.  1.
       -1   -1    0    0    0  501  0.00000000000E+00  0.00000000000E+00 -0.13946658630E+04  0.13946658630E+04  0.50400001928E-02 0. -1.
    10030    2    1    2    0    0  0.00000000000E+00  0.00000000000E+00 -0.45175542054E+03  0.23375763056E+04  0.22935082351E+04 0.  0.
        3    1    3    3  502    0  0.40393241387E+03 -0.47154996821E+03 -0.12085209026E+04  0.13586918524E+04  0.10100000352E+00 0. -1.
       -3    1    3    3    0  502 -0.40393241387E+03  0.47154996821E+03  0.75676548210E+03  0.97888445314E+03  0.10100000352E+00 0.  1.
</event>
<event>
 5   0  0.1635955E-05  0.2302825E+04  0.7818609E-02  0.8476808E-01
        2   -1    0    0  501    0  0.00000000000E+00  0.00000000000E+00  0.97318058059E+03  0.97318058059E+03  0.25500000920E-02 0.  1.
       -2   -1    0    0    0  501  0.00000000000E+00  0.00000000000E+00 -0.13622870492E+04  0.13622870492E+04  0.25500000920E-02 0. -1.
    10030    2    1    2    0    0  0.00000000000E+00  0.00000000000E+00 -0.38910646857E+03  0.23354676298E+04  0.23028254831E+04 0.  0.
        2    1    3    3  502    0 -0.14775010652E+03 -0.37743181939E+03  0.89843668455E+03  0.98563347570E+03  0.25500000920E-02 0.  1.
       -2    1    3    3    0  502  0.14775010652E+03  0.37743181939E+03 -0.12875431531E+04  0.13498341541E+04  0.25500000920E-02 0. -1.
</event>
<event>
 5   0  0.7391007E-06  0.2303866E+04  0.7818609E-02  0.8476399E-01
       -1   -1    0    0    0  501  0.00000000000E+00  0.00000000000E+00  0.10759157819E+04  0.10759157819E+04  0.50400001928E-02 0. -1.
        1   -1    0    0  501    0  0.00000000000E+00  0.00000000000E+00 -0.12333207226E+04  0.12333207226E+04  0.50400001928E-02 0.  1.
    10030    2    1    2    0    0  0.00000000000E+00  0.00000000000E+00 -0.15740494068E+03  0.23092365045E+04  0.23038656467E+04 0.  0.
        1    1    3    3  502    0 -0.36755657737E+03  0.42501086005E+03 -0.10866396861E+04  0.12233224743E+04  0.50400001928E-02 0.  1.
       -1    1    3    3    0  502  0.36755657737E+03 -0.42501086005E+03  0.92923474543E+03  0.10859140302E+04  0.50400001928E-02 0. -1.
</event>
<event>
 5   0  0.1602809E-05  0.2300188E+04  0.7818609E-02  0.8477847E-01
        2   -1    0    0  501    0  0.00000000000E+00  0.00000000000E+00  0.12389698631E+04  0.12389698631E+04  0.25500000920E-02 0. -1.
       -2   -1    0    0    0  501  0.00000000000E+00  0.00000000000E+00 -0.10675938967E+04  0.10675938967E+04  0.25500000920E-02 0.  1.
    10030    2    1    2    0    0  0.00000000000E+00  0.00000000000E+00  0.17137596637E+03  0.23065637598E+04  0.23001883958E+04 0.  0.
        3    1    3    3  502    0  0.92931002630E+03  0.24543940680E+03 -0.54761534225E+03  0.11062279153E+04  0.10100000352E+00 0.  1.
       -3    1    3    3    0  502 -0.92931002630E+03 -0.24543940680E+03  0.71899130862E+03  0.12003358444E+04  0.10100000352E+00 0. -1.
</event>
<event>
 5   0  0.1635955E-05  0.2289849E+04  0.7818609E-02  0.8481934E-01
       -2   -1    0    0    0  501  0.00000000000E+00  0.00000000000E+00  0.16707297010E+04  0.16707297010E+04  0.25500000920E-02 0. -1.
        2   -1    0    0  501    0  0.00000000000E+00  0.00000000000E+00 -0.78459835030E+03  0.78459835031E+03  0.25500000920E-02 0.  1.
    10030    2    1    2    0    0  0.00000000000E+00  0.00000000000E+00  0.88613135071E+03  0.24553280513E+04  0.22898487000E+04 0.  0.
        2    1    3    3  502    0 -0.28611803963E+03 -0.92472640127E+03 -0.21257011093E+03  0.99104414728E+03  0.25500000920E-02 0.  1.
       -2    1    3    3    0  502  0.28611803963E+03  0.92472640127E+03  0.10987014616E+04  0.14642839040E+04  0.25500000920E-02 0. -1.
</event>
<event>
 5   0  0.7391007E-06  0.2365089E+04  0.7818609E-02  0.8452690E-01
        1   -1    0    0  501    0  0.00000000000E+00  0.00000000000E+00  0.12455285535E+04  0.12455285535E+04  0.50400001928E-02 0.  1.
       -1   -1    0    0    0  501  0.00000000000E+00  0.00000000000E+00 -0.11227457770E+04  0.11227457770E+04  0.50400001928E-02 0. -1.
    10030    2    1    2    0    0  0.00000000000E+00  0.00000000000E+00  0.12278277651E+03  0.23682743304E+04  0.23650893628E+04 0.  0.
        1    1    3    3  502    0  0.10540250312E+04  0.12019351078E+03 -0.46180306761E+03  0.11570122384E+04  0.50400001928E-02 0. -1.
       -1    1    3    3    0  502 -0.10540250312E+04 -0.12019351078E+03  0.58458584411E+03  0.12112620921E+04  0.50400001928E-02 0.  1.
</event>
<event>
 5   0  0.1697855E-05  0.2302168E+04  0.7818609E-02  0.8477067E-01
        2   -1    0    0  501    0  0.00000000000E+00  0.00000000000E+00  0.12158066923E+04  0.12158066923E+04  0.25500000920E-02 0.  1.
       -2   -1    0    0    0  501  0.00000000000E+00  0.00000000000E+00 -0.10898072260E+04  0.10898072260E+04  0.25500000920E-02 0. -1.
    10030    2    1    2    0    0  0.00000000000E+00  0.00000000000E+00  0.12599946636E+03  0.23056139183E+04  0.23021684723E+04 0.  0.
        5    1    3    3  502    0 -0.58201854785E+03  0.79366642037E+03  0.66081926773E+03  0.11854771915E+04  0.46999998093E+01 0.  1.
       -5    1    3    3    0  502  0.58201854785E+03 -0.79366642037E+03 -0.53481980137E+03  0.11201367268E+04  0.46999998093E+01 0. -1.
</event>
<event>
 5   0  0.1635955E-05  0.2278813E+04  0.7818609E-02  0.8486322E-01
       -2   -1    0    0    0  501  0.00000000000E+00  0.00000000000E+00  0.78780702150E+03  0.78780702150E+03  0.25500000920E-02 0. -1.
        2   -1    0    0  501    0  0.00000000000E+00  0.00000000000E+00 -0.16479255740E+04  0.16479255740E+04  0.25500000920E-02 0.  1.
    10030    2    1    2    0    0  0.00000000000E+00  0.00000000000E+00 -0.86011855248E+03  0.24357325955E+04  0.22788131456E+04 0.  0.
        2    1    3    3  502    0 -0.41593114163E+03  0.64324014927E+03  0.47152331261E+03  0.89949476850E+03  0.25500000920E-02 0. -1.
       -2    1    3    3    0  502  0.41593114163E+03 -0.64324014927E+03 -0.13316418651E+04  0.15362378270E+04  0.25500000920E-02 0.  1.
</event>
<event>
 5   0  0.1697855E-05  0.2315215E+04  0.7818609E-02  0.8471946E-01
       -2   -1    0    0    0  501  0.00000000000E+00  0.00000000000E+00  0.90078288036E+03  0.90078288037E+03  0.25500000920E-02 0. -1.
        2   -1    0    0  501    0  0.00000000000E+00  0.00000000000E+00 -0.14876565388E+04  0.14876565388E+04  0.25500000920E-02 0.  1.
    10030    2    1    2    0    0  0.00000000000E+00  0.00000000000E+00 -0.58687365847E+03  0.23884394192E+04  0.23152153611E+04 0.  0.
        5    1    3    3  502    0 -0.70021629720E+03 -0.53841428166E+03 -0.10653261810E+04  0.13838839415E+04  0.46999998093E+01 0.  1.
       -5    1    3    3    0  502  0.70021629720E+03  0.53841428166E+03  0.47845252251E+03  0.10045554777E+04  0.46999998093E+01 0. -1.
</event>
<event>
 5   0  0.7391007E-06  0.2297405E+04  0.7818609E-02  0.8478945E-01
        1   -1    0    0  501    0  0.00000000000E+00  0.00000000000E+00  0.16003066473E+04  0.16003066473E+04  0.50400001928E-02 0. -1.
       -1   -1    0    0    0  501  0.00000000000E+00  0.00000000000E+00 -0.82454056322E+03  0.82454056323E+03  0.50400001928E-02 0.  1.
    10030    2    1    2    0    0  0.00000000000E+00  0.00000000000E+00  0.77576608404E+03  0.24248472105E+04  0.22974052705E+04 0.  0.
        1    1    3    3  502    0  0.66289522651E+03 -0.58775314393E+03 -0.38386407232E+03  0.96552341534E+03  0.50400001928E-02 0.  1.
       -1    1    3    3    0  502 -0.66289522651E+03  0.58775314393E+03  0.11596301564E+04  0.14593237952E+04  0.50400001928E-02 0. -1.
</event>
<event>
 5   0  0.1626636E-05  0.2304385E+04  0.7818609E-02  0.8476194E-01
        2   -1    0    0  501    0  0.00000000000E+00  0.00000000000E+00  0.13654580564E+04  0.13654580564E+04  0.25500000920E-02 0.  1.
       -2   -1    0    0    0  501  0.00000000000E+00  0.00000000000E+00 -0.97223617030E+03  0.97223617031E+03  0.25500000920E-02 0. -1.
    10030    2    1    2    0    0  0.00000000000E+00  0.00000000000E+00  0.39322188614E+03  0.23376942268E+04  0.23043851341E+04 0.  0.
        4    1    3    3  502    0 -0.72466464419E+03  0.66855986796E+03  0.80141223113E+03  0.12705803086E+04  0.12699999809E+01 0.  1.
       -4    1    3    3    0  502  0.72466464419E+03 -0.66855986796E+03 -0.40819034499E+03  0.10671139181E+04  0.12699999809E+01 0. -1.
</event>
<event>
 5   0  0.1602809E-05  0.2303999E+04  0.7818609E-02  0.8476346E-01
        2   -1    0    0  501    0  0.00000000000E+00  0.00000000000E+00  0.14863299847E+04  0.14863299847E+04  0.25500000920E-02 0. -1.
       -2   -1    0    0    0  501  0.00000000000E+00  0.00000000000E+00 -0.89287265038E+03  0.89287265038E+03  0.25500000920E-02 0.  1.
    10030    2    1    2    0    0  0.00000000000E+00  0.00000000000E+00  0.59345733435E+03  0.23792026351E+04  0.23039994729E+04 0.  0.
        3    1    3    3  502    0 -0.38876268366E+03  0.98351568777E+03  0.76843604092E+03  0.13072618297E+04  0.10100000352E+00 0. -1.
       -3    1    3    3    0  502  0.38876268366E+03 -0.98351568777E+03 -0.17497870657E+03  0.10719408054E+04  0.10100000352E+00 0.  1.
</event>
<event>
 5   0  0.1697855E-05  0.2297915E+04  0.7818609E-02  0.8478744E-01
       -2   -1    0    0    0  501  0.00000000000E+00  0.00000000000E+00  0.92568294655E+03  0.92568294655E+03  0.25500000920E-02 0. -1.
        2   -1    0    0  501    0  0.00000000000E+00  0.00000000000E+00 -0.14260859621E+04  0.14260859621E+04  0.25500000920E-02 0.  1.
    10030    2    1    2    0    0  0.00000000000E+00  0.00000000000E+00 -0.50040301556E+03  0.23517689087E+04  0.22979151033E+04 0.  0.
        5    1    3    3  502    0 -0.11034545100E+04 -0.31850657357E+03 -0.21746639529E+03  0.11689191658E+04  0.46999998093E+01 0.  1.
       -5    1    3    3    0  502  0.11034545100E+04  0.31850657357E+03 -0.28293662026E+03  0.11828497429E+04  0.46999998093E+01 0. -1.
</event>
<event>
 5   0  0.1602809E-05  0.2299812E+04  0.7818609E-02  0.8477995E-01
        2   -1    0    0  501    0  0.00000000000E+00  0.00000000000E+00  0.91987663666E+03  0.91987663666E+03  0.25500000920E-02 0.  1.
       -2   -1    0    0    0  501  0.00000000000E+00  0.00000000000E+00 -0.14374582776E+04  0.14374582776E+04  0.25500000920E-02 0. -1.
    10030    2    1    2    0    0  0.00000000000E+00  0.00000000000E+00 -0.51758164096E+03  0.23573349143E+04  0.22998124147E+04 0.  0.
        3    1    3    3  502    0 -0.62886054713E+03 -0.91100435773E+03 -0.57784746077E+03  0.12487202351E+04  0.10100000352E+00 0. -1.
       -3    1    3    3    0  502  0.62886054713E+03  0.91100435773E+03  0.60265819809E+02  0.11086146791E+04  0.10100000352E+00 0.  1.
</event>
<event>
 5   0  0.7183014E-06  0.2295277E+04  0.7818609E-02  0.8479786E-01
        1   -1    0    0  501    0  0.00000000000E+00  0.00000000000E+00  0.10458932239E+04  0.10458932239E+04  0.50400001928E-02 0. -1.
       -1   -1    0    0    0  501  0.00000000000E+00  0.00000000000E+00 -0.12592819749E+04  0.12592819749E+04  0.50400001928E-02 0.  1.
    10030    2    1    2    0    0  0.00000000000E+00  0.00000000000E+00 -0.21338875097E+03  0.23051751988E+04  0.22952773118E+04 0.  0.
        3    1    3    3  502    0  0.88483683742E+02  0.10996729363E+04 -0.42422949978E+03  0.11819816444E+04  0.10100000352E+00 0.  1.
       -3    1    3    3    0  502 -0.88483683742E+02 -0.10996729363E+04  0.21084074881E+03  0.11231935544E+04  0.10100000352E+00 0. -1.
</event>
<event>
 5   0  0.7183014E-06  0.2304749E+04  0.7818609E-02  0.8476051E-01
        1   -1    0    0  501    0  0.00000000000E+00  0.00000000000E+00  0.14798198827E+04  0.14798198827E+04  0.50400001928E-02 0. -1.
       -1   -1    0    0    0  501  0.00000000000E+00  0.00000000000E+00 -0.89738421674E+03  0.89738421676E+03  0.50400001928E-02 0.  1.
    10030    2    1    2    0    0  0.00000000000E+00  0.00000000000E+00  0.58243566599E+03  0.23772040995E+04  0.23047490158E+04 0.  0.
        3    1    3    3  502    0 -0.10751505535E+04  0.41346290057E+03  0.32490517071E+03  0.11968557403E+04  0.10100000352E+00 0.  1.
       -3    1    3    3    0  502  0.10751505535E+04 -0.41346290057E+03  0.25753049528E+03  0.11803483592E+04  0.10100000352E+00 0. -1.
</event>
<event>
 5   0  0.1626636E-05  0.2305914E+04  0.7818609E-02  0.8475593E-01
       -2   -1    0    0    0  501  0.00000000000E+00  0.00000000000E+00  0.65658360194E+03  0.65658360195E+03  0.25500000920E-02 0.  1.
        2   -1    0    0  501    0  0.00000000000E+00  0.00000000000E+00 -0.20245863848E+04  0.20245863848E+04  0.25500000920E-02 0. -1.
    10030    2    1    2    0    0  0.00000000000E+00  0.00000000000E+00 -0.13680027829E+04  0.26811699868E+04  0.23059143271E+04 0.  0.
        4    1    3    3  502    0  0.85705274338E+03  0.43126914836E+03  0.59400980895E+02  0.96128173430E+03  0.12699999809E+01 0. -1.
       -4    1    3    3    0  502 -0.85705274338E+03 -0.43126914836E+03 -0.14274037638E+04  0.17198882525E+04  0.12699999809E+01 0.  1.
</event>
<event>
 5   0  0.7278815E-06  0.2302690E+04  0.7818609E-02  0.8476861E-01
        1   -1    0    0  501    0  0.00000000000E+00  0.00000000000E+00  0.19472395218E+04  0.19472395218E+04  0.50400001928E-02 0. -1.
       -1   -1    0    0    0  501  0.00000000000E+00  0.00000000000E+00 -0.68075619342E+03  0.68075619344E+03  0.50400001928E-02 0.  1.
    10030    2    1    2    0    0  0.00000000000E+00  0.00000000000E+00  0.12664833284E+04  0.26279957152E+04  0.23026900482E+04 0.  0.
        5    1    3    3  502    0  0.11483305843E+04  0.98201194134E+01  0.72744818358E+03  0.13593978503E+04  0.46999998093E+01 0. -1.
       -5    1    3    3    0  502 -0.11483305843E+04 -0.98201194134E+01  0.53903514478E+03  0.12685978649E+04  0.46999998093E+01 0.  1.
</event>
<event>
 5   0  0.7183014E-06  0.2302742E+04  0.7818609E-02  0.8476841E-01
        1   -1    0    0  501    0  0.00000000000E+00  0.00000000000E+00  0.14863728459E+04  0.14863728459E+04  0.50400001928E-02 0. -1.
       -1   -1    0    0    0  501  0.00000000000E+00  0.00000000000E+00 -0.89187264046E+03  0.89187264047E+03  0.50400001928E-02 0.  1.
    10030    2    1    2    0    0  0.00000000000E+00  0.00000000000E+00  0.59450020548E+03  0.23782454864E+04  0.23027420827E+04 0.  0.
        3    1    3    3  502    0 -0.85112627189E+02  0.23053718269E+03 -0.86447108399E+03  0.89872232484E+03  0.10100000352E+00 0.  1.
       -3    1    3    3    0  502  0.85112627189E+02 -0.23053718269E+03  0.14589712895E+04  0.14795231616E+04  0.10100000352E+00 0. -1.
</event>
<event>
 5   0  0.5704875E-06  0.2301628E+04  0.7818609E-02  0.8477280E-01
       -3   -1    0    0    0  501  0.00000000000E+00  0.00000000000E+00  0.73207620627E+03  0.73207621324E+03  0.10100000352E+00 0.  1.
        3   -1    0    0  501    0  0.00000000000E+00  0.00000000000E+00 -0.18090638182E+04  0.18090638210E+04  0.10100000352E+00 0. -1.
    10030    2    1    2    0    0  0.00000000000E+00  0.00000000000E+00 -0.10769876119E+04  0.25411400343E+04  0.23016277626E+04 0.  0.
        1    1    3    3  502    0  0.13523122723E+03 -0.83069769637E+03 -0.14050429304E+04  0.16378314272E+04  0.50400001928E-02 0. -1.
       -1    1    3    3    0  502 -0.13523122723E+03  0.83069769637E+03  0.32805531850E+03  0.90330860706E+03  0.50400001928E-02 0.  1.
</event>
<event>
 5   0  0.7183014E-06  0.2301951E+04  0.7818609E-02  0.8477152E-01
        1   -1    0    0  501    0  0.00000000000E+00  0.00000000000E+00  0.11952291024E+04  0.11952291024E+04  0.50400001928E-02 0.  1.
       -1   -1    0    0    0  501  0.00000000000E+00  0.00000000000E+00 -0.11083599202E+04  0.11083599202E+04  0.50400001928E-02 0. -1.
    10030    2    1    2    0    0  0.00000000000E+00  0.00000000000E+00  0.86869182184E+02  0.23035890226E+04  0.23019505056E+04 0.  0.
        3    1    3    3  502    0  0.13620217359E+03 -0.11407600902E+04 -0.26324473761E+02  0.11491638715E+04  0.10100000352E+00 0. -1.
       -3    1    3    3    0  502 -0.13620217359E+03  0.11407600902E+04  0.11319365594E+03  0.11544251511E+04  0.10100000352E+00 0.  1.
</event>
<event>
 5   0  0.1588969E-05  0.2297369E+04  0.7818609E-02  0.8478959E-01
        2   -1    0    0  501    0  0.00000000000E+00  0.00000000000E+00  0.19689942322E+04  0.19689942322E+04  0.25500000920E-02 0.  1.
       -2   -1    0    0    0  501  0.00000000000E+00  0.00000000000E+00 -0.67012688124E+03  0.67012688124E+03  0.25500000920E-02 0. -1.
    10030    2    1    2    0    0  0.00000000000E+00  0.00000000000E+00  0.12988673510E+04  0.26391211135E+04  0.22973688986E+04 0.  0.
        1    1    3    3  502    0  0.69295452882E+03 -0.41060342987E+03  0.15902201307E+04  0.17825771287E+04  0.50400001928E-02 0.  1.
       -1    1    3    3    0  502 -0.69295452882E+03  0.41060342987E+03 -0.29135277969E+03  0.85654398480E+03  0.50400001928E-02 0. -1.
</event>
<event>
 5   0  0.7202572E-06  0.2295916E+04  0.7818609E-02  0.8479533E-01
        1   -1    0    0  501    0  0.00000000000E+00  0.00000000000E+00  0.12019498668E+04  0.12019498668E+04  0.50400001928E-02 0. -1.
       -1   -1    0    0    0  501  0.00000000000E+00  0.00000000000E+00 -0.10963918974E+04  0.10963918974E+04  0.50400001928E-02 0.  1.
    10030    2    1    2    0    0  0.00000000000E+00  0.00000000000E+00  0.10555796936E+03  0.22983417642E+04  0.22959164575E+04 0.  0.
        2    1    3    3  502    0 -0.10523803023E+04 -0.38076497676E+03 -0.20307235112E+03  0.11374201721E+04  0.25500000920E-02 0.  1.
       -2    1    3    3    0  502  0.10523803023E+04  0.38076497676E+03  0.30863032048E+03  0.11609215920E+04  0.25500000920E-02 0. -1.
</event>
<event>
 5   0  0.7183014E-06  0.2340614E+04  0.7818609E-02  0.8462077E-01
       -1   -1    0    0    0  501  0.00000000000E+00  0.00000000000E+00  0.99020644418E+03  0.99020644419E+03  0.50400001928E-02 0. -1.
        1   -1    0    0  501    0  0.00000000000E+00  0.00000000000E+00 -0.13831649385E+04  0.13831649385E+04  0.50400001928E-02 0.  1.
    10030    2    1    2    0    0  0.00000000000E+00  0.00000000000E+00 -0.39295849433E+03  0.23733713827E+04  0.23406143087E+04 0.  0.
        3    1    3    3  502    0  0.10968941484E+04  0.21457448643E+03 -0.54832215794E+03  0.12449402323E+04  0.10100000352E+00 0.  1.
       -3    1    3    3    0  502 -0.10968941484E+04 -0.21457448643E+03  0.15536366361E+03  0.11284311504E+04  0.10100000352E+00 0. -1.
</event>
<event>
 5   0  0.7202572E-06  0.2349000E+04  0.7818609E-02  0.8458848E-01
        1   -1    0    0  501    0  0.00000000000E+00  0.00000000000E+00  0.86665099475E+03  0.86665099477E+03  0.50400001928E-02 0. -1.
       -1   -1    0    0    0  501  0.00000000000E+00  0.00000000000E+00 -0.15917021598E+04  0.15917021599E+04  0.50400001928E-02 0.  1.
    10030    2    1    2    0    0  0.00000000000E+00  0.00000000000E+00 -0.72505116509E+03  0.24583531546E+04  0.23490000087E+04 0.  0.
        2    1    3    3  502    0  0.73814725945E+03  0.86829410365E+03 -0.65307768089E+02  0.11415170308E+04  0.25500000920E-02 0. -1.
       -2    1    3    3    0  502 -0.73814725945E+03 -0.86829410365E+03 -0.65974339700E+03  0.13168361238E+04  0.25500000920E-02 0.  1.
</event>
<event>
 5   0  0.7183014E-06  0.2299195E+04  0.7818609E-02  0.8478239E-01
       -1   -1    0    0    0  501  0.00000000000E+00  0.00000000000E+00  0.16855526308E+04  0.16855526308E+04  0.50400001928E-02 0. -1.
        1   -1    0    0  501    0  0.00000000000E+00  0.00000000000E+00 -0.78405985429E+03  0.78405985431E+03  0.50400001928E-02 0.  1.
    10030    2    1    2    0    0  0.00000000000E+00  0.00000000000E+00  0.90149277649E+03  0.24696124851E+04  0.22991947722E+04 0.  0.
        3    1    3    3  502    0  0.37311431617E+03  0.82666553093E+03  0.12094922505E+04  0.15117743572E+04  0.10100000352E+00 0. -1.
       -3    1    3    3    0  502 -0.37311431617E+03 -0.82666553093E+03 -0.30799947403E+03  0.95783812785E+03  0.10100000352E+00 0.  1.
</event>
<event>
 5   0  0.1697855E-05  0.2287510E+04  0.7818609E-02  0.8482862E-01
       -2   -1    0    0    0  501  0.00000000000E+00  0.00000000000E+00  0.14268406191E+04  0.14268406191E+04  0.25500000920E-02 0. -1.
        2   -1    0    0  501    0  0.00000000000E+00  0.00000000000E+00 -0.91683385686E+03  0.91683385686E+03  0.25500000920E-02 0.  1.
    10030    2    1    2    0    0  0.00000000000E+00  0.00000000000E+00  0.51000676226E+03  0.23436744760E+04  0.22875102517E+04 0.  0.
        5    1    3    3  502    0 -0.44597177298E+03  0.10223971928E+04  0.51412983014E+03  0.12282257180E+04  0.46999998093E+01 0. -1.
       -5    1    3    3    0  502  0.44597177298E+03 -0.10223971928E+04 -0.41230678722E+01  0.11154487580E+04  0.46999998093E+01 0.  1.
</event>
<event>
 5   0  0.1588969E-05  0.2303394E+04  0.7818609E-02  0.8476584E-01
       -2   -1    0    0    0  501  0.00000000000E+00  0.00000000000E+00  0.45911416163E+03  0.45911416164E+03  0.25500000920E-02 0. -1.
        2   -1    0    0  501    0  0.00000000000E+00  0.00000000000E+00 -0.28890556352E+04  0.28890556352E+04  0.25500000920E-02 0.  1.
    10030    2    1    2    0    0  0.00000000000E+00  0.00000000000E+00 -0.24299414736E+04  0.33481697969E+04  0.23033943265E+04 0.  0.
        1    1    3    3  502    0  0.67275160254E+02 -0.11495398864E+04 -0.11845336324E+04  0.16519951041E+04  0.50400001928E-02 0. -1.
       -1    1    3    3    0  502 -0.67275160254E+02  0.11495398864E+04 -0.12454078412E+04  0.16961746928E+04  0.50400001928E-02 0.  1.
</event>
<event>
 5   0  0.7391007E-06  0.2320190E+04  0.7818609E-02  0.8470003E-01
        1   -1    0    0  501    0  0.00000000000E+00  0.00000000000E+00  0.10744547792E+04  0.10744547792E+04  0.50400001928E-02 0. -1.
       -1   -1    0    0    0  501  0.00000000000E+00  0.00000000000E+00 -0.12525614893E+04  0.12525614894E+04  0.50400001928E-02 0.  1.
    10030    2    1    2    0    0  0.00000000000E+00  0.00000000000E+00 -0.17810671015E+03  0.23270162686E+04  0.23201902323E+04 0.  0.
        1    1    3    3  502    0  0.19741122777E+03 -0.33487669730E+03 -0.11852956267E+04  0.12474130503E+04  0.50400001928E-02 0.  1.
       -1    1    3    3    0  502 -0.19741122777E+03  0.33487669730E+03  0.10071889166E+04  0.10796032183E+04  0.50400001928E-02 0. -1.
</event>
<event>
 5   0  0.1635955E-05  0.2247032E+04  0.7818609E-02  0.8499103E-01
       -2   -1    0    0    0  501  0.00000000000E+00  0.00000000000E+00  0.89518164031E+03  0.89518164031E+03  0.25500000920E-02 0.  1.
        2   -1    0    0  501    0  0.00000000000E+00  0.00000000000E+00 -0.14100919131E+04  0.14100919131E+04  0.25500000920E-02 0. -1.
    10030    2    1    2    0    0  0.00000000000E+00  0.00000000000E+00 -0.51491027275E+03  0.23052735534E+04  0.22470321686E+04 0.  0.
        2    1    3    3  502    0  0.57667635655E+03 -0.75070543481E+03 -0.87826270409E+03  0.12913015324E+04  0.25500000920E-02 0. -1.
       -2    1    3    3    0  502 -0.57667635655E+03  0.75070543481E+03  0.36335243134E+03  0.10139720210E+04  0.25500000920E-02 0.  1.
</event>
<event>
 5   0  0.1697855E-05  0.2292793E+04  0.7818609E-02  0.8480768E-01
        2   -1    0    0  501    0  0.00000000000E+00  0.00000000000E+00  0.14100991219E+04  0.14100991219E+04  0.25500000920E-02 0. -1.
       -2   -1    0    0    0  501  0.00000000000E+00  0.00000000000E+00 -0.93200892543E+03  0.93200892544E+03  0.25500000920E-02 0.  1.
    10030    2    1    2    0    0  0.00000000000E+00  0.00000000000E+00  0.47809019651E+03  0.23421080474E+04  0.22927930281E+04 0.  0.
        5    1    3    3  502    0  0.62565621567E+03 -0.95739903447E+03  0.31911643478E+03  0.11873988380E+04  0.46999998093E+01 0.  1.
       -5    1    3    3    0  502 -0.62565621567E+03  0.95739903447E+03  0.15897376172E+03  0.11547092094E+04  0.46999998093E+01 0. -1.
</event>
<event>
 5   0  0.7202572E-06  0.2307554E+04  0.7818609E-02  0.8474949E-01
        1   -1    0    0  501    0  0.00000000000E+00  0.00000000000E+00  0.12897136637E+04  0.12897136637E+04  0.50400001928E-02 0. -1.
       -1   -1    0    0    0  501  0.00000000000E+00  0.00000000000E+00 -0.10321681525E+04  0.10321681525E+04  0.50400001928E-02 0.  1.
    10030    2    1    2    0    0  0.00000000000E+00  0.00000000000E+00  0.25754551116E+03  0.23218818162E+04  0.23075540033E+04 0.  0.
        2    1    3    3  502    0  0.26844309318E+03 -0.10701123480E+04 -0.21096139961E+03  0.11232572474E+04  0.25500000920E-02 0. -1.
       -2    1    3    3    0  502 -0.26844309318E+03  0.10701123480E+04  0.46850691077E+03  0.11986245689E+04  0.25500000920E-02 0.  1.
</event>
<event>
 5   0  0.1635955E-05  0.2306340E+04  0.7818609E-02  0.8475425E-01
        2   -1    0    0  501    0  0.00000000000E+00  0.00000000000E+00  0.19040501941E+04  0.19040501941E+04  0.25500000920E-02 0. -1.
       -2   -1    0    0    0  501  0.00000000000E+00  0.00000000000E+00 -0.69840673726E+03  0.69840673727E+03  0.25500000920E-02 0.  1.
    10030    2    1    2    0    0  0.00000000000E+00  0.00000000000E+00  0.12056434568E+04  0.26024569314E+04  0.23063403770E+04 0.  0.
        2    1    3    3  502    0 -0.85313612903E+03 -0.87373038274E+02 -0.26708477941E+03  0.89822579671E+03  0.25500000920E-02 0. -1.
       -2    1    3    3    0  502  0.85313612903E+03  0.87373038274E+02  0.14727282362E+04  0.17042311346E+04  0.25500000920E-02 0.  1.
</event>
<event>
 5   0  0.1602809E-05  0.2296356E+04  0.7818609E-02  0.8479359E-01
       -2   -1    0    0    0  501  0.00000000000E+00  0.00000000000E+00  0.10813184192E+04  0.10813184192E+04  0.25500000920E-02 0.  1.
        2   -1    0    0  501    0  0.00000000000E+00  0.00000000000E+00 -0.12191720547E+04  0.12191720547E+04  0.25500000920E-02 0. -1.
    10030    2    1    2    0    0  0.00000000000E+00  0.00000000000E+00 -0.13785363542E+03  0.23004904739E+04  0.22963564174E+04 0.  0.
        3    1    3    3  502    0  0.73411120447E+03  0.75974890825E+03 -0.51937561618E+03  0.11772377436E+04  0.10100000352E+00 0. -1.
       -3    1    3    3    0  502 -0.73411120447E+03 -0.75974890825E+03  0.38152198076E+03  0.11232527303E+04  0.10100000352E+00 0.  1.
</event>
<event>
 5   0  0.5704875E-06  0.2284800E+04  0.7818609E-02  0.8483938E-01
       -3   -1    0    0    0  501  0.00000000000E+00  0.00000000000E+00  0.84707430920E+03  0.84707431522E+03  0.10100000352E+00 0.  1.
        3   -1    0    0  501    0  0.00000000000E+00  0.00000000000E+00 -0.15406885465E+04  0.15406885498E+04  0.10100000352E+00 0. -1.
    10030    2    1    2    0    0  0.00000000000E+00  0.00000000000E+00 -0.69361423729E+03  0.23877628650E+04  0.22847999452E+04 0.  0.
        4    1    3    3  502    0  0.87412371587E+03 -0.41737685991E+03 -0.97972309214E+03  0.13777353389E+04  0.12699999809E+01 0. -1.
       -4    1    3    3    0  502 -0.87412371587E+03  0.41737685991E+03  0.28610885484E+03  0.10100275261E+04  0.12699999809E+01 0.  1.
</event>
<event>
 5   0  0.7278815E-06  0.2299105E+04  0.7818609E-02  0.8478274E-01
       -1   -1    0    0    0  501  0.00000000000E+00  0.00000000000E+00  0.14223319170E+04  0.14223319170E+04  0.50400001928E-02 0.  1.
        1   -1    0    0  501    0  0.00000000000E+00  0.00000000000E+00 -0.92908723886E+03  0.92908723887E+03  0.50400001928E-02 0. -1.
    10030    2    1    2    0    0  0.00000000000E+00  0.00000000000E+00  0.49324467814E+03  0.23514191559E+04  0.22991045505E+04 0.  0.
        5    1    3    3  502    0  0.23724011290E+03 -0.61114891780E+03 -0.71914291239E+03  0.97312614256E+03  0.46999998093E+01 0. -1.
       -5    1    3    3    0  502 -0.23724011290E+03  0.61114891780E+03  0.12123875905E+04  0.13782930133E+04  0.46999998093E+01 0.  1.
</event>
<event>
 5   0  0.1588969E-05  0.2323775E+04  0.7818609E-02  0.8468606E-01
        2   -1    0    0  501    0  0.00000000000E+00  0.00000000000E+00  0.20126469749E+04  0.20126469749E+04  0.25500000920E-02 0.  1.
       -2   -1    0    0    0  501  0.00000000000E+00  0.00000000000E+00 -0.67074956716E+03  0.67074956716E+03  0.25500000920E-02 0. -1.
    10030    2    1    2    0    0  0.00000000000E+00  0.00000000000E+00  0.13418974078E+04  0.26833965421E+04  0.23237745909E+04 0.  0.
        1    1    3    3  502    0 -0.20677844934E+03  0.69899667652E+03  0.17157513466E+04  0.18641771280E+04  0.50400001928E-02 0.  1.
       -1    1    3    3    0  502  0.20677844934E+03 -0.69899667652E+03 -0.37385393885E+03  0.81921941415E+03  0.50400001928E-02 0. -1.
</event>
<event>
 5   0  0.7416556E-06  0.2293136E+04  0.7818609E-02  0.8480633E-01
       -1   -1    0    0    0  501  0.00000000000E+00  0.00000000000E+00  0.14670149367E+04  0.14670149367E+04  0.50400001928E-02 0.  1.
        1   -1    0    0  501    0  0.00000000000E+00  0.00000000000E+00 -0.89611742526E+03  0.89611742527E+03  0.50400001928E-02 0. -1.
    10030    2    1    2    0    0  0.00000000000E+00  0.00000000000E+00  0.57089751147E+03  0.23631323620E+04  0.22931355371E+04 0.  0.
        4    1    3    3  502    0 -0.32615321241E+03  0.89897726135E+03 -0.36637734108E+03  0.10240947238E+04  0.12699999809E+01 0. -1.
       -4    1    3    3    0  502  0.32615321241E+03 -0.89897726135E+03  0.93727485254E+03  0.13390376382E+04  0.12699999809E+01 0.  1.
</event>
<event>
 5   0  0.7202572E-06  0.2306496E+04  0.7818609E-02  0.8475364E-01
       -1   -1    0    0    0  501  0.00000000000E+00  0.00000000000E+00  0.59798714530E+03  0.59798714532E+03  0.50400001928E-02 0.  1.
        1   -1    0    0  501    0  0.00000000000E+00  0.00000000000E+00 -0.22240961924E+04  0.22240961924E+04  0.50400001928E-02 0. -1.
    10030    2    1    2    0    0  0.00000000000E+00  0.00000000000E+00 -0.16261090471E+04  0.28220833377E+04  0.23064959857E+04 0.  0.
        2    1    3    3  502    0 -0.96746950132E+02  0.34028626210E+03 -0.21560648027E+04  0.21848959120E+04  0.25500000920E-02 0. -1.
       -2    1    3    3    0  502  0.96746950132E+02 -0.34028626210E+03  0.52995575566E+03  0.63718742572E+03  0.25500000920E-02 0.  1.
</event>
<event>
 5   0  0.1626636E-05  0.2334081E+04  0.7818609E-02  0.8464603E-01
        2   -1    0    0  501    0  0.00000000000E+00  0.00000000000E+00  0.97228478412E+03  0.97228478413E+03  0.25500000920E-02 0.  1.
       -2   -1    0    0    0  501  0.00000000000E+00  0.00000000000E+00 -0.14008076274E+04  0.14008076274E+04  0.25500000920E-02 0. -1.
    10030    2    1    2    0    0  0.00000000000E+00  0.00000000000E+00 -0.42852284329E+03  0.23730924115E+04  0.23340813539E+04 0.  0.
        4    1    3    3  502    0  0.21126136102E+03 -0.24644112293E+03  0.92546405009E+03  0.98073947134E+03  0.12699999809E+01 0.  1.
       -4    1    3    3    0  502 -0.21126136102E+03  0.24644112293E+03 -0.13539868934E+04  0.13923529402E+04  0.12699999809E+01 0. -1.
</event>
<event>
 5   0  0.1635955E-05  0.2298867E+04  0.7818609E-02  0.8478368E-01
       -2   -1    0    0    0  501  0.00000000000E+00  0.00000000000E+00  0.11479108862E+04  0.11479108862E+04  0.25500000920E-02 0.  1.
        2   -1    0    0  501    0  0.00000000000E+00  0.00000000000E+00 -0.11509580906E+04  0.11509580907E+04  0.25500000920E-02 0. -1.
    10030    2    1    2    0    0  0.00000000000E+00  0.00000000000E+00 -0.30472044714E+01  0.22988689768E+04  0.22988669573E+04 0.  0.
        2    1    3    3  502    0 -0.37237506148E+03  0.29254891482E+03 -0.10488779812E+04  0.11508227811E+04  0.25500000920E-02 0. -1.
       -2    1    3    3    0  502  0.37237506148E+03 -0.29254891482E+03  0.10458307767E+04  0.11480461957E+04  0.25500000920E-02 0.  1.
</event>
<event>
 5   0  0.1602809E-05  0.2299499E+04  0.7818609E-02  0.8478119E-01
        2   -1    0    0  501    0  0.00000000000E+00  0.00000000000E+00  0.10207058148E+04  0.10207058148E+04  0.25500000920E-02 0. -1.
       -2   -1    0    0    0  501  0.00000000000E+00  0.00000000000E+00 -0.12951081282E+04  0.12951081282E+04  0.25500000920E-02 0.  1.
    10030    2    1    2    0    0  0.00000000000E+00  0.00000000000E+00 -0.27440231341E+03  0.23158139430E+04  0.22994994214E+04 0.  0.
        3    1    3    3  502    0  0.11069470833E+04 -0.29898874264E+03 -0.22264573971E+03  0.11680313562E+04  0.10100000352E+00 0.  1.
       -3    1    3    3    0  502 -0.11069470833E+04  0.29898874264E+03 -0.51756573699E+02  0.11477825868E+04  0.10100000352E+00 0. -1.
</event>
<event>
 5   0  0.5704875E-06  0.2323760E+04  0.7818609E-02  0.8468611E-01
       -4   -1    0    0    0  501  0.00000000000E+00  0.00000000000E+00  0.19141088249E+04  0.19141092462E+04  0.12699999809E+01 0.  1.
        4   -1    0    0  501    0  0.00000000000E+00  0.00000000000E+00 -0.70526983211E+03  0.70527097557E+03  0.12699999809E+01 0. -1.
    10030    2    1    2    0    0  0.00000000000E+00  0.00000000000E+00  0.12088389928E+04  0.26193802218E+04  0.23237601072E+04 0.  0.
        5    1    3    3  502    0 -0.19564877332E+03  0.86182901214E+03 -0.24580013356E+03  0.91731536798E+03  0.46999998093E+01 0. -1.
       -5    1    3    3    0  502  0.19564877332E+03 -0.86182901214E+03  0.14546391263E+04  0.17020648538E+04  0.46999998093E+01 0.  1.
</event>
<event>
 5   0  0.1626636E-05  0.2300404E+04  0.7818609E-02  0.8477762E-01
       -2   -1    0    0    0  501  0.00000000000E+00  0.00000000000E+00  0.69450563607E+03  0.69450563608E+03  0.25500000920E-02 0.  1.
        2   -1    0    0  501    0  0.00000000000E+00  0.00000000000E+00 -0.19049019675E+04  0.19049019675E+04  0.25500000920E-02 0. -1.
    10030    2    1    2    0    0  0.00000000000E+00  0.00000000000E+00 -0.12103963314E+04  0.25994076036E+04  0.23004044450E+04 0.  0.
        4    1    3    3  502    0  0.39282108203E+02  0.87625100660E+02  0.68996736671E+03  0.69661885010E+03  0.12699999809E+01 0.  1.
       -4    1    3    3    0  502 -0.39282108203E+02 -0.87625100660E+02 -0.19003636981E+04  0.19027887535E+04  0.12699999809E+01 0. -1.
</event>
<event>
 5   0  0.1602809E-05  0.2320208E+04  0.7818609E-02  0.8469996E-01
       -2   -1    0    0    0  501  0.00000000000E+00  0.00000000000E+00  0.81214519675E+03  0.81214519675E+03  0.25500000920E-02 0. -1.
        2   -1    0    0  501    0  0.00000000000E+00  0.00000000000E+00 -0.16571433951E+04  0.16571433951E+04  0.25500000920E-02 0.  1.
    10030    2    1    2    0    0  0.00000000000E+00  0.00000000000E+00 -0.84499819832E+03  0.24692885918E+04  0.23202077912E+04 0.  0.
        3    1    3    3  502    0 -0.42801552212E+03 -0.35491922708E+02 -0.15694185086E+04  0.16271236674E+04  0.10100000352E+00 0.  1.
       -3    1    3    3    0  502  0.42801552212E+03  0.35491922708E+02  0.72442031027E+03  0.84216492440E+03  0.10100000352E+00 0. -1.
</event>
<event>
 5   0  0.7183014E-06  0.2304862E+04  0.7818609E-02  0.8476006E-01
        1   -1    0    0  501    0  0.00000000000E+00  0.00000000000E+00  0.12869298357E+04  0.12869298357E+04  0.50400001928E-02 0.  1.
       -1   -1    0    0    0  501  0.00000000000E+00  0.00000000000E+00 -0.10319890174E+04  0.10319890174E+04  0.50400001928E-02 0. -1.
    10030    2    1    2    0    0  0.00000000000E+00  0.00000000000E+00  0.25494081836E+03  0.23189188531E+04  0.23048622142E+04 0.  0.
        3    1    3    3  502    0 -0.29179799403E+03 -0.98217923825E+03  0.65820565461E+03  0.12178082030E+04  0.10100000352E+00 0.  1.
       -3    1    3    3    0  502  0.29179799403E+03  0.98217923825E+03 -0.40326483625E+03  0.11011106501E+04  0.10100000352E+00 0. -1.
</event>
<event>
 5   0  0.1588969E-05  0.2249999E+04  0.7818609E-02  0.8497901E-01
        2   -1    0    0  501    0  0.00000000000E+00  0.00000000000E+00  0.20079998064E+04  0.20079998064E+04  0.25500000920E-02 0. -1.
       -2   -1    0    0    0  501  0.00000000000E+00  0.00000000000E+00 -0.63029064790E+03  0.63029064791E+03  0.25500000920E-02 0.  1.
    10030    2    1    2    0    0  0.00000000000E+00  0.00000000000E+00  0.13777091585E+04  0.26382904543E+04  0.22499986657E+04 0.  0.
        1    1    3    3  502    0  0.39395849787E+03  0.26236751000E+03 -0.50785120269E+03  0.69422824233E+03  0.50400001928E-02 0.  1.
       -1    1    3    3    0  502 -0.39395849787E+03 -0.26236751000E+03  0.18855603611E+04  0.19440622119E+04  0.50400001928E-02 0. -1.
</event>
<event>
 5   0  0.7202572E-06  0.2300631E+04  0.7818609E-02  0.8477672E-01
       -1   -1    0    0    0  501  0.00000000000E+00  0.00000000000E+00  0.93322546594E+03  0.93322546595E+03  0.50400001928E-02 0.  1.
        1   -1    0    0  501    0  0.00000000000E+00  0.00000000000E+00 -0.14179062910E+04  0.14179062910E+04  0.50400001928E-02 0. -1.
    10030    2    1    2    0    0  0.00000000000E+00  0.00000000000E+00 -0.48468082508E+03  0.23511317570E+04  0.23006314430E+04 0.  0.
        2    1    3    3  502    0 -0.94723333419E+03  0.45255227327E+03  0.23827169142E+03  0.10764887126E+04  0.25500000920E-02 0.  1.
       -2    1    3    3    0  502  0.94723333419E+03 -0.45255227327E+03 -0.72295251651E+03  0.12746430444E+04  0.25500000920E-02 0. -1.
</event>
<event>
 5   0  0.7391007E-06  0.2292431E+04  0.7818609E-02  0.8480911E-01
        1   -1    0    0  501    0  0.00000000000E+00  0.00000000000E+00  0.15871707775E+04  0.15871707775E+04  0.50400001928E-02 0.  1.
       -1   -1    0    0    0  501  0.00000000000E+00  0.00000000000E+00 -0.82776855951E+03  0.82776855952E+03  0.50400001928E-02 0. -1.
    10030    2    1    2    0    0  0.00000000000E+00  0.00000000000E+00  0.75940221796E+03  0.24149393370E+04  0.22924310835E+04 0.  0.
        1    1    3    3  502    0  0.99998290189E+03 -0.19850580698E+03  0.93156682146E+03  0.13810094505E+04  0.50400001928E-02 0.  1.
       -1    1    3    3    0  502 -0.99998290189E+03  0.19850580698E+03 -0.17216460350E+03  0.10339298865E+04  0.50400001928E-02 0. -1.
</event>
<event>
 5   0  0.1626636E-05  0.2306426E+04  0.7818609E-02  0.8475392E-01
       -2   -1    0    0    0  501  0.00000000000E+00  0.00000000000E+00  0.14170151923E+04  0.14170151923E+04  0.25500000920E-02 0.  1.
        2   -1    0    0  501    0  0.00000000000E+00  0.00000000000E+00 -0.93852245578E+03  0.93852245579E+03  0.25500000920E-02 0. -1.
    10030    2    1    2    0    0  0.00000000000E+00  0.00000000000E+00  0.47849273649E+03  0.23555376481E+04  0.23064263076E+04 0.  0.
        4    1    3    3  502    0  0.30229694276E+03 -0.53834037313E+03 -0.75550856039E+03  0.97569902976E+03  0.12699999809E+01 0. -1.
       -4    1    3    3    0  502 -0.30229694276E+03  0.53834037313E+03  0.12340012969E+04  0.13798386183E+04  0.12699999809E+01 0.  1.
</event>
<event>
 5   0  0.1626636E-05  0.2303590E+04  0.7818609E-02  0.8476507E-01
       -2   -1    0    0    0  501  0.00000000000E+00  0.00000000000E+00  0.74702829076E+03  0.74702829076E+03  0.25500000920E-02 0.  1.
        2   -1    0    0  501    0  0.00000000000E+00  0.00000000000E+00 -0.17758789700E+04  0.17758789700E+04  0.25500000920E-02 0. -1.
    10030    2    1    2    0    0  0.00000000000E+00  0.00000000000E+00 -0.10288506793E+04  0.25229072608E+04  0.23035900951E+04 0.  0.
        4    1    3    3  502    0 -0.72118284818E+03  0.89374057884E+03 -0.61086135638E+03  0.13007805858E+04  0.12699999809E+01 0.  1.
       -4    1    3    3    0  502  0.72118284818E+03 -0.89374057884E+03 -0.41798932288E+03  0.12221266750E+04  0.12699999809E+01 0. -1.
</event>
<event>
 5   0  0.1626636E-05  0.2305765E+04  0.7818609E-02  0.8475652E-01
        2   -1    0    0  501    0  0.00000000000E+00  0.00000000000E+00  0.13172764591E+04  0.13172764591E+04  0.25500000920E-02 0. -1.
       -2   -1    0    0    0  501  0.00000000000E+00  0.00000000000E+00 -0.10090045802E+04  0.10090045802E+04  0.25500000920E-02 0.  1.
    10030    2    1    2    0    0  0.00000000000E+00  0.00000000000E+00  0.30827187892E+03  0.23262810392E+04  0.23057649321E+04 0.  0.
        4    1    3    3  502    0 -0.43987042234E+03  0.64267775324E+03 -0.70349579588E+03  0.10494897001E+04  0.12699999809E+01 0.  1.
       -4    1    3    3    0  502  0.43987042234E+03 -0.64267775324E+03  0.10117676748E+04  0.12767913391E+04  0.12699999809E+01 0. -1.
</event>
<event>
 5   0  0.7391007E-06  0.2299545E+04  0.7818609E-02  0.8478101E-01
       -1   -1    0    0    0  501  0.00000000000E+00  0.00000000000E+00  0.56304179311E+03  0.56304179313E+03  0.50400001928E-02 0.  1.
        1   -1    0    0  501    0  0.00000000000E+00  0.00000000000E+00 -0.23479191404E+04  0.23479191404E+04  0.50400001928E-02 0. -1.
    10030    2    1    2    0    0  0.00000000000E+00  0.00000000000E+00 -0.17848773473E+04  0.29109609335E+04  0.22995448271E+04 0.  0.
        1    1    3    3  502    0  0.97856064960E+03 -0.60127374491E+03 -0.82467485722E+03  0.14139305787E+04  0.50400001928E-02 0. -1.
       -1    1    3    3    0  502 -0.97856064960E+03  0.60127374491E+03 -0.96020249005E+03  0.14970303548E+04  0.50400001928E-02 0.  1.
</event>
<event>
 5   0  0.1602809E-05  0.2303300E+04  0.7818609E-02  0.8476621E-01
       -2   -1    0    0    0  501  0.00000000000E+00  0.00000000000E+00  0.84940456238E+03  0.84940456238E+03  0.25500000920E-02 0.  1.
        2   -1    0    0  501    0  0.00000000000E+00  0.00000000000E+00 -0.15614446382E+04  0.15614446382E+04  0.25500000920E-02 0. -1.
    10030    2    1    2    0    0  0.00000000000E+00  0.00000000000E+00 -0.71204007579E+03  0.24108492006E+04  0.23033004143E+04 0.  0.
        3    1    3    3  502    0  0.72331390701E+02 -0.10464486663E+04  0.14158500761E+03  0.10584578243E+04  0.10100000352E+00 0.  1.
       -3    1    3    3    0  502 -0.72331390701E+02  0.10464486663E+04 -0.85362508340E+03  0.13523913762E+04  0.10100000352E+00 0. -1.
</event>
<event>
 5   0  0.1588969E-05  0.2305099E+04  0.7818609E-02  0.8475913E-01
        2   -1    0    0  501    0  0.00000000000E+00  0.00000000000E+00  0.18563668742E+04  0.18563668742E+04  0.25500000920E-02 0. -1.
       -2   -1    0    0    0  501  0.00000000000E+00  0.00000000000E+00 -0.71557560673E+03  0.71557560674E+03  0.25500000920E-02 0.  1.
    10030    2    1    2    0    0  0.00000000000E+00  0.00000000000E+00  0.11407912674E+04  0.25719424809E+04  0.23050994359E+04 0.  0.
        1    1    3    3  502    0  0.64960855451E+03 -0.88823406981E+03  0.18806219401E+03  0.11163863246E+04  0.50400001928E-02 0.  1.
       -1    1    3    3    0  502 -0.64960855451E+03  0.88823406981E+03  0.95272907342E+03  0.14555561563E+04  0.50400001928E-02 0. -1.
</event>
<event>
 5   0  0.7202572E-06  0.2291981E+04  0.7818609E-02  0.8481089E-01
        1   -1    0    0  501    0  0.00000000000E+00  0.00000000000E+00  0.16740201459E+04  0.16740201459E+04  0.50400001928E-02 0. -1.
       -1   -1    0    0    0  501  0.00000000000E+00  0.00000000000E+00 -0.78451549494E+03  0.78451549496E+03  0.50400001928E-02 0.  1.
    10030    2    1    2    0    0  0.00000000000E+00  0.00000000000E+00  0.88950465092E+03  0.24585356408E+04  0.22919814513E+04 0.  0.
        2    1    3    3  502    0 -0.82312655767E+03 -0.47878394123E+03  0.11286768203E+04  0.14767134986E+04  0.25500000920E-02 0. -1.
       -2    1    3    3    0  502  0.82312655767E+03  0.47878394123E+03 -0.23917216938E+03  0.98182214221E+03  0.25500000920E-02 0.  1.
</event>
<event>
 5   0  0.7391007E-06  0.2239428E+04  0.7818609E-02  0.8502194E-01
       -1   -1    0    0    0  501  0.00000000000E+00  0.00000000000E+00  0.86777988816E+03  0.86777988817E+03  0.50400001928E-02 0.  1.
        1   -1    0    0  501    0  0.00000000000E+00  0.00000000000E+00 -0.14447895077E+04  0.14447895077E+04  0.50400001928E-02 0. -1.
    10030    2    1    2    0    0  0.00000000000E+00  0.00000000000E+00 -0.57700961950E+03  0.23125693958E+04  0.22394278532E+04 0.  0.
        1    1    3    3  502    0 -0.48010617340E+03 -0.92730005196E+03 -0.70589904750E+03  0.12604288117E+04  0.50400001928E-02 0.  1.
       -1    1    3    3    0  502  0.48010617340E+03  0.92730005196E+03  0.12888942800E+03  0.10521405841E+04  0.50400001928E-02 0. -1.
</event>
<event>
 5   0  0.7202572E-06  0.2297139E+04  0.7818609E-02  0.8479050E-01
        1   -1    0    0  501    0  0.00000000000E+00  0.00000000000E+00  0.14439563487E+04  0.14439563487E+04  0.50400001928E-02 0.  1.
       -1   -1    0    0    0  501  0.00000000000E+00  0.00000000000E+00 -0.91360940589E+03  0.91360940590E+03  0.50400001928E-02 0. -1.
    10030    2    1    2    0    0  0.00000000000E+00  0.00000000000E+00  0.53034694278E+03  0.23575657546E+04  0.22971391790E+04 0.  0.
        2    1    3    3  502    0  0.99386809755E+03 -0.48648622138E+03  0.58111791002E+03  0.12498562574E+04  0.25500000920E-02 0.  1.
       -2    1    3    3    0  502 -0.99386809755E+03  0.48648622138E+03 -0.50770967240E+02  0.11077094971E+04  0.25500000920E-02 0. -1.
</event>
<event>
 5   0  0.1602809E-05  0.2285377E+04  0.7818609E-02  0.8483709E-01
        2   -1    0    0  501    0  0.00000000000E+00  0.00000000000E+00  0.25778627033E+04  0.25778627033E+04  0.25500000920E-02 0.  1.
       -2   -1    0    0    0  501  0.00000000000E+00  0.00000000000E+00 -0.50651902491E+03  0.50651902492E+03  0.25500000920E-02 0. -1.
    10030    2    1    2    0    0  0.00000000000E+00  0.00000000000E+00  0.20713436783E+04  0.30843817282E+04  0.22853765579E+04 0.  0.
        3    1    3    3  502    0 -0.18547377397E+03  0.36573615716E+03 -0.40378947601E+03  0.57550795704E+03  0.10100000352E+00 0. -1.
       -3    1    3    3    0  502  0.18547377397E+03 -0.36573615716E+03  0.24751331544E+04  0.25088737711E+04  0.10100000352E+00 0.  1.
</event>
<event>
 5   0  0.7202572E-06  0.2304990E+04  0.7818609E-02  0.8475956E-01
        1   -1    0    0  501    0  0.00000000000E+00  0.00000000000E+00  0.27440228546E+04  0.27440228546E+04  0.50400001928E-02 0. -1.
       -1   -1    0    0    0  501  0.00000000000E+00  0.00000000000E+00 -0.48405003352E+03  0.48405003354E+03  0.50400001928E-02 0.  1.
    10030    2    1    2    0    0  0.00000000000E+00  0.00000000000E+00  0.22599728211E+04  0.32280728882E+04  0.23049896788E+04 0.  0.
        2    1    3    3  502    0 -0.10381398762E+04 -0.44557839311E+03  0.81072232304E+03  0.13905197561E+04  0.25500000920E-02 0.  1.
       -2    1    3    3    0  502  0.10381398762E+04  0.44557839311E+03  0.14492504980E+04  0.18375531321E+04  0.25500000920E-02 0. -1.
</event>
<event>
 5   0  0.1635955E-05  0.2288433E+04  0.7818609E-02  0.8482496E-01
       -2   -1    0    0    0  501  0.00000000000E+00  0.00000000000E+00  0.11845236248E+04  0.11845236248E+04  0.25500000920E-02 0.  1.
        2   -1    0    0  501    0  0.00000000000E+00  0.00000000000E+00 -0.11052807540E+04  0.11052807540E+04  0.25500000920E-02 0. -1.
    10030    2    1    2    0    0  0.00000000000E+00  0.00000000000E+00  0.79242870877E+02  0.22898043788E+04  0.22884327958E+04 0.  0.
        2    1    3    3  502    0 -0.47005572853E+03 -0.60070796102E+03  0.89302694270E+03  0.11744358487E+04  0.25500000920E-02 0.  1.
       -2    1    3    3    0  502  0.47005572853E+03  0.60070796102E+03 -0.81378407183E+03  0.11153685301E+04  0.25500000920E-02 0. -1.
</event>
<event>
 5   0  0.7183014E-06  0.2295367E+04  0.7818609E-02  0.8479750E-01
        1   -1    0    0  501    0  0.00000000000E+00  0.00000000000E+00  0.17811625431E+04  0.17811625431E+04  0.50400001928E-02 0. -1.
       -1   -1    0    0    0  501  0.00000000000E+00  0.00000000000E+00 -0.73950427720E+03  0.73950427722E+03  0.50400001928E-02 0.  1.
    10030    2    1    2    0    0  0.00000000000E+00  0.00000000000E+00  0.10416582659E+04  0.25206668203E+04  0.22953669153E+04 0.  0.
        3    1    3    3  502    0 -0.65301768667E+03 -0.18226435705E+03 -0.49609066028E+03  0.84009424970E+03  0.10100000352E+00 0.  1.
       -3    1    3    3    0  502  0.65301768667E+03  0.18226435705E+03  0.15377489261E+04  0.16805725706E+04  0.10100000352E+00 0. -1.
</event>
<event>
 5   0  0.7391007E-06  0.2287492E+04  0.7818609E-02  0.8482869E-01
        1   -1    0    0  501    0  0.00000000000E+00  0.00000000000E+00  0.10455341043E+04  0.10455341043E+04  0.50400001928E-02 0. -1.
       -1   -1    0    0    0  501  0.00000000000E+00  0.00000000000E+00 -0.12511828966E+04  0.12511828966E+04  0.50400001928E-02 0.  1.
    10030    2    1    2    0    0  0.00000000000E+00  0.00000000000E+00 -0.20564879237E+03  0.22967170009E+04  0.22874915424E+04 0.  0.
        1    1    3    3  502    0 -0.10523717998E+04 -0.23315596583E+03 -0.48686705848E+03  0.11827458062E+04  0.50400001928E-02 0.  1.
       -1    1    3    3    0  502  0.10523717998E+04  0.23315596583E+03  0.28121826610E+03  0.11139711947E+04  0.50400001928E-02 0. -1.
</event>
<event>
 5   0  0.1626636E-05  0.2329176E+04  0.7818609E-02  0.8466505E-01
       -2   -1    0    0    0  501  0.00000000000E+00  0.00000000000E+00  0.62268723256E+03  0.62268723257E+03  0.25500000920E-02 0. -1.
        2   -1    0    0  501    0  0.00000000000E+00  0.00000000000E+00 -0.21780850158E+04  0.21780850158E+04  0.25500000920E-02 0.  1.
    10030    2    1    2    0    0  0.00000000000E+00  0.00000000000E+00 -0.15553977832E+04  0.28007722484E+04  0.23291764474E+04 0.  0.
        4    1    3    3  502    0 -0.27097385332E+03  0.32847258891E+03  0.52571940315E+03  0.67653793286E+03  0.12699999809E+01 0. -1.
       -4    1    3    3    0  502  0.27097385332E+03 -0.32847258891E+03 -0.20811171864E+04  0.21242343155E+04  0.12699999809E+01 0.  1.
</event>
<event>
 5   0  0.1697855E-05  0.2303141E+04  0.7818609E-02  0.8476684E-01
        2   -1    0    0  501    0  0.00000000000E+00  0.00000000000E+00  0.17021487513E+04  0.17021487513E+04  0.25500000920E-02 0.  1.
       -2   -1    0    0    0  501  0.00000000000E+00  0.00000000000E+00 -0.77908285040E+03  0.77908285041E+03  0.25500000920E-02 0. -1.
    10030    2    1    2    0    0  0.00000000000E+00  0.00000000000E+00  0.92306590088E+03  0.24812316017E+04  0.23031412471E+04 0.  0.
        5    1    3    3  502    0 -0.59229010429E+03  0.80387549284E+03 -0.15646993617E+03  0.10107068351E+04  0.46999998093E+01 0. -1.
       -5    1    3    3    0  502  0.59229010429E+03 -0.80387549284E+03  0.10795358371E+04  0.14705247666E+04  0.46999998093E+01 0.  1.
</event>
<event>
 5   0  0.7202572E-06  0.2302475E+04  0.7818609E-02  0.8476946E-01
       -1   -1    0    0    0  501  0.00000000000E+00  0.00000000000E+00  0.82202657164E+03  0.82202657166E+03  0.50400001928E-02 0. -1.
        1   -1    0    0  501    0  0.00000000000E+00  0.00000000000E+00 -0.16122925233E+04  0.16122925234E+04  0.50400001928E-02 0.  1.
    10030    2    1    2    0    0  0.00000000000E+00  0.00000000000E+00 -0.79026595171E+03  0.24343190950E+04  0.23024745779E+04 0.  0.
        2    1    3    3  502    0 -0.75680738205E+03  0.59184119952E+03 -0.10657354759E+04  0.14348608029E+04  0.25500000920E-02 0.  1.
       -2    1    3    3    0  502  0.75680738205E+03 -0.59184119952E+03  0.27546952421E+03  0.99945829215E+03  0.25500000920E-02 0. -1.
</event>
<event>
 5   0  0.7202572E-06  0.2323108E+04  0.7818609E-02  0.8468865E-01
       -1   -1    0    0    0  501  0.00000000000E+00  0.00000000000E+00  0.10246680136E+04  0.10246680137E+04  0.50400001928E-02 0.  1.
        1   -1    0    0  501    0  0.00000000000E+00  0.00000000000E+00 -0.13167270878E+04  0.13167270878E+04  0.50400001928E-02 0. -1.
    10030    2    1    2    0    0  0.00000000000E+00  0.00000000000E+00 -0.29205907414E+03  0.23413951015E+04  0.23231083742E+04 0.  0.
        2    1    3    3  502    0 -0.29960950344E+03 -0.98218114283E+03  0.40116447251E+03  0.11024421009E+04  0.25500000920E-02 0. -1.
       -2    1    3    3    0  502  0.29960950344E+03  0.98218114283E+03 -0.69322354665E+03  0.12389530005E+04  0.25500000920E-02 0.  1.
</event>
<event>
 5   0  0.7391007E-06  0.2335780E+04  0.7818609E-02  0.8463946E-01
       -1   -1    0    0    0  501  0.00000000000E+00  0.00000000000E+00  0.23771656488E+04  0.23771656488E+04  0.50400001928E-02 0.  1.
        1   -1    0    0  501    0  0.00000000000E+00  0.00000000000E+00 -0.57377871108E+03  0.57377871110E+03  0.50400001928E-02 0. -1.
    10030    2    1    2    0    0  0.00000000000E+00  0.00000000000E+00  0.18033869377E+04  0.29509443599E+04  0.23357799914E+04 0.  0.
        1    1    3    3  502    0  0.60748990001E+03  0.43392421185E+03 -0.23296990703E+03  0.78205445965E+03  0.50400001928E-02 0. -1.
       -1    1    3    3    0  502 -0.60748990001E+03 -0.43392421185E+03  0.20363568448E+04  0.21688899003E+04  0.50400001928E-02 0.  1.
</event>
<event>
 5   0  0.7278815E-06  0.2302750E+04  0.7818609E-02  0.8476838E-01
       -1   -1    0    0    0  501  0.00000000000E+00  0.00000000000E+00  0.10355510608E+04  0.10355510608E+04  0.50400001928E-02 0.  1.
        1   -1    0    0  501    0  0.00000000000E+00  0.00000000000E+00 -0.12801533725E+04  0.12801533725E+04  0.50400001928E-02 0. -1.
    10030    2    1    2    0    0  0.00000000000E+00  0.00000000000E+00 -0.24460231174E+03  0.23157044333E+04  0.23027498195E+04 0.  0.
        5    1    3    3  502    0  0.19128964253E+03 -0.23715184237E+02 -0.12638028274E+04  0.12784263036E+04  0.46999998093E+01 0. -1.
       -5    1    3    3    0  502 -0.19128964253E+03  0.23715184237E+02  0.10192005156E+04  0.10372781297E+04  0.46999998093E+01 0.  1.
</event>
<event>
 5   0  0.7183014E-06  0.2307014E+04  0.7818609E-02  0.8475161E-01
        1   -1    0    0  501    0  0.00000000000E+00  0.00000000000E+00  0.13066782323E+04  0.13066782323E+04  0.50400001928E-02 0.  1.
       -1   -1    0    0    0  501  0.00000000000E+00  0.00000000000E+00 -0.10182909652E+04  0.10182909652E+04  0.50400001928E-02 0. -1.
    10030    2    1    2    0    0  0.00000000000E+00  0.00000000000E+00  0.28838726703E+03  0.23249691975E+04  0.23070142075E+04 0.  0.
        3    1    3    3  502    0  0.86826782993E+03 -0.49586288339E+03 -0.43544321894E+03  0.10905869203E+04  0.10100000352E+00 0. -1.
       -3    1    3    3    0  502 -0.86826782993E+03  0.49586288339E+03  0.72383048597E+03  0.12343822772E+04  0.10100000352E+00 0.  1.
</event>
<event>
 5   0  0.1588969E-05  0.2294299E+04  0.7818609E-02  0.8480172E-01
        2   -1    0    0  501    0  0.00000000000E+00  0.00000000000E+00  0.13682280831E+04  0.13682280831E+04  0.25500000920E-02 0.  1.
       -2   -1    0    0    0  501  0.00000000000E+00  0.00000000000E+00 -0.96179312158E+03  0.96179312159E+03  0.25500000920E-02 0. -1.
    10030    2    1    2    0    0  0.00000000000E+00  0.00000000000E+00  0.40643496152E+03  0.23300212047E+04  0.22942993345E+04 0.  0.
        1    1    3    3  502    0 -0.14368941914E+02  0.65655574162E+03 -0.75200164508E+03  0.99838789184E+03  0.50400001928E-02 0. -1.
       -1    1    3    3    0  502  0.14368941914E+02 -0.65655574162E+03  0.11584366066E+04  0.13316333128E+04  0.50400001928E-02 0.  1.
</event>
<event>
 5   0  0.7278815E-06  0.2304097E+04  0.7818609E-02  0.8476307E-01
        1   -1    0    0  501    0  0.00000000000E+00  0.00000000000E+00  0.16052341955E+04  0.16052341955E+04  0.50400001928E-02 0. -1.
       -1   -1    0    0    0  501  0.00000000000E+00  0.00000000000E+00 -0.82680512541E+03  0.82680512543E+03  0.50400001928E-02 0.  1.
    10030    2    1    2    0    0  0.00000000000E+00  0.00000000000E+00  0.77842907012E+03  0.24320393210E+04  0.23040970990E+04 0.  0.
        5    1    3    3  502    0 -0.65830152675E+03 -0.10380044355E+03 -0.60267775152E+03  0.89854214947E+03  0.46999998093E+01 0.  1.
       -5    1    3    3    0  502  0.65830152675E+03  0.10380044355E+03  0.13811068216E+04  0.15334971715E+04  0.46999998093E+01 0. -1.
</event>
<event>
 5   0  0.7391007E-06  0.2294825E+04  0.7818609E-02  0.8479964E-01
        1   -1    0    0  501    0  0.00000000000E+00  0.00000000000E+00  0.14125731222E+04  0.14125731222E+04  0.50400001928E-02 0. -1.
       -1   -1    0    0    0  501  0.00000000000E+00  0.00000000000E+00 -0.93202653734E+03  0.93202653735E+03  0.50400001928E-02 0.  1.
    10030    2    1    2    0    0  0.00000000000E+00  0.00000000000E+00  0.48054658483E+03  0.23445996595E+04  0.22948251662E+04 0.  0.
        1    1    3    3  502    0  0.10802877959E+04  0.38634412627E+03  0.25712745758E+03  0.11757542410E+04  0.50400001928E-02 0.  1.
       -1    1    3    3    0  502 -0.10802877959E+04 -0.38634412627E+03  0.22341912725E+03  0.11688454185E+04  0.50400001928E-02 0. -1.
</event>
<event>
 5   0  0.7391007E-06  0.2334059E+04  0.7818609E-02  0.8464612E-01
        1   -1    0    0  501    0  0.00000000000E+00  0.00000000000E+00  0.12366257277E+04  0.12366257277E+04  0.50400001928E-02 0. -1.
       -1   -1    0    0    0  501  0.00000000000E+00  0.00000000000E+00 -0.11013496469E+04  0.11013496470E+04  0.50400001928E-02 0.  1.
    10030    2    1    2    0    0  0.00000000000E+00  0.00000000000E+00  0.13527608073E+03  0.23379753746E+04  0.23340585328E+04 0.  0.
        1    1    3    3  502    0  0.31243049835E+03  0.37309718820E+03 -0.99486956430E+03  0.11075106221E+04  0.50400001928E-02 0.  1.
       -1    1    3    3    0  502 -0.31243049835E+03 -0.37309718820E+03  0.11301456450E+04  0.12304647525E+04  0.50400001928E-02 0. -1.
</event>
<event>
 5   0  0.7416556E-06  0.2306301E+04  0.7818609E-02  0.8475441E-01
       -1   -1    0    0    0  501  0.00000000000E+00  0.00000000000E+00  0.67586421771E+03  0.67586421773E+03  0.50400001928E-02 0. -1.
        1   -1    0    0  501    0  0.00000000000E+00  0.00000000000E+00 -0.19674895665E+04  0.19674895665E+04  0.50400001928E-02 0.  1.
    10030    2    1    2    0    0  0.00000000000E+00  0.00000000000E+00 -0.12916253488E+04  0.26433537842E+04  0.23063007581E+04 0.  0.
        4    1    3    3  502    0 -0.69756524274E+03 -0.54552512624E+03  0.20075233438E+03  0.90801874645E+03  0.12699999809E+01 0. -1.
       -4    1    3    3    0  502  0.69756524274E+03  0.54552512624E+03 -0.14923776832E+04  0.17353350378E+04  0.12699999809E+01 0.  1.
</event>
<event>
 5   0  0.7183014E-06  0.2304971E+04  0.7818609E-02  0.8475964E-01
       -1   -1    0    0    0  501  0.00000000000E+00  0.00000000000E+00  0.88008855608E+03  0.88008855609E+03  0.50400001928E-02 0. -1.
        1   -1    0    0  501    0  0.00000000000E+00  0.00000000000E+00 -0.15091925734E+04  0.15091925734E+04  0.50400001928E-02 0.  1.
    10030    2    1    2    0    0  0.00000000000E+00  0.00000000000E+00 -0.62910401733E+03  0.23892811295E+04  0.23049712474E+04 0.  0.
        3    1    3    3  502    0 -0.62381621501E+03 -0.96153024000E+03 -0.43952744073E+03  0.12275469253E+04  0.10100000352E+00 0.  1.
       -3    1    3    3    0  502  0.62381621501E+03  0.96153024000E+03 -0.18957657660E+03  0.11617342042E+04  0.10100000352E+00 0. -1.
</event>
<event>
 5   0  0.1588969E-05  0.2279662E+04  0.7818609E-02  0.8485984E-01
       -2   -1    0    0    0  501  0.00000000000E+00  0.00000000000E+00  0.13073348665E+04  0.13073348665E+04  0.25500000920E-02 0. -1.
        2   -1    0    0  501    0  0.00000000000E+00  0.00000000000E+00 -0.99378852148E+03  0.99378852148E+03  0.25500000920E-02 0.  1.
    10030    2    1    2    0    0  0.00000000000E+00  0.00000000000E+00  0.31354634503E+03  0.23011233880E+04  0.22796617153E+04 0.  0.
        1    1    3    3  502    0 -0.10767260385E+04 -0.25580847118E+03  0.43217399895E+03  0.11880872448E+04  0.50400001928E-02 0. -1.
       -1    1    3    3    0  502  0.10767260385E+04  0.25580847118E+03 -0.11862765392E+03  0.11130361432E+04  0.50400001928E-02 0.  1.
</event>
<event>
 5   0  0.1602809E-05  0.2302989E+04  0.7818609E-02  0.8476743E-01
        2   -1    0    0  501    0  0.00000000000E+00  0.00000000000E+00  0.93654583920E+03  0.93654583920E+03  0.25500000920E-02 0. -1.
       -2   -1    0    0    0  501  0.00000000000E+00  0.00000000000E+00 -0.14157766513E+04  0.14157766513E+04  0.25500000920E-02 0.  1.
    10030    2    1    2    0    0  0.00000000000E+00  0.00000000000E+00 -0.47923081215E+03  0.23523224905E+04  0.23029891290E+04 0.  0.
        3    1    3    3  502    0 -0.36397078355E+03 -0.55020592321E+03 -0.12036221421E+04  0.13725551211E+04  0.10100000352E+00 0.  1.
       -3    1    3    3    0  502  0.36397078355E+03  0.55020592321E+03  0.72439132995E+03  0.97976736949E+03  0.10100000352E+00 0. -1.
</event>
<event>
 5   0  0.7183014E-06  0.2277482E+04  0.7818609E-02  0.8486853E-01
        1   -1    0    0  501    0  0.00000000000E+00  0.00000000000E+00  0.16180367182E+04  0.16180367182E+04  0.50400001928E-02 0.  1.
       -1   -1    0    0    0  501  0.00000000000E+00  0.00000000000E+00 -0.80142240348E+03  0.80142240349E+03  0.50400001928E-02 0. -1.
    10030    2    1    2    0    0  0.00000000000E+00  0.00000000000E+00  0.81661431473E+03  0.24194591217E+04  0.22774818336E+04 0.  0.
        3    1    3    3  502    0  0.26779012689E+03 -0.97221859970E+03 -0.15363966779E+03  0.10200616233E+04  0.10100000352E+00 0. -1.
       -3    1    3    3    0  502 -0.26779012689E+03  0.97221859970E+03  0.97025398252E+03  0.13993974984E+04  0.10100000352E+00 0.  1.
</event>
<event>
 5   0  0.1697855E-05  0.2279709E+04  0.7818609E-02  0.8485965E-01
        2   -1    0    0  501    0  0.00000000000E+00  0.00000000000E+00  0.19138379956E+04  0.19138379956E+04  0.25500000920E-02 0. -1.
       -2   -1    0    0    0  501  0.00000000000E+00  0.00000000000E+00 -0.67888080276E+03  0.67888080276E+03  0.25500000920E-02 0.  1.
    10030    2    1    2    0    0  0.00000000000E+00  0.00000000000E+00  0.12349571928E+04  0.25927187983E+04  0.22797086435E+04 0.  0.
        5    1    3    3  502    0  0.10552524668E+04 -0.25310993376E+03  0.10141077202E+04  0.14852807699E+04  0.46999998093E+01 0. -1.
       -5    1    3    3    0  502 -0.10552524668E+04  0.25310993376E+03  0.22084947263E+03  0.11074380284E+04  0.46999998093E+01 0.  1.
</event>
<event>
 5   0  0.7416556E-06  0.2297937E+04  0.7818609E-02  0.8478735E-01
       -1   -1    0    0    0  501  0.00000000000E+00  0.00000000000E+00  0.91428217761E+03  0.91428217762E+03  0.50400001928E-02 0. -1.
        1   -1    0    0  501    0  0.00000000000E+00  0.00000000000E+00 -0.14438959880E+04  0.14438959880E+04  0.50400001928E-02 0.  1.
    10030    2    1    2    0    0  0.00000000000E+00  0.00000000000E+00 -0.52961381037E+03  0.23581781656E+04  0.22979367860E+04 0.  0.
        4    1    3    3  502    0 -0.73616283432E+03  0.86388931669E+03 -0.44805543501E+03  0.12202441378E+04  0.12699999809E+01 0. -1.
       -4    1    3    3    0  502  0.73616283432E+03 -0.86388931669E+03 -0.81558375358E+02  0.11379340278E+04  0.12699999809E+01 0.  1.
</event>
<event>
 5   0  0.7202572E-06  0.2295812E+04  0.7818609E-02  0.8479574E-01
        1   -1    0    0  501    0  0.00000000000E+00  0.00000000000E+00  0.13477153578E+04  0.13477153578E+04  0.50400001928E-02 0. -1.
       -1   -1    0    0    0  501  0.00000000000E+00  0.00000000000E+00 -0.97771952712E+03  0.97771952713E+03  0.50400001928E-02 0.  1.
    10030    2    1    2    0    0  0.00000000000E+00  0.00000000000E+00  0.36999583063E+03  0.23254348849E+04  0.22958115099E+04 0.  0.
        2    1    3    3  502    0  0.22473403284E+03 -0.10414944808E+04 -0.24768072424E+03  0.10938747096E+04  0.25500000920E-02 0.  1.
       -2    1    3    3    0  502 -0.22473403284E+03  0.10414944808E+04  0.61767655487E+03  0.12315601753E+04  0.25500000920E-02 0. -1.
</event>
<event>
 5   0  0.7391007E-06  0.2304242E+04  0.7818609E-02  0.8476251E-01
        1   -1    0    0  501    0  0.00000000000E+00  0.00000000000E+00  0.12114327604E+04  0.12114327604E+04  0.50400001928E-02 0. -1.
       -1   -1    0    0    0  501  0.00000000000E+00  0.00000000000E+00 -0.10957128231E+04  0.10957128231E+04  0.50400001928E-02 0.  1.
    10030    2    1    2    0    0  0.00000000000E+00  0.00000000000E+00  0.11571993733E+03  0.23071455835E+04  0.23042416626E+04 0.  0.
        1    1    3    3  502    0  0.62916000450E+03 -0.88936470603E+03  0.43325982161E+03  0.11724017932E+04  0.50400001928E-02 0. -1.
       -1    1    3    3    0  502 -0.62916000450E+03  0.88936470603E+03 -0.31753988428E+03  0.11347437903E+04  0.50400001928E-02 0.  1.
</event>
<event>
 5   0  0.7278815E-06  0.2287127E+04  0.7818609E-02  0.8483014E-01
       -1   -1    0    0    0  501  0.00000000000E+00  0.00000000000E+00  0.12230526639E+04  0.12230526639E+04  0.50400001928E-02 0. -1.
        1   -1    0    0  501    0  0.00000000000E+00  0.00000000000E+00 -0.10692406227E+04  0.10692406227E+04  0.50400001928E-02 0.  1.
    10030    2    1    2    0    0  0.00000000000E+00  0.00000000000E+00  0.15381204122E+03  0.22922932866E+04  0.22871270992E+04 0.  0.
        5    1    3    3  502    0 -0.77995017375E+02  0.27212642800E+02  0.12200487612E+04  0.12228511031E+04  0.46999998093E+01 0. -1.
       -5    1    3    3    0  502  0.77995017375E+02 -0.27212642800E+02 -0.10662367200E+04  0.10694421835E+04  0.46999998093E+01 0.  1.
</event>
<event>
 5   0  0.1697855E-05  0.2304894E+04  0.7818609E-02  0.8475994E-01
       -2   -1    0    0    0  501  0.00000000000E+00  0.00000000000E+00  0.77961569058E+03  0.77961569058E+03  0.25500000920E-02 0. -1.
        2   -1    0    0  501    0  0.00000000000E+00  0.00000000000E+00 -0.17035747410E+04  0.17035747410E+04  0.25500000920E-02 0.  1.
    10030    2    1    2    0    0  0.00000000000E+00  0.00000000000E+00 -0.92395905040E+03  0.24831904316E+04  0.23048935751E+04 0.  0.
        5    1    3    3  502    0  0.46369788118E+03 -0.71246836616E+03 -0.13003012162E+04  0.15535225266E+04  0.46999998093E+01 0.  1.
       -5    1    3    3    0  502 -0.46369788118E+03  0.71246836616E+03  0.37634216578E+03  0.92966790498E+03  0.46999998093E+01 0. -1.
</event>
<event>
 5   0  0.1626636E-05  0.2302477E+04  0.7818609E-02  0.8476945E-01
        2   -1    0    0  501    0  0.00000000000E+00  0.00000000000E+00  0.21629764960E+04  0.21629764960E+04  0.25500000920E-02 0. -1.
       -2   -1    0    0    0  501  0.00000000000E+00  0.00000000000E+00 -0.61274364179E+03  0.61274364179E+03  0.25500000920E-02 0.  1.
    10030    2    1    2    0    0  0.00000000000E+00  0.00000000000E+00  0.15502328542E+04  0.27757201378E+04  0.23024770099E+04 0.  0.
        4    1    3    3  502    0 -0.35541231447E+03 -0.85715986539E+03 -0.46337554925E+02  0.92908004499E+03  0.12699999809E+01 0.  1.
       -4    1    3    3    0  502  0.35541231447E+03  0.85715986539E+03  0.15965704092E+04  0.18466400928E+04  0.12699999809E+01 0. -1.
</event>
<event>
 5   0  0.7278815E-06  0.2297689E+04  0.7818609E-02  0.8478833E-01
        1   -1    0    0  501    0  0.00000000000E+00  0.00000000000E+00  0.68270603954E+03  0.68270603956E+03  0.50400001928E-02 0.  1.
       -1   -1    0    0    0  501  0.00000000000E+00  0.00000000000E+00 -0.19332536451E+04  0.19332536451E+04  0.50400001928E-02 0. -1.
    10030    2    1    2    0    0  0.00000000000E+00  0.00000000000E+00 -0.12505476056E+04  0.26159596847E+04  0.22976892214E+04 0.  0.
        5    1    3    3  502    0  0.38549853806E+03 -0.36302144244E+03 -0.17860192763E+04  0.18628689261E+04  0.46999998093E+01 0. -1.
       -5    1    3    3    0  502 -0.38549853806E+03  0.36302144244E+03  0.53547167072E+03  0.75309075858E+03  0.46999998093E+01 0.  1.
</event>
<event>
 5   0  0.5704875E-06  0.2295608E+04  0.7818609E-02  0.8479655E-01
       -3   -1    0    0    0  501  0.00000000000E+00  0.00000000000E+00  0.89706070461E+03  0.89706071029E+03  0.10100000352E+00 0.  1.
        3   -1    0    0  501    0  0.00000000000E+00  0.00000000000E+00 -0.14686343178E+04  0.14686343213E+04  0.10100000352E+00 0. -1.
    10030    2    1    2    0    0  0.00000000000E+00  0.00000000000E+00 -0.57157361320E+03  0.23656950316E+04  0.22956081083E+04 0.  0.
        1    1    3    3  502    0 -0.11845997609E+02  0.92856365119E+03 -0.98098156337E+03  0.13508129440E+04  0.50400001928E-02 0. -1.
       -1    1    3    3    0  502  0.11845997609E+02 -0.92856365119E+03  0.40940795017E+03  0.10148820876E+04  0.50400001928E-02 0.  1.
</event>
<event>
 5   0  0.1588969E-05  0.2305853E+04  0.7818609E-02  0.8475617E-01
       -2   -1    0    0    0  501  0.00000000000E+00  0.00000000000E+00  0.90911523545E+03  0.90911523545E+03  0.25500000920E-02 0. -1.
        2   -1    0    0  501    0  0.00000000000E+00  0.00000000000E+00 -0.14621241408E+04  0.14621241408E+04  0.25500000920E-02 0.  1.
    10030    2    1    2    0    0  0.00000000000E+00  0.00000000000E+00 -0.55300890532E+03  0.23712393762E+04  0.23058528422E+04 0.  0.
        1    1    3    3  502    0  0.80342545099E+03 -0.63322245239E+03  0.27034179944E+03  0.10580868670E+04  0.50400001928E-02 0. -1.
       -1    1    3    3    0  502 -0.80342545099E+03  0.63322245239E+03 -0.82335070476E+03  0.13131525093E+04  0.50400001928E-02 0.  1.
</event>
<event>
 5   0  0.1626636E-05  0.2301495E+04  0.7818609E-02  0.8477332E-01
       -2   -1    0    0    0  501  0.00000000000E+00  0.00000000000E+00  0.21059329463E+04  0.21059329463E+04  0.25500000920E-02 0.  1.
        2   -1    0    0  501    0  0.00000000000E+00  0.00000000000E+00 -0.62880460478E+03  0.62880460479E+03  0.25500000920E-02 0. -1.
    10030    2    1    2    0    0  0.00000000000E+00  0.00000000000E+00  0.14771283415E+04  0.27347375511E+04  0.23014954565E+04 0.  0.
        4    1    3    3  502    0 -0.42840716353E+03  0.19927112614E+03 -0.50822971432E+03  0.69393136180E+03  0.12699999809E+01 0. -1.
       -4    1    3    3    0  502  0.42840716353E+03 -0.19927112614E+03  0.19853580559E+04  0.20408061893E+04  0.12699999809E+01 0.  1.
</event>
<event>
 5   0  0.1626636E-05  0.2300160E+04  0.7818609E-02  0.8477858E-01
        2   -1    0    0  501    0  0.00000000000E+00  0.00000000000E+00  0.16527872601E+04  0.16527872601E+04  0.25500000920E-02 0. -1.
       -2   -1    0    0    0  501  0.00000000000E+00  0.00000000000E+00 -0.80027463406E+03  0.80027463406E+03  0.25500000920E-02 0.  1.
    10030    2    1    2    0    0  0.00000000000E+00  0.00000000000E+00  0.85251262599E+03  0.24530618941E+04  0.23001597507E+04 0.  0.
        4    1    3    3  502    0 -0.39786720923E+03  0.19498777633E+03  0.15581087283E+04  0.16198836289E+04  0.12699999809E+01 0. -1.
       -4    1    3    3    0  502  0.39786720923E+03 -0.19498777633E+03 -0.70559610232E+03  0.83317826520E+03  0.12699999809E+01 0.  1.
</event>
<event>
 5   0  0.7416556E-06  0.2302724E+04  0.7818609E-02  0.8476848E-01
       -1   -1    0    0    0  501  0.00000000000E+00  0.00000000000E+00  0.87291526460E+03  0.87291526461E+03  0.50400001928E-02 0.  1.
        1   -1    0    0  501    0  0.00000000000E+00  0.00000000000E+00 -0.15186288753E+04  0.15186288753E+04  0.50400001928E-02 0. -1.
    10030    2    1    2    0    0  0.00000000000E+00  0.00000000000E+00 -0.64571361066E+03  0.23915441399E+04  0.23027238884E+04 0.  0.
        4    1    3    3  502    0 -0.79492612717E+03  0.56728312125E+03 -0.95622813004E+03  0.13667814518E+04  0.12699999809E+01 0.  1.
       -4    1    3    3    0  502  0.79492612717E+03 -0.56728312125E+03  0.31051451938E+03  0.10247626881E+04  0.12699999809E+01 0. -1.
</event>
<event>
 5   0  0.7183014E-06  0.2294562E+04  0.7818609E-02  0.8480068E-01
        1   -1    0    0  501    0  0.00000000000E+00  0.00000000000E+00  0.23808997620E+04  0.23808997620E+04  0.50400001928E-02 0. -1.
       -1   -1    0    0    0  501  0.00000000000E+00  0.00000000000E+00 -0.55283855287E+03  0.55283855289E+03  0.50400001928E-02 0.  1.
    10030    2    1    2    0    0  0.00000000000E+00  0.00000000000E+00  0.18280612092E+04  0.29337383149E+04  0.22945615520E+04 0.  0.
        3    1    3    3  502    0 -0.91500350885E+03 -0.68579441853E+03  0.10333400876E+04  0.15412128836E+04  0.10100000352E+00 0.  1.
       -3    1    3    3    0  502  0.91500350885E+03  0.68579441853E+03  0.79472112158E+03  0.13925254314E+04  0.10100000352E+00 0. -1.
</event>
<event>
 5   0  0.7183014E-06  0.2278179E+04  0.7818609E-02  0.8486575E-01
        1   -1    0    0  501    0  0.00000000000E+00  0.00000000000E+00  0.94361693671E+03  0.94361693672E+03  0.50400001928E-02 0. -1.
       -1   -1    0    0    0  501  0.00000000000E+00  0.00000000000E+00 -0.13750545201E+04  0.13750545201E+04  0.50400001928E-02 0.  1.
    10030    2    1    2    0    0  0.00000000000E+00  0.00000000000E+00 -0.43143758337E+03  0.23186714568E+04  0.22781788640E+04 0.  0.
        3    1    3    3  502    0  0.22449639687E+03 -0.55380148036E+03  0.77127549259E+03  0.97568468653E+03  0.10100000352E+00 0. -1.
       -3    1    3    3    0  502 -0.22449639687E+03  0.55380148036E+03 -0.12027130760E+04  0.13429867703E+04  0.10100000352E+00 0.  1.
</event>
<event>
 5   0  0.1626636E-05  0.2377220E+04  0.7818609E-02  0.8448082E-01
        2   -1    0    0  501    0  0.00000000000E+00  0.00000000000E+00  0.18402362551E+04  0.18402362551E+04  0.25500000920E-02 0.  1.
       -2   -1    0    0    0  501  0.00000000000E+00  0.00000000000E+00 -0.76772417728E+03  0.76772417729E+03  0.25500000920E-02 0. -1.
    10030    2    1    2    0    0  0.00000000000E+00  0.00000000000E+00  0.10725120778E+04  0.26079604324E+04  0.23772201118E+04 0.  0.
        4    1    3    3  502    0 -0.11000060561E+04  0.12809504336E+03  0.62646663861E+02  0.11092104764E+04  0.12699999809E+01 0. -1.
       -4    1    3    3    0  502  0.11000060561E+04 -0.12809504336E+03  0.10098654140E+04  0.14987499560E+04  0.12699999809E+01 0.  1.
</event>
<event>
 5   0  0.7416556E-06  0.2295787E+04  0.7818609E-02  0.8479584E-01
        1   -1    0    0  501    0  0.00000000000E+00  0.00000000000E+00  0.14720605736E+04  0.14720605736E+04  0.50400001928E-02 0.  1.
       -1   -1    0    0    0  501  0.00000000000E+00  0.00000000000E+00 -0.89511265814E+03  0.89511265816E+03  0.50400001928E-02 0. -1.
    10030    2    1    2    0    0  0.00000000000E+00  0.00000000000E+00  0.57694791545E+03  0.23671732318E+04  0.22957874928E+04 0.  0.
        4    1    3    3  502    0  0.84373309926E+03  0.14090784507E+03 -0.50077993013E+03  0.99122283817E+03  0.12699999809E+01 0. -1.
       -4    1    3    3    0  502 -0.84373309926E+03 -0.14090784507E+03  0.10777278456E+04  0.13759503936E+04  0.12699999809E+01 0.  1.
</event>
<event>
 5   0  0.1588969E-05  0.2301122E+04  0.7818609E-02  0.8477479E-01
        2   -1    0    0  501    0  0.00000000000E+00  0.00000000000E+00  0.17918403541E+04  0.17918403541E+04  0.25500000920E-02 0. -1.
       -2   -1    0    0    0  501  0.00000000000E+00  0.00000000000E+00 -0.73878809702E+03  0.73878809702E+03  0.25500000920E-02 0.  1.
    10030    2    1    2    0    0  0.00000000000E+00  0.00000000000E+00  0.10530522570E+04  0.25306284511E+04  0.23011217485E+04 0.  0.
        1    1    3    3  502    0  0.68321795725E+01  0.93909550608E+03  0.12575354501E+04  0.15695038887E+04  0.50400001928E-02 0. -1.
       -1    1    3    3    0  502 -0.68321795725E+01 -0.93909550608E+03 -0.20448319307E+03  0.96112456243E+03  0.50400001928E-02 0.  1.
</event>
<event>
 5   0  0.7278815E-06  0.2298943E+04  0.7818609E-02  0.8478338E-01
       -1   -1    0    0    0  501  0.00000000000E+00  0.00000000000E+00  0.12233156457E+04  0.12233156457E+04  0.50400001928E-02 0. -1.
        1   -1    0    0  501    0  0.00000000000E+00  0.00000000000E+00 -0.10800844906E+04  0.10800844906E+04  0.50400001928E-02 0.  1.
    10030    2    1    2    0    0  0.00000000000E+00  0.00000000000E+00  0.14323115513E+03  0.23034001363E+04  0.22989425882E+04 0.  0.
        5    1    3    3  502    0  0.83625946827E+03 -0.15351906620E+03  0.84665545844E+03  0.11998939775E+04  0.46999998093E+01 0. -1.
       -5    1    3    3    0  502 -0.83625946827E+03  0.15351906620E+03 -0.70342430331E+03  0.11035061588E+04  0.46999998093E+01 0.  1.
</event>
<event>
 5   0  0.1602809E-05  0.2298444E+04  0.7818609E-02  0.8478535E-01
       -2   -1    0    0    0  501  0.00000000000E+00  0.00000000000E+00  0.11681240635E+04  0.11681240635E+04  0.25500000920E-02 0. -1.
        2   -1    0    0  501    0  0.00000000000E+00  0.00000000000E+00 -0.11306260323E+04  0.11306260323E+04  0.25500000920E-02 0.  1.
    10030    2    1    2    0    0  0.00000000000E+00  0.00000000000E+00  0.37498031198E+02  0.22987500958E+04  0.22984442348E+04 0.  0.
        3    1    3    3  502    0 -0.89762361003E+03  0.42549971548E+03  0.59669554660E+03  0.11588027178E+04  0.10100000352E+00 0. -1.
       -3    1    3    3    0  502  0.89762361003E+03 -0.42549971548E+03 -0.55919751540E+03  0.11399473780E+04  0.10100000352E+00 0.  1.
</event>
<event>
 5   0  0.1588969E-05  0.2300517E+04  0.7818609E-02  0.8477717E-01
       -2   -1    0    0    0  501  0.00000000000E+00  0.00000000000E+00  0.62462017214E+03  0.62462017215E+03  0.25500000920E-02 0.  1.
        2   -1    0    0  501    0  0.00000000000E+00  0.00000000000E+00 -0.21182381848E+04  0.21182381848E+04  0.25500000920E-02 0. -1.
    10030    2    1    2    0    0  0.00000000000E+00  0.00000000000E+00 -0.14936180127E+04  0.27428583570E+04  0.23005167243E+04 0.  0.
        1    1    3    3  502    0 -0.84815217714E+03 -0.77660079946E+03 -0.71704062441E+03  0.13552188659E+04  0.50400001928E-02 0. -1.
       -1    1    3    3    0  502  0.84815217714E+03  0.77660079946E+03 -0.77657738828E+03  0.13876394911E+04  0.50400001928E-02 0.  1.
</event>
<event>
 5   0  0.7278815E-06  0.2299953E+04  0.7818609E-02  0.8477939E-01
       -1   -1    0    0    0  501  0.00000000000E+00  0.00000000000E+00  0.87578121631E+03  0.87578121633E+03  0.50400001928E-02 0.  1.
        1   -1    0    0  501    0  0.00000000000E+00  0.00000000000E+00 -0.15100192274E+04  0.15100192274E+04  0.50400001928E-02 0. -1.
    10030    2    1    2    0    0  0.00000000000E+00  0.00000000000E+00 -0.63423801110E+03  0.23858004437E+04  0.22999534566E+04 0.  0.
        5    1    3    3  502    0  0.13439808969E+03  0.89251768305E+03 -0.10562989578E+04  0.13894028355E+04  0.46999998093E+01 0. -1.
       -5    1    3    3    0  502 -0.13439808969E+03 -0.89251768305E+03  0.42206094666E+03  0.99639760827E+03  0.46999998093E+01 0.  1.
</event>
<event>
 5   0  0.7202572E-06  0.2330852E+04  0.7818609E-02  0.8465855E-01
        1   -1    0    0  501    0  0.00000000000E+00  0.00000000000E+00  0.13665712096E+04  0.13665712096E+04  0.50400001928E-02 0.  1.
       -1   -1    0    0    0  501  0.00000000000E+00  0.00000000000E+00 -0.99388700079E+03  0.99388700080E+03  0.50400001928E-02 0. -1.
    10030    2    1    2    0    0  0.00000000000E+00  0.00000000000E+00  0.37268420882E+03  0.23604582104E+04  0.23308516563E+04 0.  0.
        2    1    3    3  502    0 -0.59975409907E+02 -0.57525170887E+03  0.12109772774E+04  0.13420050465E+04  0.25500000920E-02 0.  1.
       -2    1    3    3    0  502  0.59975409907E+02  0.57525170887E+03 -0.83829306858E+03  0.10184531640E+04  0.25500000920E-02 0. -1.
</event>
<event>
 5   0  0.1635955E-05  0.2312049E+04  0.7818609E-02  0.8473186E-01
        2   -1    0    0  501    0  0.00000000000E+00  0.00000000000E+00  0.19672789227E+04  0.19672789227E+04  0.25500000920E-02 0.  1.
       -2   -1    0    0    0  501  0.00000000000E+00  0.00000000000E+00 -0.67931015420E+03  0.67931015421E+03  0.25500000920E-02 0. -1.
    10030    2    1    2    0    0  0.00000000000E+00  0.00000000000E+00  0.12879687685E+04  0.26465890769E+04  0.23120489167E+04 0.  0.
        2    1    3    3  502    0  0.28125143492E+03  0.69280454003E+03 -0.36523874938E+03  0.83215373843E+03  0.25500000920E-02 0. -1.
       -2    1    3    3    0  502 -0.28125143492E+03 -0.69280454003E+03  0.16532075179E+04  0.18144353385E+04  0.25500000920E-02 0.  1.
</event>
<event>
 5   0  0.1635955E-05  0.2324871E+04  0.7818609E-02  0.8468179E-01
        2   -1    0    0  501    0  0.00000000000E+00  0.00000000000E+00  0.12856643140E+04  0.12856643140E+04  0.25500000920E-02 0.  1.
       -2   -1    0    0    0  501  0.00000000000E+00  0.00000000000E+00 -0.10510182726E+04  0.10510182726E+04  0.25500000920E-02 0. -1.
    10030    2    1    2    0    0  0.00000000000E+00  0.00000000000E+00  0.23464604141E+03  0.23366825866E+04  0.23248713397E+04 0.  0.
        2    1    3    3  502    0 -0.40327609224E+02 -0.80844834489E+03  0.95585264540E+03  0.12525451378E+04  0.25500000920E-02 0.  1.
       -2    1    3    3    0  502  0.40327609224E+02  0.80844834489E+03 -0.72120660399E+03  0.10841374489E+04  0.25500000920E-02 0. -1.
</event>
<event>
 5   0  0.7183014E-06  0.2290972E+04  0.7818609E-02  0.8481489E-01
        1   -1    0    0  501    0  0.00000000000E+00  0.00000000000E+00  0.11215429223E+04  0.11215429223E+04  0.50400001928E-02 0.  1.
       -1   -1    0    0    0  501  0.00000000000E+00  0.00000000000E+00 -0.11699397317E+04  0.11699397317E+04  0.50400001928E-02 0. -1.
    10030    2    1    2    0    0  0.00000000000E+00  0.00000000000E+00 -0.48396809452E+02  0.22914826540E+04  0.22909715194E+04 0.  0.
        3    1    3    3  502    0  0.13603438939E+03  0.10169968515E+04  0.48517906178E+03  0.11349831203E+04  0.10100000352E+00 0.  1.
       -3    1    3    3    0  502 -0.13603438939E+03 -0.10169968515E+04 -0.53357587123E+03  0.11564995338E+04  0.10100000352E+00 0. -1.
</event>
<event>
 5   0  0.7202572E-06  0.2293153E+04  0.7818609E-02  0.8480626E-01
        1   -1    0    0  501    0  0.00000000000E+00  0.00000000000E+00  0.26567775482E+04  0.26567775482E+04  0.50400001928E-02 0. -1.
       -1   -1    0    0    0  501  0.00000000000E+00  0.00000000000E+00 -0.49482394749E+03  0.49482394752E+03  0.50400001928E-02 0.  1.
    10030    2    1    2    0    0  0.00000000000E+00  0.00000000000E+00  0.21619536007E+04  0.31516014957E+04  0.22931525497E+04 0.  0.
        2    1    3    3  502    0  0.33961060430E+03  0.76572937104E+03  0.49711979996E+01  0.83767627700E+03  0.25500000920E-02 0.  1.
       -2    1    3    3    0  502 -0.33961060430E+03 -0.76572937104E+03  0.21569824027E+04  0.23139252187E+04  0.25500000920E-02 0. -1.
</event>
<event>
 5   0  0.1588969E-05  0.2281567E+04  0.7818609E-02  0.8485225E-01
        2   -1    0    0  501    0  0.00000000000E+00  0.00000000000E+00  0.18947236188E+04  0.18947236188E+04  0.25500000920E-02 0.  1.
       -2   -1    0    0    0  501  0.00000000000E+00  0.00000000000E+00 -0.68684798598E+03  0.68684798598E+03  0.25500000920E-02 0. -1.
    10030    2    1    2    0    0  0.00000000000E+00  0.00000000000E+00  0.12078756328E+04  0.25815716048E+04  0.22815670944E+04 0.  0.
        1    1    3    3  502    0  0.19887150874E+03  0.79183131018E+03 -0.29759846560E+03  0.86897154586E+03  0.50400001928E-02 0. -1.
       -1    1    3    3    0  502 -0.19887150874E+03 -0.79183131018E+03  0.15054740985E+04  0.17126000589E+04  0.50400001928E-02 0.  1.
</event>
<event>
 5   0  0.7416556E-06  0.2233759E+04  0.7818609E-02  0.8504507E-01
        1   -1    0    0  501    0  0.00000000000E+00  0.00000000000E+00  0.17015613916E+04  0.17015613916E+04  0.50400001928E-02 0. -1.
       -1   -1    0    0    0  501  0.00000000000E+00  0.00000000000E+00 -0.73310282032E+03  0.73310282033E+03  0.50400001928E-02 0.  1.
    10030    2    1    2    0    0  0.00000000000E+00  0.00000000000E+00  0.96845857124E+03  0.24346642119E+04  0.22337586755E+04 0.  0.
        4    1    3    3  502    0  0.75878575482E+03 -0.65089366266E+02  0.13746683061E+04  0.15715301499E+04  0.12699999809E+01 0. -1.
       -4    1    3    3    0  502 -0.75878575482E+03  0.65089366266E+02 -0.40620973489E+03  0.86313406198E+03  0.12699999809E+01 0.  1.
</event>
<event>
 5   0  0.1588969E-05  0.2305555E+04  0.7818609E-02  0.8475734E-01
        2   -1    0    0  501    0  0.00000000000E+00  0.00000000000E+00  0.21164394978E+04  0.21164394978E+04  0.25500000920E-02 0. -1.
       -2   -1    0    0    0  501  0.00000000000E+00  0.00000000000E+00 -0.62789216997E+03  0.62789216998E+03  0.25500000920E-02 0.  1.
    10030    2    1    2    0    0  0.00000000000E+00  0.00000000000E+00  0.14885473278E+04  0.27443316677E+04  0.23055548476E+04 0.  0.
        1    1    3    3  502    0 -0.59662202022E+03 -0.14307579708E+03 -0.41740541823E+03  0.74206185855E+03  0.50400001928E-02 0.  1.
       -1    1    3    3    0  502  0.59662202022E+03  0.14307579708E+03  0.19059527460E+04  0.20022698092E+04  0.50400001928E-02 0. -1.
</event>
<event>
 5   0  0.7391007E-06  0.2304201E+04  0.7818609E-02  0.8476267E-01
       -1   -1    0    0    0  501  0.00000000000E+00  0.00000000000E+00  0.11081017787E+04  0.11081017787E+04  0.50400001928E-02 0. -1.
        1   -1    0    0  501    0  0.00000000000E+00  0.00000000000E+00 -0.11978461229E+04  0.11978461230E+04  0.50400001928E-02 0.  1.
    10030    2    1    2    0    0  0.00000000000E+00  0.00000000000E+00 -0.89744344267E+02  0.23059479016E+04  0.23042008762E+04 0.  0.
        1    1    3    3  502    0 -0.21351113479E+02 -0.89062631217E+03  0.68620502468E+03  0.11245214244E+04  0.50400001928E-02 0. -1.
       -1    1    3    3    0  502  0.21351113479E+02  0.89062631217E+03 -0.77594936895E+03  0.11814264773E+04  0.50400001928E-02 0.  1.
</event>
<event>
 5   0  0.1626636E-05  0.2301279E+04  0.7818609E-02  0.8477417E-01
       -2   -1    0    0    0  501  0.00000000000E+00  0.00000000000E+00  0.83190793518E+03  0.83190793518E+03  0.25500000920E-02 0. -1.
        2   -1    0    0  501    0  0.00000000000E+00  0.00000000000E+00 -0.15914876563E+04  0.15914876563E+04  0.25500000920E-02 0.  1.
    10030    2    1    2    0    0  0.00000000000E+00  0.00000000000E+00 -0.75957972115E+03  0.24233955915E+04  0.23012789575E+04 0.  0.
        4    1    3    3  502    0  0.25115537991E+02  0.10768760900E+04 -0.80582798980E+03  0.13452335357E+04  0.12699999809E+01 0. -1.
       -4    1    3    3    0  502 -0.25115537991E+02 -0.10768760900E+04  0.46248268649E+02  0.10781620559E+04  0.12699999809E+01 0.  1.
</event>
<event>
 5   0  0.5704875E-06  0.2292588E+04  0.7818609E-02  0.8480849E-01
       -3   -1    0    0    0  501  0.00000000000E+00  0.00000000000E+00  0.90989387533E+03  0.90989388094E+03  0.10100000352E+00 0.  1.
        3   -1    0    0  501    0  0.00000000000E+00  0.00000000000E+00 -0.14441134734E+04  0.14441134770E+04  0.10100000352E+00 0. -1.
    10030    2    1    2    0    0  0.00000000000E+00  0.00000000000E+00 -0.53421959812E+03  0.23540073579E+04  0.22925880707E+04 0.  0.
        4    1    3    3  502    0  0.80868950464E+03 -0.75565230289E+03  0.39209984302E+02  0.11074873153E+04  0.12699999809E+01 0.  1.
       -4    1    3    3    0  502 -0.80868950464E+03  0.75565230289E+03 -0.57342958242E+03  0.12465200426E+04  0.12699999809E+01 0. -1.
</event>
<event>
 5   0  0.1602809E-05  0.2299807E+04  0.7818609E-02  0.8477997E-01
        2   -1    0    0  501    0  0.00000000000E+00  0.00000000000E+00  0.17332477530E+04  0.17332477530E+04  0.25500000920E-02 0.  1.
       -2   -1    0    0    0  501  0.00000000000E+00  0.00000000000E+00 -0.76289058240E+03  0.76289058240E+03  0.25500000920E-02 0. -1.
    10030    2    1    2    0    0  0.00000000000E+00  0.00000000000E+00  0.97035717060E+03  0.24961383354E+04  0.22998072856E+04 0.  0.
        3    1    3    3  502    0  0.11207704815E+04 -0.40847074676E+02  0.76079256520E+03  0.13552122687E+04  0.10100000352E+00 0.  1.
       -3    1    3    3    0  502 -0.11207704815E+04  0.40847074676E+02  0.20956460540E+03  0.11409260667E+04  0.10100000352E+00 0. -1.
</event>
<event>
 5   0  0.1635955E-05  0.2298523E+04  0.7818609E-02  0.8478504E-01
        2   -1    0    0  501    0  0.00000000000E+00  0.00000000000E+00  0.15201828651E+04  0.15201828651E+04  0.25500000920E-02 0.  1.
       -2   -1    0    0    0  501  0.00000000000E+00  0.00000000000E+00 -0.86884378080E+03  0.86884378081E+03  0.25500000920E-02 0. -1.
    10030    2    1    2    0    0  0.00000000000E+00  0.00000000000E+00  0.65133908425E+03  0.23890266459E+04  0.22985225063E+04 0.  0.
        2    1    3    3  502    0  0.78061237758E+03 -0.93318105743E+02 -0.54563261662E+03  0.95696337715E+03  0.25500000920E-02 0. -1.
       -2    1    3    3    0  502 -0.78061237758E+03  0.93318105743E+02  0.11969717009E+04  0.14320632687E+04  0.25500000920E-02 0.  1.
</event>
<event>
 5   0  0.1588969E-05  0.2298153E+04  0.7818609E-02  0.8478650E-01
       -2   -1    0    0    0  501  0.00000000000E+00  0.00000000000E+00  0.88151836931E+03  0.88151836931E+03  0.25500000920E-02 0. -1.
        2   -1    0    0  501    0  0.00000000000E+00  0.00000000000E+00 -0.14978436426E+04  0.14978436426E+04  0.25500000920E-02 0.  1.
    10030    2    1    2    0    0  0.00000000000E+00  0.00000000000E+00 -0.61632527331E+03  0.23793620119E+04  0.22981528977E+04 0.  0.
        1    1    3    3  502    0  0.51123738651E+03 -0.74367067705E+03 -0.10446116361E+04  0.13804431214E+04  0.50400001928E-02 0.  1.
       -1    1    3    3    0  502 -0.51123738651E+03  0.74367067705E+03  0.42828636275E+03  0.99891889051E+03  0.50400001928E-02 0. -1.
</event>
<event>
 5   0  0.7202572E-06  0.2214117E+04  0.7818609E-02  0.8512575E-01
       -1   -1    0    0    0  501  0.00000000000E+00  0.00000000000E+00  0.13077662752E+04  0.13077662752E+04  0.50400001928E-02 0.  1.
        1   -1    0    0  501    0  0.00000000000E+00  0.00000000000E+00 -0.93715410861E+03  0.93715410863E+03  0.50400001928E-02 0. -1.
    10030    2    1    2    0    0  0.00000000000E+00  0.00000000000E+00  0.37061216661E+03  0.22449203839E+04  0.22141170140E+04 0.  0.
        2    1    3    3  502    0  0.85173095800E+03 -0.65213930993E+03 -0.92082288038E+02  0.10766663606E+04  0.25500000920E-02 0. -1.
       -2    1    3    3    0  502 -0.85173095800E+03  0.65213930993E+03  0.46269445465E+03  0.11682540232E+04  0.25500000920E-02 0.  1.
</event>
<event>
 5   0  0.1635955E-05  0.2310514E+04  0.7818609E-02  0.8473787E-01
       -2   -1    0    0    0  501  0.00000000000E+00  0.00000000000E+00  0.11674091179E+04  0.11674091179E+04  0.25500000920E-02 0.  1.
        2   -1    0    0  501    0  0.00000000000E+00  0.00000000000E+00 -0.11432314715E+04  0.11432314715E+04  0.25500000920E-02 0. -1.
    10030    2    1    2    0    0  0.00000000000E+00  0.00000000000E+00  0.24177646410E+02  0.23106405894E+04  0.23105140932E+04 0.  0.
        2    1    3    3  502    0  0.29600758688E+03  0.95739401206E+03  0.58692030794E+03  0.11613351083E+04  0.25500000920E-02 0.  1.
       -2    1    3    3    0  502 -0.29600758688E+03 -0.95739401206E+03 -0.56274266153E+03  0.11493054811E+04  0.25500000920E-02 0. -1.
</event>
<event>
 5   0  0.7183014E-06  0.2329325E+04  0.7818609E-02  0.8466448E-01
        1   -1    0    0  501    0  0.00000000000E+00  0.00000000000E+00  0.11613039162E+04  0.11613039162E+04  0.50400001928E-02 0.  1.
       -1   -1    0    0    0  501  0.00000000000E+00  0.00000000000E+00 -0.11680306530E+04  0.11680306531E+04  0.50400001928E-02 0. -1.
    10030    2    1    2    0    0  0.00000000000E+00  0.00000000000E+00 -0.67267368621E+01  0.23293345692E+04  0.23293248564E+04 0.  0.
        3    1    3    3  502    0 -0.11555127306E+04  0.13801931498E+03 -0.50049315182E+02  0.11648021060E+04  0.10100000352E+00 0.  1.
       -3    1    3    3    0  502  0.11555127306E+04 -0.13801931498E+03  0.43322578320E+02  0.11645324632E+04  0.10100000352E+00 0. -1.
</event>
<event>
 5   0  0.7416556E-06  0.2300147E+04  0.7818609E-02  0.8477863E-01
        1   -1    0    0  501    0  0.00000000000E+00  0.00000000000E+00  0.10364434620E+04  0.10364434620E+04  0.50400001928E-02 0. -1.
       -1   -1    0    0    0  501  0.00000000000E+00  0.00000000000E+00 -0.12761617509E+04  0.12761617509E+04  0.50400001928E-02 0.  1.
    10030    2    1    2    0    0  0.00000000000E+00  0.00000000000E+00 -0.23971828898E+03  0.23126052129E+04  0.23001473893E+04 0.  0.
        4    1    3    3  502    0 -0.51704460377E+03  0.28212379674E+02  0.91260911800E+03  0.10492797891E+04  0.12699999809E+01 0. -1.
       -4    1    3    3    0  502  0.51704460377E+03 -0.28212379674E+02 -0.11523274070E+04  0.12633254238E+04  0.12699999809E+01 0.  1.
</event>
<event>
 5   0  0.7202572E-06  0.2298818E+04  0.7818609E-02  0.8478387E-01
       -1   -1    0    0    0  501  0.00000000000E+00  0.00000000000E+00  0.59485868196E+03  0.59485868198E+03  0.50400001928E-02 0.  1.
        1   -1    0    0  501    0  0.00000000000E+00  0.00000000000E+00 -0.22209334466E+04  0.22209334466E+04  0.50400001928E-02 0. -1.
    10030    2    1    2    0    0  0.00000000000E+00  0.00000000000E+00 -0.16260747646E+04  0.28157921285E+04  0.22988184294E+04 0.  0.
        2    1    3    3  502    0 -0.19783126988E+02  0.97751756571E+03 -0.15532679251E+04  0.18353673230E+04  0.25500000920E-02 0. -1.
       -2    1    3    3    0  502  0.19783126988E+02 -0.97751756571E+03 -0.72806839523E+02  0.98042480552E+03  0.25500000920E-02 0.  1.
</event>
<event>
 5   0  0.7278815E-06  0.2299448E+04  0.7818609E-02  0.8478139E-01
       -1   -1    0    0    0  501  0.00000000000E+00  0.00000000000E+00  0.66789049068E+03  0.66789049069E+03  0.50400001928E-02 0. -1.
        1   -1    0    0  501    0  0.00000000000E+00  0.00000000000E+00 -0.19791652348E+04  0.19791652348E+04  0.50400001928E-02 0.  1.
    10030    2    1    2    0    0  0.00000000000E+00  0.00000000000E+00 -0.13112747442E+04  0.26470557255E+04  0.22994483163E+04 0.  0.
        5    1    3    3  502    0 -0.18093364231E+03 -0.10085088134E+04 -0.55242343184E+02  0.10261095537E+04  0.46999998093E+01 0. -1.
       -5    1    3    3    0  502  0.18093364231E+03  0.10085088134E+04 -0.12560324010E+04  0.16209461718E+04  0.46999998093E+01 0.  1.
</event>
<event>
 5   0  0.1588969E-05  0.2300455E+04  0.7818609E-02  0.8477742E-01
       -2   -1    0    0    0  501  0.00000000000E+00  0.00000000000E+00  0.29040415916E+04  0.29040415916E+04  0.25500000920E-02 0.  1.
        2   -1    0    0  501    0  0.00000000000E+00  0.00000000000E+00 -0.45557999901E+03  0.45557999902E+03  0.25500000920E-02 0. -1.
    10030    2    1    2    0    0  0.00000000000E+00  0.00000000000E+00  0.24484615926E+04  0.33596215906E+04  0.23004549684E+04 0.  0.
        1    1    3    3  502    0  0.55904368671E+03  0.94325905693E+03  0.71673718554E+03  0.13099540776E+04  0.50400001928E-02 0. -1.
       -1    1    3    3    0  502 -0.55904368671E+03 -0.94325905693E+03  0.17317244070E+04  0.20496675131E+04  0.50400001928E-02 0.  1.
</event>
<event>
 5   0  0.1626636E-05  0.2299250E+04  0.7818609E-02  0.8478217E-01
        2   -1    0    0  501    0  0.00000000000E+00  0.00000000000E+00  0.12103598517E+04  0.12103598517E+04  0.25500000920E-02 0.  1.
       -2   -1    0    0    0  501  0.00000000000E+00  0.00000000000E+00 -0.10919379872E+04  0.10919379872E+04  0.25500000920E-02 0. -1.
    10030    2    1    2    0    0  0.00000000000E+00  0.00000000000E+00  0.11842186449E+03  0.23022978388E+04  0.22992502258E+04 0.  0.
        4    1    3    3  502    0  0.56903530235E+03 -0.38011388036E+03  0.98420403717E+03  0.11987272154E+04  0.12699999809E+01 0.  1.
       -4    1    3    3    0  502 -0.56903530235E+03  0.38011388036E+03 -0.86578217268E+03  0.11035706234E+04  0.12699999809E+01 0. -1.
</event>
<event>
 5   0  0.1602809E-05  0.2310232E+04  0.7818609E-02  0.8473898E-01
        2   -1    0    0  501    0  0.00000000000E+00  0.00000000000E+00  0.16691577457E+04  0.16691577457E+04  0.25500000920E-02 0.  1.
       -2   -1    0    0    0  501  0.00000000000E+00  0.00000000000E+00 -0.79938125234E+03  0.79938125235E+03  0.25500000920E-02 0. -1.
    10030    2    1    2    0    0  0.00000000000E+00  0.00000000000E+00  0.86977649339E+03  0.24685389981E+04  0.23102323772E+04 0.  0.
        3    1    3    3  502    0 -0.60842999141E+03  0.16265210686E+03 -0.59978889094E+03  0.86970655178E+03  0.10100000352E+00 0. -1.
       -3    1    3    3    0  502  0.60842999141E+03 -0.16265210686E+03  0.14695653843E+04  0.15988324463E+04  0.10100000352E+00 0.  1.
</event>
<event>
 5   0  0.7202572E-06  0.2300442E+04  0.7818609E-02  0.8477747E-01
       -1   -1    0    0    0  501  0.00000000000E+00  0.00000000000E+00  0.73133190587E+03  0.73133190589E+03  0.50400001928E-02 0.  1.
        1   -1    0    0  501    0  0.00000000000E+00  0.00000000000E+00 -0.18090401519E+04  0.18090401519E+04  0.50400001928E-02 0. -1.
    10030    2    1    2    0    0  0.00000000000E+00  0.00000000000E+00 -0.10777082460E+04  0.25403720578E+04  0.23004423767E+04 0.  0.
        2    1    3    3  502    0 -0.90060112566E+03 -0.28257929476E+03  0.18702734110E+03  0.96224356152E+03  0.25500000920E-02 0.  1.
       -2    1    3    3    0  502  0.90060112566E+03  0.28257929476E+03 -0.12647355871E+04  0.15781284962E+04  0.25500000920E-02 0. -1.
</event>
<event>
 5   0  0.7202572E-06  0.2289643E+04  0.7818609E-02  0.8482016E-01
        1   -1    0    0  501    0  0.00000000000E+00  0.00000000000E+00  0.20325343420E+04  0.20325343420E+04  0.50400001928E-02 0.  1.
       -1   -1    0    0    0  501  0.00000000000E+00  0.00000000000E+00 -0.64481900427E+03  0.64481900429E+03  0.50400001928E-02 0. -1.
    10030    2    1    2    0    0  0.00000000000E+00  0.00000000000E+00  0.13877153377E+04  0.26773533463E+04  0.22896434400E+04 0.  0.
        2    1    3    3  502    0 -0.50083509790E+03 -0.83043742981E+03  0.14052831894E+04  0.17074199725E+04  0.25500000920E-02 0.  1.
       -2    1    3    3    0  502  0.50083509790E+03  0.83043742981E+03 -0.17567851688E+02  0.96993337376E+03  0.25500000920E-02 0. -1.
</event>
<event>
 5   0  0.5704875E-06  0.2292389E+04  0.7818609E-02  0.8480928E-01
       -3   -1    0    0    0  501  0.00000000000E+00  0.00000000000E+00  0.12650454571E+04  0.12650454611E+04  0.10100000352E+00 0. -1.
        3   -1    0    0  501    0  0.00000000000E+00  0.00000000000E+00 -0.10385095457E+04  0.10385095506E+04  0.10100000352E+00 0.  1.
    10030    2    1    2    0    0  0.00000000000E+00  0.00000000000E+00  0.22653591146E+03  0.23035550117E+04  0.22923889663E+04 0.  0.
        3    1    3    3  502    0  0.22917223182E+03  0.86086097701E+03 -0.61146641601E+03  0.10805057712E+04  0.10100000352E+00 0.  1.
       -3    1    3    3    0  502 -0.22917223182E+03 -0.86086097701E+03  0.83800232747E+03  0.12230492405E+04  0.10100000352E+00 0. -1.
</event>
<event>
 5   0  0.5704875E-06  0.2304953E+04  0.7818609E-02  0.8475971E-01
       -3   -1    0    0    0  501  0.00000000000E+00  0.00000000000E+00  0.16562060430E+04  0.16562060461E+04  0.10100000352E+00 0.  1.
        3   -1    0    0  501    0  0.00000000000E+00  0.00000000000E+00 -0.80195460848E+03  0.80195461484E+03  0.10100000352E+00 0. -1.
    10030    2    1    2    0    0  0.00000000000E+00  0.00000000000E+00  0.85425143456E+03  0.24581606610E+04  0.23049529977E+04 0.  0.
        4    1    3    3  502    0  0.10887046798E+04 -0.36543511038E+03  0.32383905729E+03  0.11931865100E+04  0.12699999809E+01 0. -1.
       -4    1    3    3    0  502 -0.10887046798E+04  0.36543511038E+03  0.53041237727E+03  0.12649741510E+04  0.12699999809E+01 0.  1.
</event>
<event>
 5   0  0.7416556E-06  0.2315923E+04  0.7818609E-02  0.8471669E-01
        1   -1    0    0  501    0  0.00000000000E+00  0.00000000000E+00  0.18425196632E+04  0.18425196632E+04  0.50400001928E-02 0.  1.
       -1   -1    0    0    0  501  0.00000000000E+00  0.00000000000E+00 -0.72774005916E+03  0.72774005918E+03  0.50400001928E-02 0. -1.
    10030    2    1    2    0    0  0.00000000000E+00  0.00000000000E+00  0.11147796040E+04  0.25702597224E+04  0.23159234605E+04 0.  0.
        4    1    3    3  502    0 -0.18964875579E+03  0.54884198548E+03 -0.55447082843E+03  0.80289083198E+03  0.12699999809E+01 0. -1.
       -4    1    3    3    0  502  0.18964875579E+03 -0.54884198548E+03  0.16692504324E+04  0.17673688904E+04  0.12699999809E+01 0.  1.
</event>
<event>
 5   0  0.7391007E-06  0.2295786E+04  0.7818609E-02  0.8479584E-01
        1   -1    0    0  501    0  0.00000000000E+00  0.00000000000E+00  0.19473428992E+04  0.19473428992E+04  0.50400001928E-02 0. -1.
       -1   -1    0    0    0  501  0.00000000000E+00  0.00000000000E+00 -0.67664449940E+03  0.67664449942E+03  0.50400001928E-02 0.  1.
    10030    2    1    2    0    0  0.00000000000E+00  0.00000000000E+00  0.12706983998E+04  0.26239873986E+04  0.22957864545E+04 0.  0.
        1    1    3    3  502    0 -0.37692110184E+03 -0.31737770967E+02 -0.60336734198E+03  0.71212987054E+03  0.50400001928E-02 0.  1.
       -1    1    3    3    0  502  0.37692110184E+03  0.31737770967E+02  0.18740657418E+04  0.19118575281E+04  0.50400001928E-02 0. -1.
</event>
<event>
 5   0  0.1626636E-05  0.2298837E+04  0.7818609E-02  0.8478380E-01
        2   -1    0    0  501    0  0.00000000000E+00  0.00000000000E+00  0.12999577996E+04  0.12999577996E+04  0.25500000920E-02 0. -1.
       -2   -1    0    0    0  501  0.00000000000E+00  0.00000000000E+00 -0.10163123405E+04  0.10163123405E+04  0.25500000920E-02 0.  1.
    10030    2    1    2    0    0  0.00000000000E+00  0.00000000000E+00  0.28364545909E+03  0.23162701401E+04  0.22988372312E+04 0.  0.
        4    1    3    3  502    0 -0.38484792204E+03 -0.40137528755E+03 -0.87176381083E+03  0.10340134425E+04  0.12699999809E+01 0.  1.
       -4    1    3    3    0  502  0.38484792204E+03  0.40137528755E+03  0.11554092699E+04  0.12822566976E+04  0.12699999809E+01 0. -1.
</event>
<event>
 5   0  0.1697855E-05  0.2297688E+04  0.7818609E-02  0.8478833E-01
        2   -1    0    0  501    0  0.00000000000E+00  0.00000000000E+00  0.11658835366E+04  0.11658835366E+04  0.25500000920E-02 0.  1.
       -2   -1    0    0    0  501  0.00000000000E+00  0.00000000000E+00 -0.11320536225E+04  0.11320536225E+04  0.25500000920E-02 0. -1.
    10030    2    1    2    0    0  0.00000000000E+00  0.00000000000E+00  0.33829914133E+02  0.22979371591E+04  0.22976881259E+04 0.  0.
        5    1    3    3  502    0 -0.11430575866E+04 -0.53609581971E+02  0.11873933770E+03  0.11504676240E+04  0.46999998093E+01 0.  1.
       -5    1    3    3    0  502  0.11430575866E+04  0.53609581971E+02 -0.84909423568E+02  0.11474695351E+04  0.46999998093E+01 0. -1.
</event>
<event>
 5   0  0.7278815E-06  0.2300359E+04  0.7818609E-02  0.8477780E-01
       -1   -1    0    0    0  501  0.00000000000E+00  0.00000000000E+00  0.43558372902E+03  0.43558372905E+03  0.50400001928E-02 0. -1.
        1   -1    0    0  501    0  0.00000000000E+00  0.00000000000E+00 -0.30371024525E+04  0.30371024525E+04  0.50400001928E-02 0.  1.
    10030    2    1    2    0    0  0.00000000000E+00  0.00000000000E+00 -0.26015187235E+04  0.34726861816E+04  0.23003585910E+04 0.  0.
        5    1    3    3  502    0 -0.31359717228E+03 -0.66085651614E+03  0.39171348885E+02  0.73255102618E+03  0.46999998093E+01 0. -1.
       -5    1    3    3    0  502  0.31359717228E+03  0.66085651614E+03 -0.26406900724E+04  0.27401351554E+04  0.46999998093E+01 0.  1.
</event>
<event>
 5   0  0.1588969E-05  0.2296414E+04  0.7818609E-02  0.8479337E-01
       -2   -1    0    0    0  501  0.00000000000E+00  0.00000000000E+00  0.76342831701E+03  0.76342831702E+03  0.25500000920E-02 0. -1.
        2   -1    0    0  501    0  0.00000000000E+00  0.00000000000E+00 -0.17269188891E+04  0.17269188891E+04  0.25500000920E-02 0.  1.
    10030    2    1    2    0    0  0.00000000000E+00  0.00000000000E+00 -0.96349057207E+03  0.24903472061E+04  0.22964135352E+04 0.  0.
        1    1    3    3  502    0  0.72953795399E+03  0.40125387697E+02  0.47880080471E+03  0.87354787142E+03  0.50400001928E-02 0. -1.
       -1    1    3    3    0  502 -0.72953795399E+03 -0.40125387697E+02 -0.14422913768E+04  0.16167993347E+04  0.50400001928E-02 0.  1.
</event>
<event>
 5   0  0.1635955E-05  0.2290427E+04  0.7818609E-02  0.8481705E-01
       -2   -1    0    0    0  501  0.00000000000E+00  0.00000000000E+00  0.10744668239E+04  0.10744668239E+04  0.25500000920E-02 0. -1.
        2   -1    0    0  501    0  0.00000000000E+00  0.00000000000E+00 -0.12206183155E+04  0.12206183155E+04  0.25500000920E-02 0.  1.
    10030    2    1    2    0    0  0.00000000000E+00  0.00000000000E+00 -0.14615149168E+03  0.22950851394E+04  0.22904269337E+04 0.  0.
        2    1    3    3  502    0  0.59094446789E+03 -0.59597909638E+03 -0.85383139538E+03  0.11972612493E+04  0.25500000920E-02 0.  1.
       -2    1    3    3    0  502 -0.59094446789E+03  0.59597909638E+03  0.70767990370E+03  0.10978238900E+04  0.25500000920E-02 0. -1.
</event>
<event>
 5   0  0.1635955E-05  0.2297206E+04  0.7818609E-02  0.8479023E-01
        2   -1    0    0  501    0  0.00000000000E+00  0.00000000000E+00  0.12404375892E+04  0.12404375892E+04  0.25500000920E-02 0. -1.
       -2   -1    0    0    0  501  0.00000000000E+00  0.00000000000E+00 -0.10635674464E+04  0.10635674464E+04  0.25500000920E-02 0.  1.
    10030    2    1    2    0    0  0.00000000000E+00  0.00000000000E+00  0.17687014279E+03  0.23040050356E+04  0.22972061633E+04 0.  0.
        2    1    3    3  502    0  0.54609229170E+02 -0.98460119899E+03 -0.50226246896E+03  0.11066568017E+04  0.25500000920E-02 0.  1.
       -2    1    3    3    0  502 -0.54609229170E+02  0.98460119899E+03  0.67913261175E+03  0.11973482339E+04  0.25500000920E-02 0. -1.
</event>
<event>
 5   0  0.7416556E-06  0.2295626E+04  0.7818609E-02  0.8479648E-01
        1   -1    0    0  501    0  0.00000000000E+00  0.00000000000E+00  0.15544149564E+04  0.15544149564E+04  0.50400001928E-02 0. -1.
       -1   -1    0    0    0  501  0.00000000000E+00  0.00000000000E+00 -0.84756942167E+03  0.84756942168E+03  0.50400001928E-02 0.  1.
    10030    2    1    2    0    0  0.00000000000E+00  0.00000000000E+00  0.70684553473E+03  0.24019843781E+04  0.22956259152E+04 0.  0.
        4    1    3    3  502    0 -0.44269383443E+03 -0.84079012501E+03  0.10271226634E+04  0.13992456696E+04  0.12699999809E+01 0.  1.
       -4    1    3    3    0  502  0.44269383443E+03  0.84079012501E+03 -0.32027712870E+03  0.10027387085E+04  0.12699999809E+01 0. -1.
</event>
<event>
 5   0  0.7391007E-06  0.2301139E+04  0.7818609E-02  0.8477472E-01
       -1   -1    0    0    0  501  0.00000000000E+00  0.00000000000E+00  0.11380379173E+04  0.11380379173E+04  0.50400001928E-02 0. -1.
        1   -1    0    0  501    0  0.00000000000E+00  0.00000000000E+00 -0.11632388844E+04  0.11632388844E+04  0.50400001928E-02 0.  1.
    10030    2    1    2    0    0  0.00000000000E+00  0.00000000000E+00 -0.25200967073E+02  0.23012768018E+04  0.23011388115E+04 0.  0.
        1    1    3    3  502    0 -0.97822075338E+03 -0.10973328417E+03  0.58313039607E+03  0.11441146336E+04  0.50400001928E-02 0. -1.
       -1    1    3    3    0  502  0.97822075338E+03  0.10973328417E+03 -0.60833136314E+03  0.11571621681E+04  0.50400001928E-02 0.  1.
</event>
<event>
 5   0  0.1697855E-05  0.2300524E+04  0.7818609E-02  0.8477715E-01
       -2   -1    0    0    0  501  0.00000000000E+00  0.00000000000E+00  0.14625922171E+04  0.14625922171E+04  0.25500000920E-02 0.  1.
        2   -1    0    0  501    0  0.00000000000E+00  0.00000000000E+00 -0.90462831695E+03  0.90462831696E+03  0.25500000920E-02 0. -1.
    10030    2    1    2    0    0  0.00000000000E+00  0.00000000000E+00  0.55796390011E+03  0.23672205340E+04  0.23005237106E+04 0.  0.
        5    1    3    3  502    0  0.25717961393E+03 -0.10878085129E+04  0.55816235405E+03  0.12494142700E+04  0.46999998093E+01 0.  1.
       -5    1    3    3    0  502 -0.25717961393E+03  0.10878085129E+04 -0.19845393805E+00  0.11178062640E+04  0.46999998093E+01 0. -1.
</event>
<event>
 5   0  0.7278815E-06  0.2298779E+04  0.7818609E-02  0.8478403E-01
       -1   -1    0    0    0  501  0.00000000000E+00  0.00000000000E+00  0.12836051382E+04  0.12836051382E+04  0.50400001928E-02 0. -1.
        1   -1    0    0  501    0  0.00000000000E+00  0.00000000000E+00 -0.10292073557E+04  0.10292073557E+04  0.50400001928E-02 0.  1.
    10030    2    1    2    0    0  0.00000000000E+00  0.00000000000E+00  0.25439778246E+03  0.23128124939E+04  0.22987786758E+04 0.  0.
        5    1    3    3  502    0  0.92106005394E+03 -0.56725506888E+03 -0.26368784948E+03  0.11134106646E+04  0.46999998093E+01 0.  1.
       -5    1    3    3    0  502 -0.92106005394E+03  0.56725506888E+03  0.51808563195E+03  0.11994018293E+04  0.46999998093E+01 0. -1.
</event>
<event>
 5   0  0.1635955E-05  0.2296767E+04  0.7818609E-02  0.8479197E-01
        2   -1    0    0  501    0  0.00000000000E+00  0.00000000000E+00  0.10403192210E+04  0.10403192210E+04  0.25500000920E-02 0. -1.
       -2   -1    0    0    0  501  0.00000000000E+00  0.00000000000E+00 -0.12676728223E+04  0.12676728223E+04  0.25500000920E-02 0.  1.
    10030    2    1    2    0    0  0.00000000000E+00  0.00000000000E+00 -0.22735360129E+03  0.23079920433E+04  0.22967667735E+04 0.  0.
        2    1    3    3  502    0 -0.94026704345E+03 -0.45499478811E+03 -0.59314820963E+03  0.12012273593E+04  0.25500000920E-02 0. -1.
       -2    1    3    3    0  502  0.94026704345E+03  0.45499478811E+03  0.36579460834E+03  0.11067646840E+04  0.25500000920E-02 0.  1.
</event>
<event>
 5   0  0.1626636E-05  0.2233253E+04  0.7818609E-02  0.8504713E-01
       -2   -1    0    0    0  501  0.00000000000E+00  0.00000000000E+00  0.76808659385E+03  0.76808659385E+03  0.25500000920E-02 0. -1.
        2   -1    0    0  501    0  0.00000000000E+00  0.00000000000E+00 -0.16233264385E+04  0.16233264385E+04  0.25500000920E-02 0.  1.
    10030    2    1    2    0    0  0.00000000000E+00  0.00000000000E+00 -0.85523984469E+03  0.23914130324E+04  0.22332534786E+04 0.  0.
        4    1    3    3  502    0 -0.46932723226E+03 -0.10090152506E+04 -0.52619260510E+03  0.12309590153E+04  0.12699999809E+01 0.  1.
       -4    1    3    3    0  502  0.46932723226E+03  0.10090152506E+04 -0.32904723959E+03  0.11604540170E+04  0.12699999809E+01 0. -1.
</event>
<event>
 5   0  0.7416556E-06  0.2301213E+04  0.7818609E-02  0.8477443E-01
       -1   -1    0    0    0  501  0.00000000000E+00  0.00000000000E+00  0.77757477904E+03  0.77757477905E+03  0.50400001928E-02 0. -1.
        1   -1    0    0  501    0  0.00000000000E+00  0.00000000000E+00 -0.17025961760E+04  0.17025961760E+04  0.50400001928E-02 0.  1.
    10030    2    1    2    0    0  0.00000000000E+00  0.00000000000E+00 -0.92502139693E+03  0.24801709550E+04  0.23012134585E+04 0.  0.
        4    1    3    3  502    0 -0.20229453393E+03  0.19809618425E+03  0.73944262350E+03  0.79179680665E+03  0.12699999809E+01 0. -1.
       -4    1    3    3    0  502  0.20229453393E+03 -0.19809618425E+03 -0.16644640204E+04  0.16883741484E+04  0.12699999809E+01 0.  1.
</event>
<event>
 5   0  0.1697855E-05  0.2306605E+04  0.7818609E-02  0.8475321E-01
       -2   -1    0    0    0  501  0.00000000000E+00  0.00000000000E+00  0.84960575002E+03  0.84960575002E+03  0.25500000920E-02 0.  1.
        2   -1    0    0  501    0  0.00000000000E+00  0.00000000000E+00 -0.15655581512E+04  0.15655581512E+04  0.25500000920E-02 0. -1.
    10030    2    1    2    0    0  0.00000000000E+00  0.00000000000E+00 -0.71595240120E+03  0.24151639012E+04  0.23066054776E+04 0.  0.
        5    1    3    3  502    0 -0.10880868068E+04 -0.32606853158E+03 -0.14900483098E+03  0.11456343727E+04  0.46999998093E+01 0.  1.
       -5    1    3    3    0  502  0.10880868068E+04  0.32606853158E+03 -0.56694757021E+03  0.12695295285E+04  0.46999998093E+01 0. -1.
</event>
<event>
 5   0  0.1602809E-05  0.2290868E+04  0.7818609E-02  0.8481531E-01
       -2   -1    0    0    0  501  0.00000000000E+00  0.00000000000E+00  0.66553018189E+03  0.66553018190E+03  0.25500000920E-02 0. -1.
        2   -1    0    0  501    0  0.00000000000E+00  0.00000000000E+00 -0.19713886507E+04  0.19713886507E+04  0.25500000920E-02 0.  1.
    10030    2    1    2    0    0  0.00000000000E+00  0.00000000000E+00 -0.13058584688E+04  0.26369188326E+04  0.22908676498E+04 0.  0.
        3    1    3    3  502    0 -0.55222728295E+03  0.52916527715E+02  0.50057874488E+03  0.74721765301E+03  0.10100000352E+00 0. -1.
       -3    1    3    3    0  502  0.55222728295E+03 -0.52916527715E+02 -0.18064372137E+04  0.18897011796E+04  0.10100000352E+00 0.  1.
</event>
<event>
 5   0  0.1626636E-05  0.2296709E+04  0.7818609E-02  0.8479220E-01
        2   -1    0    0  501    0  0.00000000000E+00  0.00000000000E+00  0.19172108307E+04  0.19172108307E+04  0.25500000920E-02 0. -1.
       -2   -1    0    0    0  501  0.00000000000E+00  0.00000000000E+00 -0.68783130240E+03  0.68783130240E+03  0.25500000920E-02 0.  1.
    10030    2    1    2    0    0  0.00000000000E+00  0.00000000000E+00  0.12293795283E+04  0.26050421331E+04  0.22967086212E+04 0.  0.
        4    1    3    3  502    0 -0.43154395311E+03 -0.10293223624E+04  0.92110803005E+03  0.14471269209E+04  0.12699999809E+01 0.  1.
       -4    1    3    3    0  502  0.43154395311E+03  0.10293223624E+04  0.30827149829E+03  0.11579152123E+04  0.12699999809E+01 0. -1.
</event>
<event>
 5   0  0.7202572E-06  0.2298107E+04  0.7818609E-02  0.8478668E-01
       -1   -1    0    0    0  501  0.00000000000E+00  0.00000000000E+00  0.81746504214E+03  0.81746504215E+03  0.50400001928E-02 0. -1.
        1   -1    0    0  501    0  0.00000000000E+00  0.00000000000E+00 -0.16151442157E+04  0.16151442157E+04  0.50400001928E-02 0.  1.
    10030    2    1    2    0    0  0.00000000000E+00  0.00000000000E+00 -0.79767917360E+03  0.24326092579E+04  0.22981069900E+04 0.  0.
        2    1    3    3  502    0  0.39008082289E+03 -0.82011889484E+03 -0.11440052112E+04  0.14606525848E+04  0.25500000920E-02 0.  1.
       -2    1    3    3    0  502 -0.39008082289E+03  0.82011889484E+03  0.34632603764E+03  0.97195667312E+03  0.25500000920E-02 0. -1.
</event>
<event>
 5   0  0.1602809E-05  0.2301824E+04  0.7818609E-02  0.8477202E-01
       -2   -1    0    0    0  501  0.00000000000E+00  0.00000000000E+00  0.93841953267E+03  0.93841953268E+03  0.25500000920E-02 0. -1.
        2   -1    0    0  501    0  0.00000000000E+00  0.00000000000E+00 -0.14115205198E+04  0.14115205199E+04  0.25500000920E-02 0.  1.
    10030    2    1    2    0    0  0.00000000000E+00  0.00000000000E+00 -0.47310098717E+03  0.23499400525E+04  0.23018239955E+04 0.  0.
        3    1    3    3  502    0  0.10658144975E+04  0.39549361663E+03 -0.53291435652E+02  0.11380754505E+04  0.10100000352E+00 0. -1.
       -3    1    3    3    0  502 -0.10658144975E+04 -0.39549361663E+03 -0.41980955152E+03  0.12118646020E+04  0.10100000352E+00 0.  1.
</event>
<event>
 5   0  0.7278815E-06  0.2303378E+04  0.7818609E-02  0.8476591E-01
       -1   -1    0    0    0  501  0.00000000000E+00  0.00000000000E+00  0.11064160927E+04  0.11064160927E+04  0.50400001928E-02 0. -1.
        1   -1    0    0  501    0  0.00000000000E+00  0.00000000000E+00 -0.11988139731E+04  0.11988139731E+04  0.50400001928E-02 0.  1.
    10030    2    1    2    0    0  0.00000000000E+00  0.00000000000E+00 -0.92397880369E+02  0.23052300658E+04  0.23033775826E+04 0.  0.
        5    1    3    3  502    0  0.42766260929E+03  0.71637524764E+03  0.74833890133E+03  0.11207684882E+04  0.46999998093E+01 0. -1.
       -5    1    3    3    0  502 -0.42766260929E+03 -0.71637524764E+03 -0.84073678170E+03  0.11844615776E+04  0.46999998093E+01 0.  1.
</event>
<event>
 5   0  0.1626636E-05  0.2296108E+04  0.7818609E-02  0.8479457E-01
        2   -1    0    0  501    0  0.00000000000E+00  0.00000000000E+00  0.11523131059E+04  0.11523131059E+04  0.25500000920E-02 0.  1.
       -2   -1    0    0    0  501  0.00000000000E+00  0.00000000000E+00 -0.11438107100E+04  0.11438107100E+04  0.25500000920E-02 0. -1.
    10030    2    1    2    0    0  0.00000000000E+00  0.00000000000E+00  0.85023958957E+01  0.22961238159E+04  0.22961080739E+04 0.  0.
        4    1    3    3  502    0  0.46736110351E+03 -0.77048657541E+03 -0.70705565039E+03  0.11454279853E+04  0.12699999809E+01 0.  1.
       -4    1    3    3    0  502 -0.46736110351E+03  0.77048657541E+03  0.71555804629E+03  0.11506958306E+04  0.12699999809E+01 0. -1.
</event>
<event>
 5   0  0.7391007E-06  0.2296376E+04  0.7818609E-02  0.8479351E-01
        1   -1    0    0  501    0  0.00000000000E+00  0.00000000000E+00  0.10620635160E+04  0.10620635160E+04  0.50400001928E-02 0. -1.
       -1   -1    0    0    0  501  0.00000000000E+00  0.00000000000E+00 -0.12412968104E+04  0.12412968104E+04  0.50400001928E-02 0.  1.
    10030    2    1    2    0    0  0.00000000000E+00  0.00000000000E+00 -0.17923329437E+03  0.23033603265E+04  0.22963763236E+04 0.  0.
        1    1    3    3  502    0 -0.10535808509E+04 -0.25526545610E+03  0.28987643878E+03  0.11221503518E+04  0.50400001928E-02 0.  1.
       -1    1    3    3    0  502  0.10535808509E+04  0.25526545610E+03 -0.46910973315E+03  0.11812099746E+04  0.50400001928E-02 0. -1.
</event>
<event>
 5   0  0.1697855E-05  0.2315591E+04  0.7818609E-02  0.8471799E-01
       -2   -1    0    0    0  501  0.00000000000E+00  0.00000000000E+00  0.72187750404E+03  0.72187750404E+03  0.25500000920E-02 0. -1.
        2   -1    0    0  501    0  0.00000000000E+00  0.00000000000E+00 -0.18569497718E+04  0.18569497718E+04  0.25500000920E-02 0.  1.
    10030    2    1    2    0    0  0.00000000000E+00  0.00000000000E+00 -0.11350722677E+04  0.25788272758E+04  0.23155908675E+04 0.  0.
        5    1    3    3  502    0  0.72097934662E+02  0.91710452993E+03  0.21536534942E+03  0.94481911218E+03  0.46999998093E+01 0. -1.
       -5    1    3    3    0  502 -0.72097934662E+02 -0.91710452993E+03 -0.13504376171E+04  0.16340081636E+04  0.46999998093E+01 0.  1.
</event>
<event>
 5   0  0.7278815E-06  0.2298618E+04  0.7818609E-02  0.8478466E-01
       -1   -1    0    0    0  501  0.00000000000E+00  0.00000000000E+00  0.68843767449E+03  0.68843767451E+03  0.50400001928E-02 0. -1.
        1   -1    0    0  501    0  0.00000000000E+00  0.00000000000E+00 -0.19187078934E+04  0.19187078934E+04  0.50400001928E-02 0.  1.
    10030    2    1    2    0    0  0.00000000000E+00  0.00000000000E+00 -0.12302702189E+04  0.26071455679E+04  0.22986176717E+04 0.  0.
        5    1    3    3  502    0 -0.13843079233E+03  0.50915691327E+01 -0.19091937049E+04  0.19142183003E+04  0.46999998093E+01 0.  1.
       -5    1    3    3    0  502  0.13843079233E+03 -0.50915691327E+01  0.67892348601E+03  0.69292726761E+03  0.46999998093E+01 0. -1.
</event>
<event>
 5   0  0.7278815E-06  0.2289173E+04  0.7818609E-02  0.8482202E-01
       -1   -1    0    0    0  501  0.00000000000E+00  0.00000000000E+00  0.12370138705E+04  0.12370138705E+04  0.50400001928E-02 0.  1.
        1   -1    0    0  501    0  0.00000000000E+00  0.00000000000E+00 -0.10590650520E+04  0.10590650520E+04  0.50400001928E-02 0. -1.
    10030    2    1    2    0    0  0.00000000000E+00  0.00000000000E+00  0.17794881843E+03  0.22960789225E+04  0.22891729154E+04 0.  0.
        5    1    3    3  502    0  0.95611263003E+03 -0.27641642505E+02 -0.54152410365E+03  0.10991750846E+04  0.46999998093E+01 0. -1.
       -5    1    3    3    0  502 -0.95611263003E+03  0.27641642505E+02  0.71947292207E+03  0.11969038380E+04  0.46999998093E+01 0.  1.
</event>
<event>
 5   0  0.1697855E-05  0.2300893E+04  0.7818609E-02  0.8477569E-01
       -2   -1    0    0    0  501  0.00000000000E+00  0.00000000000E+00  0.20253366836E+04  0.20253366836E+04  0.25500000920E-02 0. -1.
        2   -1    0    0  501    0  0.00000000000E+00  0.00000000000E+00 -0.65348494265E+03  0.65348494265E+03  0.25500000920E-02 0.  1.
    10030    2    1    2    0    0  0.00000000000E+00  0.00000000000E+00  0.13718517410E+04  0.26788216263E+04  0.23008928933E+04 0.  0.
        5    1    3    3  502    0  0.69208250877E+03 -0.12648105976E+03  0.17456707428E+04  0.18821169171E+04  0.46999998093E+01 0. -1.
       -5    1    3    3    0  502 -0.69208250877E+03  0.12648105976E+03 -0.37381900185E+03  0.79670470914E+03  0.46999998093E+01 0.  1.
</event>
<event>
 5   0  0.7416556E-06  0.2289449E+04  0.7818609E-02  0.8482093E-01
       -1   -1    0    0    0  501  0.00000000000E+00  0.00000000000E+00  0.81698209547E+03  0.81698209548E+03  0.50400001928E-02 0.  1.
        1   -1    0    0  501    0  0.00000000000E+00  0.00000000000E+00 -0.16039451996E+04  0.16039451996E+04  0.50400001928E-02 0. -1.
    10030    2    1    2    0    0  0.00000000000E+00  0.00000000000E+00 -0.78696310416E+03  0.24209272951E+04  0.22894492877E+04 0.  0.
        4    1    3    3  502    0 -0.65942845945E+03 -0.70612237712E+03 -0.10426924341E+04  0.14215005556E+04  0.12699999809E+01 0. -1.
       -4    1    3    3    0  502  0.65942845945E+03  0.70612237712E+03  0.25572932990E+03  0.99942673953E+03  0.12699999809E+01 0.  1.
</event>
<event>
 5   0  0.7416556E-06  0.2300670E+04  0.7818609E-02  0.8477657E-01
       -1   -1    0    0    0  501  0.00000000000E+00  0.00000000000E+00  0.13633590175E+04  0.13633590176E+04  0.50400001928E-02 0.  1.
        1   -1    0    0  501    0  0.00000000000E+00  0.00000000000E+00 -0.97059614766E+03  0.97059614767E+03  0.50400001928E-02 0. -1.
    10030    2    1    2    0    0  0.00000000000E+00  0.00000000000E+00  0.39276286989E+03  0.23339551652E+04  0.23006703461E+04 0.  0.
        4    1    3    3  502    0 -0.29447912127E+03 -0.84162353054E+03  0.93368453488E+03  0.12910524945E+04  0.12699999809E+01 0.  1.
       -4    1    3    3    0  502  0.29447912127E+03  0.84162353054E+03 -0.54092166499E+03  0.10429026707E+04  0.12699999809E+01 0. -1.
</event>
<event>
 5   0  0.7278815E-06  0.2267226E+04  0.7818609E-02  0.8490957E-01
       -1   -1    0    0    0  501  0.00000000000E+00  0.00000000000E+00  0.17855803517E+04  0.17855803517E+04  0.50400001928E-02 0.  1.
        1   -1    0    0  501    0  0.00000000000E+00  0.00000000000E+00 -0.71969800419E+03  0.71969800420E+03  0.50400001928E-02 0. -1.
    10030    2    1    2    0    0  0.00000000000E+00  0.00000000000E+00  0.10658823475E+04  0.25052783559E+04  0.22672261603E+04 0.  0.
        5    1    3    3  502    0  0.96661927527E+03  0.36089010383E+03  0.14107627646E+02  0.10318990287E+04  0.46999998093E+01 0. -1.
       -5    1    3    3    0  502 -0.96661927527E+03 -0.36089010383E+03  0.10517747199E+04  0.14733793272E+04  0.46999998093E+01 0.  1.
</event>
<event>
 5   0  0.7416556E-06  0.2301398E+04  0.7818609E-02  0.8477370E-01
        1   -1    0    0  501    0  0.00000000000E+00  0.00000000000E+00  0.22312137999E+04  0.22312137999E+04  0.50400001928E-02 0.  1.
       -1   -1    0    0    0  501  0.00000000000E+00  0.00000000000E+00 -0.59344754084E+03  0.59344754087E+03  0.50400001928E-02 0. -1.
    10030    2    1    2    0    0  0.00000000000E+00  0.00000000000E+00  0.16377662590E+04  0.28246613408E+04  0.23013981339E+04 0.  0.
        4    1    3    3  502    0 -0.73654960120E+03 -0.85900791399E+03  0.56228751679E+03  0.12635540257E+04  0.12699999809E+01 0. -1.
       -4    1    3    3    0  502  0.73654960120E+03  0.85900791399E+03  0.10754787423E+04  0.15611073151E+04  0.12699999809E+01 0.  1.
</event>
<event>
 5   0  0.7416556E-06  0.2302005E+04  0.7818609E-02  0.8477131E-01
        1   -1    0    0  501    0  0.00000000000E+00  0.00000000000E+00  0.19874497413E+04  0.19874497413E+04  0.50400001928E-02 0. -1.
       -1   -1    0    0    0  501  0.00000000000E+00  0.00000000000E+00 -0.66658631659E+03  0.66658631661E+03  0.50400001928E-02 0.  1.
    10030    2    1    2    0    0  0.00000000000E+00  0.00000000000E+00  0.13208634247E+04  0.26540360579E+04  0.23020050413E+04 0.  0.
        4    1    3    3  502    0 -0.58104366382E+03  0.99236892913E+03  0.71688211835E+03  0.13551123257E+04  0.12699999809E+01 0.  1.
       -4    1    3    3    0  502  0.58104366382E+03 -0.99236892913E+03  0.60398130637E+03  0.12989237322E+04  0.12699999809E+01 0. -1.
</event>
<event>
 5   0  0.7416556E-06  0.2300019E+04  0.7818609E-02  0.8477914E-01
       -1   -1    0    0    0  501  0.00000000000E+00  0.00000000000E+00  0.49509878149E+03  0.49509878152E+03  0.50400001928E-02 0. -1.
        1   -1    0    0  501    0  0.00000000000E+00  0.00000000000E+00 -0.26712280144E+04  0.26712280144E+04  0.50400001928E-02 0.  1.
    10030    2    1    2    0    0  0.00000000000E+00  0.00000000000E+00 -0.21761292329E+04  0.31663267959E+04  0.23000189000E+04 0.  0.
        4    1    3    3  502    0 -0.10481869067E+04 -0.17007396999E+03 -0.48030850824E+03  0.11654693573E+04  0.12699999809E+01 0. -1.
       -4    1    3    3    0  502  0.10481869067E+04  0.17007396999E+03 -0.16958207246E+04  0.20008574386E+04  0.12699999809E+01 0.  1.
</event>
<event>
 5   0  0.7391007E-06  0.2303109E+04  0.7818609E-02  0.8476696E-01
        1   -1    0    0  501    0  0.00000000000E+00  0.00000000000E+00  0.19073902101E+04  0.19073902102E+04  0.50400001928E-02 0. -1.
       -1   -1    0    0    0  501  0.00000000000E+00  0.00000000000E+00 -0.69523176647E+03  0.69523176649E+03  0.50400001928E-02 0.  1.
    10030    2    1    2    0    0  0.00000000000E+00  0.00000000000E+00  0.12121584437E+04  0.26026219766E+04  0.23031094331E+04 0.  0.
        1    1    3    3  502    0  0.84101736177E+03  0.13531995315E+03  0.14817428681E+04  0.17091470445E+04  0.50400001928E-02 0. -1.
       -1    1    3    3    0  502 -0.84101736177E+03 -0.13531995315E+03 -0.26958442440E+03  0.89347493217E+03  0.50400001928E-02 0.  1.
</event>
<event>
 5   0  0.1635955E-05  0.2310173E+04  0.7818609E-02  0.8473921E-01
        2   -1    0    0  501    0  0.00000000000E+00  0.00000000000E+00  0.10362300392E+04  0.10362300392E+04  0.25500000920E-02 0. -1.
       -2   -1    0    0    0  501  0.00000000000E+00  0.00000000000E+00 -0.12875755004E+04  0.12875755004E+04  0.25500000920E-02 0.  1.
    10030    2    1    2    0    0  0.00000000000E+00  0.00000000000E+00 -0.25134546113E+03  0.23238055396E+04  0.23101726440E+04 0.  0.
        2    1    3    3  502    0 -0.96821492463E+03  0.19878792093E+03 -0.72691870614E+03  0.12269342212E+04  0.25500000920E-02 0.  1.
       -2    1    3    3    0  502  0.96821492463E+03 -0.19878792093E+03  0.47557324501E+03  0.10968713184E+04  0.25500000920E-02 0. -1.
</event>
<event>
 5   0  0.7391007E-06  0.2301131E+04  0.7818609E-02  0.8477475E-01
        1   -1    0    0  501    0  0.00000000000E+00  0.00000000000E+00  0.14693485335E+04  0.14693485335E+04  0.50400001928E-02 0. -1.
       -1   -1    0    0    0  501  0.00000000000E+00  0.00000000000E+00 -0.90094401286E+03  0.90094401288E+03  0.50400001928E-02 0.  1.
    10030    2    1    2    0    0  0.00000000000E+00  0.00000000000E+00  0.56840452064E+03  0.23702925464E+04  0.23011308212E+04 0.  0.
        1    1    3    3  502    0  0.19618381070E+03  0.63331632274E+03 -0.68439128952E+03  0.95287412045E+03  0.50400001928E-02 0.  1.
       -1    1    3    3    0  502 -0.19618381070E+03 -0.63331632274E+03  0.12527958102E+04  0.14174184259E+04  0.50400001928E-02 0. -1.
</event>
<event>
 5   0  0.7391007E-06  0.2300122E+04  0.7818609E-02  0.8477873E-01
        1   -1    0    0  501    0  0.00000000000E+00  0.00000000000E+00  0.18231105549E+04  0.18231105549E+04  0.50400001928E-02 0. -1.
       -1   -1    0    0    0  501  0.00000000000E+00  0.00000000000E+00 -0.72548538225E+03  0.72548538227E+03  0.50400001928E-02 0.  1.
    10030    2    1    2    0    0  0.00000000000E+00  0.00000000000E+00  0.10976251726E+04  0.25485959372E+04  0.23001217862E+04 0.  0.
        1    1    3    3  502    0 -0.12937770096E+03 -0.27825122968E+03  0.17769127730E+04  0.18032141690E+04  0.50400001928E-02 0. -1.
       -1    1    3    3    0  502  0.12937770096E+03  0.27825122968E+03 -0.67928760036E+03  0.74538176819E+03  0.50400001928E-02 0.  1.
</event>
<event>
 5   0  0.1697855E-05  0.2302474E+04  0.7818609E-02  0.8476946E-01
       -2   -1    0    0    0  501  0.00000000000E+00  0.00000000000E+00  0.84883822828E+03  0.84883822828E+03  0.25500000920E-02 0.  1.
        2   -1    0    0  501    0  0.00000000000E+00  0.00000000000E+00 -0.15613651236E+04  0.15613651236E+04  0.25500000920E-02 0. -1.
    10030    2    1    2    0    0  0.00000000000E+00  0.00000000000E+00 -0.71252689534E+03  0.24102033519E+04  0.23024738046E+04 0.  0.
        5    1    3    3  502    0 -0.91025305502E+02  0.99735921250E+03  0.23802612252E+03  0.10294122255E+04  0.46999998093E+01 0.  1.
       -5    1    3    3    0  502  0.91025305502E+02 -0.99735921250E+03 -0.95055301787E+03  0.13807911264E+04  0.46999998093E+01 0. -1.
</event>
<event>
 5   0  0.5704875E-06  0.2277883E+04  0.7818609E-02  0.8486693E-01
       -4   -1    0    0    0  501  0.00000000000E+00  0.00000000000E+00  0.87413851328E+03  0.87413943585E+03  0.12699999809E+01 0.  1.
        4   -1    0    0  501    0  0.00000000000E+00  0.00000000000E+00 -0.14839593207E+04  0.14839598641E+04  0.12699999809E+01 0. -1.
    10030    2    1    2    0    0  0.00000000000E+00  0.00000000000E+00 -0.60982080739E+03  0.23580993000E+04  0.22778829846E+04 0.  0.
        2    1    3    3  502    0  0.40534758879E+03  0.90627236495E+03 -0.88273439684E+03  0.13284789357E+04  0.25500000920E-02 0. -1.
       -2    1    3    3    0  502 -0.40534758879E+03 -0.90627236495E+03  0.27291358945E+03  0.10296203643E+04  0.25500000920E-02 0.  1.
</event>
<event>
 5   0  0.7183014E-06  0.2298919E+04  0.7818609E-02  0.8478348E-01
       -1   -1    0    0    0  501  0.00000000000E+00  0.00000000000E+00  0.17068347056E+04  0.17068347056E+04  0.50400001928E-02 0.  1.
        1   -1    0    0  501    0  0.00000000000E+00  0.00000000000E+00 -0.77409770092E+03  0.77409770094E+03  0.50400001928E-02 0. -1.
    10030    2    1    2    0    0  0.00000000000E+00  0.00000000000E+00  0.93273700467E+03  0.24809324065E+04  0.22989187210E+04 0.  0.
        3    1    3    3  502    0  0.39797037603E+03 -0.37876270594E+03  0.15559679346E+04  0.16501144904E+04  0.10100000352E+00 0.  1.
       -3    1    3    3    0  502 -0.39797037603E+03  0.37876270594E+03 -0.62323092993E+03  0.83081791617E+03  0.10100000352E+00 0. -1.
</event>
<event>
 5   0  0.7416556E-06  0.2295402E+04  0.7818609E-02  0.8479736E-01
        1   -1    0    0  501    0  0.00000000000E+00  0.00000000000E+00  0.80055994847E+03  0.80055994849E+03  0.50400001928E-02 0. -1.
       -1   -1    0    0    0  501  0.00000000000E+00  0.00000000000E+00 -0.16453704657E+04  0.16453704657E+04  0.50400001928E-02 0.  1.
    10030    2    1    2    0    0  0.00000000000E+00  0.00000000000E+00 -0.84481051721E+03  0.24459304142E+04  0.22954020957E+04 0.  0.
        4    1    3    3  502    0 -0.19407985374E+03 -0.27730191828E+03  0.74616666024E+03  0.81934708229E+03  0.12699999809E+01 0. -1.
       -4    1    3    3    0  502  0.19407985374E+03  0.27730191828E+03 -0.15909771774E+04  0.16265833319E+04  0.12699999809E+01 0.  1.
</event>
<event>
 5   0  0.7416556E-06  0.2287494E+04  0.7818609E-02  0.8482869E-01
       -1   -1    0    0    0  501  0.00000000000E+00  0.00000000000E+00  0.12178973219E+04  0.12178973219E+04  0.50400001928E-02 0.  1.
        1   -1    0    0  501    0  0.00000000000E+00  0.00000000000E+00 -0.10741107869E+04  0.10741107869E+04  0.50400001928E-02 0. -1.
    10030    2    1    2    0    0  0.00000000000E+00  0.00000000000E+00  0.14378653498E+03  0.22920081087E+04  0.22874935198E+04 0.  0.
        4    1    3    3  502    0  0.46681583889E+03 -0.30346039396E+03  0.10729395088E+04  0.12088035575E+04  0.12699999809E+01 0.  1.
       -4    1    3    3    0  502 -0.46681583889E+03  0.30346039396E+03 -0.92915297384E+03  0.10832045512E+04  0.12699999809E+01 0. -1.
</event>
<event>
 5   0  0.1626636E-05  0.2289223E+04  0.7818609E-02  0.8482183E-01
        2   -1    0    0  501    0  0.00000000000E+00  0.00000000000E+00  0.23472751608E+04  0.23472751608E+04  0.25500000920E-02 0. -1.
       -2   -1    0    0    0  501  0.00000000000E+00  0.00000000000E+00 -0.55815148749E+03  0.55815148749E+03  0.25500000920E-02 0.  1.
    10030    2    1    2    0    0  0.00000000000E+00  0.00000000000E+00  0.17891236733E+04  0.29054266483E+04  0.22892226825E+04 0.  0.
        4    1    3    3  502    0  0.88825364865E+03 -0.13329300991E+02 -0.21499606884E+02  0.88861468624E+03  0.12699999809E+01 0.  1.
       -4    1    3    3    0  502 -0.88825364865E+03  0.13329300991E+02  0.18106232802E+04  0.20168119621E+04  0.12699999809E+01 0. -1.
</event>
<event>
 5   0  0.5704875E-06  0.2301825E+04  0.7818609E-02  0.8477202E-01
        3   -1    0    0  501    0  0.00000000000E+00  0.00000000000E+00  0.24039758341E+04  0.24039758362E+04  0.10100000352E+00 0. -1.
       -3   -1    0    0    0  501  0.00000000000E+00  0.00000000000E+00 -0.55100373522E+03  0.55100374448E+03  0.10100000352E+00 0.  1.
    10030    2    1    2    0    0  0.00000000000E+00  0.00000000000E+00  0.18529720989E+04  0.29549795807E+04  0.23018250853E+04 0.  0.
        3    1    3    3  502    0 -0.67426039724E+03 -0.13972889163E+03  0.21103618843E+04  0.22198600270E+04  0.10100000352E+00 0. -1.
       -3    1    3    3    0  502  0.67426039724E+03  0.13972889163E+03 -0.25738978541E+03  0.73511955373E+03  0.10100000352E+00 0.  1.
</event>
<event>
 5   0  0.7183014E-06  0.2299891E+04  0.7818609E-02  0.8477964E-01
        1   -1    0    0  501    0  0.00000000000E+00  0.00000000000E+00  0.17614004906E+04  0.17614004906E+04  0.50400001928E-02 0.  1.
       -1   -1    0    0    0  501  0.00000000000E+00  0.00000000000E+00 -0.75075196463E+03  0.75075196465E+03  0.50400001928E-02 0. -1.
    10030    2    1    2    0    0  0.00000000000E+00  0.00000000000E+00  0.10106485260E+04  0.25121524553E+04  0.22998911965E+04 0.  0.
        3    1    3    3  502    0 -0.28522458331E+03 -0.95935450184E+03  0.11238554471E+04  0.15049136850E+04  0.10100000352E+00 0.  1.
       -3    1    3    3    0  502  0.28522458331E+03  0.95935450184E+03 -0.11320692114E+03  0.10072387703E+04  0.10100000352E+00 0. -1.
</event>
<event>
 5   0  0.1635955E-05  0.2292519E+04  0.7818609E-02  0.8480876E-01
       -2   -1    0    0    0  501  0.00000000000E+00  0.00000000000E+00  0.54593216189E+03  0.54593216189E+03  0.25500000920E-02 0.  1.
        2   -1    0    0  501    0  0.00000000000E+00  0.00000000000E+00 -0.24067301545E+04  0.24067301545E+04  0.25500000920E-02 0. -1.
    10030    2    1    2    0    0  0.00000000000E+00  0.00000000000E+00 -0.18607979926E+04  0.29526623164E+04  0.22925194842E+04 0.  0.
        2    1    3    3  502    0  0.95627413378E+03 -0.57821091551E+03 -0.60172223849E+03  0.12691957036E+04  0.25500000920E-02 0.  1.
       -2    1    3    3    0  502 -0.95627413378E+03  0.57821091551E+03 -0.12590757541E+04  0.16834666128E+04  0.25500000920E-02 0. -1.
</event>
<event>
 5   0  0.1697855E-05  0.2323619E+04  0.7818609E-02  0.8468666E-01
        2   -1    0    0  501    0  0.00000000000E+00  0.00000000000E+00  0.68767585540E+03  0.68767585541E+03  0.25500000920E-02 0.  1.
       -2   -1    0    0    0  501  0.00000000000E+00  0.00000000000E+00 -0.19628452105E+04  0.19628452105E+04  0.25500000920E-02 0. -1.
    10030    2    1    2    0    0  0.00000000000E+00  0.00000000000E+00 -0.12751693551E+04  0.26505210659E+04  0.23236189526E+04 0.  0.
        5    1    3    3  502    0 -0.11091414420E+04 -0.66392242559E+02 -0.10247070678E+04  0.15115056510E+04  0.46999998093E+01 0. -1.
       -5    1    3    3    0  502  0.11091414420E+04  0.66392242559E+02 -0.25046228731E+03  0.11390154150E+04  0.46999998093E+01 0.  1.
</event>
<event>
 5   0  0.1602809E-05  0.2303217E+04  0.7818609E-02  0.8476654E-01
        2   -1    0    0  501    0  0.00000000000E+00  0.00000000000E+00  0.26938505440E+04  0.26938505440E+04  0.25500000920E-02 0.  1.
       -2   -1    0    0    0  501  0.00000000000E+00  0.00000000000E+00 -0.49230743944E+03  0.49230743944E+03  0.25500000920E-02 0. -1.
    10030    2    1    2    0    0  0.00000000000E+00  0.00000000000E+00  0.22015431046E+04  0.31861579835E+04  0.23032174570E+04 0.  0.
        3    1    3    3  502    0  0.74550295936E+03 -0.43658216779E+03  0.21541403677E+04  0.23209264068E+04  0.10100000352E+00 0.  1.
       -3    1    3    3    0  502 -0.74550295936E+03  0.43658216779E+03  0.47402736874E+02  0.86523157670E+03  0.10100000352E+00 0. -1.
</event>
<event>
 5   0  0.7202572E-06  0.2302456E+04  0.7818609E-02  0.8476953E-01
        1   -1    0    0  501    0  0.00000000000E+00  0.00000000000E+00  0.14098832074E+04  0.14098832074E+04  0.50400001928E-02 0.  1.
       -1   -1    0    0    0  501  0.00000000000E+00  0.00000000000E+00 -0.94002511610E+03  0.94002511612E+03  0.50400001928E-02 0. -1.
    10030    2    1    2    0    0  0.00000000000E+00  0.00000000000E+00  0.46985809132E+03  0.23499083235E+04  0.23024557549E+04 0.  0.
        2    1    3    3  502    0 -0.22575772020E+03  0.25058980592E+03 -0.88846670132E+03  0.95033408780E+03  0.25500000920E-02 0. -1.
       -2    1    3    3    0  502  0.22575772020E+03 -0.25058980592E+03  0.13583247926E+04  0.13995742357E+04  0.25500000920E-02 0.  1.
</event>
<event>
 5   0  0.1602809E-05  0.2293610E+04  0.7818609E-02  0.8480445E-01
        2   -1    0    0  501    0  0.00000000000E+00  0.00000000000E+00  0.16567043424E+04  0.16567043424E+04  0.25500000920E-02 0. -1.
       -2   -1    0    0    0  501  0.00000000000E+00  0.00000000000E+00 -0.79384228789E+03  0.79384228790E+03  0.25500000920E-02 0.  1.
    10030    2    1    2    0    0  0.00000000000E+00  0.00000000000E+00  0.86286205450E+03  0.24505466303E+04  0.22936102245E+04 0.  0.
        3    1    3    3  502    0  0.64732501642E+03 -0.30949310999E+03  0.13872646952E+04  0.15618319394E+04  0.10100000352E+00 0. -1.
       -3    1    3    3    0  502 -0.64732501642E+03  0.30949310999E+03 -0.52440264074E+03  0.88871469091E+03  0.10100000352E+00 0.  1.
</event>
<event>
 5   0  0.7278815E-06  0.2286136E+04  0.7818609E-02  0.8483408E-01
        1   -1    0    0  501    0  0.00000000000E+00  0.00000000000E+00  0.88230743795E+03  0.88230743796E+03  0.50400001928E-02 0.  1.
       -1   -1    0    0    0  501  0.00000000000E+00  0.00000000000E+00 -0.14808941428E+04  0.14808941428E+04  0.50400001928E-02 0. -1.
    10030    2    1    2    0    0  0.00000000000E+00  0.00000000000E+00 -0.59858670482E+03  0.23632015807E+04  0.22861355314E+04 0.  0.
        5    1    3    3  502    0  0.50247754451E+03  0.61379966096E+03  0.55146213683E+03  0.96610883697E+03  0.46999998093E+01 0.  1.
       -5    1    3    3    0  502 -0.50247754451E+03 -0.61379966096E+03 -0.11500488416E+04  0.13970927438E+04  0.46999998093E+01 0. -1.
</event>
<event>
 5   0  0.7183014E-06  0.2296306E+04  0.7818609E-02  0.8479379E-01
       -1   -1    0    0    0  501  0.00000000000E+00  0.00000000000E+00  0.76888460401E+03  0.76888460403E+03  0.50400001928E-02 0.  1.
        1   -1    0    0  501    0  0.00000000000E+00  0.00000000000E+00 -0.17145033277E+04  0.17145033277E+04  0.50400001928E-02 0. -1.
    10030    2    1    2    0    0  0.00000000000E+00  0.00000000000E+00 -0.94561872368E+03  0.24833879317E+04  0.22963059136E+04 0.  0.
        3    1    3    3  502    0 -0.53672757195E+03 -0.98365193727E+03 -0.74340967008E+03  0.13447325265E+04  0.10100000352E+00 0.  1.
       -3    1    3    3    0  502  0.53672757195E+03  0.98365193727E+03 -0.20220905360E+03  0.11386554052E+04  0.10100000352E+00 0. -1.
</event>
<event>
 5   0  0.7416556E-06  0.2275313E+04  0.7818609E-02  0.8487719E-01
       -1   -1    0    0    0  501  0.00000000000E+00  0.00000000000E+00  0.14693464825E+04  0.14693464825E+04  0.50400001928E-02 0.  1.
        1   -1    0    0  501    0  0.00000000000E+00  0.00000000000E+00 -0.88084177125E+03  0.88084177127E+03  0.50400001928E-02 0. -1.
    10030    2    1    2    0    0  0.00000000000E+00  0.00000000000E+00  0.58850471121E+03  0.23501882537E+04  0.22753125132E+04 0.  0.
        4    1    3    3  502    0  0.61020732072E+03  0.77021454654E+03  0.88642190386E+03  0.13233778094E+04  0.12699999809E+01 0.  1.
       -4    1    3    3    0  502 -0.61020732072E+03 -0.77021454654E+03 -0.29791719265E+03  0.10268104443E+04  0.12699999809E+01 0. -1.
</event>
<event>
 5   0  0.1626636E-05  0.2301892E+04  0.7818609E-02  0.8477175E-01
       -2   -1    0    0    0  501  0.00000000000E+00  0.00000000000E+00  0.83629552538E+03  0.83629552538E+03  0.25500000920E-02 0. -1.
        2   -1    0    0  501    0  0.00000000000E+00  0.00000000000E+00 -0.15839816751E+04  0.15839816751E+04  0.25500000920E-02 0.  1.
    10030    2    1    2    0    0  0.00000000000E+00  0.00000000000E+00 -0.74768614977E+03  0.24202772005E+04  0.23018920802E+04 0.  0.
        4    1    3    3  502    0 -0.18951955030E+03 -0.10324261821E+04 -0.87019540903E+03  0.13634746584E+04  0.12699999809E+01 0.  1.
       -4    1    3    3    0  502  0.18951955030E+03  0.10324261821E+04  0.12250925926E+03  0.10568025421E+04  0.12699999809E+01 0. -1.
</event>
<event>
 5   0  0.7416556E-06  0.2243496E+04  0.7818609E-02  0.8500539E-01
       -1   -1    0    0    0  501  0.00000000000E+00  0.00000000000E+00  0.73007171843E+03  0.73007171845E+03  0.50400001928E-02 0.  1.
        1   -1    0    0  501    0  0.00000000000E+00  0.00000000000E+00 -0.17235544395E+04  0.17235544395E+04  0.50400001928E-02 0. -1.
    10030    2    1    2    0    0  0.00000000000E+00  0.00000000000E+00 -0.99348272103E+03  0.24536261579E+04  0.22434958003E+04 0.  0.
        4    1    3    3  502    0  0.12650810991E+03 -0.72080606394E+03 -0.14265155782E+04  0.16032822557E+04  0.12699999809E+01 0. -1.
       -4    1    3    3    0  502 -0.12650810991E+03  0.72080606394E+03  0.43303285720E+03  0.85034390220E+03  0.12699999809E+01 0.  1.
</event>
<event>
 5   0  0.1697855E-05  0.2297212E+04  0.7818609E-02  0.8479021E-01
       -2   -1    0    0    0  501  0.00000000000E+00  0.00000000000E+00  0.86841467733E+03  0.86841467733E+03  0.25500000920E-02 0.  1.
        2   -1    0    0  501    0  0.00000000000E+00  0.00000000000E+00 -0.15192005160E+04  0.15192005160E+04  0.25500000920E-02 0. -1.
    10030    2    1    2    0    0  0.00000000000E+00  0.00000000000E+00 -0.65078583868E+03  0.23876151933E+04  0.22972122461E+04 0.  0.
        5    1    3    3  502    0  0.64117047046E+02 -0.10479355321E+04  0.15876510553E+03  0.10618419486E+04  0.46999998093E+01 0. -1.
       -5    1    3    3    0  502 -0.64117047046E+02  0.10479355321E+04 -0.80955094421E+03  0.13257732447E+04  0.46999998093E+01 0.  1.
</event>
<event>
 5   0  0.7183014E-06  0.2298599E+04  0.7818609E-02  0.8478474E-01
        1   -1    0    0  501    0  0.00000000000E+00  0.00000000000E+00  0.24867393551E+04  0.24867393551E+04  0.50400001928E-02 0.  1.
       -1   -1    0    0    0  501  0.00000000000E+00  0.00000000000E+00 -0.53117344300E+03  0.53117344302E+03  0.50400001928E-02 0. -1.
    10030    2    1    2    0    0  0.00000000000E+00  0.00000000000E+00  0.19555659121E+04  0.30179127981E+04  0.22985994911E+04 0.  0.
        3    1    3    3  502    0  0.82287612969E+03  0.30259021368E+03  0.21350243636E+01  0.87674998190E+03  0.10100000352E+00 0. -1.
       -3    1    3    3    0  502 -0.82287612969E+03 -0.30259021368E+03  0.19534308877E+04  0.21411628162E+04  0.10100000352E+00 0.  1.
</event>
<event>
 5   0  0.1635955E-05  0.2302567E+04  0.7818609E-02  0.8476910E-01
       -2   -1    0    0    0  501  0.00000000000E+00  0.00000000000E+00  0.12177206476E+04  0.12177206476E+04  0.25500000920E-02 0. -1.
        2   -1    0    0  501    0  0.00000000000E+00  0.00000000000E+00 -0.10884713721E+04  0.10884713721E+04  0.25500000920E-02 0.  1.
    10030    2    1    2    0    0  0.00000000000E+00  0.00000000000E+00  0.12924927555E+03  0.23061920197E+04  0.23025673185E+04 0.  0.
        2    1    3    3  502    0 -0.50507954587E+02  0.10332567927E+04  0.57067579892E+03  0.11814573715E+04  0.25500000920E-02 0. -1.
       -2    1    3    3    0  502  0.50507954587E+02 -0.10332567927E+04 -0.44142652337E+03  0.11247346482E+04  0.25500000920E-02 0.  1.
</event>
<event>
 5   0  0.1626636E-05  0.2307426E+04  0.7818609E-02  0.8474999E-01
        2   -1    0    0  501    0  0.00000000000E+00  0.00000000000E+00  0.19616399725E+04  0.19616399725E+04  0.25500000920E-02 0.  1.
       -2   -1    0    0    0  501  0.00000000000E+00  0.00000000000E+00 -0.67854148008E+03  0.67854148008E+03  0.25500000920E-02 0. -1.
    10030    2    1    2    0    0  0.00000000000E+00  0.00000000000E+00  0.12830984925E+04  0.26401814526E+04  0.23074263502E+04 0.  0.
        4    1    3    3  502    0  0.38958425538E+03 -0.60984281071E+03 -0.38656596154E+03  0.82043829831E+03  0.12699999809E+01 0. -1.
       -4    1    3    3    0  502 -0.38958425538E+03  0.60984281071E+03  0.16696644540E+04  0.18197431543E+04  0.12699999809E+01 0.  1.
</event>
<event>
 5   0  0.1635955E-05  0.2294460E+04  0.7818609E-02  0.8480109E-01
       -2   -1    0    0    0  501  0.00000000000E+00  0.00000000000E+00  0.46225002356E+03  0.46225002356E+03  0.25500000920E-02 0.  1.
        2   -1    0    0  501    0  0.00000000000E+00  0.00000000000E+00 -0.28472395981E+04  0.28472395981E+04  0.25500000920E-02 0. -1.
    10030    2    1    2    0    0  0.00000000000E+00  0.00000000000E+00 -0.23849895746E+04  0.33094896217E+04  0.22944599115E+04 0.  0.
        2    1    3    3  502    0  0.70831806703E+03 -0.90038589521E+03 -0.12805549115E+04  0.17182054958E+04  0.25500000920E-02 0.  1.
       -2    1    3    3    0  502 -0.70831806703E+03  0.90038589521E+03 -0.11044346631E+04  0.15912841259E+04  0.25500000920E-02 0. -1.
</event>
<event>
 5   0  0.7416556E-06  0.2300234E+04  0.7818609E-02  0.8477829E-01
       -1   -1    0    0    0  501  0.00000000000E+00  0.00000000000E+00  0.16984736707E+04  0.16984736707E+04  0.50400001928E-02 0.  1.
        1   -1    0    0  501    0  0.00000000000E+00  0.00000000000E+00 -0.77879871804E+03  0.77879871805E+03  0.50400001928E-02 0. -1.
    10030    2    1    2    0    0  0.00000000000E+00  0.00000000000E+00  0.91967495266E+03  0.24772723888E+04  0.23002340032E+04 0.  0.
        4    1    3    3  502    0  0.16954902269E+03  0.11307548554E+04  0.59354649271E+03  0.12882749963E+04  0.12699999809E+01 0.  1.
       -4    1    3    3    0  502 -0.16954902269E+03 -0.11307548554E+04  0.32612845995E+03  0.11889973925E+04  0.12699999809E+01 0. -1.
</event>
<event>
 5   0  0.1697855E-05  0.2312840E+04  0.7818609E-02  0.8472876E-01
       -2   -1    0    0    0  501  0.00000000000E+00  0.00000000000E+00  0.11780806340E+04  0.11780806340E+04  0.25500000920E-02 0.  1.
        2   -1    0    0  501    0  0.00000000000E+00  0.00000000000E+00 -0.11351579156E+04  0.11351579156E+04  0.25500000920E-02 0. -1.
    10030    2    1    2    0    0  0.00000000000E+00  0.00000000000E+00  0.42922718357E+02  0.23132385497E+04  0.23128402945E+04 0.  0.
        5    1    3    3  502    0 -0.10705606611E+04 -0.11676289442E+03  0.44290283312E+03  0.11644392265E+04  0.46999998093E+01 0.  1.
       -5    1    3    3    0  502  0.10705606611E+04  0.11676289442E+03 -0.39998011476E+03  0.11487993231E+04  0.46999998093E+01 0. -1.
</event>
<event>
 5   0  0.7202572E-06  0.2301714E+04  0.7818609E-02  0.8477245E-01
        1   -1    0    0  501    0  0.00000000000E+00  0.00000000000E+00  0.17001994441E+04  0.17001994441E+04  0.50400001928E-02 0.  1.
       -1   -1    0    0    0  501  0.00000000000E+00  0.00000000000E+00 -0.77901000782E+03  0.77901000784E+03  0.50400001928E-02 0. -1.
    10030    2    1    2    0    0  0.00000000000E+00  0.00000000000E+00  0.92118943626E+03  0.24792094519E+04  0.23017144760E+04 0.  0.
        2    1    3    3  502    0 -0.52308287158E+03  0.48477171826E+03  0.14334936950E+04  0.16011007098E+04  0.25500000920E-02 0.  1.
       -2    1    3    3    0  502  0.52308287158E+03 -0.48477171826E+03 -0.51230425877E+03  0.87810874209E+03  0.25500000920E-02 0. -1.
</event>
<event>
 5   0  0.7391007E-06  0.2302443E+04  0.7818609E-02  0.8476958E-01
       -1   -1    0    0    0  501  0.00000000000E+00  0.00000000000E+00  0.64674797378E+03  0.64674797380E+03  0.50400001928E-02 0. -1.
        1   -1    0    0  501    0  0.00000000000E+00  0.00000000000E+00 -0.20491926197E+04  0.20491926197E+04  0.50400001928E-02 0.  1.
    10030    2    1    2    0    0  0.00000000000E+00  0.00000000000E+00 -0.14024446459E+04  0.26959405935E+04  0.23024432021E+04 0.  0.
        1    1    3    3  502    0 -0.85002863094E+03 -0.68190469719E+03 -0.26661570614E+03  0.11218852991E+04  0.50400001928E-02 0.  1.
       -1    1    3    3    0  502  0.85002863094E+03  0.68190469719E+03 -0.11358289398E+04  0.15740552944E+04  0.50400001928E-02 0. -1.
</event>
<event>
 5   0  0.7278815E-06  0.2302807E+04  0.7818609E-02  0.8476815E-01
       -1   -1    0    0    0  501  0.00000000000E+00  0.00000000000E+00  0.11784483687E+04  0.11784483688E+04  0.50400001928E-02 0.  1.
        1   -1    0    0  501    0  0.00000000000E+00  0.00000000000E+00 -0.11249789544E+04  0.11249789545E+04  0.50400001928E-02 0. -1.
    10030    2    1    2    0    0  0.00000000000E+00  0.00000000000E+00  0.53469414307E+02  0.23034273232E+04  0.23028066473E+04 0.  0.
        5    1    3    3  502    0 -0.75116834043E+03  0.99753721357E+02  0.89386099735E+03  0.11718422476E+04  0.46999998093E+01 0.  1.
       -5    1    3    3    0  502  0.75116834043E+03 -0.99753721357E+02 -0.84039158305E+03  0.11315850757E+04  0.46999998093E+01 0. -1.
</event>
<event>
 5   0  0.7416556E-06  0.2299152E+04  0.7818609E-02  0.8478255E-01
       -1   -1    0    0    0  501  0.00000000000E+00  0.00000000000E+00  0.87286001878E+03  0.87286001880E+03  0.50400001928E-02 0. -1.
        1   -1    0    0  501    0  0.00000000000E+00  0.00000000000E+00 -0.15140173685E+04  0.15140173685E+04  0.50400001928E-02 0.  1.
    10030    2    1    2    0    0  0.00000000000E+00  0.00000000000E+00 -0.64115734972E+03  0.23868773873E+04  0.22991522166E+04 0.  0.
        4    1    3    3  502    0 -0.53970690158E+03  0.26784151895E+03 -0.13369646639E+04  0.14664578904E+04  0.12699999809E+01 0.  1.
       -4    1    3    3    0  502  0.53970690158E+03 -0.26784151895E+03  0.69580731420E+03  0.92041949690E+03  0.12699999809E+01 0. -1.
</event>
<event>
 5   0  0.1588969E-05  0.2297455E+04  0.7818609E-02  0.8478925E-01
        2   -1    0    0  501    0  0.00000000000E+00  0.00000000000E+00  0.10035094141E+04  0.10035094141E+04  0.25500000920E-02 0. -1.
       -2   -1    0    0    0  501  0.00000000000E+00  0.00000000000E+00 -0.13149606378E+04  0.13149606378E+04  0.25500000920E-02 0.  1.
    10030    2    1    2    0    0  0.00000000000E+00  0.00000000000E+00 -0.31145122365E+03  0.23184700519E+04  0.22974554439E+04 0.  0.
        1    1    3    3  502    0 -0.99264245074E+03 -0.39731530782E+03 -0.57953954805E+03  0.12161679887E+04  0.50400001928E-02 0.  1.
       -1    1    3    3    0  502  0.99264245074E+03  0.39731530782E+03  0.26808832440E+03  0.11023020632E+04  0.50400001928E-02 0. -1.
</event>
<event>
 5   0  0.7391007E-06  0.2305297E+04  0.7818609E-02  0.8475836E-01
       -1   -1    0    0    0  501  0.00000000000E+00  0.00000000000E+00  0.12885652084E+04  0.12885652084E+04  0.50400001928E-02 0.  1.
        1   -1    0    0  501    0  0.00000000000E+00  0.00000000000E+00 -0.10310678547E+04  0.10310678547E+04  0.50400001928E-02 0. -1.
    10030    2    1    2    0    0  0.00000000000E+00  0.00000000000E+00  0.25749735369E+03  0.23196330632E+04  0.23052966535E+04 0.  0.
        1    1    3    3  502    0  0.11147733408E+04 -0.15874182609E+03  0.37661288144E+03  0.11873313906E+04  0.50400001928E-02 0.  1.
       -1    1    3    3    0  502 -0.11147733408E+04  0.15874182609E+03 -0.11911552775E+03  0.11323016725E+04  0.50400001928E-02 0. -1.
</event>
<event>
 5   0  0.1602809E-05  0.2301227E+04  0.7818609E-02  0.8477437E-01
       -2   -1    0    0    0  501  0.00000000000E+00  0.00000000000E+00  0.88248122736E+03  0.88248122736E+03  0.25500000920E-02 0.  1.
        2   -1    0    0  501    0  0.00000000000E+00  0.00000000000E+00 -0.15002148081E+04  0.15002148081E+04  0.25500000920E-02 0. -1.
    10030    2    1    2    0    0  0.00000000000E+00  0.00000000000E+00 -0.61773358072E+03  0.23826960354E+04  0.23012269815E+04 0.  0.
        3    1    3    3  502    0  0.88193108464E+03  0.67999379077E+03 -0.92838669623E+01  0.11136786763E+04  0.10100000352E+00 0.  1.
       -3    1    3    3    0  502 -0.88193108464E+03 -0.67999379077E+03 -0.60844971375E+03  0.12690173592E+04  0.10100000352E+00 0. -1.
</event>
<event>
 5   0  0.1588969E-05  0.2318369E+04  0.7818609E-02  0.8470713E-01
       -2   -1    0    0    0  501  0.00000000000E+00  0.00000000000E+00  0.13492991362E+04  0.13492991362E+04  0.25500000920E-02 0. -1.
        2   -1    0    0  501    0  0.00000000000E+00  0.00000000000E+00 -0.99585692983E+03  0.99585692983E+03  0.25500000920E-02 0.  1.
    10030    2    1    2    0    0  0.00000000000E+00  0.00000000000E+00  0.35344220641E+03  0.23451560661E+04  0.23183691641E+04 0.  0.
        1    1    3    3  502    0  0.91691237724E+03  0.14769253612E+03  0.87839820104E+03  0.12783289062E+04  0.50400001928E-02 0. -1.
       -1    1    3    3    0  502 -0.91691237724E+03 -0.14769253612E+03 -0.52495599463E+03  0.10668271599E+04  0.50400001928E-02 0.  1.
</event>
<event>
 5   0  0.1588969E-05  0.2311673E+04  0.7818609E-02  0.8473333E-01
       -2   -1    0    0    0  501  0.00000000000E+00  0.00000000000E+00  0.87122163722E+03  0.87122163722E+03  0.25500000920E-02 0. -1.
        2   -1    0    0  501    0  0.00000000000E+00  0.00000000000E+00 -0.15334305533E+04  0.15334305533E+04  0.25500000920E-02 0.  1.
    10030    2    1    2    0    0  0.00000000000E+00  0.00000000000E+00 -0.66220891612E+03  0.24046521906E+04  0.23116728810E+04 0.  0.
        1    1    3    3  502    0  0.17241506674E+03  0.77038878904E+03 -0.12092955562E+04  0.14441681286E+04  0.50400001928E-02 0.  1.
       -1    1    3    3    0  502 -0.17241506674E+03 -0.77038878904E+03  0.54708664004E+03  0.96048406195E+03  0.50400001928E-02 0. -1.
</event>
<event>
 5   0  0.1697855E-05  0.2266154E+04  0.7818609E-02  0.8491387E-01
       -2   -1    0    0    0  501  0.00000000000E+00  0.00000000000E+00  0.75785289577E+03  0.75785289577E+03  0.25500000920E-02 0.  1.
        2   -1    0    0  501    0  0.00000000000E+00  0.00000000000E+00 -0.16940795265E+04  0.16940795265E+04  0.25500000920E-02 0. -1.
    10030    2    1    2    0    0  0.00000000000E+00  0.00000000000E+00 -0.93622663074E+03  0.24519324223E+04  0.22661536354E+04 0.  0.
        5    1    3    3  502    0  0.10443658675E+04  0.43796859221E+03 -0.50748952809E+03  0.12410013151E+04  0.46999998093E+01 0. -1.
       -5    1    3    3    0  502 -0.10443658675E+04 -0.43796859221E+03 -0.42873710265E+03  0.12109311071E+04  0.46999998093E+01 0.  1.
</event>
<event>
 5   0  0.7278815E-06  0.2291808E+04  0.7818609E-02  0.8481158E-01
       -1   -1    0    0    0  501  0.00000000000E+00  0.00000000000E+00  0.99589286247E+03  0.99589286248E+03  0.50400001928E-02 0.  1.
        1   -1    0    0  501    0  0.00000000000E+00  0.00000000000E+00 -0.13185114260E+04  0.13185114260E+04  0.50400001928E-02 0. -1.
    10030    2    1    2    0    0  0.00000000000E+00  0.00000000000E+00 -0.32261856354E+03  0.23144042885E+04  0.22918081231E+04 0.  0.
        5    1    3    3  502    0 -0.32673087715E+03 -0.16404022112E+03 -0.12580240694E+04  0.13100797340E+04  0.46999998093E+01 0. -1.
       -5    1    3    3    0  502  0.32673087715E+03  0.16404022112E+03  0.93540550590E+03  0.10043245545E+04  0.46999998093E+01 0.  1.
</event>
<event>
 5   0  0.1602809E-05  0.2303064E+04  0.7818609E-02  0.8476714E-01
        2   -1    0    0  501    0  0.00000000000E+00  0.00000000000E+00  0.10155697734E+04  0.10155697734E+04  0.25500000920E-02 0. -1.
       -2   -1    0    0    0  501  0.00000000000E+00  0.00000000000E+00 -0.13056964983E+04  0.13056964983E+04  0.25500000920E-02 0.  1.
    10030    2    1    2    0    0  0.00000000000E+00  0.00000000000E+00 -0.29012672486E+03  0.23212662717E+04  0.23030639564E+04 0.  0.
        3    1    3    3  502    0  0.14057340361E+03  0.52951984848E+03  0.87579600437E+03  0.10330395942E+04  0.10100000352E+00 0. -1.
       -3    1    3    3    0  502 -0.14057340361E+03 -0.52951984848E+03 -0.11659227292E+04  0.12882266774E+04  0.10100000352E+00 0.  1.
</event>
<event>
 5   0  0.7202572E-06  0.2307376E+04  0.7818609E-02  0.8475019E-01
        1   -1    0    0  501    0  0.00000000000E+00  0.00000000000E+00  0.82144279213E+03  0.82144279214E+03  0.50400001928E-02 0. -1.
       -1   -1    0    0    0  501  0.00000000000E+00  0.00000000000E+00 -0.16203146000E+04  0.16203146000E+04  0.50400001928E-02 0.  1.
    10030    2    1    2    0    0  0.00000000000E+00  0.00000000000E+00 -0.79887180786E+03  0.24417573921E+04  0.23073757814E+04 0.  0.
        2    1    3    3  502    0  0.39941498778E+03 -0.13462409985E+03  0.73704675889E+03  0.84905471291E+03  0.25500000920E-02 0. -1.
       -2    1    3    3    0  502 -0.39941498778E+03  0.13462409985E+03 -0.15359185667E+04  0.15927026792E+04  0.25500000920E-02 0.  1.
</event>
<event>
 5   0  0.7391007E-06  0.2309028E+04  0.7818609E-02  0.8474370E-01
       -1   -1    0    0    0  501  0.00000000000E+00  0.00000000000E+00  0.10746234212E+04  0.10746234212E+04  0.50400001928E-02 0.  1.
        1   -1    0    0  501    0  0.00000000000E+00  0.00000000000E+00 -0.12403440350E+04  0.12403440350E+04  0.50400001928E-02 0. -1.
    10030    2    1    2    0    0  0.00000000000E+00  0.00000000000E+00 -0.16572061375E+03  0.23149674562E+04  0.23090281509E+04 0.  0.
        1    1    3    3  502    0 -0.20791457504E+03  0.87757583974E+03  0.63978142218E+03  0.11057522748E+04  0.50400001928E-02 0.  1.
       -1    1    3    3    0  502  0.20791457504E+03 -0.87757583974E+03 -0.80550203594E+03  0.12092151814E+04  0.50400001928E-02 0. -1.
</event>
<event>
 5   0  0.7183014E-06  0.2298748E+04  0.7818609E-02  0.8478415E-01
        1   -1    0    0  501    0  0.00000000000E+00  0.00000000000E+00  0.12134863249E+04  0.12134863249E+04  0.50400001928E-02 0.  1.
       -1   -1    0    0    0  501  0.00000000000E+00  0.00000000000E+00 -0.10886484690E+04  0.10886484690E+04  0.50400001928E-02 0. -1.
    10030    2    1    2    0    0  0.00000000000E+00  0.00000000000E+00  0.12483785590E+03  0.23021347938E+04  0.22987475109E+04 0.  0.
        3    1    3    3  502    0  0.12260605586E+03  0.10268501432E+04 -0.43992418779E+03  0.11238268384E+04  0.10100000352E+00 0. -1.
       -3    1    3    3    0  502 -0.12260605586E+03 -0.10268501432E+04  0.56476204369E+03  0.11783079554E+04  0.10100000352E+00 0.  1.
</event>
<event>
 5   0  0.7183014E-06  0.2309873E+04  0.7818609E-02  0.8474038E-01
       -1   -1    0    0    0  501  0.00000000000E+00  0.00000000000E+00  0.13890103176E+04  0.13890103176E+04  0.50400001928E-02 0.  1.
        1   -1    0    0  501    0  0.00000000000E+00  0.00000000000E+00 -0.96030883368E+03  0.96030883369E+03  0.50400001928E-02 0. -1.
    10030    2    1    2    0    0  0.00000000000E+00  0.00000000000E+00  0.42870148389E+03  0.23493191513E+04  0.23098734840E+04 0.  0.
        3    1    3    3  502    0  0.69577795516E+03 -0.92965304477E+02 -0.71844213504E+03  0.10044444347E+04  0.10100000352E+00 0. -1.
       -3    1    3    3    0  502 -0.69577795516E+03  0.92965304477E+02  0.11471436189E+04  0.13448747166E+04  0.10100000352E+00 0.  1.
</event>
<event>
 5   0  0.1635955E-05  0.2303077E+04  0.7818609E-02  0.8476709E-01
       -2   -1    0    0    0  501  0.00000000000E+00  0.00000000000E+00  0.14913508762E+04  0.14913508762E+04  0.25500000920E-02 0. -1.
        2   -1    0    0  501    0  0.00000000000E+00  0.00000000000E+00 -0.88915412327E+03  0.88915412328E+03  0.25500000920E-02 0.  1.
    10030    2    1    2    0    0  0.00000000000E+00  0.00000000000E+00  0.60219675293E+03  0.23805049995E+04  0.23030768818E+04 0.  0.
        2    1    3    3  502    0  0.35517909710E+03 -0.10169998860E+04  0.72171903051E+03  0.12966569778E+04  0.25500000920E-02 0.  1.
       -2    1    3    3    0  502 -0.35517909710E+03  0.10169998860E+04 -0.11952227758E+03  0.10838480216E+04  0.25500000920E-02 0. -1.
</event>
<event>
 5   0  0.7278815E-06  0.2300058E+04  0.7818609E-02  0.8477898E-01
       -1   -1    0    0    0  501  0.00000000000E+00  0.00000000000E+00  0.66705250240E+03  0.66705250242E+03  0.50400001928E-02 0. -1.
        1   -1    0    0  501    0  0.00000000000E+00  0.00000000000E+00 -0.19827023191E+04  0.19827023191E+04  0.50400001928E-02 0.  1.
    10030    2    1    2    0    0  0.00000000000E+00  0.00000000000E+00 -0.13156498167E+04  0.26497548215E+04  0.23000578632E+04 0.  0.
        5    1    3    3  502    0 -0.34157991180E+03 -0.66377816915E+03  0.34997237602E+03  0.82448835526E+03  0.46999998093E+01 0. -1.
       -5    1    3    3    0  502  0.34157991180E+03  0.66377816915E+03 -0.16656221927E+04  0.18252664662E+04  0.46999998093E+01 0.  1.
</event>
<event>
 5   0  0.1697855E-05  0.2267107E+04  0.7818609E-02  0.8491004E-01
        2   -1    0    0  501    0  0.00000000000E+00  0.00000000000E+00  0.21002285278E+04  0.21002285278E+04  0.25500000920E-02 0. -1.
       -2   -1    0    0    0  501  0.00000000000E+00  0.00000000000E+00 -0.61181143584E+03  0.61181143585E+03  0.25500000920E-02 0.  1.
    10030    2    1    2    0    0  0.00000000000E+00  0.00000000000E+00  0.14884170920E+04  0.27120399637E+04  0.22671072592E+04 0.  0.
        5    1    3    3  502    0  0.92489639194E+03 -0.54311737375E+03  0.30547139656E+03  0.11152330167E+04  0.46999998093E+01 0.  1.
       -5    1    3    3    0  502 -0.92489639194E+03  0.54311737375E+03  0.11829456954E+04  0.15968069470E+04  0.46999998093E+01 0. -1.
</event>
<event>
 5   0  0.7202572E-06  0.2296285E+04  0.7818609E-02  0.8479387E-01
        1   -1    0    0  501    0  0.00000000000E+00  0.00000000000E+00  0.15210746544E+04  0.15210746544E+04  0.50400001928E-02 0.  1.
       -1   -1    0    0    0  501  0.00000000000E+00  0.00000000000E+00 -0.86664433271E+03  0.86664433273E+03  0.50400001928E-02 0. -1.
    10030    2    1    2    0    0  0.00000000000E+00  0.00000000000E+00  0.65443032169E+03  0.23877189871E+04  0.22962845894E+04 0.  0.
        2    1    3    3  502    0 -0.54530933889E+03  0.67086250134E+03 -0.45838946687E+03  0.97853956186E+03  0.25500000920E-02 0. -1.
       -2    1    3    3    0  502  0.54530933889E+03 -0.67086250134E+03  0.11128197886E+04  0.14091794253E+04  0.25500000920E-02 0.  1.
</event>
<event>
 5   0  0.5704875E-06  0.2290024E+04  0.7818609E-02  0.8481865E-01
        4   -1    0    0  501    0  0.00000000000E+00  0.00000000000E+00  0.77571278340E+03  0.77571382303E+03  0.12699999809E+01 0.  1.
       -4   -1    0    0    0  501  0.00000000000E+00  0.00000000000E+00 -0.16901230455E+04  0.16901235226E+04  0.12699999809E+01 0. -1.
    10030    2    1    2    0    0  0.00000000000E+00  0.00000000000E+00 -0.91441026208E+03  0.24658373457E+04  0.22900235125E+04 0.  0.
        1    1    3    3  502    0 -0.10896131975E+04  0.35061337616E+03 -0.48887880054E+03  0.12446642685E+04  0.50400001928E-02 0.  1.
       -1    1    3    3    0  502  0.10896131975E+04 -0.35061337616E+03 -0.42553146154E+03  0.12211730772E+04  0.50400001928E-02 0. -1.
</event>
<event>
 5   0  0.7391007E-06  0.2304129E+04  0.7818609E-02  0.8476295E-01
        1   -1    0    0  501    0  0.00000000000E+00  0.00000000000E+00  0.11518572605E+04  0.11518572605E+04  0.50400001928E-02 0.  1.
       -1   -1    0    0    0  501  0.00000000000E+00  0.00000000000E+00 -0.11522714651E+04  0.11522714652E+04  0.50400001928E-02 0. -1.
    10030    2    1    2    0    0  0.00000000000E+00  0.00000000000E+00 -0.41420463537E+00  0.23041287257E+04  0.23041286885E+04 0.  0.
        1    1    3    3  502    0 -0.23230196473E+03 -0.60166171926E+03 -0.95482286555E+03  0.11522359706E+04  0.50400001928E-02 0. -1.
       -1    1    3    3    0  502  0.23230196473E+03  0.60166171926E+03  0.95440866092E+03  0.11518927551E+04  0.50400001928E-02 0.  1.
</event>
<event>
 5   0  0.7202572E-06  0.2330037E+04  0.7818609E-02  0.8466171E-01
        1   -1    0    0  501    0  0.00000000000E+00  0.00000000000E+00  0.10275687916E+04  0.10275687916E+04  0.50400001928E-02 0.  1.
       -1   -1    0    0    0  501  0.00000000000E+00  0.00000000000E+00 -0.13208537188E+04  0.13208537188E+04  0.50400001928E-02 0. -1.
    10030    2    1    2    0    0  0.00000000000E+00  0.00000000000E+00 -0.29328492714E+03  0.23484225104E+04  0.23300369608E+04 0.  0.
        2    1    3    3  502    0 -0.76075398906E+03 -0.12571972059E+03  0.73358486305E+03  0.10642832477E+04  0.25500000920E-02 0.  1.
       -2    1    3    3    0  502  0.76075398906E+03  0.12571972059E+03 -0.10268697902E+04  0.12841392627E+04  0.25500000920E-02 0. -1.
</event>
<event>
 5   0  0.1588969E-05  0.2277865E+04  0.7818609E-02  0.8486700E-01
       -2   -1    0    0    0  501  0.00000000000E+00  0.00000000000E+00  0.95580237690E+03  0.95580237690E+03  0.25500000920E-02 0. -1.
        2   -1    0    0  501    0  0.00000000000E+00  0.00000000000E+00 -0.13571505772E+04  0.13571505772E+04  0.25500000920E-02 0.  1.
    10030    2    1    2    0    0  0.00000000000E+00  0.00000000000E+00 -0.40134820027E+03  0.23129529541E+04  0.22778654460E+04 0.  0.
        1    1    3    3  502    0 -0.96652119291E+03 -0.60207774329E+03 -0.22353584440E+03  0.11604434924E+04  0.50400001928E-02 0.  1.
       -1    1    3    3    0  502  0.96652119291E+03  0.60207774329E+03 -0.17781235587E+03  0.11525094617E+04  0.50400001928E-02 0. -1.
</event>
<event>
 5   0  0.1588969E-05  0.2305452E+04  0.7818609E-02  0.8475775E-01
        2   -1    0    0  501    0  0.00000000000E+00  0.00000000000E+00  0.20045298395E+04  0.20045298395E+04  0.25500000920E-02 0. -1.
       -2   -1    0    0    0  501  0.00000000000E+00  0.00000000000E+00 -0.66288694848E+03  0.66288694848E+03  0.25500000920E-02 0.  1.
    10030    2    1    2    0    0  0.00000000000E+00  0.00000000000E+00  0.13416428910E+04  0.26674167880E+04  0.23054515119E+04 0.  0.
        1    1    3    3  502    0 -0.40444672883E+03 -0.85504301889E+02  0.19158183247E+04  0.19599102009E+04  0.50400001928E-02 0. -1.
       -1    1    3    3    0  502  0.40444672883E+03  0.85504301889E+02 -0.57417543371E+03  0.70750658711E+03  0.50400001928E-02 0.  1.
</event>
<event>
 5   0  0.5704875E-06  0.2293770E+04  0.7818609E-02  0.8480382E-01
       -3   -1    0    0    0  501  0.00000000000E+00  0.00000000000E+00  0.98541408713E+03  0.98541409231E+03  0.10100000352E+00 0.  1.
        3   -1    0    0  501    0  0.00000000000E+00  0.00000000000E+00 -0.13348147362E+04  0.13348147400E+04  0.10100000352E+00 0. -1.
    10030    2    1    2    0    0  0.00000000000E+00  0.00000000000E+00 -0.34940064904E+03  0.23202288323E+04  0.22937700453E+04 0.  0.
        3    1    3    3  502    0 -0.47277323080E+03 -0.58068309177E+03 -0.10534197726E+04  0.12924397891E+04  0.10100000352E+00 0. -1.
       -3    1    3    3    0  502  0.47277323080E+03  0.58068309177E+03  0.70401912357E+03  0.10277890432E+04  0.10100000352E+00 0.  1.
</event>
<event>
 5   0  0.7416556E-06  0.2297496E+04  0.7818609E-02  0.8478909E-01
       -1   -1    0    0    0  501  0.00000000000E+00  0.00000000000E+00  0.11050838706E+04  0.11050838706E+04  0.50400001928E-02 0. -1.
        1   -1    0    0  501    0  0.00000000000E+00  0.00000000000E+00 -0.11941369967E+04  0.11941369967E+04  0.50400001928E-02 0.  1.
    10030    2    1    2    0    0  0.00000000000E+00  0.00000000000E+00 -0.89053126179E+02  0.22992208673E+04  0.22974956229E+04 0.  0.
        4    1    3    3  502    0 -0.15013573778E+03  0.97716440669E+03 -0.62996919280E+03  0.11722857221E+04  0.12699999809E+01 0.  1.
       -4    1    3    3    0  502  0.15013573778E+03 -0.97716440669E+03  0.54091606663E+03  0.11269351452E+04  0.12699999809E+01 0. -1.
</event>
<event>
 5   0  0.1697855E-05  0.2301105E+04  0.7818609E-02  0.8477486E-01
        2   -1    0    0  501    0  0.00000000000E+00  0.00000000000E+00  0.23672482972E+04  0.23672482972E+04  0.25500000920E-02 0. -1.
       -2   -1    0    0    0  501  0.00000000000E+00  0.00000000000E+00 -0.55920238359E+03  0.55920238359E+03  0.25500000920E-02 0.  1.
    10030    2    1    2    0    0  0.00000000000E+00  0.00000000000E+00  0.18080459136E+04  0.29264506808E+04  0.23011048567E+04 0.  0.
        5    1    3    3  502    0  0.15661812682E+03 -0.36126375073E+03 -0.47083496661E+03  0.61379833090E+03  0.46999998093E+01 0.  1.
       -5    1    3    3    0  502 -0.15661812682E+03  0.36126375073E+03  0.22788808802E+04  0.23126523499E+04  0.46999998093E+01 0. -1.
</event>
<event>
 5   0  0.7278815E-06  0.2308535E+04  0.7818609E-02  0.8474563E-01
       -1   -1    0    0    0  501  0.00000000000E+00  0.00000000000E+00  0.87068832675E+03  0.87068832676E+03  0.50400001928E-02 0. -1.
        1   -1    0    0  501    0  0.00000000000E+00  0.00000000000E+00 -0.15302070969E+04  0.15302070969E+04  0.50400001928E-02 0.  1.
    10030    2    1    2    0    0  0.00000000000E+00  0.00000000000E+00 -0.65951877019E+03  0.24008954237E+04  0.23085349959E+04 0.  0.
        5    1    3    3  502    0 -0.65914135645E+03 -0.84670314131E+03 -0.77214548173E+03  0.13219698454E+04  0.46999998093E+01 0.  1.
       -5    1    3    3    0  502  0.65914135645E+03  0.84670314131E+03  0.11262671154E+03  0.10789255783E+04  0.46999998093E+01 0. -1.
</event>
<event>
 5   0  0.7202572E-06  0.2297978E+04  0.7818609E-02  0.8478719E-01
       -1   -1    0    0    0  501  0.00000000000E+00  0.00000000000E+00  0.10963415719E+04  0.10963415719E+04  0.50400001928E-02 0. -1.
        1   -1    0    0  501    0  0.00000000000E+00  0.00000000000E+00 -0.12041649537E+04  0.12041649537E+04  0.50400001928E-02 0.  1.
    10030    2    1    2    0    0  0.00000000000E+00  0.00000000000E+00 -0.10782338180E+03  0.23005065257E+04  0.22979783274E+04 0.  0.
        2    1    3    3  502    0  0.22071755007E+03 -0.70707292059E+03 -0.93323317969E+03  0.11914665415E+04  0.25500000920E-02 0.  1.
       -2    1    3    3    0  502 -0.22071755007E+03  0.70707292059E+03  0.82540979789E+03  0.11090399841E+04  0.25500000920E-02 0. -1.
</event>
<event>
 5   0  0.1697855E-05  0.2295343E+04  0.7818609E-02  0.8479760E-01
       -2   -1    0    0    0  501  0.00000000000E+00  0.00000000000E+00  0.10224180986E+04  0.10224180986E+04  0.25500000920E-02 0.  1.
        2   -1    0    0  501    0  0.00000000000E+00  0.00000000000E+00 -0.12882688974E+04  0.12882688974E+04  0.25500000920E-02 0. -1.
    10030    2    1    2    0    0  0.00000000000E+00  0.00000000000E+00 -0.26585079879E+03  0.23106869960E+04  0.22953426207E+04 0.  0.
        5    1    3    3  502    0 -0.54053050235E+03  0.24624631116E+03  0.85563562374E+03  0.10416068742E+04  0.46999998093E+01 0.  1.
       -5    1    3    3    0  502  0.54053050235E+03 -0.24624631116E+03 -0.11214864225E+04  0.12690801218E+04  0.46999998093E+01 0. -1.
</event>
<event>
 5   0  0.1588969E-05  0.2328687E+04  0.7818609E-02  0.8466695E-01
        2   -1    0    0  501    0  0.00000000000E+00  0.00000000000E+00  0.14493274859E+04  0.14493274859E+04  0.25500000920E-02 0. -1.
       -2   -1    0    0    0  501  0.00000000000E+00  0.00000000000E+00 -0.93539623880E+03  0.93539623880E+03  0.25500000920E-02 0.  1.
    10030    2    1    2    0    0  0.00000000000E+00  0.00000000000E+00  0.51393124706E+03  0.23847237247E+04  0.23286867364E+04 0.  0.
        1    1    3    3  502    0 -0.54560655205E+03  0.89173862492E+03 -0.26802183985E+03  0.10792219380E+04  0.50400001928E-02 0.  1.
       -1    1    3    3    0  502  0.54560655205E+03 -0.89173862492E+03  0.78195308691E+03  0.13055017867E+04  0.50400001928E-02 0. -1.
</event>
<event>
 5   0  0.7202572E-06  0.2298440E+04  0.7818609E-02  0.8478536E-01
       -1   -1    0    0    0  501  0.00000000000E+00  0.00000000000E+00  0.86314178915E+03  0.86314178917E+03  0.50400001928E-02 0. -1.
        1   -1    0    0  501    0  0.00000000000E+00  0.00000000000E+00 -0.15301157946E+04  0.15301157946E+04  0.50400001928E-02 0.  1.
    10030    2    1    2    0    0  0.00000000000E+00  0.00000000000E+00 -0.66697400541E+03  0.23932575837E+04  0.22984402403E+04 0.  0.
        2    1    3    3  502    0  0.65293557141E+03 -0.32304669684E+03 -0.12589862187E+04  0.14545550273E+04  0.25500000920E-02 0.  1.
       -2    1    3    3    0  502 -0.65293557141E+03  0.32304669684E+03  0.59201221325E+03  0.93870255640E+03  0.25500000920E-02 0. -1.
</event>
<event>
 5   0  0.7278815E-06  0.2300954E+04  0.7818609E-02  0.8477545E-01
       -1   -1    0    0    0  501  0.00000000000E+00  0.00000000000E+00  0.11779960027E+04  0.11779960027E+04  0.50400001928E-02 0. -1.
        1   -1    0    0  501    0  0.00000000000E+00  0.00000000000E+00 -0.11236010832E+04  0.11236010833E+04  0.50400001928E-02 0.  1.
    10030    2    1    2    0    0  0.00000000000E+00  0.00000000000E+00  0.54394919443E+02  0.23015970859E+04  0.23009542235E+04 0.  0.
        5    1    3    3  502    0  0.25708167773E+03  0.90133115306E+03  0.69453200700E+03  0.11665700302E+04  0.46999998093E+01 0. -1.
       -5    1    3    3    0  502 -0.25708167773E+03 -0.90133115306E+03 -0.64013708756E+03  0.11350270558E+04  0.46999998093E+01 0.  1.
</event>
<event>
 5   0  0.7183014E-06  0.2297152E+04  0.7818609E-02  0.8479045E-01
        1   -1    0    0  501    0  0.00000000000E+00  0.00000000000E+00  0.61188506436E+03  0.61188506438E+03  0.50400001928E-02 0.  1.
       -1   -1    0    0    0  501  0.00000000000E+00  0.00000000000E+00 -0.21560045086E+04  0.21560045086E+04  0.50400001928E-02 0. -1.
    10030    2    1    2    0    0  0.00000000000E+00  0.00000000000E+00 -0.15441194443E+04  0.27678895730E+04  0.22971521130E+04 0.  0.
        3    1    3    3  502    0  0.63753783356E+03  0.49700414077E+03 -0.17552048696E+04  0.19324108646E+04  0.10100000352E+00 0. -1.
       -3    1    3    3    0  502 -0.63753783356E+03 -0.49700414077E+03  0.21108542536E+03  0.83547870838E+03  0.10100000352E+00 0.  1.
</event>
<event>
 5   0  0.7183014E-06  0.2305123E+04  0.7818609E-02  0.8475904E-01
       -1   -1    0    0    0  501  0.00000000000E+00  0.00000000000E+00  0.16360618035E+04  0.16360618035E+04  0.50400001928E-02 0. -1.
        1   -1    0    0  501    0  0.00000000000E+00  0.00000000000E+00 -0.81194889352E+03  0.81194889354E+03  0.50400001928E-02 0.  1.
    10030    2    1    2    0    0  0.00000000000E+00  0.00000000000E+00  0.82411290995E+03  0.24480106970E+04  0.23051234857E+04 0.  0.
        3    1    3    3  502    0  0.80273956061E+02 -0.32540650758E+03  0.15831660958E+04  0.16182546772E+04  0.10100000352E+00 0. -1.
       -3    1    3    3    0  502 -0.80273956061E+02  0.32540650758E+03 -0.75905318587E+03  0.82975601979E+03  0.10100000352E+00 0.  1.
</event>
<event>
 5   0  0.7278815E-06  0.2302159E+04  0.7818609E-02  0.8477070E-01
        1   -1    0    0  501    0  0.00000000000E+00  0.00000000000E+00  0.14045838998E+04  0.14045838998E+04  0.50400001928E-02 0. -1.
       -1   -1    0    0    0  501  0.00000000000E+00  0.00000000000E+00 -0.94332851850E+03  0.94332851851E+03  0.50400001928E-02 0.  1.
    10030    2    1    2    0    0  0.00000000000E+00  0.00000000000E+00  0.46125538129E+03  0.23479124183E+04  0.23021590295E+04 0.  0.
        5    1    3    3  502    0  0.38773847435E+03  0.10777590385E+04  0.34716271279E+03  0.11968499107E+04  0.46999998093E+01 0. -1.
       -5    1    3    3    0  502 -0.38773847435E+03 -0.10777590385E+04  0.11409266850E+03  0.11510625076E+04  0.46999998093E+01 0.  1.
</event>
<event>
 5   0  0.7416556E-06  0.2305748E+04  0.7818609E-02  0.8475658E-01
       -1   -1    0    0    0  501  0.00000000000E+00  0.00000000000E+00  0.68149011537E+03  0.68149011539E+03  0.50400001928E-02 0. -1.
        1   -1    0    0  501    0  0.00000000000E+00  0.00000000000E+00 -0.19503117202E+04  0.19503117202E+04  0.50400001928E-02 0.  1.
    10030    2    1    2    0    0  0.00000000000E+00  0.00000000000E+00 -0.12688216048E+04  0.26318018356E+04  0.23057477392E+04 0.  0.
        4    1    3    3  502    0 -0.22888619809E+03  0.22187118499E+03  0.63018661797E+03  0.70622411512E+03  0.12699999809E+01 0. -1.
       -4    1    3    3    0  502  0.22888619809E+03 -0.22187118499E+03 -0.18990082228E+04  0.19255777205E+04  0.12699999809E+01 0.  1.
</event>
<event>
 5   0  0.7278815E-06  0.2295365E+04  0.7818609E-02  0.8479751E-01
        1   -1    0    0  501    0  0.00000000000E+00  0.00000000000E+00  0.18770178545E+04  0.18770178545E+04  0.50400001928E-02 0.  1.
       -1   -1    0    0    0  501  0.00000000000E+00  0.00000000000E+00 -0.70173823298E+03  0.70173823300E+03  0.50400001928E-02 0. -1.
    10030    2    1    2    0    0  0.00000000000E+00  0.00000000000E+00  0.11752796216E+04  0.25787560875E+04  0.22953650625E+04 0.  0.
        5    1    3    3  502    0  0.51350134370E+03  0.87197643309E+03 -0.20615758766E+02  0.10121628472E+04  0.46999998093E+01 0. -1.
       -5    1    3    3    0  502 -0.51350134370E+03 -0.87197643309E+03  0.11958953803E+04  0.15665932403E+04  0.46999998093E+01 0.  1.
</event>
<event>
 5   0  0.1626636E-05  0.2300137E+04  0.7818609E-02  0.8477867E-01
        2   -1    0    0  501    0  0.00000000000E+00  0.00000000000E+00  0.78913545589E+03  0.78913545590E+03  0.25500000920E-02 0. -1.
       -2   -1    0    0    0  501  0.00000000000E+00  0.00000000000E+00 -0.16760847420E+04  0.16760847420E+04  0.25500000920E-02 0.  1.
    10030    2    1    2    0    0  0.00000000000E+00  0.00000000000E+00 -0.88694928608E+03  0.24652201979E+04  0.23001372976E+04 0.  0.
        4    1    3    3  502    0  0.78777267868E+03 -0.74992271302E+03 -0.84404521747E+03  0.13767293891E+04  0.12699999809E+01 0.  1.
       -4    1    3    3    0  502 -0.78777267868E+03  0.74992271302E+03 -0.42904068617E+02  0.10884908088E+04  0.12699999809E+01 0. -1.
</event>
<event>
 5   0  0.7278815E-06  0.2310283E+04  0.7818609E-02  0.8473878E-01
        1   -1    0    0  501    0  0.00000000000E+00  0.00000000000E+00  0.20980391627E+04  0.20980391627E+04  0.50400001928E-02 0.  1.
       -1   -1    0    0    0  501  0.00000000000E+00  0.00000000000E+00 -0.63599958050E+03  0.63599958052E+03  0.50400001928E-02 0. -1.
    10030    2    1    2    0    0  0.00000000000E+00  0.00000000000E+00  0.14620395822E+04  0.27340387432E+04  0.23102831232E+04 0.  0.
        5    1    3    3  502    0 -0.80078269028E+03  0.65770993046E+03  0.13350224881E+04  0.16900125453E+04  0.46999998093E+01 0. -1.
       -5    1    3    3    0  502  0.80078269028E+03 -0.65770993046E+03  0.12701709410E+03  0.10440261979E+04  0.46999998093E+01 0.  1.
</event>
<event>
 5   0  0.1602809E-05  0.2291588E+04  0.7818609E-02  0.8481245E-01
        2   -1    0    0  501    0  0.00000000000E+00  0.00000000000E+00  0.12566015306E+04  0.12566015306E+04  0.25500000920E-02 0. -1.
       -2   -1    0    0    0  501  0.00000000000E+00  0.00000000000E+00 -0.10447574548E+04  0.10447574548E+04  0.25500000920E-02 0.  1.
    10030    2    1    2    0    0  0.00000000000E+00  0.00000000000E+00  0.21184407578E+03  0.23013589854E+04  0.22915879357E+04 0.  0.
        3    1    3    3  502    0 -0.78346341741E+03 -0.53089055686E+03  0.75457396690E+03  0.12103890249E+04  0.10100000352E+00 0. -1.
       -3    1    3    3    0  502  0.78346341741E+03  0.53089055686E+03 -0.54272989112E+03  0.10909699605E+04  0.10100000352E+00 0.  1.
</event>
<event>
 5   0  0.1602809E-05  0.2315749E+04  0.7818609E-02  0.8471737E-01
       -2   -1    0    0    0  501  0.00000000000E+00  0.00000000000E+00  0.11073032767E+04  0.11073032767E+04  0.25500000920E-02 0. -1.
        2   -1    0    0  501    0  0.00000000000E+00  0.00000000000E+00 -0.12107558035E+04  0.12107558035E+04  0.25500000920E-02 0.  1.
    10030    2    1    2    0    0  0.00000000000E+00  0.00000000000E+00 -0.10345252678E+03  0.23180590802E+04  0.23157494411E+04 0.  0.
        3    1    3    3  502    0 -0.86008327325E+03 -0.29554412583E+03 -0.76908897516E+03  0.11910446797E+04  0.10100000352E+00 0.  1.
       -3    1    3    3    0  502  0.86008327325E+03  0.29554412583E+03  0.66563644838E+03  0.11270144005E+04  0.10100000352E+00 0. -1.
</event>
<event>
 5   0  0.5704875E-06  0.2306542E+04  0.7818609E-02  0.8475346E-01
        4   -1    0    0  501    0  0.00000000000E+00  0.00000000000E+00  0.15092077289E+04  0.15092082633E+04  0.12699999809E+01 0.  1.
       -4   -1    0    0    0  501  0.00000000000E+00  0.00000000000E+00 -0.88127856415E+03  0.88127947924E+03  0.12699999809E+01 0. -1.
    10030    2    1    2    0    0  0.00000000000E+00  0.00000000000E+00  0.62792916478E+03  0.23904877425E+04  0.23065421330E+04 0.  0.
        5    1    3    3  502    0 -0.42786615029E+03 -0.63821095982E+03 -0.57735245749E+03  0.96111426062E+03  0.46999998093E+01 0. -1.
       -5    1    3    3    0  502  0.42786615029E+03  0.63821095982E+03  0.12052816223E+04  0.14293734819E+04  0.46999998093E+01 0.  1.
</event>
<event>
 5   0  0.1697855E-05  0.2299001E+04  0.7818609E-02  0.8478315E-01
       -2   -1    0    0    0  501  0.00000000000E+00  0.00000000000E+00  0.89052953083E+03  0.89052953083E+03  0.25500000920E-02 0.  1.
        2   -1    0    0  501    0  0.00000000000E+00  0.00000000000E+00 -0.14837812205E+04  0.14837812205E+04  0.25500000920E-02 0. -1.
    10030    2    1    2    0    0  0.00000000000E+00  0.00000000000E+00 -0.59325168964E+03  0.23743107513E+04  0.22990006474E+04 0.  0.
        5    1    3    3  502    0 -0.47314617445E+03 -0.73186898277E+03 -0.10707323088E+04  0.13805757051E+04  0.46999998093E+01 0. -1.
       -5    1    3    3    0  502  0.47314617445E+03  0.73186898277E+03  0.47748061920E+03  0.99373504620E+03  0.46999998093E+01 0.  1.
</event>
<event>
 5   0  0.7278815E-06  0.2289510E+04  0.7818609E-02  0.8482069E-01
        1   -1    0    0  501    0  0.00000000000E+00  0.00000000000E+00  0.18538153120E+04  0.18538153121E+04  0.50400001928E-02 0. -1.
       -1   -1    0    0    0  501  0.00000000000E+00  0.00000000000E+00 -0.70690097511E+03  0.70690097513E+03  0.50400001928E-02 0.  1.
    10030    2    1    2    0    0  0.00000000000E+00  0.00000000000E+00  0.11469143369E+04  0.25607162872E+04  0.22895098618E+04 0.  0.
        5    1    3    3  502    0 -0.66498643004E+02  0.59261079214E+03  0.16663622873E+04  0.17698573341E+04  0.46999998093E+01 0. -1.
       -5    1    3    3    0  502  0.66498643004E+02 -0.59261079214E+03 -0.51944795039E+03  0.79085895307E+03  0.46999998093E+01 0.  1.
</event>
<event>
 5   0  0.7202572E-06  0.2294175E+04  0.7818609E-02  0.8480221E-01
        1   -1    0    0  501    0  0.00000000000E+00  0.00000000000E+00  0.62690745294E+03  0.62690745296E+03  0.50400001928E-02 0.  1.
       -1   -1    0    0    0  501  0.00000000000E+00  0.00000000000E+00 -0.20988895213E+04  0.20988895213E+04  0.50400001928E-02 0. -1.
    10030    2    1    2    0    0  0.00000000000E+00  0.00000000000E+00 -0.14719820684E+04  0.27257969743E+04  0.22941747831E+04 0.  0.
        2    1    3    3  502    0 -0.71500049218E+03 -0.87668132160E+03 -0.51051493382E+03  0.12411371162E+04  0.25500000920E-02 0. -1.
       -2    1    3    3    0  502  0.71500049218E+03  0.87668132160E+03 -0.96146713454E+03  0.14846598581E+04  0.25500000920E-02 0.  1.
</event>
<event>
 5   0  0.1697855E-05  0.2309638E+04  0.7818609E-02  0.8474131E-01
        2   -1    0    0  501    0  0.00000000000E+00  0.00000000000E+00  0.10100937374E+04  0.10100937374E+04  0.25500000920E-02 0.  1.
       -2   -1    0    0    0  501  0.00000000000E+00  0.00000000000E+00 -0.13202802450E+04  0.13202802450E+04  0.25500000920E-02 0. -1.
    10030    2    1    2    0    0  0.00000000000E+00  0.00000000000E+00 -0.31018650760E+03  0.23303739824E+04  0.23096378998E+04 0.  0.
        5    1    3    3  502    0 -0.77170665002E+03 -0.51952450333E+03 -0.84544947658E+03  0.12570774720E+04  0.46999998093E+01 0. -1.
       -5    1    3    3    0  502  0.77170665002E+03  0.51952450333E+03  0.53526296898E+03  0.10732965104E+04  0.46999998093E+01 0.  1.
</event>
<event>
 5   0  0.1588969E-05  0.2312966E+04  0.7818609E-02  0.8472826E-01
        2   -1    0    0  501    0  0.00000000000E+00  0.00000000000E+00  0.12135553955E+04  0.12135553955E+04  0.25500000920E-02 0.  1.
       -2   -1    0    0    0  501  0.00000000000E+00  0.00000000000E+00 -0.11020945077E+04  0.11020945077E+04  0.25500000920E-02 0. -1.
    10030    2    1    2    0    0  0.00000000000E+00  0.00000000000E+00  0.11146088784E+03  0.23156499031E+04  0.23129658330E+04 0.  0.
        1    1    3    3  502    0 -0.42787537893E+03 -0.16586686673E+02 -0.10198068044E+04  0.11060553225E+04  0.50400001928E-02 0. -1.
       -1    1    3    3    0  502  0.42787537893E+03  0.16586686673E+02  0.11312676922E+04  0.12095945807E+04  0.50400001928E-02 0.  1.
</event>
<event>
 5   0  0.7202572E-06  0.2301857E+04  0.7818609E-02  0.8477189E-01
        1   -1    0    0  501    0  0.00000000000E+00  0.00000000000E+00  0.12295722036E+04  0.12295722036E+04  0.50400001928E-02 0. -1.
       -1   -1    0    0    0  501  0.00000000000E+00  0.00000000000E+00 -0.10773150073E+04  0.10773150074E+04  0.50400001928E-02 0.  1.
    10030    2    1    2    0    0  0.00000000000E+00  0.00000000000E+00  0.15225719625E+03  0.23068872110E+04  0.23018571525E+04 0.  0.
        2    1    3    3  502    0  0.46507813419E+03  0.79083859523E+03 -0.62030953972E+03  0.11074778913E+04  0.25500000920E-02 0.  1.
       -2    1    3    3    0  502 -0.46507813419E+03 -0.79083859523E+03  0.77256673598E+03  0.11994093197E+04  0.25500000920E-02 0. -1.
</event>
<event>
 5   0  0.1588969E-05  0.2303972E+04  0.7818609E-02  0.8476357E-01
       -2   -1    0    0    0  501  0.00000000000E+00  0.00000000000E+00  0.50793796070E+03  0.50793796071E+03  0.25500000920E-02 0.  1.
        2   -1    0    0  501    0  0.00000000000E+00  0.00000000000E+00 -0.26126650038E+04  0.26126650038E+04  0.25500000920E-02 0. -1.
    10030    2    1    2    0    0  0.00000000000E+00  0.00000000000E+00 -0.21047270431E+04  0.31206029645E+04  0.23039719912E+04 0.  0.
        1    1    3    3  502    0  0.55304905600E+02  0.26582439669E+03 -0.25687070057E+04  0.25830170196E+04  0.50400001928E-02 0. -1.
       -1    1    3    3    0  502 -0.55304905600E+02 -0.26582439669E+03  0.46397996258E+03  0.53758594491E+03  0.50400001928E-02 0.  1.
</event>
<event>
 5   0  0.7416556E-06  0.2300583E+04  0.7818609E-02  0.8477691E-01
       -1   -1    0    0    0  501  0.00000000000E+00  0.00000000000E+00  0.76569295526E+03  0.76569295528E+03  0.50400001928E-02 0. -1.
        1   -1    0    0  501    0  0.00000000000E+00  0.00000000000E+00 -0.17280698578E+04  0.17280698578E+04  0.50400001928E-02 0.  1.
    10030    2    1    2    0    0  0.00000000000E+00  0.00000000000E+00 -0.96237690256E+03  0.24937628131E+04  0.23005833316E+04 0.  0.
        4    1    3    3  502    0  0.34999401876E+02  0.11422154154E+04 -0.33866274617E+03  0.11918788033E+04  0.12699999809E+01 0.  1.
       -4    1    3    3    0  502 -0.34999401876E+02 -0.11422154154E+04 -0.62371415639E+03  0.13018840098E+04  0.12699999809E+01 0. -1.
</event>
<event>
 5   0  0.1602809E-05  0.2286801E+04  0.7818609E-02  0.8483143E-01
        2   -1    0    0  501    0  0.00000000000E+00  0.00000000000E+00  0.10386960878E+04  0.10386960878E+04  0.25500000920E-02 0.  1.
       -2   -1    0    0    0  501  0.00000000000E+00  0.00000000000E+00 -0.12586596662E+04  0.12586596662E+04  0.25500000920E-02 0. -1.
    10030    2    1    2    0    0  0.00000000000E+00  0.00000000000E+00 -0.21996357838E+03  0.22973557539E+04  0.22868011467E+04 0.  0.
        3    1    3    3  502    0  0.42992374487E+03  0.87476959822E+03 -0.71049363170E+03  0.12061747333E+04  0.10100000352E+00 0. -1.
       -3    1    3    3    0  502 -0.42992374487E+03 -0.87476959822E+03  0.49053005332E+03  0.10911810206E+04  0.10100000352E+00 0.  1.
</event>
<event>
 5   0  0.7416556E-06  0.2291736E+04  0.7818609E-02  0.8481187E-01
       -1   -1    0    0    0  501  0.00000000000E+00  0.00000000000E+00  0.92607758755E+03  0.92607758756E+03  0.50400001928E-02 0.  1.
        1   -1    0    0  501    0  0.00000000000E+00  0.00000000000E+00 -0.14178217011E+04  0.14178217011E+04  0.50400001928E-02 0. -1.
    10030    2    1    2    0    0  0.00000000000E+00  0.00000000000E+00 -0.49174411351E+03  0.23438992886E+04  0.22917355000E+04 0.  0.
        4    1    3    3  502    0 -0.20838652949E+03  0.92033782773E+03 -0.91071800063E+03  0.13114326336E+04  0.12699999809E+01 0. -1.
       -4    1    3    3    0  502  0.20838652949E+03 -0.92033782773E+03  0.41897388712E+03  0.10324666551E+04  0.12699999809E+01 0.  1.
</event>
<event>
 5   0  0.1602809E-05  0.2291083E+04  0.7818609E-02  0.8481445E-01
       -2   -1    0    0    0  501  0.00000000000E+00  0.00000000000E+00  0.91979401625E+03  0.91979401626E+03  0.25500000920E-02 0.  1.
        2   -1    0    0  501    0  0.00000000000E+00  0.00000000000E+00 -0.14266948051E+04  0.14266948051E+04  0.25500000920E-02 0. -1.
    10030    2    1    2    0    0  0.00000000000E+00  0.00000000000E+00 -0.50690078882E+03  0.23464888213E+04  0.22910830144E+04 0.  0.
        3    1    3    3  502    0 -0.36987875990E+03  0.86146561508E+03 -0.92764932678E+03  0.13188883905E+04  0.10100000352E+00 0.  1.
       -3    1    3    3    0  502  0.36987875990E+03 -0.86146561508E+03  0.42074853796E+03  0.10276004308E+04  0.10100000352E+00 0. -1.
</event>
<event>
 5   0  0.1626636E-05  0.2302897E+04  0.7818609E-02  0.8476780E-01
        2   -1    0    0  501    0  0.00000000000E+00  0.00000000000E+00  0.15943678174E+04  0.15943678174E+04  0.25500000920E-02 0. -1.
       -2   -1    0    0    0  501  0.00000000000E+00  0.00000000000E+00 -0.83157350185E+03  0.83157350185E+03  0.25500000920E-02 0.  1.
    10030    2    1    2    0    0  0.00000000000E+00  0.00000000000E+00  0.76279431559E+03  0.24259413193E+04  0.23028973309E+04 0.  0.
        4    1    3    3  502    0 -0.13908189919E+03  0.99576850260E+03 -0.20977681329E+03  0.10270864665E+04  0.12699999809E+01 0.  1.
       -4    1    3    3    0  502  0.13908189919E+03 -0.99576850260E+03  0.97257112888E+03  0.13988548528E+04  0.12699999809E+01 0. -1.
</event>
<event>
 5   0  0.1635955E-05  0.2295002E+04  0.7818609E-02  0.8479894E-01
       -2   -1    0    0    0  501  0.00000000000E+00  0.00000000000E+00  0.69919726324E+03  0.69919726325E+03  0.25500000920E-02 0. -1.
        2   -1    0    0  501    0  0.00000000000E+00  0.00000000000E+00 -0.18832431241E+04  0.18832431241E+04  0.25500000920E-02 0.  1.
    10030    2    1    2    0    0  0.00000000000E+00  0.00000000000E+00 -0.11840458608E+04  0.25824403873E+04  0.22950019071E+04 0.  0.
        2    1    3    3  502    0  0.77306630516E+03 -0.31508293917E+03  0.29388877644E+03  0.88503072469E+03  0.25500000920E-02 0. -1.
       -2    1    3    3    0  502 -0.77306630516E+03  0.31508293917E+03 -0.14779346373E+04  0.16974096626E+04  0.25500000920E-02 0.  1.
</event>
<event>
 5   0  0.1635955E-05  0.2307662E+04  0.7818609E-02  0.8474906E-01
        2   -1    0    0  501    0  0.00000000000E+00  0.00000000000E+00  0.13532463453E+04  0.13532463453E+04  0.25500000920E-02 0. -1.
       -2   -1    0    0    0  501  0.00000000000E+00  0.00000000000E+00 -0.98380140598E+03  0.98380140598E+03  0.25500000920E-02 0.  1.
    10030    2    1    2    0    0  0.00000000000E+00  0.00000000000E+00  0.36944493935E+03  0.23370477513E+04  0.23076617232E+04 0.  0.
        2    1    3    3  502    0  0.33799225038E+02 -0.16671954757E+03  0.13404770137E+04  0.13512277452E+04  0.25500000920E-02 0. -1.
       -2    1    3    3    0  502 -0.33799225038E+02  0.16671954757E+03 -0.97103207431E+03  0.98582000614E+03  0.25500000920E-02 0.  1.
</event>
<event>
 5   0  0.7416556E-06  0.2286902E+04  0.7818609E-02  0.8483103E-01
       -1   -1    0    0    0  501  0.00000000000E+00  0.00000000000E+00  0.10295391972E+04  0.10295391972E+04  0.50400001928E-02 0.  1.
        1   -1    0    0  501    0  0.00000000000E+00  0.00000000000E+00 -0.12699669265E+04  0.12699669266E+04  0.50400001928E-02 0. -1.
    10030    2    1    2    0    0  0.00000000000E+00  0.00000000000E+00 -0.24042772936E+03  0.22995061237E+04  0.22869024728E+04 0.  0.
        4    1    3    3  502    0  0.12057695848E+03 -0.13947606829E+03  0.10144941963E+04  0.10311122460E+04  0.12699999809E+01 0.  1.
       -4    1    3    3    0  502 -0.12057695848E+03  0.13947606829E+03 -0.12549219257E+04  0.12683938777E+04  0.12699999809E+01 0. -1.
</event>
<event>
 5   0  0.1635955E-05  0.2327657E+04  0.7818609E-02  0.8467095E-01
       -2   -1    0    0    0  501  0.00000000000E+00  0.00000000000E+00  0.38773222554E+03  0.38773222555E+03  0.25500000920E-02 0.  1.
        2   -1    0    0  501    0  0.00000000000E+00  0.00000000000E+00 -0.34933822916E+04  0.34933822916E+04  0.25500000920E-02 0. -1.
    10030    2    1    2    0    0  0.00000000000E+00  0.00000000000E+00 -0.31056500661E+04  0.38811145172E+04  0.23276570973E+04 0.  0.
        2    1    3    3  502    0 -0.62610998542E+03  0.33048144124E+03 -0.30930333728E+04  0.31730249199E+04  0.25500000920E-02 0. -1.
       -2    1    3    3    0  502  0.62610998542E+03 -0.33048144124E+03 -0.12616693272E+02  0.70808959730E+03  0.25500000920E-02 0.  1.
</event>
<event>
 5   0  0.1697855E-05  0.2288087E+04  0.7818609E-02  0.8482633E-01
        2   -1    0    0  501    0  0.00000000000E+00  0.00000000000E+00  0.12524466855E+04  0.12524466855E+04  0.25500000920E-02 0.  1.
       -2   -1    0    0    0  501  0.00000000000E+00  0.00000000000E+00 -0.10450231111E+04  0.10450231111E+04  0.25500000920E-02 0. -1.
    10030    2    1    2    0    0  0.00000000000E+00  0.00000000000E+00  0.20742357438E+03  0.22974697966E+04  0.22880871764E+04 0.  0.
        5    1    3    3  502    0 -0.99485393998E+03 -0.47262402924E+03 -0.20692035235E+03  0.11206899469E+04  0.46999998093E+01 0. -1.
       -5    1    3    3    0  502  0.99485393998E+03  0.47262402924E+03  0.41434392673E+03  0.11767798496E+04  0.46999998093E+01 0.  1.
</event>
<event>
 5   0  0.1697855E-05  0.2313151E+04  0.7818609E-02  0.8472754E-01
        2   -1    0    0  501    0  0.00000000000E+00  0.00000000000E+00  0.75845810121E+03  0.75845810121E+03  0.25500000920E-02 0.  1.
       -2   -1    0    0    0  501  0.00000000000E+00  0.00000000000E+00 -0.17636657682E+04  0.17636657682E+04  0.25500000920E-02 0. -1.
    10030    2    1    2    0    0  0.00000000000E+00  0.00000000000E+00 -0.10052076670E+04  0.25221238695E+04  0.23131507428E+04 0.  0.
        5    1    3    3  502    0  0.25296998626E+03 -0.11019231661E+04 -0.76837891636E+03  0.13669881956E+04  0.46999998093E+01 0.  1.
       -5    1    3    3    0  502 -0.25296998626E+03  0.11019231661E+04 -0.23682875068E+03  0.11551356738E+04  0.46999998093E+01 0. -1.
</event>
<event>
 5   0  0.1602809E-05  0.2255029E+04  0.7818609E-02  0.8495867E-01
        2   -1    0    0  501    0  0.00000000000E+00  0.00000000000E+00  0.76817282638E+03  0.76817282639E+03  0.25500000920E-02 0. -1.
       -2   -1    0    0    0  501  0.00000000000E+00  0.00000000000E+00 -0.16549512407E+04  0.16549512407E+04  0.25500000920E-02 0.  1.
    10030    2    1    2    0    0  0.00000000000E+00  0.00000000000E+00 -0.88677841430E+03  0.24231240671E+04  0.22550286669E+04 0.  0.
        3    1    3    3  502    0 -0.65428539987E+01  0.43705809505E+03 -0.15602033162E+04  0.16202768237E+04  0.10100000352E+00 0.  1.
       -3    1    3    3    0  502  0.65428539987E+01 -0.43705809505E+03  0.67342490193E+03  0.80284724333E+03  0.10100000352E+00 0. -1.
</event>
<event>
 5   0  0.7278815E-06  0.2298736E+04  0.7818609E-02  0.8478420E-01
       -1   -1    0    0    0  501  0.00000000000E+00  0.00000000000E+00  0.75175666758E+03  0.75175666760E+03  0.50400001928E-02 0.  1.
        1   -1    0    0  501    0  0.00000000000E+00  0.00000000000E+00 -0.17572792881E+04  0.17572792881E+04  0.50400001928E-02 0. -1.
    10030    2    1    2    0    0  0.00000000000E+00  0.00000000000E+00 -0.10055226205E+04  0.25090359557E+04  0.22987356713E+04 0.  0.
        5    1    3    3  502    0 -0.15084049154E+03  0.23411245746E+02  0.74063311605E+03  0.75621454819E+03  0.46999998093E+01 0.  1.
       -5    1    3    3    0  502  0.15084049154E+03 -0.23411245746E+02 -0.17461557365E+04  0.17528214075E+04  0.46999998093E+01 0. -1.
</event>
<event>
 5   0  0.7391007E-06  0.2307335E+04  0.7818609E-02  0.8475035E-01
        1   -1    0    0  501    0  0.00000000000E+00  0.00000000000E+00  0.18844601844E+04  0.18844601844E+04  0.50400001928E-02 0.  1.
       -1   -1    0    0    0  501  0.00000000000E+00  0.00000000000E+00 -0.70627573727E+03  0.70627573728E+03  0.50400001928E-02 0. -1.
    10030    2    1    2    0    0  0.00000000000E+00  0.00000000000E+00  0.11781844472E+04  0.25907359217E+04  0.23073348315E+04 0.  0.
        1    1    3    3  502    0 -0.41050727077E+03 -0.21285334637E+03  0.17758540106E+04  0.18350695446E+04  0.50400001928E-02 0.  1.
       -1    1    3    3    0  502  0.41050727077E+03  0.21285334637E+03 -0.59766956346E+03  0.75566637713E+03  0.50400001928E-02 0. -1.
</event>
<event>
 5   0  0.1602809E-05  0.2301280E+04  0.7818609E-02  0.8477417E-01
       -2   -1    0    0    0  501  0.00000000000E+00  0.00000000000E+00  0.32692262354E+04  0.32692262354E+04  0.25500000920E-02 0. -1.
        2   -1    0    0  501    0  0.00000000000E+00  0.00000000000E+00 -0.40498035927E+03  0.40498035928E+03  0.25500000920E-02 0.  1.
    10030    2    1    2    0    0  0.00000000000E+00  0.00000000000E+00  0.28642458761E+04  0.36742065946E+04  0.23012800050E+04 0.  0.
        3    1    3    3  502    0  0.43788947106E+03  0.52504193631E+03  0.29097744927E+04  0.29890138562E+04  0.10100000352E+00 0. -1.
       -3    1    3    3    0  502 -0.43788947106E+03 -0.52504193631E+03 -0.45528616604E+02  0.68519273849E+03  0.10100000352E+00 0.  1.
</event>
<event>
 5   0  0.7202572E-06  0.2301951E+04  0.7818609E-02  0.8477152E-01
       -1   -1    0    0    0  501  0.00000000000E+00  0.00000000000E+00  0.13844318252E+04  0.13844318252E+04  0.50400001928E-02 0. -1.
        1   -1    0    0  501    0  0.00000000000E+00  0.00000000000E+00 -0.95688684790E+03  0.95688684791E+03  0.50400001928E-02 0.  1.
    10030    2    1    2    0    0  0.00000000000E+00  0.00000000000E+00  0.42754497734E+03  0.23413186732E+04  0.23019510033E+04 0.  0.
        2    1    3    3  502    0  0.12064248291E+01 -0.10011687571E+04  0.79128958563E+03  0.12761189380E+04  0.25500000920E-02 0. -1.
       -2    1    3    3    0  502 -0.12064248291E+01  0.10011687571E+04 -0.36374460829E+03  0.10651997351E+04  0.25500000920E-02 0.  1.
</event>
<event>
 5   0  0.1626636E-05  0.2293629E+04  0.7818609E-02  0.8480437E-01
       -2   -1    0    0    0  501  0.00000000000E+00  0.00000000000E+00  0.47870738627E+03  0.47870738627E+03  0.25500000920E-02 0.  1.
        2   -1    0    0  501    0  0.00000000000E+00  0.00000000000E+00 -0.27473648348E+04  0.27473648348E+04  0.25500000920E-02 0. -1.
    10030    2    1    2    0    0  0.00000000000E+00  0.00000000000E+00 -0.22686574485E+04  0.32260722210E+04  0.22936292980E+04 0.  0.
        4    1    3    3  502    0 -0.89513350341E+03  0.35099344761E+03 -0.20135226930E+04  0.22313080553E+04  0.12699999809E+01 0. -1.
       -4    1    3    3    0  502  0.89513350341E+03 -0.35099344761E+03 -0.25513475548E+03  0.99476416580E+03  0.12699999809E+01 0.  1.
</event>
<event>
 5   0  0.7416556E-06  0.2301953E+04  0.7818609E-02  0.8477151E-01
       -1   -1    0    0    0  501  0.00000000000E+00  0.00000000000E+00  0.66174078500E+03  0.66174078502E+03  0.50400001928E-02 0.  1.
        1   -1    0    0  501    0  0.00000000000E+00  0.00000000000E+00 -0.20019120710E+04  0.20019120710E+04  0.50400001928E-02 0. -1.
    10030    2    1    2    0    0  0.00000000000E+00  0.00000000000E+00 -0.13401712860E+04  0.26636528560E+04  0.23019529669E+04 0.  0.
        4    1    3    3  502    0 -0.49384219383E+03  0.44837563868E+03  0.41528778709E+03  0.78573938732E+03  0.12699999809E+01 0.  1.
       -4    1    3    3    0  502  0.49384219383E+03 -0.44837563868E+03 -0.17554590731E+04  0.18779134687E+04  0.12699999809E+01 0. -1.
</event>
<event>
 5   0  0.1626636E-05  0.2288695E+04  0.7818609E-02  0.8482392E-01
       -2   -1    0    0    0  501  0.00000000000E+00  0.00000000000E+00  0.56328177058E+03  0.56328177059E+03  0.25500000920E-02 0. -1.
        2   -1    0    0  501    0  0.00000000000E+00  0.00000000000E+00 -0.23248250568E+04  0.23248250568E+04  0.25500000920E-02 0.  1.
    10030    2    1    2    0    0  0.00000000000E+00  0.00000000000E+00 -0.17615432863E+04  0.28881068274E+04  0.22886953264E+04 0.  0.
        4    1    3    3  502    0  0.70262677614E+03  0.80893217389E+03 -0.37369104603E+03  0.11347696944E+04  0.12699999809E+01 0. -1.
       -4    1    3    3    0  502 -0.70262677614E+03 -0.80893217389E+03 -0.13878522402E+04  0.17533371330E+04  0.12699999809E+01 0.  1.
</event>
<event>
 5   0  0.1588969E-05  0.2297029E+04  0.7818609E-02  0.8479094E-01
       -2   -1    0    0    0  501  0.00000000000E+00  0.00000000000E+00  0.10435118526E+04  0.10435118526E+04  0.25500000920E-02 0.  1.
        2   -1    0    0  501    0  0.00000000000E+00  0.00000000000E+00 -0.12640827656E+04  0.12640827656E+04  0.25500000920E-02 0. -1.
    10030    2    1    2    0    0  0.00000000000E+00  0.00000000000E+00 -0.22057091303E+03  0.23075946182E+04  0.22970288187E+04 0.  0.
        1    1    3    3  502    0  0.90518268948E+03 -0.43182479401E+02  0.59855555567E+03  0.10860429002E+04  0.50400001928E-02 0.  1.
       -1    1    3    3    0  502 -0.90518268948E+03  0.43182479401E+02 -0.81912646870E+03  0.12215517179E+04  0.50400001928E-02 0. -1.
</event>
<event>
 5   0  0.1635955E-05  0.2299866E+04  0.7818609E-02  0.8477974E-01
       -2   -1    0    0    0  501  0.00000000000E+00  0.00000000000E+00  0.78816561175E+03  0.78816561176E+03  0.25500000920E-02 0. -1.
        2   -1    0    0  501    0  0.00000000000E+00  0.00000000000E+00 -0.16777510525E+04  0.16777510525E+04  0.25500000920E-02 0.  1.
    10030    2    1    2    0    0  0.00000000000E+00  0.00000000000E+00 -0.88958544078E+03  0.24659166643E+04  0.22998658089E+04 0.  0.
        2    1    3    3  502    0 -0.96013692801E+03 -0.16767189783E+03 -0.10990711445E+04  0.14689908667E+04  0.25500000920E-02 0.  1.
       -2    1    3    3    0  502  0.96013692801E+03  0.16767189783E+03  0.20948570368E+03  0.99692579760E+03  0.25500000920E-02 0. -1.
</event>
<event>
 5   0  0.7183014E-06  0.2315452E+04  0.7818609E-02  0.8471854E-01
       -1   -1    0    0    0  501  0.00000000000E+00  0.00000000000E+00  0.17716298117E+04  0.17716298117E+04  0.50400001928E-02 0. -1.
        1   -1    0    0  501    0  0.00000000000E+00  0.00000000000E+00 -0.75655150553E+03  0.75655150555E+03  0.50400001928E-02 0.  1.
    10030    2    1    2    0    0  0.00000000000E+00  0.00000000000E+00  0.10150783062E+04  0.25281813173E+04  0.23154517497E+04 0.  0.
        3    1    3    3  502    0 -0.28172393760E+03 -0.13819962012E+03 -0.70923253291E+03  0.77555032587E+03  0.10100000352E+00 0.  1.
       -3    1    3    3    0  502  0.28172393760E+03  0.13819962012E+03  0.17243108391E+04  0.17526309914E+04  0.10100000352E+00 0. -1.
</event>
<event>
 5   0  0.7391007E-06  0.2229792E+04  0.7818609E-02  0.8506129E-01
       -1   -1    0    0    0  501  0.00000000000E+00  0.00000000000E+00  0.49037822277E+03  0.49037822280E+03  0.50400001928E-02 0. -1.
        1   -1    0    0  501    0  0.00000000000E+00  0.00000000000E+00 -0.25347639653E+04  0.25347639653E+04  0.50400001928E-02 0.  1.
    10030    2    1    2    0    0  0.00000000000E+00  0.00000000000E+00 -0.20443857426E+04  0.30251421881E+04  0.22297919621E+04 0.  0.
        1    1    3    3  502    0 -0.94366139441E+03 -0.34901331444E+03 -0.16738092586E+04  0.19529322967E+04  0.50400001928E-02 0.  1.
       -1    1    3    3    0  502  0.94366139441E+03  0.34901331444E+03 -0.37057648392E+03  0.10722098915E+04  0.50400001928E-02 0. -1.
</event>
<event>
 5   0  0.7202572E-06  0.2297340E+04  0.7818609E-02  0.8478971E-01
        1   -1    0    0  501    0  0.00000000000E+00  0.00000000000E+00  0.26201073303E+04  0.26201073303E+04  0.50400001928E-02 0.  1.
       -1   -1    0    0    0  501  0.00000000000E+00  0.00000000000E+00 -0.50358327141E+03  0.50358327144E+03  0.50400001928E-02 0. -1.
    10030    2    1    2    0    0  0.00000000000E+00  0.00000000000E+00  0.21165240589E+04  0.31236906017E+04  0.22973395229E+04 0.  0.
        2    1    3    3  502    0 -0.26202487301E+03 -0.26252178927E+03 -0.41991762819E+03  0.56027273572E+03  0.25500000920E-02 0. -1.
       -2    1    3    3    0  502  0.26202487301E+03  0.26252178927E+03  0.25364416871E+04  0.25634178660E+04  0.25500000920E-02 0.  1.
</event>
<event>
 5   0  0.1635955E-05  0.2306890E+04  0.7818609E-02  0.8475209E-01
        2   -1    0    0  501    0  0.00000000000E+00  0.00000000000E+00  0.22874561594E+04  0.22874561594E+04  0.25500000920E-02 0.  1.
       -2   -1    0    0    0  501  0.00000000000E+00  0.00000000000E+00 -0.58162245593E+03  0.58162245594E+03  0.25500000920E-02 0. -1.
    10030    2    1    2    0    0  0.00000000000E+00  0.00000000000E+00  0.17058337034E+04  0.28690786153E+04  0.23068904346E+04 0.  0.
        2    1    3    3  502    0  0.66111686394E+03  0.77605979019E+03  0.18190484757E+03  0.10355837384E+04  0.25500000920E-02 0.  1.
       -2    1    3    3    0  502 -0.66111686394E+03 -0.77605979019E+03  0.15239288559E+04  0.18334948769E+04  0.25500000920E-02 0. -1.
</event>
<event>
 5   0  0.1697855E-05  0.2276831E+04  0.7818609E-02  0.8487113E-01
        2   -1    0    0  501    0  0.00000000000E+00  0.00000000000E+00  0.10705204209E+04  0.10705204209E+04  0.25500000920E-02 0.  1.
       -2   -1    0    0    0  501  0.00000000000E+00  0.00000000000E+00 -0.12106163796E+04  0.12106163796E+04  0.25500000920E-02 0. -1.
    10030    2    1    2    0    0  0.00000000000E+00  0.00000000000E+00 -0.14009595863E+03  0.22811368005E+04  0.22768307414E+04 0.  0.
        5    1    3    3  502    0  0.46142618488E+03 -0.92507088307E+03  0.40761065271E+03  0.11112330075E+04  0.46999998093E+01 0.  1.
       -5    1    3    3    0  502 -0.46142618488E+03  0.92507088307E+03 -0.54770661134E+03  0.11699037930E+04  0.46999998093E+01 0. -1.
</event>
<event>
 5   0  0.7391007E-06  0.2303998E+04  0.7818609E-02  0.8476347E-01
        1   -1    0    0  501    0  0.00000000000E+00  0.00000000000E+00  0.16516461289E+04  0.16516461289E+04  0.50400001928E-02 0. -1.
       -1   -1    0    0    0  501  0.00000000000E+00  0.00000000000E+00 -0.80350214985E+03  0.80350214987E+03  0.50400001928E-02 0.  1.
    10030    2    1    2    0    0  0.00000000000E+00  0.00000000000E+00  0.84814397900E+03  0.24551482787E+04  0.23039975828E+04 0.  0.
        1    1    3    3  502    0  0.69287316596E+03  0.57317743577E+03  0.11913773861E+04  0.14926438534E+04  0.50400001928E-02 0. -1.
       -1    1    3    3    0  502 -0.69287316596E+03 -0.57317743577E+03 -0.34323340711E+03  0.96250442532E+03  0.50400001928E-02 0.  1.
</event>
<event>
 5   0  0.1588969E-05  0.2390878E+04  0.7818609E-02  0.8442927E-01
        2   -1    0    0  501    0  0.00000000000E+00  0.00000000000E+00  0.12625279670E+04  0.12625279670E+04  0.25500000920E-02 0. -1.
       -2   -1    0    0    0  501  0.00000000000E+00  0.00000000000E+00 -0.11319148876E+04  0.11319148876E+04  0.25500000920E-02 0.  1.
    10030    2    1    2    0    0  0.00000000000E+00  0.00000000000E+00  0.13061307938E+03  0.23944428546E+04  0.23908778320E+04 0.  0.
        1    1    3    3  502    0  0.63847578754E+03 -0.30780975915E+03 -0.89876897834E+03  0.11446326291E+04  0.50400001928E-02 0.  1.
       -1    1    3    3    0  502 -0.63847578754E+03  0.30780975915E+03  0.10293820577E+04  0.12498102256E+04  0.50400001928E-02 0. -1.
</event>
<event>
 5   0  0.7391007E-06  0.2309580E+04  0.7818609E-02  0.8474153E-01
        1   -1    0    0  501    0  0.00000000000E+00  0.00000000000E+00  0.10402744722E+04  0.10402744722E+04  0.50400001928E-02 0. -1.
       -1   -1    0    0    0  501  0.00000000000E+00  0.00000000000E+00 -0.12819116374E+04  0.12819116374E+04  0.50400001928E-02 0.  1.
    10030    2    1    2    0    0  0.00000000000E+00  0.00000000000E+00 -0.24163716516E+03  0.23221861096E+04  0.23095800069E+04 0.  0.
        1    1    3    3  502    0 -0.39122531434E+03 -0.10666732869E+04 -0.32856387018E+03  0.11827101776E+04  0.50400001928E-02 0. -1.
       -1    1    3    3    0  502  0.39122531434E+03  0.10666732869E+04  0.86926705021E+02  0.11394759320E+04  0.50400001928E-02 0.  1.
</event>
<event>
 5   0  0.1697855E-05  0.2303047E+04  0.7818609E-02  0.8476721E-01
       -2   -1    0    0    0  501  0.00000000000E+00  0.00000000000E+00  0.97237257380E+03  0.97237257380E+03  0.25500000920E-02 0.  1.
        2   -1    0    0  501    0  0.00000000000E+00  0.00000000000E+00 -0.13636816042E+04  0.13636816042E+04  0.25500000920E-02 0. -1.
    10030    2    1    2    0    0  0.00000000000E+00  0.00000000000E+00 -0.39130903044E+03  0.23360541780E+04  0.23030471913E+04 0.  0.
        5    1    3    3  502    0  0.39049747833E+03 -0.10611832020E+04 -0.41645858857E+03  0.12050136575E+04  0.46999998093E+01 0. -1.
       -5    1    3    3    0  502 -0.39049747833E+03  0.10611832020E+04  0.25149558129E+02  0.11310405205E+04  0.46999998093E+01 0.  1.
</event>
<event>
 5   0  0.1626636E-05  0.2311619E+04  0.7818609E-02  0.8473354E-01
        2   -1    0    0  501    0  0.00000000000E+00  0.00000000000E+00  0.23086460445E+04  0.23086460445E+04  0.25500000920E-02 0.  1.
       -2   -1    0    0    0  501  0.00000000000E+00  0.00000000000E+00 -0.57864906076E+03  0.57864906077E+03  0.25500000920E-02 0. -1.
    10030    2    1    2    0    0  0.00000000000E+00  0.00000000000E+00  0.17299969837E+04  0.28872951053E+04  0.23116192293E+04 0.  0.
        4    1    3    3  502    0 -0.85560581641E+03 -0.76603600831E+03  0.10279570889E+04  0.15412883795E+04  0.12699999809E+01 0.  1.
       -4    1    3    3    0  502  0.85560581641E+03  0.76603600831E+03  0.70203989481E+03  0.13460067258E+04  0.12699999809E+01 0. -1.
</event>
<event>
 5   0  0.1697855E-05  0.2297326E+04  0.7818609E-02  0.8478976E-01
        2   -1    0    0  501    0  0.00000000000E+00  0.00000000000E+00  0.11293929883E+04  0.11293929883E+04  0.25500000920E-02 0. -1.
       -2   -1    0    0    0  501  0.00000000000E+00  0.00000000000E+00 -0.11682613783E+04  0.11682613783E+04  0.25500000920E-02 0.  1.
    10030    2    1    2    0    0  0.00000000000E+00  0.00000000000E+00 -0.38868390017E+02  0.22976543667E+04  0.22973255836E+04 0.  0.
        5    1    3    3  502    0  0.42916535464E+03 -0.86978748843E+03 -0.63490096381E+03  0.11592387591E+04  0.46999998093E+01 0.  1.
       -5    1    3    3    0  502 -0.42916535464E+03  0.86978748843E+03  0.59603257380E+03  0.11384156076E+04  0.46999998093E+01 0. -1.
</event>
<event>
 5   0  0.1697855E-05  0.2181434E+04  0.7818609E-02  0.8526196E-01
        2   -1    0    0  501    0  0.00000000000E+00  0.00000000000E+00  0.72062585333E+03  0.72062585334E+03  0.25500000920E-02 0. -1.
       -2   -1    0    0    0  501  0.00000000000E+00  0.00000000000E+00 -0.16508757514E+04  0.16508757515E+04  0.25500000920E-02 0.  1.
    10030    2    1    2    0    0  0.00000000000E+00  0.00000000000E+00 -0.93024989812E+03  0.23715016048E+04  0.21814341587E+04 0.  0.
        5    1    3    3  502    0 -0.60399958911E+03  0.13581321758E+03 -0.14413533451E+04  0.15686880790E+04  0.46999998093E+01 0.  1.
       -5    1    3    3    0  502  0.60399958911E+03 -0.13581321758E+03  0.51110344698E+03  0.80281352581E+03  0.46999998093E+01 0. -1.
</event>
<event>
 5   0  0.5704875E-06  0.2311550E+04  0.7818609E-02  0.8473381E-01
       -4   -1    0    0    0  501  0.00000000000E+00  0.00000000000E+00  0.15483837227E+04  0.15483842435E+04  0.12699999809E+01 0. -1.
        4   -1    0    0  501    0  0.00000000000E+00  0.00000000000E+00 -0.86271518199E+03  0.86271611677E+03  0.12699999809E+01 0.  1.
    10030    2    1    2    0    0  0.00000000000E+00  0.00000000000E+00  0.68566854069E+03  0.24111003603E+04  0.23115500426E+04 0.  0.
        3    1    3    3  502    0  0.33050297349E+03 -0.47726741045E+03 -0.69960591479E+03  0.90910111801E+03  0.10100000352E+00 0.  1.
       -3    1    3    3    0  502 -0.33050297349E+03  0.47726741045E+03  0.13852744555E+04  0.15019992423E+04  0.10100000352E+00 0. -1.
</event>
<event>
 5   0  0.1588969E-05  0.2296695E+04  0.7818609E-02  0.8479225E-01
        2   -1    0    0  501    0  0.00000000000E+00  0.00000000000E+00  0.10395184516E+04  0.10395184516E+04  0.25500000920E-02 0. -1.
       -2   -1    0    0    0  501  0.00000000000E+00  0.00000000000E+00 -0.12685698612E+04  0.12685698612E+04  0.25500000920E-02 0.  1.
    10030    2    1    2    0    0  0.00000000000E+00  0.00000000000E+00 -0.22905140955E+03  0.23080883128E+04  0.22966948233E+04 0.  0.
        1    1    3    3  502    0 -0.55622874045E+03  0.96263940449E+03 -0.40341784511E+03  0.11827134025E+04  0.50400001928E-02 0. -1.
       -1    1    3    3    0  502  0.55622874045E+03 -0.96263940449E+03  0.17436643556E+03  0.11253749103E+04  0.50400001928E-02 0.  1.
</event>
<event>
 5   0  0.7202572E-06  0.2298861E+04  0.7818609E-02  0.8478370E-01
        1   -1    0    0  501    0  0.00000000000E+00  0.00000000000E+00  0.11323434179E+04  0.11323434179E+04  0.50400001928E-02 0. -1.
       -1   -1    0    0    0  501  0.00000000000E+00  0.00000000000E+00 -0.11667754975E+04  0.11667754975E+04  0.50400001928E-02 0.  1.
    10030    2    1    2    0    0  0.00000000000E+00  0.00000000000E+00 -0.34432079570E+02  0.22991189154E+04  0.22988610700E+04 0.  0.
        2    1    3    3  502    0  0.25276763035E+02 -0.45876441605E+03  0.10365087271E+04  0.11337786581E+04  0.25500000920E-02 0. -1.
       -2    1    3    3    0  502 -0.25276763035E+02  0.45876441605E+03 -0.10709408066E+04  0.11653402574E+04  0.25500000920E-02 0.  1.
</event>
<event>
 5   0  0.1626636E-05  0.2307116E+04  0.7818609E-02  0.8475120E-01
        2   -1    0    0  501    0  0.00000000000E+00  0.00000000000E+00  0.12818062056E+04  0.12818062056E+04  0.25500000920E-02 0.  1.
       -2   -1    0    0    0  501  0.00000000000E+00  0.00000000000E+00 -0.10381417683E+04  0.10381417683E+04  0.25500000920E-02 0. -1.
    10030    2    1    2    0    0  0.00000000000E+00  0.00000000000E+00  0.24366443735E+03  0.23199479739E+04  0.23071164347E+04 0.  0.
        4    1    3    3  502    0 -0.25378558387E+03 -0.60212409568E+03  0.10777689278E+04  0.12603761438E+04  0.12699999809E+01 0.  1.
       -4    1    3    3    0  502  0.25378558387E+03  0.60212409568E+03 -0.83410449047E+03  0.10595718301E+04  0.12699999809E+01 0. -1.
</event>
<event>
 5   0  0.7183014E-06  0.2307002E+04  0.7818609E-02  0.8475166E-01
       -1   -1    0    0    0  501  0.00000000000E+00  0.00000000000E+00  0.78421917933E+03  0.78421917935E+03  0.50400001928E-02 0.  1.
        1   -1    0    0  501    0  0.00000000000E+00  0.00000000000E+00 -0.16966739509E+04  0.16966739509E+04  0.50400001928E-02 0. -1.
    10030    2    1    2    0    0  0.00000000000E+00  0.00000000000E+00 -0.91245477155E+03  0.24808931302E+04  0.23070017368E+04 0.  0.
        3    1    3    3  502    0  0.55440434979E+03  0.22636624693E+03 -0.15164180359E+04  0.16303771130E+04  0.10100000352E+00 0. -1.
       -3    1    3    3    0  502 -0.55440434979E+03 -0.22636624693E+03  0.60396326430E+03  0.85051601728E+03  0.10100000352E+00 0.  1.
</event>
<event>
 5   0  0.1602809E-05  0.2293603E+04  0.7818609E-02  0.8480448E-01
        2   -1    0    0  501    0  0.00000000000E+00  0.00000000000E+00  0.14297296127E+04  0.14297296127E+04  0.25500000920E-02 0.  1.
       -2   -1    0    0    0  501  0.00000000000E+00  0.00000000000E+00 -0.91986182817E+03  0.91986182817E+03  0.25500000920E-02 0. -1.
    10030    2    1    2    0    0  0.00000000000E+00  0.00000000000E+00  0.50986778456E+03  0.23495914409E+04  0.22936030130E+04 0.  0.
        3    1    3    3  502    0  0.73622508393E+03  0.16114523807E+03 -0.63054961896E+03  0.98264337078E+03  0.10100000352E+00 0. -1.
       -3    1    3    3    0  502 -0.73622508393E+03 -0.16114523807E+03  0.11404174035E+04  0.13669480701E+04  0.10100000352E+00 0.  1.
</event>
<event>
 5   0  0.7416556E-06  0.2298296E+04  0.7818609E-02  0.8478593E-01
        1   -1    0    0  501    0  0.00000000000E+00  0.00000000000E+00  0.81814476161E+03  0.81814476162E+03  0.50400001928E-02 0.  1.
       -1   -1    0    0    0  501  0.00000000000E+00  0.00000000000E+00 -0.16140681352E+04  0.16140681352E+04  0.50400001928E-02 0. -1.
    10030    2    1    2    0    0  0.00000000000E+00  0.00000000000E+00 -0.79592337355E+03  0.24322128968E+04  0.22982962295E+04 0.  0.
        4    1    3    3  502    0 -0.52806297244E+03  0.24050304181E+03  0.65172451652E+03  0.87260453489E+03  0.12699999809E+01 0.  1.
       -4    1    3    3    0  502  0.52806297244E+03 -0.24050304181E+03 -0.14476478901E+04  0.15596083619E+04  0.12699999809E+01 0. -1.
</event>
<event>
 5   0  0.1588969E-05  0.2300291E+04  0.7818609E-02  0.8477806E-01
        2   -1    0    0  501    0  0.00000000000E+00  0.00000000000E+00  0.99026355793E+03  0.99026355794E+03  0.25500000920E-02 0. -1.
       -2   -1    0    0    0  501  0.00000000000E+00  0.00000000000E+00 -0.13358415189E+04  0.13358415189E+04  0.25500000920E-02 0.  1.
    10030    2    1    2    0    0  0.00000000000E+00  0.00000000000E+00 -0.34557796096E+03  0.23261050768E+04  0.23002914384E+04 0.  0.
        1    1    3    3  502    0  0.12738548393E+03 -0.29353026557E+03 -0.12899251764E+04  0.13290199543E+04  0.50400001928E-02 0.  1.
       -1    1    3    3    0  502 -0.12738548393E+03  0.29353026557E+03  0.94434721539E+03  0.99708512253E+03  0.50400001928E-02 0. -1.
</event>
<event>
 5   0  0.7278815E-06  0.2297846E+04  0.7818609E-02  0.8478771E-01
       -1   -1    0    0    0  501  0.00000000000E+00  0.00000000000E+00  0.44346140540E+03  0.44346140543E+03  0.50400001928E-02 0. -1.
        1   -1    0    0  501    0  0.00000000000E+00  0.00000000000E+00 -0.29766380000E+04  0.29766380000E+04  0.50400001928E-02 0.  1.
    10030    2    1    2    0    0  0.00000000000E+00  0.00000000000E+00 -0.25331765946E+04  0.34200994054E+04  0.22978460095E+04 0.  0.
        5    1    3    3  502    0  0.95135306938E+03 -0.38528900390E+00 -0.22253370050E+04  0.24201693509E+04  0.46999998093E+01 0.  1.
       -5    1    3    3    0  502 -0.95135306938E+03  0.38528900390E+00 -0.30783958958E+03  0.99993005455E+03  0.46999998093E+01 0. -1.
</event>
<event>
 5   0  0.7416556E-06  0.2336685E+04  0.7818609E-02  0.8463596E-01
       -1   -1    0    0    0  501  0.00000000000E+00  0.00000000000E+00  0.74667859148E+03  0.74667859150E+03  0.50400001928E-02 0. -1.
        1   -1    0    0  501    0  0.00000000000E+00  0.00000000000E+00 -0.18281284082E+04  0.18281284082E+04  0.50400001928E-02 0.  1.
    10030    2    1    2    0    0  0.00000000000E+00  0.00000000000E+00 -0.10814498167E+04  0.25748069997E+04  0.23366851263E+04 0.  0.
        4    1    3    3  502    0 -0.92980557753E+03  0.44358200061E+03 -0.11479933363E+04  0.15424635219E+04  0.12699999809E+01 0.  1.
       -4    1    3    3    0  502  0.92980557753E+03 -0.44358200061E+03  0.66543519595E+02  0.10323434778E+04  0.12699999809E+01 0. -1.
</event>
<event>
 5   0  0.1602809E-05  0.2318177E+04  0.7818609E-02  0.8470788E-01
        2   -1    0    0  501    0  0.00000000000E+00  0.00000000000E+00  0.10243649429E+04  0.10243649429E+04  0.25500000920E-02 0. -1.
       -2   -1    0    0    0  501  0.00000000000E+00  0.00000000000E+00 -0.13115311230E+04  0.13115311230E+04  0.25500000920E-02 0.  1.
    10030    2    1    2    0    0  0.00000000000E+00  0.00000000000E+00 -0.28716618006E+03  0.23358960659E+04  0.23181773046E+04 0.  0.
        3    1    3    3  502    0 -0.64906621357E+02  0.63077170635E+03 -0.11212572099E+04  0.12881395716E+04  0.10100000352E+00 0.  1.
       -3    1    3    3    0  502  0.64906621357E+02 -0.63077170635E+03  0.83409102984E+03  0.10477564943E+04  0.10100000352E+00 0. -1.
</event>
<event>
 5   0  0.7278815E-06  0.2333165E+04  0.7818609E-02  0.8464958E-01
       -1   -1    0    0    0  501  0.00000000000E+00  0.00000000000E+00  0.11594102674E+04  0.11594102674E+04  0.50400001928E-02 0.  1.
        1   -1    0    0  501    0  0.00000000000E+00  0.00000000000E+00 -0.11737990459E+04  0.11737990459E+04  0.50400001928E-02 0. -1.
    10030    2    1    2    0    0  0.00000000000E+00  0.00000000000E+00 -0.14388778555E+02  0.23332093133E+04  0.23331649455E+04 0.  0.
        5    1    3    3  502    0  0.18055729825E+03 -0.81647046689E+01  0.11453139583E+04  0.11594971986E+04  0.46999998093E+01 0.  1.
       -5    1    3    3    0  502 -0.18055729825E+03  0.81647046689E+01 -0.11597027369E+04  0.11737121148E+04  0.46999998093E+01 0. -1.
</event>
<event>
 5   0  0.7183014E-06  0.2261174E+04  0.7818609E-02  0.8493389E-01
       -1   -1    0    0    0  501  0.00000000000E+00  0.00000000000E+00  0.91710107218E+03  0.91710107219E+03  0.50400001928E-02 0. -1.
        1   -1    0    0  501    0  0.00000000000E+00  0.00000000000E+00 -0.13937683327E+04  0.13937683328E+04  0.50400001928E-02 0.  1.
    10030    2    1    2    0    0  0.00000000000E+00  0.00000000000E+00 -0.47666726057E+03  0.23108694050E+04  0.22611735293E+04 0.  0.
        3    1    3    3  502    0  0.69230839027E+03 -0.56561355824E+03 -0.94565518139E+03  0.13013352131E+04  0.10100000352E+00 0.  1.
       -3    1    3    3    0  502 -0.69230839027E+03  0.56561355824E+03  0.46898792082E+03  0.10095341919E+04  0.10100000352E+00 0. -1.
</event>
<event>
 5   0  0.7202572E-06  0.2318930E+04  0.7818609E-02  0.8470495E-01
       -1   -1    0    0    0  501  0.00000000000E+00  0.00000000000E+00  0.59746721707E+03  0.59746721709E+03  0.50400001928E-02 0.  1.
        1   -1    0    0  501    0  0.00000000000E+00  0.00000000000E+00 -0.22500964827E+04  0.22500964827E+04  0.50400001928E-02 0. -1.
    10030    2    1    2    0    0  0.00000000000E+00  0.00000000000E+00 -0.16526292656E+04  0.28475636998E+04  0.23189298253E+04 0.  0.
        2    1    3    3  502    0 -0.87879533597E+03 -0.39378895729E+02 -0.17538359958E+04  0.19620837496E+04  0.25500000920E-02 0. -1.
       -2    1    3    3    0  502  0.87879533597E+03  0.39378895729E+02  0.10120673025E+03  0.88547995020E+03  0.25500000920E-02 0.  1.
</event>
<event>
 5   0  0.1635955E-05  0.2295780E+04  0.7818609E-02  0.8479587E-01
       -2   -1    0    0    0  501  0.00000000000E+00  0.00000000000E+00  0.91580936466E+03  0.91580936466E+03  0.25500000920E-02 0.  1.
        2   -1    0    0  501    0  0.00000000000E+00  0.00000000000E+00 -0.14387841444E+04  0.14387841444E+04  0.25500000920E-02 0. -1.
    10030    2    1    2    0    0  0.00000000000E+00  0.00000000000E+00 -0.52297477976E+03  0.23545935091E+04  0.22957804714E+04 0.  0.
        2    1    3    3  502    0  0.34033145013E+03  0.10941007987E+04 -0.19065334824E+03  0.11615639254E+04  0.25500000920E-02 0. -1.
       -2    1    3    3    0  502 -0.34033145013E+03 -0.10941007987E+04 -0.33232143152E+03  0.11930295837E+04  0.25500000920E-02 0.  1.
</event>
<event>
 5   0  0.7202572E-06  0.2295072E+04  0.7818609E-02  0.8479867E-01
       -1   -1    0    0    0  501  0.00000000000E+00  0.00000000000E+00  0.12928210949E+04  0.12928210949E+04  0.50400001928E-02 0. -1.
        1   -1    0    0  501    0  0.00000000000E+00  0.00000000000E+00 -0.10185778206E+04  0.10185778206E+04  0.50400001928E-02 0.  1.
    10030    2    1    2    0    0  0.00000000000E+00  0.00000000000E+00  0.27424327434E+03  0.23113989155E+04  0.22950720191E+04 0.  0.
        2    1    3    3  502    0  0.96605991278E+03  0.48503819058E+03 -0.25072195272E+03  0.11096825217E+04  0.25500000920E-02 0. -1.
       -2    1    3    3    0  502 -0.96605991278E+03 -0.48503819058E+03  0.52496522706E+03  0.12017163938E+04  0.25500000920E-02 0.  1.
</event>
<event>
 5   0  0.7202572E-06  0.2329115E+04  0.7818609E-02  0.8466529E-01
       -1   -1    0    0    0  501  0.00000000000E+00  0.00000000000E+00  0.17535273459E+04  0.17535273459E+04  0.50400001928E-02 0.  1.
        1   -1    0    0  501    0  0.00000000000E+00  0.00000000000E+00 -0.77340947278E+03  0.77340947280E+03  0.50400001928E-02 0. -1.
    10030    2    1    2    0    0  0.00000000000E+00  0.00000000000E+00  0.98011787314E+03  0.25269368187E+04  0.23291154202E+04 0.  0.
        2    1    3    3  502    0  0.31260642045E+03  0.93979597982E+03  0.11546689025E+04  0.15212493327E+04  0.25500000920E-02 0.  1.
       -2    1    3    3    0  502 -0.31260642045E+03 -0.93979597982E+03 -0.17455102932E+03  0.10056874861E+04  0.25500000920E-02 0. -1.
</event>
<event>
 5   0  0.7183014E-06  0.2303411E+04  0.7818609E-02  0.8476577E-01
       -1   -1    0    0    0  501  0.00000000000E+00  0.00000000000E+00  0.53696421668E+03  0.53696421670E+03  0.50400001928E-02 0. -1.
        1   -1    0    0  501    0  0.00000000000E+00  0.00000000000E+00 -0.24702305593E+04  0.24702305593E+04  0.50400001928E-02 0.  1.
    10030    2    1    2    0    0  0.00000000000E+00  0.00000000000E+00 -0.19332663426E+04  0.30071947760E+04  0.23034108772E+04 0.  0.
        3    1    3    3  502    0 -0.58582913912E+03  0.96955711937E+03 -0.69531754693E+03  0.13291739123E+04  0.10100000352E+00 0. -1.
       -3    1    3    3    0  502  0.58582913912E+03 -0.96955711937E+03 -0.12379487957E+04  0.16780208637E+04  0.10100000352E+00 0.  1.
</event>
<event>
 5   0  0.1588969E-05  0.2327877E+04  0.7818609E-02  0.8467010E-01
       -2   -1    0    0    0  501  0.00000000000E+00  0.00000000000E+00  0.91589543939E+03  0.91589543939E+03  0.25500000920E-02 0. -1.
        2   -1    0    0  501    0  0.00000000000E+00  0.00000000000E+00 -0.14791563669E+04  0.14791563669E+04  0.25500000920E-02 0.  1.
    10030    2    1    2    0    0  0.00000000000E+00  0.00000000000E+00 -0.56326092748E+03  0.23950518063E+04  0.23278767756E+04 0.  0.
        1    1    3    3  502    0 -0.41651542650E+03 -0.10729754441E+04 -0.45980744761E+03  0.12394290189E+04  0.50400001928E-02 0.  1.
       -1    1    3    3    0  502  0.41651542650E+03  0.10729754441E+04 -0.10345347986E+03  0.11556227873E+04  0.50400001928E-02 0. -1.
</event>
<event>
 5   0  0.1626636E-05  0.2216654E+04  0.7818609E-02  0.8511528E-01
       -2   -1    0    0    0  501  0.00000000000E+00  0.00000000000E+00  0.12301743423E+04  0.12301743423E+04  0.25500000920E-02 0.  1.
        2   -1    0    0  501    0  0.00000000000E+00  0.00000000000E+00 -0.99854883967E+03  0.99854883968E+03  0.25500000920E-02 0. -1.
    10030    2    1    2    0    0  0.00000000000E+00  0.00000000000E+00  0.23162550261E+03  0.22287231820E+04  0.22166543818E+04 0.  0.
        4    1    3    3  502    0  0.34421156044E+03  0.51009363752E+03  0.10426289629E+04  0.12106832305E+04  0.12699999809E+01 0.  1.
       -4    1    3    3    0  502 -0.34421156044E+03 -0.51009363752E+03 -0.81100346028E+03  0.10180399515E+04  0.12699999809E+01 0. -1.
</event>
<event>
 5   0  0.7391007E-06  0.2312292E+04  0.7818609E-02  0.8473090E-01
       -1   -1    0    0    0  501  0.00000000000E+00  0.00000000000E+00  0.11048049816E+04  0.11048049816E+04  0.50400001928E-02 0. -1.
        1   -1    0    0  501    0  0.00000000000E+00  0.00000000000E+00 -0.12098724211E+04  0.12098724211E+04  0.50400001928E-02 0.  1.
    10030    2    1    2    0    0  0.00000000000E+00  0.00000000000E+00 -0.10506743958E+03  0.23146774027E+04  0.23122915715E+04 0.  0.
        1    1    3    3  502    0 -0.51916816113E+03 -0.73484685177E+03 -0.77932527807E+03  0.11903290991E+04  0.50400001928E-02 0.  1.
       -1    1    3    3    0  502  0.51916816113E+03  0.73484685177E+03  0.67425783849E+03  0.11243483036E+04  0.50400001928E-02 0. -1.
</event>
<event>
 5   0  0.1588969E-05  0.2311555E+04  0.7818609E-02  0.8473379E-01
        2   -1    0    0  501    0  0.00000000000E+00  0.00000000000E+00  0.25048216064E+04  0.25048216064E+04  0.25500000920E-02 0.  1.
       -2   -1    0    0    0  501  0.00000000000E+00  0.00000000000E+00 -0.53330012723E+03  0.53330012724E+03  0.25500000920E-02 0. -1.
    10030    2    1    2    0    0  0.00000000000E+00  0.00000000000E+00  0.19715214791E+04  0.30381217336E+04  0.23115550449E+04 0.  0.
        1    1    3    3  502    0  0.41477868531E+03  0.52801361300E+03  0.22221867646E+04  0.23214120164E+04  0.50400001928E-02 0.  1.
       -1    1    3    3    0  502 -0.41477868531E+03 -0.52801361300E+03 -0.25066528547E+03  0.71670971716E+03  0.50400001928E-02 0. -1.
</event>
<event>
 5   0  0.1626636E-05  0.2298936E+04  0.7818609E-02  0.8478341E-01
       -2   -1    0    0    0  501  0.00000000000E+00  0.00000000000E+00  0.95689653701E+03  0.95689653701E+03  0.25500000920E-02 0. -1.
        2   -1    0    0  501    0  0.00000000000E+00  0.00000000000E+00 -0.13807934413E+04  0.13807934413E+04  0.25500000920E-02 0.  1.
    10030    2    1    2    0    0  0.00000000000E+00  0.00000000000E+00 -0.42389690426E+03  0.23376899783E+04  0.22989358080E+04 0.  0.
        4    1    3    3  502    0  0.40055722803E+01 -0.21963682451E+03  0.93535268118E+03  0.96080311738E+03  0.12699999809E+01 0. -1.
       -4    1    3    3    0  502 -0.40055722803E+01  0.21963682451E+03 -0.13592495854E+04  0.13768868609E+04  0.12699999809E+01 0.  1.
</event>
<event>
 5   0  0.1697855E-05  0.2304639E+04  0.7818609E-02  0.8476094E-01
       -2   -1    0    0    0  501  0.00000000000E+00  0.00000000000E+00  0.15069501953E+04  0.15069501953E+04  0.25500000920E-02 0. -1.
        2   -1    0    0  501    0  0.00000000000E+00  0.00000000000E+00 -0.88114444391E+03  0.88114444392E+03  0.25500000920E-02 0.  1.
    10030    2    1    2    0    0  0.00000000000E+00  0.00000000000E+00  0.62580575139E+03  0.23880946392E+04  0.23046394875E+04 0.  0.
        5    1    3    3  502    0  0.15954363508E+03  0.12129448866E+03 -0.86293600931E+03  0.88591600653E+03  0.46999998093E+01 0.  1.
       -5    1    3    3    0  502 -0.15954363508E+03 -0.12129448866E+03  0.14887417607E+04  0.15021786327E+04  0.46999998093E+01 0. -1.
</event>
<event>
 5   0  0.1588969E-05  0.2339241E+04  0.7818609E-02  0.8462608E-01
        2   -1    0    0  501    0  0.00000000000E+00  0.00000000000E+00  0.21571272974E+04  0.21571272974E+04  0.25500000920E-02 0.  1.
       -2   -1    0    0    0  501  0.00000000000E+00  0.00000000000E+00 -0.63418226445E+03  0.63418226445E+03  0.25500000920E-02 0. -1.
    10030    2    1    2    0    0  0.00000000000E+00  0.00000000000E+00  0.15229450329E+04  0.27913095618E+04  0.23392407949E+04 0.  0.
        1    1    3    3  502    0 -0.49262753425E+03  0.11562189511E+03  0.20197544527E+04  0.20821763517E+04  0.50400001928E-02 0.  1.
       -1    1    3    3    0  502  0.49262753425E+03 -0.11562189511E+03 -0.49680941980E+03  0.70913321016E+03  0.50400001928E-02 0. -1.
</event>
<event>
 5   0  0.1697855E-05  0.2297099E+04  0.7818609E-02  0.8479066E-01
        2   -1    0    0  501    0  0.00000000000E+00  0.00000000000E+00  0.13362587079E+04  0.13362587079E+04  0.25500000920E-02 0. -1.
       -2   -1    0    0    0  501  0.00000000000E+00  0.00000000000E+00 -0.98720835575E+03  0.98720835575E+03  0.25500000920E-02 0.  1.
    10030    2    1    2    0    0  0.00000000000E+00  0.00000000000E+00  0.34905035217E+03  0.23234670637E+04  0.22970988328E+04 0.  0.
        5    1    3    3  502    0  0.99717399454E+03 -0.38218447735E+03 -0.25308371257E+03  0.10974946039E+04  0.46999998093E+01 0.  1.
       -5    1    3    3    0  502 -0.99717399454E+03  0.38218447735E+03  0.60213406473E+03  0.12259724597E+04  0.46999998093E+01 0. -1.
</event>
<event>
 5   0  0.1588969E-05  0.2379580E+04  0.7818609E-02  0.8447188E-01
        2   -1    0    0  501    0  0.00000000000E+00  0.00000000000E+00  0.15350938865E+04  0.15350938865E+04  0.25500000920E-02 0. -1.
       -2   -1    0    0    0  501  0.00000000000E+00  0.00000000000E+00 -0.92215845491E+03  0.92215845491E+03  0.25500000920E-02 0.  1.
    10030    2    1    2    0    0  0.00000000000E+00  0.00000000000E+00  0.61293543157E+03  0.24572523414E+04  0.23795796322E+04 0.  0.
        1    1    3    3  502    0 -0.23069109866E+03  0.11243943793E+04 -0.16995883296E+02  0.11479416202E+04  0.50400001928E-02 0.  1.
       -1    1    3    3    0  502  0.23069109866E+03 -0.11243943793E+04  0.62993131487E+03  0.13093107212E+04  0.50400001928E-02 0. -1.
</event>
<event>
 5   0  0.7416556E-06  0.2293446E+04  0.7818609E-02  0.8480510E-01
        1   -1    0    0  501    0  0.00000000000E+00  0.00000000000E+00  0.10823186291E+04  0.10823186291E+04  0.50400001928E-02 0.  1.
       -1   -1    0    0    0  501  0.00000000000E+00  0.00000000000E+00 -0.12149599214E+04  0.12149599214E+04  0.50400001928E-02 0. -1.
    10030    2    1    2    0    0  0.00000000000E+00  0.00000000000E+00 -0.13264129233E+03  0.22972785505E+04  0.22934461028E+04 0.  0.
        4    1    3    3  502    0 -0.32074714163E+03  0.78630476408E+03  0.70556307756E+03  0.11040719090E+04  0.12699999809E+01 0. -1.
       -4    1    3    3    0  502  0.32074714163E+03 -0.78630476408E+03 -0.83820436989E+03  0.11932066416E+04  0.12699999809E+01 0.  1.
</event>
<event>
 5   0  0.7183014E-06  0.2320302E+04  0.7818609E-02  0.8469959E-01
       -1   -1    0    0    0  501  0.00000000000E+00  0.00000000000E+00  0.89944569225E+03  0.89944569227E+03  0.50400001928E-02 0.  1.
        1   -1    0    0  501    0  0.00000000000E+00  0.00000000000E+00 -0.14964220661E+04  0.14964220661E+04  0.50400001928E-02 0. -1.
    10030    2    1    2    0    0  0.00000000000E+00  0.00000000000E+00 -0.59697637380E+03  0.23958677583E+04  0.23203020330E+04 0.  0.
        3    1    3    3  502    0  0.79089311082E+03 -0.84602597693E+03 -0.36911536440E+03  0.12155319942E+04  0.10100000352E+00 0. -1.
       -3    1    3    3    0  502 -0.79089311082E+03  0.84602597693E+03 -0.22786100940E+03  0.11803357642E+04  0.10100000352E+00 0.  1.
</event>
<event>
 5   0  0.1588969E-05  0.2142498E+04  0.7818609E-02  0.8542750E-01
       -2   -1    0    0    0  501  0.00000000000E+00  0.00000000000E+00  0.73413993399E+03  0.73413993400E+03  0.25500000920E-02 0. -1.
        2   -1    0    0  501    0  0.00000000000E+00  0.00000000000E+00 -0.15631554860E+04  0.15631554860E+04  0.25500000920E-02 0.  1.
    10030    2    1    2    0    0  0.00000000000E+00  0.00000000000E+00 -0.82901555201E+03  0.22972954200E+04  0.21424984157E+04 0.  0.
        1    1    3    3  502    0 -0.10696435762E+04 -0.52853557917E+02 -0.38729738518E+03  0.11388284081E+04  0.50400001928E-02 0. -1.
       -1    1    3    3    0  502  0.10696435762E+04  0.52853557917E+02 -0.44171816683E+03  0.11584670119E+04  0.50400001928E-02 0.  1.
</event>
<event>
 5   0  0.7202572E-06  0.2305485E+04  0.7818609E-02  0.8475762E-01
       -1   -1    0    0    0  501  0.00000000000E+00  0.00000000000E+00  0.16924937621E+04  0.16924937621E+04  0.50400001928E-02 0. -1.
        1   -1    0    0  501    0  0.00000000000E+00  0.00000000000E+00 -0.78512279840E+03  0.78512279842E+03  0.50400001928E-02 0.  1.
    10030    2    1    2    0    0  0.00000000000E+00  0.00000000000E+00  0.90737096367E+03  0.24776165605E+04  0.23054851453E+04 0.  0.
        2    1    3    3  502    0 -0.65113221345E+03  0.94805665249E+03  0.37022872565E+03  0.12082441330E+04  0.25500000920E-02 0.  1.
       -2    1    3    3    0  502  0.65113221345E+03 -0.94805665249E+03  0.53714223802E+03  0.12693724275E+04  0.25500000920E-02 0. -1.
</event>
<event>
 5   0  0.1635955E-05  0.2293083E+04  0.7818609E-02  0.8480653E-01
        2   -1    0    0  501    0  0.00000000000E+00  0.00000000000E+00  0.24820874506E+04  0.24820874506E+04  0.25500000920E-02 0.  1.
       -2   -1    0    0    0  501  0.00000000000E+00  0.00000000000E+00 -0.52961778609E+03  0.52961778610E+03  0.25500000920E-02 0. -1.
    10030    2    1    2    0    0  0.00000000000E+00  0.00000000000E+00  0.19524696646E+04  0.30117052367E+04  0.22930832174E+04 0.  0.
        2    1    3    3  502    0 -0.11395724323E+04  0.12483148702E+03  0.10007860970E+04  0.15217690497E+04  0.25500000920E-02 0.  1.
       -2    1    3    3    0  502  0.11395724323E+04 -0.12483148702E+03  0.95168356753E+03  0.14899361870E+04  0.25500000920E-02 0. -1.
</event>
<event>
 5   0  0.7416556E-06  0.2281126E+04  0.7818609E-02  0.8485400E-01
        1   -1    0    0  501    0  0.00000000000E+00  0.00000000000E+00  0.13258808057E+04  0.13258808057E+04  0.50400001928E-02 0.  1.
       -1   -1    0    0    0  501  0.00000000000E+00  0.00000000000E+00 -0.98114695516E+03  0.98114695517E+03  0.50400001928E-02 0. -1.
    10030    2    1    2    0    0  0.00000000000E+00  0.00000000000E+00  0.34473385051E+03  0.23070277608E+04  0.22811259636E+04 0.  0.
        4    1    3    3  502    0  0.47147060850E+03 -0.16013631299E+03 -0.86542020070E+03  0.99843973784E+03  0.12699999809E+01 0. -1.
       -4    1    3    3    0  502 -0.47147060850E+03  0.16013631299E+03  0.12101540512E+04  0.13085880230E+04  0.12699999809E+01 0.  1.
</event>
<event>
 5   0  0.1697855E-05  0.2301767E+04  0.7818609E-02  0.8477225E-01
       -2   -1    0    0    0  501  0.00000000000E+00  0.00000000000E+00  0.13457948287E+04  0.13457948288E+04  0.25500000920E-02 0. -1.
        2   -1    0    0  501    0  0.00000000000E+00  0.00000000000E+00 -0.98420078216E+03  0.98420078216E+03  0.25500000920E-02 0.  1.
    10030    2    1    2    0    0  0.00000000000E+00  0.00000000000E+00  0.36159404659E+03  0.23299956109E+04  0.23017665590E+04 0.  0.
        5    1    3    3  502    0 -0.71380526795E+03 -0.22537171722E+03  0.10657033581E+04  0.13023271897E+04  0.46999998093E+01 0. -1.
       -5    1    3    3    0  502  0.71380526795E+03  0.22537171722E+03 -0.70410931151E+03  0.10276684212E+04  0.46999998093E+01 0.  1.
</event>
<event>
 5   0  0.7416556E-06  0.2279690E+04  0.7818609E-02  0.8485972E-01
        1   -1    0    0  501    0  0.00000000000E+00  0.00000000000E+00  0.11622914632E+04  0.11622914632E+04  0.50400001928E-02 0.  1.
       -1   -1    0    0    0  501  0.00000000000E+00  0.00000000000E+00 -0.11178317955E+04  0.11178317955E+04  0.50400001928E-02 0. -1.
    10030    2    1    2    0    0  0.00000000000E+00  0.00000000000E+00  0.44459667731E+02  0.22801232587E+04  0.22796897624E+04 0.  0.
        4    1    3    3  502    0  0.19637323888E+03  0.52332985509E+02 -0.10995642676E+04  0.11181879903E+04  0.12699999809E+01 0. -1.
       -4    1    3    3    0  502 -0.19637323888E+03 -0.52332985509E+02  0.11440239353E+04  0.11619352683E+04  0.12699999809E+01 0.  1.
</event>
<event>
 5   0  0.1588969E-05  0.2296201E+04  0.7818609E-02  0.8479420E-01
        2   -1    0    0  501    0  0.00000000000E+00  0.00000000000E+00  0.15545561390E+04  0.15545561390E+04  0.25500000920E-02 0. -1.
       -2   -1    0    0    0  501  0.00000000000E+00  0.00000000000E+00 -0.84791727333E+03  0.84791727334E+03  0.25500000920E-02 0.  1.
    10030    2    1    2    0    0  0.00000000000E+00  0.00000000000E+00  0.70663886570E+03  0.24024734124E+04  0.22962012130E+04 0.  0.
        1    1    3    3  502    0 -0.68936521068E+03  0.85600179807E+03  0.70060228510E+03  0.13033829191E+04  0.50400001928E-02 0.  1.
       -1    1    3    3    0  502  0.68936521068E+03 -0.85600179807E+03  0.60365805974E+01  0.10990904932E+04  0.50400001928E-02 0. -1.
</event>
<event>
 5   0  0.7202572E-06  0.2287135E+04  0.7818609E-02  0.8483011E-01
        1   -1    0    0  501    0  0.00000000000E+00  0.00000000000E+00  0.12367789953E+04  0.12367789953E+04  0.50400001928E-02 0. -1.
       -1   -1    0    0    0  501  0.00000000000E+00  0.00000000000E+00 -0.10573809692E+04  0.10573809692E+04  0.50400001928E-02 0.  1.
    10030    2    1    2    0    0  0.00000000000E+00  0.00000000000E+00  0.17939802609E+03  0.22941599645E+04  0.22871349525E+04 0.  0.
        2    1    3    3  502    0  0.65157156006E+03  0.91954333438E+03  0.28430815513E+03  0.11622979690E+04  0.25500000920E-02 0.  1.
       -2    1    3    3    0  502 -0.65157156006E+03 -0.91954333438E+03 -0.10491012903E+03  0.11318619955E+04  0.25500000920E-02 0. -1.
</event>
<event>
 5   0  0.7202572E-06  0.2298774E+04  0.7818609E-02  0.8478405E-01
        1   -1    0    0  501    0  0.00000000000E+00  0.00000000000E+00  0.13037814371E+04  0.13037814371E+04  0.50400001928E-02 0. -1.
       -1   -1    0    0    0  501  0.00000000000E+00  0.00000000000E+00 -0.10132759441E+04  0.10132759441E+04  0.50400001928E-02 0.  1.
    10030    2    1    2    0    0  0.00000000000E+00  0.00000000000E+00  0.29050549297E+03  0.23170573812E+04  0.22987739051E+04 0.  0.
        2    1    3    3  502    0 -0.47493892407E+03 -0.80814262403E+03  0.81569637335E+03  0.12425868404E+04  0.25500000920E-02 0. -1.
       -2    1    3    3    0  502  0.47493892407E+03  0.80814262403E+03 -0.52519088038E+03  0.10744705409E+04  0.25500000920E-02 0.  1.
</event>
<event>
 5   0  0.7183014E-06  0.2278276E+04  0.7818609E-02  0.8486536E-01
        1   -1    0    0  501    0  0.00000000000E+00  0.00000000000E+00  0.91567253271E+03  0.91567253272E+03  0.50400001928E-02 0. -1.
       -1   -1    0    0    0  501  0.00000000000E+00  0.00000000000E+00 -0.14171396190E+04  0.14171396190E+04  0.50400001928E-02 0.  1.
    10030    2    1    2    0    0  0.00000000000E+00  0.00000000000E+00 -0.50146708628E+03  0.23328121517E+04  0.22782763872E+04 0.  0.
        3    1    3    3  502    0 -0.89348279128E+03  0.70204523097E+03 -0.16845580579E+03  0.11487194494E+04  0.10100000352E+00 0. -1.
       -3    1    3    3    0  502  0.89348279128E+03 -0.70204523097E+03 -0.33301128049E+03  0.11840927024E+04  0.10100000352E+00 0.  1.
</event>
<event>
 5   0  0.7278815E-06  0.2352067E+04  0.7818609E-02  0.8457670E-01
       -1   -1    0    0    0  501  0.00000000000E+00  0.00000000000E+00  0.12565962867E+04  0.12565962867E+04  0.50400001928E-02 0. -1.
        1   -1    0    0  501    0  0.00000000000E+00  0.00000000000E+00 -0.11006361078E+04  0.11006361078E+04  0.50400001928E-02 0.  1.
    10030    2    1    2    0    0  0.00000000000E+00  0.00000000000E+00  0.15596017894E+03  0.23572323945E+04  0.23520673852E+04 0.  0.
        5    1    3    3  502    0 -0.58863987720E+03 -0.94390572609E+03  0.46036510064E+03  0.12039157116E+04  0.46999998093E+01 0. -1.
       -5    1    3    3    0  502  0.58863987720E+03  0.94390572609E+03 -0.30440492170E+03  0.11533166829E+04  0.46999998093E+01 0.  1.
</event>
<event>
 5   0  0.7416556E-06  0.2290321E+04  0.7818609E-02  0.8481747E-01
        1   -1    0    0  501    0  0.00000000000E+00  0.00000000000E+00  0.10460665028E+04  0.10460665028E+04  0.50400001928E-02 0.  1.
       -1   -1    0    0    0  501  0.00000000000E+00  0.00000000000E+00 -0.12536419324E+04  0.12536419324E+04  0.50400001928E-02 0. -1.
    10030    2    1    2    0    0  0.00000000000E+00  0.00000000000E+00 -0.20757542959E+03  0.22997084352E+04  0.22903212281E+04 0.  0.
        4    1    3    3  502    0 -0.10082533443E+04  0.54149597793E+03 -0.63642364911E+02  0.11462306329E+04  0.12699999809E+01 0. -1.
       -4    1    3    3    0  502  0.10082533443E+04 -0.54149597793E+03 -0.14393306468E+03  0.11534778023E+04  0.12699999809E+01 0.  1.
</event>
<event>
 5   0  0.1626636E-05  0.2287615E+04  0.7818609E-02  0.8482820E-01
        2   -1    0    0  501    0  0.00000000000E+00  0.00000000000E+00  0.18323335484E+04  0.18323335484E+04  0.25500000920E-02 0. -1.
       -2   -1    0    0    0  501  0.00000000000E+00  0.00000000000E+00 -0.71400543147E+03  0.71400543147E+03  0.25500000920E-02 0.  1.
    10030    2    1    2    0    0  0.00000000000E+00  0.00000000000E+00  0.11183281169E+04  0.25463389799E+04  0.22876154448E+04 0.  0.
        4    1    3    3  502    0  0.91110196770E+03  0.63300494998E+03  0.86902214889E+03  0.14092562472E+04  0.12699999809E+01 0. -1.
       -4    1    3    3    0  502 -0.91110196770E+03 -0.63300494998E+03  0.24930596805E+03  0.11370827326E+04  0.12699999809E+01 0.  1.
</event>
<event>
 5   0  0.1588969E-05  0.2319950E+04  0.7818609E-02  0.8470096E-01
        2   -1    0    0  501    0  0.00000000000E+00  0.00000000000E+00  0.12396894116E+04  0.12396894116E+04  0.25500000920E-02 0. -1.
       -2   -1    0    0    0  501  0.00000000000E+00  0.00000000000E+00 -0.10853862388E+04  0.10853862388E+04  0.25500000920E-02 0.  1.
    10030    2    1    2    0    0  0.00000000000E+00  0.00000000000E+00  0.15430317279E+03  0.23250756505E+04  0.23199498510E+04 0.  0.
        1    1    3    3  502    0  0.79435607813E+03  0.82336591939E+03  0.26890862194E+03  0.11752637419E+04  0.50400001928E-02 0. -1.
       -1    1    3    3    0  502 -0.79435607813E+03 -0.82336591939E+03 -0.11460544915E+03  0.11498119086E+04  0.50400001928E-02 0.  1.
</event>
<event>
 5   0  0.1697855E-05  0.2305602E+04  0.7818609E-02  0.8475716E-01
        2   -1    0    0  501    0  0.00000000000E+00  0.00000000000E+00  0.10315774923E+04  0.10315774923E+04  0.25500000920E-02 0. -1.
       -2   -1    0    0    0  501  0.00000000000E+00  0.00000000000E+00 -0.12882698868E+04  0.12882698868E+04  0.25500000920E-02 0.  1.
    10030    2    1    2    0    0  0.00000000000E+00  0.00000000000E+00 -0.25669239449E+03  0.23198473791E+04  0.23056020639E+04 0.  0.
        5    1    3    3  502    0 -0.61667286099E+03  0.92924582873E+03  0.16525267673E+03  0.11274368119E+04  0.46999998093E+01 0. -1.
       -5    1    3    3    0  502  0.61667286099E+03 -0.92924582873E+03 -0.42194507122E+03  0.11924105672E+04  0.46999998093E+01 0.  1.
</event>
<event>
 5   0  0.1635955E-05  0.2294779E+04  0.7818609E-02  0.8479982E-01
        2   -1    0    0  501    0  0.00000000000E+00  0.00000000000E+00  0.19005036088E+04  0.19005036088E+04  0.25500000920E-02 0.  1.
       -2   -1    0    0    0  501  0.00000000000E+00  0.00000000000E+00 -0.69271262570E+03  0.69271262570E+03  0.25500000920E-02 0. -1.
    10030    2    1    2    0    0  0.00000000000E+00  0.00000000000E+00  0.12077909831E+04  0.25932162345E+04  0.22947791571E+04 0.  0.
        2    1    3    3  502    0  0.20460503870E+03 -0.85071114592E+03  0.14426717182E+04  0.16872683136E+04  0.25500000920E-02 0.  1.
       -2    1    3    3    0  502 -0.20460503870E+03  0.85071114592E+03 -0.23488073508E+03  0.90594792090E+03  0.25500000920E-02 0. -1.
</event>
<event>
 5   0  0.7202572E-06  0.2312035E+04  0.7818609E-02  0.8473191E-01
        1   -1    0    0  501    0  0.00000000000E+00  0.00000000000E+00  0.13462403068E+04  0.13462403068E+04  0.50400001928E-02 0.  1.
       -1   -1    0    0    0  501  0.00000000000E+00  0.00000000000E+00 -0.99267333503E+03  0.99267333505E+03  0.50400001928E-02 0. -1.
    10030    2    1    2    0    0  0.00000000000E+00  0.00000000000E+00  0.35356697173E+03  0.23389136418E+04  0.23120353415E+04 0.  0.
        2    1    3    3  502    0 -0.37917728326E+03 -0.82190126930E+02 -0.92484182692E+03  0.10029272326E+04  0.25500000920E-02 0. -1.
       -2    1    3    3    0  502  0.37917728326E+03  0.82190126930E+02  0.12784087986E+04  0.13359864092E+04  0.25500000920E-02 0.  1.
</event>
<event>
 5   0  0.7391007E-06  0.2325005E+04  0.7818609E-02  0.8468127E-01
       -1   -1    0    0    0  501  0.00000000000E+00  0.00000000000E+00  0.54933616511E+03  0.54933616513E+03  0.50400001928E-02 0.  1.
        1   -1    0    0  501    0  0.00000000000E+00  0.00000000000E+00 -0.24600825048E+04  0.24600825048E+04  0.50400001928E-02 0. -1.
    10030    2    1    2    0    0  0.00000000000E+00  0.00000000000E+00 -0.19107463397E+04  0.30094186700E+04  0.23250051949E+04 0.  0.
        1    1    3    3  502    0  0.81551193432E+02 -0.18948471416E+03 -0.24362018680E+04  0.24449201614E+04  0.50400001928E-02 0. -1.
       -1    1    3    3    0  502 -0.81551193432E+02  0.18948471416E+03  0.52545552822E+03  0.56449850860E+03  0.50400001928E-02 0.  1.
</event>
<event>
 5   0  0.1697855E-05  0.2297617E+04  0.7818609E-02  0.8478861E-01
        2   -1    0    0  501    0  0.00000000000E+00  0.00000000000E+00  0.15074775261E+04  0.15074775261E+04  0.25500000920E-02 0. -1.
       -2   -1    0    0    0  501  0.00000000000E+00  0.00000000000E+00 -0.87547642823E+03  0.87547642824E+03  0.25500000920E-02 0.  1.
    10030    2    1    2    0    0  0.00000000000E+00  0.00000000000E+00  0.63200109788E+03  0.23829539544E+04  0.22976170614E+04 0.  0.
        5    1    3    3  502    0  0.56544924538E+03  0.93573301442E+03  0.68181878043E+03  0.12884983751E+04  0.46999998093E+01 0. -1.
       -5    1    3    3    0  502 -0.56544924538E+03 -0.93573301442E+03 -0.49817682551E+02  0.10944555792E+04  0.46999998093E+01 0.  1.
</event>
<event>
 5   0  0.1588969E-05  0.2292484E+04  0.7818609E-02  0.8480891E-01
        2   -1    0    0  501    0  0.00000000000E+00  0.00000000000E+00  0.20176967444E+04  0.20176967444E+04  0.25500000920E-02 0.  1.
       -2   -1    0    0    0  501  0.00000000000E+00  0.00000000000E+00 -0.65117340905E+03  0.65117340906E+03  0.25500000920E-02 0. -1.
    10030    2    1    2    0    0  0.00000000000E+00  0.00000000000E+00  0.13665233353E+04  0.26688701534E+04  0.22924837775E+04 0.  0.
        1    1    3    3  502    0 -0.13661976180E+02 -0.82234423822E+03  0.16127387976E+04  0.18103488959E+04  0.50400001928E-02 0.  1.
       -1    1    3    3    0  502  0.13661976180E+02  0.82234423822E+03 -0.24621546225E+03  0.85852125751E+03  0.50400001928E-02 0. -1.
</event>
<event>
 5   0  0.7278815E-06  0.2297204E+04  0.7818609E-02  0.8479024E-01
       -1   -1    0    0    0  501  0.00000000000E+00  0.00000000000E+00  0.87407107756E+03  0.87407107757E+03  0.50400001928E-02 0. -1.
        1   -1    0    0  501    0  0.00000000000E+00  0.00000000000E+00 -0.15093589804E+04  0.15093589804E+04  0.50400001928E-02 0.  1.
    10030    2    1    2    0    0  0.00000000000E+00  0.00000000000E+00 -0.63528790280E+03  0.23834300579E+04  0.22972044144E+04 0.  0.
        5    1    3    3  502    0 -0.11207914833E+04  0.65880087802E+02 -0.66159487655E+02  0.11246834679E+04  0.46999998093E+01 0. -1.
       -5    1    3    3    0  502  0.11207914833E+04 -0.65880087802E+02 -0.56912841515E+03  0.12587465901E+04  0.46999998093E+01 0.  1.
</event>
<event>
 5   0  0.7183014E-06  0.2311413E+04  0.7818609E-02  0.8473435E-01
        1   -1    0    0  501    0  0.00000000000E+00  0.00000000000E+00  0.18624224294E+04  0.18624224294E+04  0.50400001928E-02 0. -1.
       -1   -1    0    0    0  501  0.00000000000E+00  0.00000000000E+00 -0.71716122737E+03  0.71716122739E+03  0.50400001928E-02 0.  1.
    10030    2    1    2    0    0  0.00000000000E+00  0.00000000000E+00  0.11452612020E+04  0.25795836568E+04  0.23114126896E+04 0.  0.
        3    1    3    3  502    0 -0.96022409215E+02 -0.11450667741E+04  0.43477192811E+03  0.12285865292E+04  0.10100000352E+00 0. -1.
       -3    1    3    3    0  502  0.96022409215E+02  0.11450667741E+04  0.71048927391E+03  0.13509971276E+04  0.10100000352E+00 0.  1.
</event>
<event>
 5   0  0.1697855E-05  0.2297122E+04  0.7818609E-02  0.8479057E-01
       -2   -1    0    0    0  501  0.00000000000E+00  0.00000000000E+00  0.59345962239E+03  0.59345962240E+03  0.25500000920E-02 0.  1.
        2   -1    0    0  501    0  0.00000000000E+00  0.00000000000E+00 -0.22228846979E+04  0.22228846979E+04  0.25500000920E-02 0. -1.
    10030    2    1    2    0    0  0.00000000000E+00  0.00000000000E+00 -0.16294250755E+04  0.28163443203E+04  0.22971219501E+04 0.  0.
        5    1    3    3  502    0 -0.10930262806E+04  0.35272756739E+03 -0.80630402029E+03  0.14033073256E+04  0.46999998093E+01 0.  1.
       -5    1    3    3    0  502  0.10930262806E+04 -0.35272756739E+03 -0.82312105524E+03  0.14130369947E+04  0.46999998093E+01 0. -1.
</event>
<event>
 5   0  0.7183014E-06  0.2269831E+04  0.7818609E-02  0.8489912E-01
        1   -1    0    0  501    0  0.00000000000E+00  0.00000000000E+00  0.25121019229E+04  0.25121019229E+04  0.50400001928E-02 0. -1.
       -1   -1    0    0    0  501  0.00000000000E+00  0.00000000000E+00 -0.51273147131E+03  0.51273147133E+03  0.50400001928E-02 0.  1.
    10030    2    1    2    0    0  0.00000000000E+00  0.00000000000E+00  0.19993704516E+04  0.30248333942E+04  0.22698314607E+04 0.  0.
        3    1    3    3  502    0  0.80600337784E+01 -0.11024956771E+04  0.13584361587E+04  0.17495457952E+04  0.10100000352E+00 0.  1.
       -3    1    3    3    0  502 -0.80600337784E+01  0.11024956771E+04  0.64093429288E+03  0.12752875990E+04  0.10100000352E+00 0. -1.
</event>
<event>
 5   0  0.1602809E-05  0.2303878E+04  0.7818609E-02  0.8476394E-01
        2   -1    0    0  501    0  0.00000000000E+00  0.00000000000E+00  0.87622747380E+03  0.87622747380E+03  0.25500000920E-02 0. -1.
       -2   -1    0    0    0  501  0.00000000000E+00  0.00000000000E+00 -0.15144056633E+04  0.15144056633E+04  0.25500000920E-02 0.  1.
    10030    2    1    2    0    0  0.00000000000E+00  0.00000000000E+00 -0.63817818952E+03  0.23906331371E+04  0.23038783377E+04 0.  0.
        3    1    3    3  502    0  0.49301543539E+03  0.96823008474E+03 -0.71616049356E+03  0.13013145582E+04  0.10100000352E+00 0.  1.
       -3    1    3    3    0  502 -0.49301543539E+03 -0.96823008474E+03  0.77982304037E+02  0.10893185790E+04  0.10100000352E+00 0. -1.
</event>
<event>
 5   0  0.7202572E-06  0.2298968E+04  0.7818609E-02  0.8478328E-01
        1   -1    0    0  501    0  0.00000000000E+00  0.00000000000E+00  0.14064709235E+04  0.14064709235E+04  0.50400001928E-02 0. -1.
       -1   -1    0    0    0  501  0.00000000000E+00  0.00000000000E+00 -0.93945339123E+03  0.93945339124E+03  0.50400001928E-02 0.  1.
    10030    2    1    2    0    0  0.00000000000E+00  0.00000000000E+00  0.46701753226E+03  0.23459243147E+04  0.22989683589E+04 0.  0.
        2    1    3    3  502    0  0.63386208671E+03 -0.64750645367E+03 -0.48823396600E+03  0.10292804079E+04  0.25500000920E-02 0.  1.
       -2    1    3    3    0  502 -0.63386208671E+03  0.64750645367E+03  0.95525149826E+03  0.13166439068E+04  0.25500000920E-02 0. -1.
</event>
<event>
 5   0  0.1588969E-05  0.2298350E+04  0.7818609E-02  0.8478572E-01
        2   -1    0    0  501    0  0.00000000000E+00  0.00000000000E+00  0.94356554556E+03  0.94356554557E+03  0.25500000920E-02 0. -1.
       -2   -1    0    0    0  501  0.00000000000E+00  0.00000000000E+00 -0.13995883831E+04  0.13995883831E+04  0.25500000920E-02 0.  1.
    10030    2    1    2    0    0  0.00000000000E+00  0.00000000000E+00 -0.45602283757E+03  0.23431539287E+04  0.22983501703E+04 0.  0.
        1    1    3    3  502    0 -0.41174529240E+03  0.51985068389E+02 -0.13205201732E+04  0.13842001882E+04  0.50400001928E-02 0.  1.
       -1    1    3    3    0  502  0.41174529240E+03 -0.51985068389E+02  0.86449733561E+03  0.95895374052E+03  0.50400001928E-02 0. -1.
</event>
<event>
 5   0  0.7202572E-06  0.2298642E+04  0.7818609E-02  0.8478457E-01
       -1   -1    0    0    0  501  0.00000000000E+00  0.00000000000E+00  0.83709490956E+03  0.83709490957E+03  0.50400001928E-02 0. -1.
        1   -1    0    0  501    0  0.00000000000E+00  0.00000000000E+00 -0.15780036894E+04  0.15780036894E+04  0.50400001928E-02 0.  1.
    10030    2    1    2    0    0  0.00000000000E+00  0.00000000000E+00 -0.74090877988E+03  0.24150985990E+04  0.22986420824E+04 0.  0.
        2    1    3    3  502    0 -0.84861095173E+03 -0.86938138158E+02  0.43878823639E+03  0.95928822762E+03  0.25500000920E-02 0. -1.
       -2    1    3    3    0  502  0.84861095173E+03  0.86938138158E+02 -0.11796970163E+04  0.14558103714E+04  0.25500000920E-02 0.  1.
</event>
<event>
 5   0  0.1626636E-05  0.2303353E+04  0.7818609E-02  0.8476600E-01
        2   -1    0    0  501    0  0.00000000000E+00  0.00000000000E+00  0.22802435416E+04  0.22802435416E+04  0.25500000920E-02 0. -1.
       -2   -1    0    0    0  501  0.00000000000E+00  0.00000000000E+00 -0.58167395910E+03  0.58167395910E+03  0.25500000920E-02 0.  1.
    10030    2    1    2    0    0  0.00000000000E+00  0.00000000000E+00  0.16985695825E+04  0.28619175007E+04  0.23033525901E+04 0.  0.
        4    1    3    3  502    0 -0.17782455862E+03  0.36205924430E+03  0.21896018311E+04  0.22264470041E+04  0.12699999809E+01 0. -1.
       -4    1    3    3    0  502  0.17782455862E+03 -0.36205924430E+03 -0.49103224863E+03  0.63547049666E+03  0.12699999809E+01 0.  1.
</event>
<event>
 5   0  0.7416556E-06  0.2298398E+04  0.7818609E-02  0.8478553E-01
       -1   -1    0    0    0  501  0.00000000000E+00  0.00000000000E+00  0.68114864127E+03  0.68114864129E+03  0.50400001928E-02 0. -1.
        1   -1    0    0  501    0  0.00000000000E+00  0.00000000000E+00 -0.19388697073E+04  0.19388697073E+04  0.50400001928E-02 0.  1.
    10030    2    1    2    0    0  0.00000000000E+00  0.00000000000E+00 -0.12577210660E+04  0.26200183486E+04  0.22983981089E+04 0.  0.
        4    1    3    3  502    0 -0.54109487757E+03 -0.19218552114E+03 -0.17636160410E+04  0.18547404385E+04  0.12699999809E+01 0.  1.
       -4    1    3    3    0  502  0.54109487757E+03  0.19218552114E+03  0.50589497500E+03  0.76527791011E+03  0.12699999809E+01 0. -1.
</event>
<event>
 5   0  0.5704875E-06  0.2311069E+04  0.7818609E-02  0.8473570E-01
        4   -1    0    0  501    0  0.00000000000E+00  0.00000000000E+00  0.16295572625E+04  0.16295577573E+04  0.12699999809E+01 0.  1.
       -4   -1    0    0    0  501  0.00000000000E+00  0.00000000000E+00 -0.81939922065E+03  0.81940020485E+03  0.12699999809E+01 0. -1.
    10030    2    1    2    0    0  0.00000000000E+00  0.00000000000E+00  0.81015804180E+03  0.24489579622E+04  0.23110688107E+04 0.  0.
        5    1    3    3  502    0  0.40643508309E+03  0.71291868225E+03 -0.45696658610E+03  0.93929924682E+03  0.46999998093E+01 0. -1.
       -5    1    3    3    0  502 -0.40643508309E+03 -0.71291868225E+03  0.12671246279E+04  0.15096587154E+04  0.46999998093E+01 0.  1.
</event>
<event>
 5   0  0.7278815E-06  0.2314205E+04  0.7818609E-02  0.8472341E-01
       -1   -1    0    0    0  501  0.00000000000E+00  0.00000000000E+00  0.96894957265E+03  0.96894957267E+03  0.50400001928E-02 0. -1.
        1   -1    0    0  501    0  0.00000000000E+00  0.00000000000E+00 -0.13817916142E+04  0.13817916143E+04  0.50400001928E-02 0.  1.
    10030    2    1    2    0    0  0.00000000000E+00  0.00000000000E+00 -0.41284204159E+03  0.23507411869E+04  0.23142051717E+04 0.  0.
        5    1    3    3  502    0 -0.16534945331E+03 -0.14862577269E+03 -0.13598810681E+04  0.13779436387E+04  0.46999998093E+01 0.  1.
       -5    1    3    3    0  502  0.16534945331E+03  0.14862577269E+03  0.94703902654E+03  0.97279754821E+03  0.46999998093E+01 0. -1.
</event>
<event>
 5   0  0.7202572E-06  0.2266944E+04  0.7818609E-02  0.8491070E-01
        1   -1    0    0  501    0  0.00000000000E+00  0.00000000000E+00  0.12459594132E+04  0.12459594132E+04  0.50400001928E-02 0. -1.
       -1   -1    0    0    0  501  0.00000000000E+00  0.00000000000E+00 -0.10311398980E+04  0.10311398980E+04  0.50400001928E-02 0.  1.
    10030    2    1    2    0    0  0.00000000000E+00  0.00000000000E+00  0.21481951517E+03  0.22770993112E+04  0.22669437243E+04 0.  0.
        2    1    3    3  502    0  0.41952788418E+02 -0.11209523512E+04 -0.55997389046E+02  0.11231339714E+04  0.25500000920E-02 0.  1.
       -2    1    3    3    0  502 -0.41952788418E+02  0.11209523512E+04  0.27081690422E+03  0.11539653399E+04  0.25500000920E-02 0. -1.
</event>
<event>
 5   0  0.7183014E-06  0.2309401E+04  0.7818609E-02  0.8474224E-01
        1   -1    0    0  501    0  0.00000000000E+00  0.00000000000E+00  0.18407782833E+04  0.18407782833E+04  0.50400001928E-02 0.  1.
       -1   -1    0    0    0  501  0.00000000000E+00  0.00000000000E+00 -0.72433140712E+03  0.72433140714E+03  0.50400001928E-02 0. -1.
    10030    2    1    2    0    0  0.00000000000E+00  0.00000000000E+00  0.11164468762E+04  0.25651096905E+04  0.23094012420E+04 0.  0.
        3    1    3    3  502    0  0.18123276250E+03 -0.26354757296E+02  0.18245442597E+04  0.18337125329E+04  0.10100000352E+00 0.  1.
       -3    1    3    3    0  502 -0.18123276250E+03  0.26354757296E+02 -0.70809738349E+03  0.73139715760E+03  0.10100000352E+00 0. -1.
</event>
<event>
 5   0  0.7278815E-06  0.2294469E+04  0.7818609E-02  0.8480105E-01
        1   -1    0    0  501    0  0.00000000000E+00  0.00000000000E+00  0.89385305292E+03  0.89385305294E+03  0.50400001928E-02 0. -1.
       -1   -1    0    0    0  501  0.00000000000E+00  0.00000000000E+00 -0.14724424923E+04  0.14724424923E+04  0.50400001928E-02 0.  1.
    10030    2    1    2    0    0  0.00000000000E+00  0.00000000000E+00 -0.57858943934E+03  0.23662955452E+04  0.22944691909E+04 0.  0.
        5    1    3    3  502    0  0.76801550819E+03  0.68799532853E+03 -0.80796968238E+03  0.13099704159E+04  0.46999998093E+01 0. -1.
       -5    1    3    3    0  502 -0.76801550819E+03 -0.68799532853E+03  0.22938024304E+03  0.10563251293E+04  0.46999998093E+01 0.  1.
</event>
<event>
 5   0  0.7278815E-06  0.2293582E+04  0.7818609E-02  0.8480456E-01
       -1   -1    0    0    0  501  0.00000000000E+00  0.00000000000E+00  0.83541205456E+03  0.83541205457E+03  0.50400001928E-02 0. -1.
        1   -1    0    0  501    0  0.00000000000E+00  0.00000000000E+00 -0.15742288232E+04  0.15742288233E+04  0.50400001928E-02 0.  1.
    10030    2    1    2    0    0  0.00000000000E+00  0.00000000000E+00 -0.73881676869E+03  0.24096408778E+04  0.22935821203E+04 0.  0.
        5    1    3    3  502    0  0.17013440944E+02 -0.79192041118E+03 -0.12406353396E+04  0.14719461711E+04  0.46999998093E+01 0.  1.
       -5    1    3    3    0  502 -0.17013440944E+02  0.79192041118E+03  0.50181857093E+03  0.93769470669E+03  0.46999998093E+01 0. -1.
</event>
<event>
 5   0  0.7278815E-06  0.2338648E+04  0.7818609E-02  0.8462837E-01
        1   -1    0    0  501    0  0.00000000000E+00  0.00000000000E+00  0.27660300602E+04  0.27660300602E+04  0.50400001928E-02 0. -1.
       -1   -1    0    0    0  501  0.00000000000E+00  0.00000000000E+00 -0.49432515059E+03  0.49432515062E+03  0.50400001928E-02 0.  1.
    10030    2    1    2    0    0  0.00000000000E+00  0.00000000000E+00  0.22717049096E+04  0.32603552109E+04  0.23386476657E+04 0.  0.
        5    1    3    3  502    0  0.38201040678E+03 -0.22024958752E+03  0.26456619569E+04  0.26821616491E+04  0.46999998093E+01 0. -1.
       -5    1    3    3    0  502 -0.38201040678E+03  0.22024958752E+03 -0.37395704725E+03  0.57819356177E+03  0.46999998093E+01 0.  1.
</event>
<event>
 5   0  0.1626636E-05  0.2300376E+04  0.7818609E-02  0.8477773E-01
        2   -1    0    0  501    0  0.00000000000E+00  0.00000000000E+00  0.15843671799E+04  0.15843671799E+04  0.25500000920E-02 0.  1.
       -2   -1    0    0    0  501  0.00000000000E+00  0.00000000000E+00 -0.83499137976E+03  0.83499137977E+03  0.25500000920E-02 0. -1.
    10030    2    1    2    0    0  0.00000000000E+00  0.00000000000E+00  0.74937580011E+03  0.24193585596E+04  0.23003764367E+04 0.  0.
        4    1    3    3  502    0 -0.42274567067E+02  0.90101971703E+03 -0.37588249270E+03  0.97719646475E+03  0.12699999809E+01 0. -1.
       -4    1    3    3    0  502  0.42274567067E+02 -0.90101971703E+03  0.11252582928E+04  0.14421620949E+04  0.12699999809E+01 0.  1.
</event>
<event>
 5   0  0.7416556E-06  0.2350709E+04  0.7818609E-02  0.8458191E-01
       -1   -1    0    0    0  501  0.00000000000E+00  0.00000000000E+00  0.12449656193E+04  0.12449656193E+04  0.50400001928E-02 0.  1.
        1   -1    0    0  501    0  0.00000000000E+00  0.00000000000E+00 -0.11096354772E+04  0.11096354772E+04  0.50400001928E-02 0. -1.
    10030    2    1    2    0    0  0.00000000000E+00  0.00000000000E+00  0.13533014211E+03  0.23546010965E+04  0.23507088455E+04 0.  0.
        4    1    3    3  502    0 -0.81421480741E+03  0.11008736726E+03  0.90952765837E+03  0.12256864017E+04  0.12699999809E+01 0.  1.
       -4    1    3    3    0  502  0.81421480741E+03 -0.11008736726E+03 -0.77419751626E+03  0.11289146948E+04  0.12699999809E+01 0. -1.
</event>
<event>
 5   0  0.1602809E-05  0.2313480E+04  0.7818609E-02  0.8472625E-01
        2   -1    0    0  501    0  0.00000000000E+00  0.00000000000E+00  0.18320225213E+04  0.18320225213E+04  0.25500000920E-02 0.  1.
       -2   -1    0    0    0  501  0.00000000000E+00  0.00000000000E+00 -0.73036603294E+03  0.73036603295E+03  0.25500000920E-02 0. -1.
    10030    2    1    2    0    0  0.00000000000E+00  0.00000000000E+00  0.11016564883E+04  0.25623885542E+04  0.23134796486E+04 0.  0.
        3    1    3    3  502    0  0.54587842551E+03 -0.47318519245E+03 -0.44978634370E+03  0.85099661984E+03  0.10100000352E+00 0. -1.
       -3    1    3    3    0  502 -0.54587842551E+03  0.47318519245E+03  0.15514428320E+04  0.17113919344E+04  0.10100000352E+00 0.  1.
</event>
<event>
 5   0  0.1588969E-05  0.2304479E+04  0.7818609E-02  0.8476157E-01
        2   -1    0    0  501    0  0.00000000000E+00  0.00000000000E+00  0.16170595640E+04  0.16170595640E+04  0.25500000920E-02 0. -1.
       -2   -1    0    0    0  501  0.00000000000E+00  0.00000000000E+00 -0.82103058558E+03  0.82103058558E+03  0.25500000920E-02 0.  1.
    10030    2    1    2    0    0  0.00000000000E+00  0.00000000000E+00  0.79602897838E+03  0.24380901495E+04  0.23044785620E+04 0.  0.
        1    1    3    3  502    0 -0.48637184217E+03 -0.61910787170E+03 -0.49207435747E+03  0.92843378814E+03  0.50400001928E-02 0.  1.
       -1    1    3    3    0  502  0.48637184217E+03  0.61910787170E+03  0.12881033359E+04  0.15096563614E+04  0.50400001928E-02 0. -1.
</event>
<event>
 5   0  0.7416556E-06  0.2309340E+04  0.7818609E-02  0.8474248E-01
        1   -1    0    0  501    0  0.00000000000E+00  0.00000000000E+00  0.16031662019E+04  0.16031662020E+04  0.50400001928E-02 0. -1.
       -1   -1    0    0    0  501  0.00000000000E+00  0.00000000000E+00 -0.83164341163E+03  0.83164341165E+03  0.50400001928E-02 0.  1.
    10030    2    1    2    0    0  0.00000000000E+00  0.00000000000E+00  0.77152279031E+03  0.24348096136E+04  0.23093398274E+04 0.  0.
        4    1    3    3  502    0  0.29647876393E+03 -0.65197733456E+03 -0.56914334411E+03  0.91482231132E+03  0.12699999809E+01 0.  1.
       -4    1    3    3    0  502 -0.29647876393E+03  0.65197733456E+03  0.13406661344E+04  0.15199873023E+04  0.12699999809E+01 0. -1.
</event>
<event>
 5   0  0.1588969E-05  0.2298267E+04  0.7818609E-02  0.8478605E-01
       -2   -1    0    0    0  501  0.00000000000E+00  0.00000000000E+00  0.13882922184E+04  0.13882922184E+04  0.25500000920E-02 0.  1.
        2   -1    0    0  501    0  0.00000000000E+00  0.00000000000E+00 -0.95117453056E+03  0.95117453057E+03  0.25500000920E-02 0. -1.
    10030    2    1    2    0    0  0.00000000000E+00  0.00000000000E+00  0.43711768781E+03  0.23394667489E+04  0.22982673466E+04 0.  0.
        1    1    3    3  502    0 -0.48281788885E+03 -0.89547011130E+03 -0.32536858463E+03  0.10681032487E+04  0.50400001928E-02 0. -1.
       -1    1    3    3    0  502  0.48281788885E+03  0.89547011130E+03  0.76248627244E+03  0.12713635002E+04  0.50400001928E-02 0.  1.
</event>
<event>
 5   0  0.1588969E-05  0.2297874E+04  0.7818609E-02  0.8478760E-01
       -2   -1    0    0    0  501  0.00000000000E+00  0.00000000000E+00  0.14050647363E+04  0.14050647363E+04  0.25500000920E-02 0.  1.
        2   -1    0    0  501    0  0.00000000000E+00  0.00000000000E+00 -0.93949868494E+03  0.93949868495E+03  0.25500000920E-02 0. -1.
    10030    2    1    2    0    0  0.00000000000E+00  0.00000000000E+00  0.46556605138E+03  0.23445634213E+04  0.22978742107E+04 0.  0.
        1    1    3    3  502    0 -0.95508667080E+03  0.60830436229E+03  0.43123883317E+03  0.12116895961E+04  0.50400001928E-02 0.  1.
       -1    1    3    3    0  502  0.95508667080E+03 -0.60830436229E+03  0.34327218211E+02  0.11328738252E+04  0.50400001928E-02 0. -1.
</event>
<event>
 5   0  0.7202572E-06  0.2305243E+04  0.7818609E-02  0.8475857E-01
       -1   -1    0    0    0  501  0.00000000000E+00  0.00000000000E+00  0.71816460651E+03  0.71816460653E+03  0.50400001928E-02 0. -1.
        1   -1    0    0  501    0  0.00000000000E+00  0.00000000000E+00 -0.18499051161E+04  0.18499051161E+04  0.50400001928E-02 0.  1.
    10030    2    1    2    0    0  0.00000000000E+00  0.00000000000E+00 -0.11317405096E+04  0.25680697226E+04  0.23052430499E+04 0.  0.
        2    1    3    3  502    0 -0.67462065454E+03  0.54718173557E+03 -0.14098886251E+04  0.16559911879E+04  0.25500000920E-02 0.  1.
       -2    1    3    3    0  502  0.67462065454E+03 -0.54718173557E+03  0.27814811553E+03  0.91207853470E+03  0.25500000920E-02 0. -1.
</event>
<event>
 5   0  0.1588969E-05  0.2270630E+04  0.7818609E-02  0.8489592E-01
        2   -1    0    0  501    0  0.00000000000E+00  0.00000000000E+00  0.13380082799E+04  0.13380082799E+04  0.25500000920E-02 0. -1.
       -2   -1    0    0    0  501  0.00000000000E+00  0.00000000000E+00 -0.96332775434E+03  0.96332775435E+03  0.25500000920E-02 0.  1.
    10030    2    1    2    0    0  0.00000000000E+00  0.00000000000E+00  0.37468052558E+03  0.23013360343E+04  0.22706303192E+04 0.  0.
        1    1    3    3  502    0 -0.60587593978E+03  0.10211579523E+03  0.11549374626E+04  0.13082025197E+04  0.50400001928E-02 0. -1.
       -1    1    3    3    0  502  0.60587593978E+03 -0.10211579523E+03 -0.78025693699E+03  0.99313351458E+03  0.50400001928E-02 0.  1.
</event>
<event>
 5   0  0.7416556E-06  0.2246496E+04  0.7818609E-02  0.8499321E-01
       -1   -1    0    0    0  501  0.00000000000E+00  0.00000000000E+00  0.72244555101E+03  0.72244555102E+03  0.50400001928E-02 0. -1.
        1   -1    0    0  501    0  0.00000000000E+00  0.00000000000E+00 -0.17464106692E+04  0.17464106692E+04  0.50400001928E-02 0.  1.
    10030    2    1    2    0    0  0.00000000000E+00  0.00000000000E+00 -0.10239651181E+04  0.24688562202E+04  0.22464964885E+04 0.  0.
        4    1    3    3  502    0 -0.14610745806E+03 -0.49484429685E+03  0.58450429954E+03  0.77965707622E+03  0.12699999809E+01 0. -1.
       -4    1    3    3    0  502  0.14610745806E+03  0.49484429685E+03 -0.16084694177E+04  0.16891991440E+04  0.12699999809E+01 0.  1.
</event>
<event>
 5   0  0.7202572E-06  0.2296839E+04  0.7818609E-02  0.8479169E-01
       -1   -1    0    0    0  501  0.00000000000E+00  0.00000000000E+00  0.14991413542E+04  0.14991413542E+04  0.50400001928E-02 0.  1.
        1   -1    0    0  501    0  0.00000000000E+00  0.00000000000E+00 -0.87974829943E+03  0.87974829945E+03  0.50400001928E-02 0. -1.
    10030    2    1    2    0    0  0.00000000000E+00  0.00000000000E+00  0.61939305477E+03  0.23788896537E+04  0.22968387466E+04 0.  0.
        2    1    3    3  502    0 -0.10073422111E+04  0.60900962478E+02  0.87738237510E+03  0.13372535622E+04  0.25500000920E-02 0.  1.
       -2    1    3    3    0  502  0.10073422111E+04 -0.60900962478E+02 -0.25798932033E+03  0.10416360914E+04  0.25500000920E-02 0. -1.
</event>
<event>
 5   0  0.7391007E-06  0.2303547E+04  0.7818609E-02  0.8476524E-01
        1   -1    0    0  501    0  0.00000000000E+00  0.00000000000E+00  0.14387813493E+04  0.14387813493E+04  0.50400001928E-02 0.  1.
       -1   -1    0    0    0  501  0.00000000000E+00  0.00000000000E+00 -0.92201797476E+03  0.92201797477E+03  0.50400001928E-02 0. -1.
    10030    2    1    2    0    0  0.00000000000E+00  0.00000000000E+00  0.51676337449E+03  0.23607993240E+04  0.23035470612E+04 0.  0.
        1    1    3    3  502    0  0.96091640558E+03  0.25714131018E+03 -0.33665197529E+03  0.10501507246E+04  0.50400001928E-02 0. -1.
       -1    1    3    3    0  502 -0.96091640558E+03 -0.25714131018E+03  0.85341534978E+03  0.13106485994E+04  0.50400001928E-02 0.  1.
</event>
<event>
 5   0  0.1588969E-05  0.2206127E+04  0.7818609E-02  0.8515882E-01
       -2   -1    0    0    0  501  0.00000000000E+00  0.00000000000E+00  0.11795912458E+04  0.11795912458E+04  0.25500000920E-02 0.  1.
        2   -1    0    0  501    0  0.00000000000E+00  0.00000000000E+00 -0.10315007263E+04  0.10315007263E+04  0.25500000920E-02 0. -1.
    10030    2    1    2    0    0  0.00000000000E+00  0.00000000000E+00  0.14809051954E+03  0.22110919721E+04  0.22061271285E+04 0.  0.
        1    1    3    3  502    0 -0.67661434254E+03 -0.85994948464E+03 -0.65656888782E+02  0.10961892682E+04  0.50400001928E-02 0. -1.
       -1    1    3    3    0  502  0.67661434254E+03  0.85994948464E+03  0.21374740832E+03  0.11149027039E+04  0.50400001928E-02 0.  1.
</event>
<event>
 5   0  0.7391007E-06  0.2311103E+04  0.7818609E-02  0.8473556E-01
        1   -1    0    0  501    0  0.00000000000E+00  0.00000000000E+00  0.15336980684E+04  0.15336980684E+04  0.50400001928E-02 0.  1.
       -1   -1    0    0    0  501  0.00000000000E+00  0.00000000000E+00 -0.87064022263E+03  0.87064022264E+03  0.50400001928E-02 0. -1.
    10030    2    1    2    0    0  0.00000000000E+00  0.00000000000E+00  0.66305784581E+03  0.24043382911E+04  0.23111029642E+04 0.  0.
        1    1    3    3  502    0 -0.24413919185E+03 -0.32357483934E+03  0.14573094329E+04  0.15126319463E+04  0.50400001928E-02 0.  1.
       -1    1    3    3    0  502  0.24413919185E+03  0.32357483934E+03 -0.79425158712E+03  0.89170634478E+03  0.50400001928E-02 0. -1.
</event>
<event>
 5   0  0.7416556E-06  0.2315311E+04  0.7818609E-02  0.8471909E-01
        1   -1    0    0  501    0  0.00000000000E+00  0.00000000000E+00  0.90426554247E+03  0.90426554248E+03  0.50400001928E-02 0.  1.
       -1   -1    0    0    0  501  0.00000000000E+00  0.00000000000E+00 -0.14820491136E+04  0.14820491136E+04  0.50400001928E-02 0. -1.
    10030    2    1    2    0    0  0.00000000000E+00  0.00000000000E+00 -0.57778357114E+03  0.23863146561E+04  0.23153107314E+04 0.  0.
        4    1    3    3  502    0 -0.93217818590E+03  0.34460404884E+03 -0.90077847870E+03  0.13413096590E+04  0.12699999809E+01 0. -1.
       -4    1    3    3    0  502  0.93217818590E+03 -0.34460404884E+03  0.32299490756E+03  0.10450049971E+04  0.12699999809E+01 0.  1.
</event>
<event>
 5   0  0.1635955E-05  0.2298348E+04  0.7818609E-02  0.8478573E-01
        2   -1    0    0  501    0  0.00000000000E+00  0.00000000000E+00  0.22237642377E+04  0.22237642377E+04  0.25500000920E-02 0. -1.
       -2   -1    0    0    0  501  0.00000000000E+00  0.00000000000E+00 -0.59385832956E+03  0.59385832956E+03  0.25500000920E-02 0.  1.
    10030    2    1    2    0    0  0.00000000000E+00  0.00000000000E+00  0.16299059081E+04  0.28176225673E+04  0.22983480289E+04 0.  0.
        2    1    3    3  502    0  0.92771749307E+03 -0.60629860345E+03  0.11874899590E+04  0.16243122072E+04  0.25500000920E-02 0.  1.
       -2    1    3    3    0  502 -0.92771749307E+03  0.60629860345E+03  0.44241594910E+03  0.11933103601E+04  0.25500000920E-02 0. -1.
</event>
<event>
 5   0  0.1635955E-05  0.2219784E+04  0.7818609E-02  0.8510239E-01
       -2   -1    0    0    0  501  0.00000000000E+00  0.00000000000E+00  0.10234016235E+04  0.10234016235E+04  0.25500000920E-02 0.  1.
        2   -1    0    0  501    0  0.00000000000E+00  0.00000000000E+00 -0.12036917173E+04  0.12036917173E+04  0.25500000920E-02 0. -1.
    10030    2    1    2    0    0  0.00000000000E+00  0.00000000000E+00 -0.18029009381E+03  0.22270933408E+04  0.22197838253E+04 0.  0.
        2    1    3    3  502    0 -0.40460505339E+03  0.83336182737E+01 -0.11270303477E+04  0.11974857424E+04  0.25500000920E-02 0. -1.
       -2    1    3    3    0  502  0.40460505339E+03 -0.83336182737E+01  0.94674025393E+03  0.10296075985E+04  0.25500000920E-02 0.  1.
</event>
<event>
 5   0  0.1697855E-05  0.2298274E+04  0.7818609E-02  0.8478602E-01
        2   -1    0    0  501    0  0.00000000000E+00  0.00000000000E+00  0.15595048306E+04  0.15595048306E+04  0.25500000920E-02 0. -1.
       -2   -1    0    0    0  501  0.00000000000E+00  0.00000000000E+00 -0.84675353665E+03  0.84675353665E+03  0.25500000920E-02 0.  1.
    10030    2    1    2    0    0  0.00000000000E+00  0.00000000000E+00  0.71275129391E+03  0.24062583672E+04  0.22982743358E+04 0.  0.
        5    1    3    3  502    0  0.45958281302E+03  0.99151654487E+03 -0.15521735987E+02  0.10929704639E+04  0.46999998093E+01 0.  1.
       -5    1    3    3    0  502 -0.45958281302E+03 -0.99151654487E+03  0.72827302990E+03  0.13132879033E+04  0.46999998093E+01 0. -1.
</event>
<event>
 5   0  0.1588969E-05  0.2303214E+04  0.7818609E-02  0.8476655E-01
        2   -1    0    0  501    0  0.00000000000E+00  0.00000000000E+00  0.12365844754E+04  0.12365844755E+04  0.25500000920E-02 0. -1.
       -2   -1    0    0    0  501  0.00000000000E+00  0.00000000000E+00 -0.10724691389E+04  0.10724691389E+04  0.25500000920E-02 0.  1.
    10030    2    1    2    0    0  0.00000000000E+00  0.00000000000E+00  0.16411533658E+03  0.23090536143E+04  0.23032140044E+04 0.  0.
        1    1    3    3  502    0  0.24708690443E+03 -0.78210174369E+02 -0.10428522593E+04  0.10745741503E+04  0.50400001928E-02 0.  1.
       -1    1    3    3    0  502 -0.24708690443E+03  0.78210174369E+02  0.12069675959E+04  0.12344794641E+04  0.50400001928E-02 0. -1.
</event>
<event>
 5   0  0.7183014E-06  0.2308653E+04  0.7818609E-02  0.8474517E-01
       -1   -1    0    0    0  501  0.00000000000E+00  0.00000000000E+00  0.15231351317E+04  0.15231351318E+04  0.50400001928E-02 0. -1.
        1   -1    0    0  501    0  0.00000000000E+00  0.00000000000E+00 -0.87482047780E+03  0.87482047781E+03  0.50400001928E-02 0.  1.
    10030    2    1    2    0    0  0.00000000000E+00  0.00000000000E+00  0.64831465395E+03  0.23979556096E+04  0.23086531171E+04 0.  0.
        3    1    3    3  502    0 -0.48448968529E+03 -0.86118980789E+03 -0.29565948599E+03  0.10314032588E+04  0.10100000352E+00 0.  1.
       -3    1    3    3    0  502  0.48448968529E+03  0.86118980789E+03  0.94397413993E+03  0.13665523508E+04  0.10100000352E+00 0. -1.
</event>
<event>
 5   0  0.1626636E-05  0.2294577E+04  0.7818609E-02  0.8480062E-01
       -2   -1    0    0    0  501  0.00000000000E+00  0.00000000000E+00  0.53499390241E+03  0.53499390242E+03  0.25500000920E-02 0. -1.
        2   -1    0    0  501    0  0.00000000000E+00  0.00000000000E+00 -0.24603479004E+04  0.24603479004E+04  0.25500000920E-02 0.  1.
    10030    2    1    2    0    0  0.00000000000E+00  0.00000000000E+00 -0.19253539980E+04  0.29953418028E+04  0.22945771937E+04 0.  0.
        4    1    3    3  502    0 -0.51812954873E+03 -0.34019752033E+03  0.29761040032E+03  0.68757991927E+03  0.12699999809E+01 0. -1.
       -4    1    3    3    0  502  0.51812954873E+03  0.34019752033E+03 -0.22229643983E+04  0.23077618835E+04  0.12699999809E+01 0.  1.
</event>
<event>
 5   0  0.1697855E-05  0.2327221E+04  0.7818609E-02  0.8467265E-01
        2   -1    0    0  501    0  0.00000000000E+00  0.00000000000E+00  0.89233940490E+03  0.89233940491E+03  0.25500000920E-02 0.  1.
       -2   -1    0    0    0  501  0.00000000000E+00  0.00000000000E+00 -0.15173484488E+04  0.15173484488E+04  0.25500000920E-02 0. -1.
    10030    2    1    2    0    0  0.00000000000E+00  0.00000000000E+00 -0.62500904391E+03  0.24096878537E+04  0.23272213576E+04 0.  0.
        5    1    3    3  502    0 -0.95058564815E+03  0.21868997042E+03 -0.96943871544E+03  0.13752352128E+04  0.46999998093E+01 0. -1.
       -5    1    3    3    0  502  0.95058564815E+03 -0.21868997042E+03  0.34442967153E+03  0.10344526409E+04  0.46999998093E+01 0.  1.
</event>
<event>
 5   0  0.1588969E-05  0.2292654E+04  0.7818609E-02  0.8480823E-01
       -2   -1    0    0    0  501  0.00000000000E+00  0.00000000000E+00  0.64446920624E+03  0.64446920624E+03  0.25500000920E-02 0.  1.
        2   -1    0    0  501    0  0.00000000000E+00  0.00000000000E+00 -0.20389888464E+04  0.20389888464E+04  0.25500000920E-02 0. -1.
    10030    2    1    2    0    0  0.00000000000E+00  0.00000000000E+00 -0.13945196402E+04  0.26834580527E+04  0.22926539411E+04 0.  0.
        1    1    3    3  502    0 -0.44217820449E+03 -0.92604868258E+03 -0.99319162797E+02  0.10309956465E+04  0.50400001928E-02 0.  1.
       -1    1    3    3    0  502  0.44217820449E+03  0.92604868258E+03 -0.12952004774E+04  0.16524624061E+04  0.50400001928E-02 0. -1.
</event>
<event>
 5   0  0.7391007E-06  0.2299920E+04  0.7818609E-02  0.8477953E-01
        1   -1    0    0  501    0  0.00000000000E+00  0.00000000000E+00  0.10192285756E+04  0.10192285756E+04  0.50400001928E-02 0.  1.
       -1   -1    0    0    0  501  0.00000000000E+00  0.00000000000E+00 -0.12974594793E+04  0.12974594793E+04  0.50400001928E-02 0. -1.
    10030    2    1    2    0    0  0.00000000000E+00  0.00000000000E+00 -0.27823090369E+03  0.23166880550E+04  0.22999198048E+04 0.  0.
        1    1    3    3  502    0 -0.24588169794E+03 -0.11094046314E+04  0.38725814908E+02  0.11369855471E+04  0.50400001928E-02 0. -1.
       -1    1    3    3    0  502  0.24588169794E+03  0.11094046314E+04 -0.31695671860E+03  0.11797025079E+04  0.50400001928E-02 0.  1.
</event>
<event>
 5   0  0.7202572E-06  0.2307620E+04  0.7818609E-02  0.8474923E-01
       -1   -1    0    0    0  501  0.00000000000E+00  0.00000000000E+00  0.65868608513E+03  0.65868608515E+03  0.50400001928E-02 0.  1.
        1   -1    0    0  501    0  0.00000000000E+00  0.00000000000E+00 -0.20211102101E+04  0.20211102101E+04  0.50400001928E-02 0. -1.
    10030    2    1    2    0    0  0.00000000000E+00  0.00000000000E+00 -0.13624241250E+04  0.26797962953E+04  0.23076197017E+04 0.  0.
        2    1    3    3  502    0 -0.65560006087E+03  0.26165769524E+03 -0.17411008580E+04  0.18787518162E+04  0.25500000920E-02 0. -1.
       -2    1    3    3    0  502  0.65560006087E+03 -0.26165769524E+03  0.37867673300E+03  0.80104447905E+03  0.25500000920E-02 0.  1.
</event>
<event>
 5   0  0.7202572E-06  0.2305740E+04  0.7818609E-02  0.8475662E-01
        1   -1    0    0  501    0  0.00000000000E+00  0.00000000000E+00  0.10173706605E+04  0.10173706605E+04  0.50400001928E-02 0. -1.
       -1   -1    0    0    0  501  0.00000000000E+00  0.00000000000E+00 -0.13064154122E+04  0.13064154122E+04  0.50400001928E-02 0.  1.
    10030    2    1    2    0    0  0.00000000000E+00  0.00000000000E+00 -0.28904475166E+03  0.23237860727E+04  0.23057395437E+04 0.  0.
        2    1    3    3  502    0  0.10674997891E+04  0.48289961373E+01  0.29423497999E+03  0.11073180854E+04  0.25500000920E-02 0. -1.
       -2    1    3    3    0  502 -0.10674997891E+04 -0.48289961373E+01 -0.58327973164E+03  0.12164679873E+04  0.25500000920E-02 0.  1.
</event>
<event>
 5   0  0.1635955E-05  0.2291484E+04  0.7818609E-02  0.8481286E-01
        2   -1    0    0  501    0  0.00000000000E+00  0.00000000000E+00  0.53296095083E+03  0.53296095084E+03  0.25500000920E-02 0.  1.
       -2   -1    0    0    0  501  0.00000000000E+00  0.00000000000E+00 -0.24630791383E+04  0.24630791383E+04  0.25500000920E-02 0. -1.
    10030    2    1    2    0    0  0.00000000000E+00  0.00000000000E+00 -0.19301181875E+04  0.29960400892E+04  0.22914842348E+04 0.  0.
        2    1    3    3  502    0  0.22318174765E+03  0.10744868517E+04 -0.53460069113E+03  0.12207088047E+04  0.25500000920E-02 0.  1.
       -2    1    3    3    0  502 -0.22318174765E+03 -0.10744868517E+04 -0.13955174964E+04  0.17753312845E+04  0.25500000920E-02 0. -1.
</event>
<event>
 5   0  0.1626636E-05  0.2304109E+04  0.7818609E-02  0.8476303E-01
       -2   -1    0    0    0  501  0.00000000000E+00  0.00000000000E+00  0.15298908490E+04  0.15298908490E+04  0.25500000920E-02 0. -1.
        2   -1    0    0  501    0  0.00000000000E+00  0.00000000000E+00 -0.86753253312E+03  0.86753253312E+03  0.25500000920E-02 0.  1.
    10030    2    1    2    0    0  0.00000000000E+00  0.00000000000E+00  0.66235831591E+03  0.23974233822E+04  0.23041094450E+04 0.  0.
        4    1    3    3  502    0  0.55948354393E+03  0.10021196519E+04  0.43503553541E+03  0.12274050524E+04  0.12699999809E+01 0.  1.
       -4    1    3    3    0  502 -0.55948354393E+03 -0.10021196519E+04  0.22732278051E+03  0.11700183298E+04  0.12699999809E+01 0. -1.
</event>
<event>
 5   0  0.1697855E-05  0.2299828E+04  0.7818609E-02  0.8477989E-01
       -2   -1    0    0    0  501  0.00000000000E+00  0.00000000000E+00  0.11291763515E+04  0.11291763515E+04  0.25500000920E-02 0. -1.
        2   -1    0    0  501    0  0.00000000000E+00  0.00000000000E+00 -0.11710329873E+04  0.11710329873E+04  0.25500000920E-02 0.  1.
    10030    2    1    2    0    0  0.00000000000E+00  0.00000000000E+00 -0.41856635768E+02  0.23002093389E+04  0.22998284772E+04 0.  0.
        5    1    3    3  502    0  0.11307014767E+04  0.20917279097E+03 -0.14478965092E+02  0.11499873113E+04  0.46999998093E+01 0.  1.
       -5    1    3    3    0  502 -0.11307014767E+04 -0.20917279097E+03 -0.27377670676E+02  0.11502220275E+04  0.46999998093E+01 0. -1.
</event>
<event>
 5   0  0.7391007E-06  0.2300427E+04  0.7818609E-02  0.8477753E-01
        1   -1    0    0  501    0  0.00000000000E+00  0.00000000000E+00  0.17545471649E+04  0.17545471649E+04  0.50400001928E-02 0. -1.
       -1   -1    0    0    0  501  0.00000000000E+00  0.00000000000E+00 -0.75403564645E+03  0.75403564647E+03  0.50400001928E-02 0.  1.
    10030    2    1    2    0    0  0.00000000000E+00  0.00000000000E+00  0.10005115185E+04  0.25085828114E+04  0.23004270088E+04 0.  0.
        1    1    3    3  502    0  0.24918261147E+03  0.80901602317E+03  0.13494299570E+04  0.15929720991E+04  0.50400001928E-02 0. -1.
       -1    1    3    3    0  502 -0.24918261147E+03 -0.80901602317E+03 -0.34891843858E+03  0.91561071226E+03  0.50400001928E-02 0.  1.
</event>
<event>
 5   0  0.7416556E-06  0.2298383E+04  0.7818609E-02  0.8478559E-01
        1   -1    0    0  501    0  0.00000000000E+00  0.00000000000E+00  0.11555615504E+04  0.11555615504E+04  0.50400001928E-02 0. -1.
       -1   -1    0    0    0  501  0.00000000000E+00  0.00000000000E+00 -0.11428562888E+04  0.11428562888E+04  0.50400001928E-02 0.  1.
    10030    2    1    2    0    0  0.00000000000E+00  0.00000000000E+00  0.12705261598E+02  0.22984178393E+04  0.22983827228E+04 0.  0.
        4    1    3    3  502    0 -0.68519736651E+02 -0.92619857685E+03 -0.67048886664E+03  0.11454674553E+04  0.12699999809E+01 0.  1.
       -4    1    3    3    0  502  0.68519736651E+02  0.92619857685E+03  0.68319412824E+03  0.11529503839E+04  0.12699999809E+01 0. -1.
</event>
<event>
 5   0  0.1635955E-05  0.2291388E+04  0.7818609E-02  0.8481325E-01
        2   -1    0    0  501    0  0.00000000000E+00  0.00000000000E+00  0.12020722721E+04  0.12020722721E+04  0.25500000920E-02 0.  1.
       -2   -1    0    0    0  501  0.00000000000E+00  0.00000000000E+00 -0.10919596455E+04  0.10919596455E+04  0.25500000920E-02 0. -1.
    10030    2    1    2    0    0  0.00000000000E+00  0.00000000000E+00  0.11011262661E+03  0.22940319177E+04  0.22913877125E+04 0.  0.
        2    1    3    3  502    0 -0.59671244232E+03 -0.77911315255E+03  0.64695033727E+03  0.11754266384E+04  0.25500000920E-02 0.  1.
       -2    1    3    3    0  502  0.59671244232E+03  0.77911315255E+03 -0.53683771067E+03  0.11186052793E+04  0.25500000920E-02 0. -1.
</event>
<event>
 5   0  0.1588969E-05  0.2315799E+04  0.7818609E-02  0.8471718E-01
       -2   -1    0    0    0  501  0.00000000000E+00  0.00000000000E+00  0.73937764832E+03  0.73937764832E+03  0.25500000920E-02 0.  1.
        2   -1    0    0  501    0  0.00000000000E+00  0.00000000000E+00 -0.18133245829E+04  0.18133245829E+04  0.25500000920E-02 0. -1.
    10030    2    1    2    0    0  0.00000000000E+00  0.00000000000E+00 -0.10739469346E+04  0.25527022313E+04  0.23157993573E+04 0.  0.
        1    1    3    3  502    0  0.28460416733E+03  0.68499141858E+03 -0.15170395394E+04  0.16886745511E+04  0.50400001928E-02 0. -1.
       -1    1    3    3    0  502 -0.28460416733E+03 -0.68499141858E+03  0.44309260477E+03  0.86402768012E+03  0.50400001928E-02 0.  1.
</event>
<event>
 5   0  0.1588969E-05  0.2308500E+04  0.7818609E-02  0.8474577E-01
        2   -1    0    0  501    0  0.00000000000E+00  0.00000000000E+00  0.20816643451E+04  0.20816643451E+04  0.25500000920E-02 0.  1.
       -2   -1    0    0    0  501  0.00000000000E+00  0.00000000000E+00 -0.64001350968E+03  0.64001350968E+03  0.25500000920E-02 0. -1.
    10030    2    1    2    0    0  0.00000000000E+00  0.00000000000E+00  0.14416508354E+04  0.27216778548E+04  0.23085002088E+04 0.  0.
        1    1    3    3  502    0 -0.70047343460E+03  0.87900186495E+03  0.10304869505E+04  0.15248641469E+04  0.50400001928E-02 0.  1.
       -1    1    3    3    0  502  0.70047343460E+03 -0.87900186495E+03  0.41116388490E+03  0.11968137079E+04  0.50400001928E-02 0. -1.
</event>
<event>
 5   0  0.7202572E-06  0.2341015E+04  0.7818609E-02  0.8461923E-01
        1   -1    0    0  501    0  0.00000000000E+00  0.00000000000E+00  0.10964310527E+04  0.10964310527E+04  0.50400001928E-02 0. -1.
       -1   -1    0    0    0  501  0.00000000000E+00  0.00000000000E+00 -0.12495884997E+04  0.12495884997E+04  0.50400001928E-02 0.  1.
    10030    2    1    2    0    0  0.00000000000E+00  0.00000000000E+00 -0.15315744704E+03  0.23460195524E+04  0.23410148518E+04 0.  0.
        2    1    3    3  502    0  0.73381288379E+03 -0.87353337931E+03  0.18579336514E+03  0.11558810872E+04  0.25500000920E-02 0. -1.
       -2    1    3    3    0  502 -0.73381288379E+03  0.87353337931E+03 -0.33895081218E+03  0.11901384652E+04  0.25500000920E-02 0.  1.
</event>
<event>
 5   0  0.1697855E-05  0.2289260E+04  0.7818609E-02  0.8482168E-01
       -2   -1    0    0    0  501  0.00000000000E+00  0.00000000000E+00  0.76987975879E+03  0.76987975879E+03  0.25500000920E-02 0.  1.
        2   -1    0    0  501    0  0.00000000000E+00  0.00000000000E+00 -0.17017960225E+04  0.17017960225E+04  0.25500000920E-02 0. -1.
    10030    2    1    2    0    0  0.00000000000E+00  0.00000000000E+00 -0.93191626367E+03  0.24716757812E+04  0.22892604144E+04 0.  0.
        5    1    3    3  502    0  0.58883127206E+03 -0.97483788603E+03 -0.34226465658E+03  0.11892007216E+04  0.46999998093E+01 0.  1.
       -5    1    3    3    0  502 -0.58883127206E+03  0.97483788603E+03 -0.58965160709E+03  0.12824750597E+04  0.46999998093E+01 0. -1.
</event>
<event>
 5   0  0.7416556E-06  0.2317123E+04  0.7818609E-02  0.8471200E-01
        1   -1    0    0  501    0  0.00000000000E+00  0.00000000000E+00  0.86949289381E+03  0.86949289382E+03  0.50400001928E-02 0.  1.
       -1   -1    0    0    0  501  0.00000000000E+00  0.00000000000E+00 -0.15437333902E+04  0.15437333903E+04  0.50400001928E-02 0. -1.
    10030    2    1    2    0    0  0.00000000000E+00  0.00000000000E+00 -0.67424049644E+03  0.24132262841E+04  0.23171234001E+04 0.  0.
        4    1    3    3  502    0 -0.65125471070E+03  0.73695573557E+03  0.30067346777E+03  0.10284175230E+04  0.12699999809E+01 0.  1.
       -4    1    3    3    0  502  0.65125471070E+03 -0.73695573557E+03 -0.97491396421E+03  0.13848087611E+04  0.12699999809E+01 0. -1.
</event>
<event>
 5   0  0.7391007E-06  0.2385720E+04  0.7818609E-02  0.8444869E-01
       -1   -1    0    0    0  501  0.00000000000E+00  0.00000000000E+00  0.11451833831E+04  0.11451833831E+04  0.50400001928E-02 0.  1.
        1   -1    0    0  501    0  0.00000000000E+00  0.00000000000E+00 -0.12425211728E+04  0.12425211728E+04  0.50400001928E-02 0. -1.
    10030    2    1    2    0    0  0.00000000000E+00  0.00000000000E+00 -0.97337789660E+02  0.23877045559E+04  0.23857196819E+04 0.  0.
        1    1    3    3  502    0  0.67342054572E+03 -0.71280794856E+03  0.63110470180E+03  0.11661404493E+04  0.50400001928E-02 0.  1.
       -1    1    3    3    0  502 -0.67342054572E+03  0.71280794856E+03 -0.72844249146E+03  0.12215641065E+04  0.50400001928E-02 0. -1.
</event>
<event>
 5   0  0.7391007E-06  0.2289410E+04  0.7818609E-02  0.8482108E-01
        1   -1    0    0  501    0  0.00000000000E+00  0.00000000000E+00  0.17644136480E+04  0.17644136480E+04  0.50400001928E-02 0.  1.
       -1   -1    0    0    0  501  0.00000000000E+00  0.00000000000E+00 -0.74265419717E+03  0.74265419719E+03  0.50400001928E-02 0. -1.
    10030    2    1    2    0    0  0.00000000000E+00  0.00000000000E+00  0.10217594509E+04  0.25070678452E+04  0.22894097067E+04 0.  0.
        1    1    3    3  502    0 -0.71300278295E+03 -0.68668928298E+03 -0.11860467366E+03  0.99698656385E+03  0.50400001928E-02 0. -1.
       -1    1    3    3    0  502  0.71300278295E+03  0.68668928298E+03  0.11403641245E+04  0.15100812814E+04  0.50400001928E-02 0.  1.
</event>
<event>
 5   0  0.7202572E-06  0.2215621E+04  0.7818609E-02  0.8511954E-01
        1   -1    0    0  501    0  0.00000000000E+00  0.00000000000E+00  0.11945351040E+04  0.11945351040E+04  0.50400001928E-02 0. -1.
       -1   -1    0    0    0  501  0.00000000000E+00  0.00000000000E+00 -0.10273820397E+04  0.10273820397E+04  0.50400001928E-02 0.  1.
    10030    2    1    2    0    0  0.00000000000E+00  0.00000000000E+00  0.16715306433E+03  0.22219171437E+04  0.22156208265E+04 0.  0.
        2    1    3    3  502    0  0.30054654597E+02  0.99454971367E+03  0.57200423416E+03  0.11477026005E+04  0.25500000920E-02 0. -1.
       -2    1    3    3    0  502 -0.30054654597E+02 -0.99454971367E+03 -0.40485116982E+03  0.10742145433E+04  0.25500000920E-02 0.  1.
</event>
<event>
 5   0  0.7183014E-06  0.2292348E+04  0.7818609E-02  0.8480944E-01
       -1   -1    0    0    0  501  0.00000000000E+00  0.00000000000E+00  0.91300289289E+03  0.91300289291E+03  0.50400001928E-02 0. -1.
        1   -1    0    0  501    0  0.00000000000E+00  0.00000000000E+00 -0.14388946000E+04  0.14388946001E+04  0.50400001928E-02 0.  1.
    10030    2    1    2    0    0  0.00000000000E+00  0.00000000000E+00 -0.52589170715E+03  0.23518974930E+04  0.22923480822E+04 0.  0.
        3    1    3    3  502    0 -0.33710290863E+03  0.67595134482E+03  0.62151952606E+03  0.97817949429E+03  0.10100000352E+00 0. -1.
       -3    1    3    3    0  502  0.33710290863E+03 -0.67595134482E+03 -0.11474112332E+04  0.13737179987E+04  0.10100000352E+00 0.  1.
</event>
<event>
 5   0  0.1602809E-05  0.2296328E+04  0.7818609E-02  0.8479370E-01
       -2   -1    0    0    0  501  0.00000000000E+00  0.00000000000E+00  0.12211688663E+04  0.12211688663E+04  0.25500000920E-02 0.  1.
        2   -1    0    0  501    0  0.00000000000E+00  0.00000000000E+00 -0.10795237621E+04  0.10795237621E+04  0.25500000920E-02 0. -1.
    10030    2    1    2    0    0  0.00000000000E+00  0.00000000000E+00  0.14164510419E+03  0.23006926285E+04  0.22963282072E+04 0.  0.
        3    1    3    3  502    0  0.61725589031E+03 -0.53159484314E+03 -0.73984004359E+03  0.11004368277E+04  0.10100000352E+00 0. -1.
       -3    1    3    3    0  502 -0.61725589031E+03  0.53159484314E+03  0.88148514778E+03  0.12002558008E+04  0.10100000352E+00 0.  1.
</event>
<event>
 5   0  0.7183014E-06  0.2313025E+04  0.7818609E-02  0.8472803E-01
       -1   -1    0    0    0  501  0.00000000000E+00  0.00000000000E+00  0.80776636177E+03  0.80776636179E+03  0.50400001928E-02 0. -1.
        1   -1    0    0  501    0  0.00000000000E+00  0.00000000000E+00 -0.16558266535E+04  0.16558266535E+04  0.50400001928E-02 0.  1.
    10030    2    1    2    0    0  0.00000000000E+00  0.00000000000E+00 -0.84806029173E+03  0.24635930153E+04  0.23130249213E+04 0.  0.
        3    1    3    3  502    0  0.52754866610E+03 -0.83719182124E+03  0.21353738125E+03  0.10123220654E+04  0.10100000352E+00 0. -1.
       -3    1    3    3    0  502 -0.52754866610E+03  0.83719182124E+03 -0.10615976730E+04  0.14512709499E+04  0.10100000352E+00 0.  1.
</event>
<event>
 5   0  0.1626636E-05  0.2277094E+04  0.7818609E-02  0.8487008E-01
        2   -1    0    0  501    0  0.00000000000E+00  0.00000000000E+00  0.12379869800E+04  0.12379869800E+04  0.25500000920E-02 0. -1.
       -2   -1    0    0    0  501  0.00000000000E+00  0.00000000000E+00 -0.10470943898E+04  0.10470943898E+04  0.25500000920E-02 0.  1.
    10030    2    1    2    0    0  0.00000000000E+00  0.00000000000E+00  0.19089259020E+03  0.22850813698E+04  0.22770939562E+04 0.  0.
        4    1    3    3  502    0  0.62945230760E+03  0.58486869005E+03  0.84506455967E+03  0.12051627753E+04  0.12699999809E+01 0. -1.
       -4    1    3    3    0  502 -0.62945230760E+03 -0.58486869005E+03 -0.65417196946E+03  0.10799185945E+04  0.12699999809E+01 0.  1.
</event>
<event>
 5   0  0.1602809E-05  0.2306414E+04  0.7818609E-02  0.8475397E-01
        2   -1    0    0  501    0  0.00000000000E+00  0.00000000000E+00  0.13571326912E+04  0.13571326912E+04  0.25500000920E-02 0. -1.
       -2   -1    0    0    0  501  0.00000000000E+00  0.00000000000E+00 -0.97992328733E+03  0.97992328733E+03  0.25500000920E-02 0.  1.
    10030    2    1    2    0    0  0.00000000000E+00  0.00000000000E+00  0.37720940388E+03  0.23370559785E+04  0.23064136039E+04 0.  0.
        3    1    3    3  502    0  0.76676569094E+03 -0.78490722523E+03  0.54810976738E+03  0.12265534250E+04  0.10100000352E+00 0. -1.
       -3    1    3    3    0  502 -0.76676569094E+03  0.78490722523E+03 -0.17090036350E+03  0.11105025536E+04  0.10100000352E+00 0.  1.
</event>
<event>
 5   0  0.1635955E-05  0.2237537E+04  0.7818609E-02  0.8502965E-01
       -2   -1    0    0    0  501  0.00000000000E+00  0.00000000000E+00  0.90005854286E+03  0.90005854286E+03  0.25500000920E-02 0.  1.
        2   -1    0    0  501    0  0.00000000000E+00  0.00000000000E+00 -0.13906236881E+04  0.13906236881E+04  0.25500000920E-02 0. -1.
    10030    2    1    2    0    0  0.00000000000E+00  0.00000000000E+00 -0.49056514520E+03  0.22906822309E+04  0.22375367978E+04 0.  0.
        2    1    3    3  502    0  0.76450389367E+03  0.15332348979E+03 -0.10666278541E+04  0.13212377815E+04  0.25500000920E-02 0. -1.
       -2    1    3    3    0  502 -0.76450389367E+03 -0.15332348979E+03  0.57606270893E+03  0.96944444946E+03  0.25500000920E-02 0.  1.
</event>
<event>
 5   0  0.7278815E-06  0.2301690E+04  0.7818609E-02  0.8477255E-01
       -1   -1    0    0    0  501  0.00000000000E+00  0.00000000000E+00  0.69278699208E+03  0.69278699210E+03  0.50400001928E-02 0.  1.
        1   -1    0    0  501    0  0.00000000000E+00  0.00000000000E+00 -0.19117621714E+04  0.19117621714E+04  0.50400001928E-02 0. -1.
    10030    2    1    2    0    0  0.00000000000E+00  0.00000000000E+00 -0.12189751793E+04  0.26045491635E+04  0.23016897830E+04 0.  0.
        5    1    3    3  502    0  0.57494110491E+03 -0.31909899484E+02  0.51803900253E+03  0.77457214896E+03  0.46999998093E+01 0.  1.
       -5    1    3    3    0  502 -0.57494110491E+03  0.31909899484E+02 -0.17370141818E+04  0.18299770145E+04  0.46999998093E+01 0. -1.
</event>
<event>
 5   0  0.7391007E-06  0.2297097E+04  0.7818609E-02  0.8479066E-01
       -1   -1    0    0    0  501  0.00000000000E+00  0.00000000000E+00  0.71643207514E+03  0.71643207516E+03  0.50400001928E-02 0.  1.
        1   -1    0    0  501    0  0.00000000000E+00  0.00000000000E+00 -0.18412969400E+04  0.18412969400E+04  0.50400001928E-02 0. -1.
    10030    2    1    2    0    0  0.00000000000E+00  0.00000000000E+00 -0.11248648649E+04  0.25577290152E+04  0.22970974622E+04 0.  0.
        1    1    3    3  502    0  0.12593832013E+03  0.28198237598E+03 -0.17941992461E+04  0.18205838227E+04  0.50400001928E-02 0. -1.
       -1    1    3    3    0  502 -0.12593832013E+03 -0.28198237598E+03  0.66933438123E+03  0.73714519245E+03  0.50400001928E-02 0.  1.
</event>
<event>
 5   0  0.1626636E-05  0.2281562E+04  0.7818609E-02  0.8485226E-01
       -2   -1    0    0    0  501  0.00000000000E+00  0.00000000000E+00  0.77718060604E+03  0.77718060604E+03  0.25500000920E-02 0.  1.
        2   -1    0    0  501    0  0.00000000000E+00  0.00000000000E+00 -0.16744907786E+04  0.16744907786E+04  0.25500000920E-02 0. -1.
    10030    2    1    2    0    0  0.00000000000E+00  0.00000000000E+00 -0.89731017260E+03  0.24516713847E+04  0.22815624104E+04 0.  0.
        4    1    3    3  502    0  0.35441888044E+03  0.10778768604E+04 -0.57556615970E+03  0.12722850648E+04  0.12699999809E+01 0. -1.
       -4    1    3    3    0  502 -0.35441888044E+03 -0.10778768604E+04 -0.32174401290E+03  0.11793863199E+04  0.12699999809E+01 0.  1.
</event>
<event>
 5   0  0.1626636E-05  0.2299734E+04  0.7818609E-02  0.8478026E-01
        2   -1    0    0  501    0  0.00000000000E+00  0.00000000000E+00  0.19313112709E+04  0.19313112709E+04  0.25500000920E-02 0.  1.
       -2   -1    0    0    0  501  0.00000000000E+00  0.00000000000E+00 -0.68460951321E+03  0.68460951321E+03  0.25500000920E-02 0. -1.
    10030    2    1    2    0    0  0.00000000000E+00  0.00000000000E+00  0.12467017576E+04  0.26159207841E+04  0.22997339577E+04 0.  0.
        4    1    3    3  502    0 -0.99013208079E+03 -0.47586413989E+03  0.23696589891E+03  0.11238161181E+04  0.12699999809E+01 0. -1.
       -4    1    3    3    0  502  0.99013208079E+03  0.47586413989E+03  0.10097358587E+04  0.14921046660E+04  0.12699999809E+01 0.  1.
</event>
<event>
 5   0  0.1697855E-05  0.2347426E+04  0.7818609E-02  0.8459453E-01
       -2   -1    0    0    0  501  0.00000000000E+00  0.00000000000E+00  0.10701443314E+04  0.10701443314E+04  0.25500000920E-02 0. -1.
        2   -1    0    0  501    0  0.00000000000E+00  0.00000000000E+00 -0.12873048703E+04  0.12873048703E+04  0.25500000920E-02 0.  1.
    10030    2    1    2    0    0  0.00000000000E+00  0.00000000000E+00 -0.21716053886E+03  0.23574492017E+04  0.23474258325E+04 0.  0.
        5    1    3    3  502    0 -0.18438981367E+03 -0.28800184960E+03 -0.12361546178E+04  0.12825930757E+04  0.46999998093E+01 0.  1.
       -5    1    3    3    0  502  0.18438981367E+03  0.28800184960E+03  0.10189940789E+04  0.10748561260E+04  0.46999998093E+01 0. -1.
</event>
<event>
 5   0  0.1602809E-05  0.2304300E+04  0.7818609E-02  0.8476228E-01
        2   -1    0    0  501    0  0.00000000000E+00  0.00000000000E+00  0.13473306585E+04  0.13473306585E+04  0.25500000920E-02 0.  1.
       -2   -1    0    0    0  501  0.00000000000E+00  0.00000000000E+00 -0.98524418439E+03  0.98524418440E+03  0.25500000920E-02 0. -1.
    10030    2    1    2    0    0  0.00000000000E+00  0.00000000000E+00  0.36208647410E+03  0.23325748429E+04  0.23043000636E+04 0.  0.
        3    1    3    3  502    0  0.16486926349E+03 -0.10973768215E+04 -0.13264943160E+03  0.11175927900E+04  0.10100000352E+00 0.  1.
       -3    1    3    3    0  502 -0.16486926349E+03  0.10973768215E+04  0.49473590570E+03  0.12149820529E+04  0.10100000352E+00 0. -1.
</event>
<event>
 5   0  0.1626636E-05  0.2301602E+04  0.7818609E-02  0.8477290E-01
       -2   -1    0    0    0  501  0.00000000000E+00  0.00000000000E+00  0.10089059698E+04  0.10089059698E+04  0.25500000920E-02 0.  1.
        2   -1    0    0  501    0  0.00000000000E+00  0.00000000000E+00 -0.13126520812E+04  0.13126520812E+04  0.25500000920E-02 0. -1.
    10030    2    1    2    0    0  0.00000000000E+00  0.00000000000E+00 -0.30374611142E+03  0.23215580511E+04  0.23016016346E+04 0.  0.
        4    1    3    3  502    0 -0.13500230716E+03  0.17400538695E+03 -0.12911965593E+04  0.13098449012E+04  0.12699999809E+01 0. -1.
       -4    1    3    3    0  502  0.13500230716E+03 -0.17400538695E+03  0.98745044788E+03  0.10117131498E+04  0.12699999809E+01 0.  1.
</event>
<event>
 5   0  0.7278815E-06  0.2253874E+04  0.7818609E-02  0.8496333E-01
        1   -1    0    0  501    0  0.00000000000E+00  0.00000000000E+00  0.93942054167E+03  0.93942054168E+03  0.50400001928E-02 0. -1.
       -1   -1    0    0    0  501  0.00000000000E+00  0.00000000000E+00 -0.13518835563E+04  0.13518835563E+04  0.50400001928E-02 0.  1.
    10030    2    1    2    0    0  0.00000000000E+00  0.00000000000E+00 -0.41246301461E+03  0.22913040980E+04  0.22538741604E+04 0.  0.
        5    1    3    3  502    0  0.10648265682E+04 -0.13404862886E+03 -0.55565520442E+03  0.12085526267E+04  0.46999998093E+01 0. -1.
       -5    1    3    3    0  502 -0.10648265682E+04  0.13404862886E+03  0.14319218982E+03  0.10827514713E+04  0.46999998093E+01 0.  1.
</event>
<event>
 5   0  0.7202572E-06  0.2298566E+04  0.7818609E-02  0.8478487E-01
        1   -1    0    0  501    0  0.00000000000E+00  0.00000000000E+00  0.14732415368E+04  0.14732415368E+04  0.50400001928E-02 0.  1.
       -1   -1    0    0    0  501  0.00000000000E+00  0.00000000000E+00 -0.89656170569E+03  0.89656170571E+03  0.50400001928E-02 0. -1.
    10030    2    1    2    0    0  0.00000000000E+00  0.00000000000E+00  0.57667983106E+03  0.23698032425E+04  0.22985664621E+04 0.  0.
        2    1    3    3  502    0  0.29929328655E+03  0.92731546963E+03  0.91662052814E+03  0.13377905831E+04  0.25500000920E-02 0.  1.
       -2    1    3    3    0  502 -0.29929328655E+03 -0.92731546963E+03 -0.33994069708E+03  0.10320126594E+04  0.25500000920E-02 0. -1.
</event>
<event>
 5   0  0.1626636E-05  0.2297426E+04  0.7818609E-02  0.8478937E-01
        2   -1    0    0  501    0  0.00000000000E+00  0.00000000000E+00  0.16557618702E+04  0.16557618702E+04  0.25500000920E-02 0.  1.
       -2   -1    0    0    0  501  0.00000000000E+00  0.00000000000E+00 -0.79693912912E+03  0.79693912913E+03  0.25500000920E-02 0. -1.
    10030    2    1    2    0    0  0.00000000000E+00  0.00000000000E+00  0.85882274106E+03  0.24527009993E+04  0.22974258838E+04 0.  0.
        4    1    3    3  502    0 -0.16710547620E+03  0.99943381363E+03  0.10070414310E+04  0.14286098994E+04  0.12699999809E+01 0.  1.
       -4    1    3    3    0  502  0.16710547620E+03 -0.99943381363E+03 -0.14821868992E+03  0.10240910999E+04  0.12699999809E+01 0. -1.
</event>
<event>
 5   0  0.1602809E-05  0.2301009E+04  0.7818609E-02  0.8477523E-01
        2   -1    0    0  501    0  0.00000000000E+00  0.00000000000E+00  0.11785586997E+04  0.11785586998E+04  0.25500000920E-02 0. -1.
       -2   -1    0    0    0  501  0.00000000000E+00  0.00000000000E+00 -0.11231181738E+04  0.11231181738E+04  0.25500000920E-02 0.  1.
    10030    2    1    2    0    0  0.00000000000E+00  0.00000000000E+00  0.55440525982E+02  0.23016768735E+04  0.23010090782E+04 0.  0.
        3    1    3    3  502    0  0.82700379558E+02 -0.42474840868E+02  0.11747950708E+04  0.11784680452E+04  0.10100000352E+00 0. -1.
       -3    1    3    3    0  502 -0.82700379558E+02  0.42474840868E+02 -0.11193545448E+04  0.11232088284E+04  0.10100000352E+00 0.  1.
</event>
<event>
 5   0  0.5704875E-06  0.2312682E+04  0.7818609E-02  0.8472938E-01
       -3   -1    0    0    0  501  0.00000000000E+00  0.00000000000E+00  0.10841456296E+04  0.10841456343E+04  0.10100000352E+00 0. -1.
        3   -1    0    0  501    0  0.00000000000E+00  0.00000000000E+00 -0.12333435597E+04  0.12333435639E+04  0.10100000352E+00 0.  1.
    10030    2    1    2    0    0  0.00000000000E+00  0.00000000000E+00 -0.14919793012E+03  0.23174891982E+04  0.23126815953E+04 0.  0.
        1    1    3    3  502    0 -0.85632613253E+03 -0.52128846113E+03 -0.65206763028E+03  0.11959215273E+04  0.50400001928E-02 0.  1.
       -1    1    3    3    0  502  0.85632613253E+03  0.52128846113E+03  0.50286970016E+03  0.11215676709E+04  0.50400001928E-02 0. -1.
</event>
<event>
 5   0  0.1635955E-05  0.2295286E+04  0.7818609E-02  0.8479782E-01
       -2   -1    0    0    0  501  0.00000000000E+00  0.00000000000E+00  0.80615870830E+03  0.80615870830E+03  0.25500000920E-02 0. -1.
        2   -1    0    0  501    0  0.00000000000E+00  0.00000000000E+00 -0.16337786811E+04  0.16337786811E+04  0.25500000920E-02 0.  1.
    10030    2    1    2    0    0  0.00000000000E+00  0.00000000000E+00 -0.82761997278E+03  0.24399373894E+04  0.22952863971E+04 0.  0.
        2    1    3    3  502    0 -0.10225590613E+04 -0.31222249463E+03  0.29579316105E+02  0.10695722771E+04  0.25500000920E-02 0.  1.
       -2    1    3    3    0  502  0.10225590613E+04  0.31222249463E+03 -0.85719928888E+03  0.13703651123E+04  0.25500000920E-02 0. -1.
</event>
<event>
 5   0  0.1626636E-05  0.2296908E+04  0.7818609E-02  0.8479141E-01
        2   -1    0    0  501    0  0.00000000000E+00  0.00000000000E+00  0.20019186911E+04  0.20019186911E+04  0.25500000920E-02 0.  1.
       -2   -1    0    0    0  501  0.00000000000E+00  0.00000000000E+00 -0.65884111902E+03  0.65884111902E+03  0.25500000920E-02 0. -1.
    10030    2    1    2    0    0  0.00000000000E+00  0.00000000000E+00  0.13430775721E+04  0.26607598101E+04  0.22969077915E+04 0.  0.
        4    1    3    3  502    0  0.72192042858E+03  0.35657606970E+03  0.16201829100E+04  0.18092290826E+04  0.12699999809E+01 0.  1.
       -4    1    3    3    0  502 -0.72192042858E+03 -0.35657606970E+03 -0.27710533790E+03  0.85153072750E+03  0.12699999809E+01 0. -1.
</event>
<event>
 5   0  0.7391007E-06  0.2301936E+04  0.7818609E-02  0.8477158E-01
        1   -1    0    0  501    0  0.00000000000E+00  0.00000000000E+00  0.12027651950E+04  0.12027651950E+04  0.50400001928E-02 0. -1.
       -1   -1    0    0    0  501  0.00000000000E+00  0.00000000000E+00 -0.11014011220E+04  0.11014011221E+04  0.50400001928E-02 0.  1.
    10030    2    1    2    0    0  0.00000000000E+00  0.00000000000E+00  0.10136407299E+03  0.23041663171E+04  0.23019356511E+04 0.  0.
        1    1    3    3  502    0  0.37757446891E+02 -0.39603810465E+03 -0.10303900736E+04  0.11045250151E+04  0.50400001928E-02 0.  1.
       -1    1    3    3    0  502 -0.37757446891E+02  0.39603810465E+03  0.11317541466E+04  0.11996413020E+04  0.50400001928E-02 0. -1.
</event>
<event>
 5   0  0.1635955E-05  0.2285135E+04  0.7818609E-02  0.8483805E-01
        2   -1    0    0  501    0  0.00000000000E+00  0.00000000000E+00  0.10092690368E+04  0.10092690368E+04  0.25500000920E-02 0. -1.
       -2   -1    0    0    0  501  0.00000000000E+00  0.00000000000E+00 -0.12934711500E+04  0.12934711500E+04  0.25500000920E-02 0.  1.
    10030    2    1    2    0    0  0.00000000000E+00  0.00000000000E+00 -0.28420211321E+03  0.23027401868E+04  0.22851349034E+04 0.  0.
        2    1    3    3  502    0 -0.75405029413E+02 -0.11258732520E+04  0.38679750177E+02  0.11290582896E+04  0.25500000920E-02 0.  1.
       -2    1    3    3    0  502  0.75405029413E+02  0.11258732520E+04 -0.32288186339E+03  0.11736818972E+04  0.25500000920E-02 0. -1.
</event>
<event>
 5   0  0.7278815E-06  0.2317617E+04  0.7818609E-02  0.8471007E-01
        1   -1    0    0  501    0  0.00000000000E+00  0.00000000000E+00  0.18502914803E+04  0.18502914803E+04  0.50400001928E-02 0.  1.
       -1   -1    0    0    0  501  0.00000000000E+00  0.00000000000E+00 -0.72574366934E+03  0.72574366935E+03  0.50400001928E-02 0. -1.
    10030    2    1    2    0    0  0.00000000000E+00  0.00000000000E+00  0.11245478110E+04  0.25760351497E+04  0.23176171628E+04 0.  0.
        5    1    3    3  502    0 -0.69661285218E+03  0.85460460743E+02 -0.46262595855E+03  0.84060562911E+03  0.46999998093E+01 0. -1.
       -5    1    3    3    0  502  0.69661285218E+03 -0.85460460743E+02  0.15871737696E+04  0.17354295206E+04  0.46999998093E+01 0.  1.
</event>
<event>
 5   0  0.7183014E-06  0.2306194E+04  0.7818609E-02  0.8475483E-01
       -1   -1    0    0    0  501  0.00000000000E+00  0.00000000000E+00  0.65882942197E+03  0.65882942199E+03  0.50400001928E-02 0. -1.
        1   -1    0    0  501    0  0.00000000000E+00  0.00000000000E+00 -0.20181737783E+04  0.20181737783E+04  0.50400001928E-02 0.  1.
    10030    2    1    2    0    0  0.00000000000E+00  0.00000000000E+00 -0.13593443563E+04  0.26770032002E+04  0.23061936292E+04 0.  0.
        3    1    3    3  502    0  0.30180914609E+03  0.47048503183E+03  0.49104931832E+03  0.74402578521E+03  0.10100000352E+00 0. -1.
       -3    1    3    3    0  502 -0.30180914609E+03 -0.47048503183E+03 -0.18503936746E+04  0.19329774150E+04  0.10100000352E+00 0.  1.
</event>
<event>
 5   0  0.1697855E-05  0.2296207E+04  0.7818609E-02  0.8479418E-01
        2   -1    0    0  501    0  0.00000000000E+00  0.00000000000E+00  0.10162222235E+04  0.10162222235E+04  0.25500000920E-02 0. -1.
       -2   -1    0    0    0  501  0.00000000000E+00  0.00000000000E+00 -0.12970996181E+04  0.12970996181E+04  0.25500000920E-02 0.  1.
    10030    2    1    2    0    0  0.00000000000E+00  0.00000000000E+00 -0.28087739468E+03  0.23133218416E+04  0.22962068356E+04 0.  0.
        5    1    3    3  502    0  0.38073137112E+03 -0.95566709382E+03  0.37312889235E+03  0.10943049079E+04  0.46999998093E+01 0.  1.
       -5    1    3    3    0  502 -0.38073137112E+03  0.95566709382E+03 -0.65400628702E+03  0.12190169337E+04  0.46999998093E+01 0. -1.
</event>
<event>
 5   0  0.7278815E-06  0.2307016E+04  0.7818609E-02  0.8475160E-01
        1   -1    0    0  501    0  0.00000000000E+00  0.00000000000E+00  0.10978588611E+04  0.10978588611E+04  0.50400001928E-02 0.  1.
       -1   -1    0    0    0  501  0.00000000000E+00  0.00000000000E+00 -0.12119782114E+04  0.12119782114E+04  0.50400001928E-02 0. -1.
    10030    2    1    2    0    0  0.00000000000E+00  0.00000000000E+00 -0.11411935025E+03  0.23098370725E+04  0.23070162711E+04 0.  0.
        5    1    3    3  502    0  0.53710948470E+03 -0.10092574049E+04  0.96332809406E+02  0.11473400577E+04  0.46999998093E+01 0.  1.
       -5    1    3    3    0  502 -0.53710948470E+03  0.10092574049E+04 -0.21045215966E+03  0.11624970148E+04  0.46999998093E+01 0. -1.
</event>
<event>
 5   0  0.1602809E-05  0.2293260E+04  0.7818609E-02  0.8480583E-01
       -2   -1    0    0    0  501  0.00000000000E+00  0.00000000000E+00  0.45763975672E+03  0.45763975672E+03  0.25500000920E-02 0.  1.
        2   -1    0    0  501    0  0.00000000000E+00  0.00000000000E+00 -0.28729160753E+04  0.28729160753E+04  0.25500000920E-02 0. -1.
    10030    2    1    2    0    0  0.00000000000E+00  0.00000000000E+00 -0.24152763186E+04  0.33305558320E+04  0.22932602240E+04 0.  0.
        3    1    3    3  502    0 -0.92857601935E+02 -0.97725056428E+03 -0.20682172606E+04  0.22893588288E+04  0.10100000352E+00 0. -1.
       -3    1    3    3    0  502  0.92857601935E+02  0.97725056428E+03 -0.34705905796E+03  0.10411970032E+04  0.10100000352E+00 0.  1.
</event>
<event>
 5   0  0.7391007E-06  0.2284185E+04  0.7818609E-02  0.8484183E-01
        1   -1    0    0  501    0  0.00000000000E+00  0.00000000000E+00  0.18289167893E+04  0.18289167893E+04  0.50400001928E-02 0. -1.
       -1   -1    0    0    0  501  0.00000000000E+00  0.00000000000E+00 -0.71319542408E+03  0.71319542410E+03  0.50400001928E-02 0.  1.
    10030    2    1    2    0    0  0.00000000000E+00  0.00000000000E+00  0.11157213653E+04  0.25421122134E+04  0.22841848307E+04 0.  0.
        1    1    3    3  502    0 -0.98242910383E+03  0.75533211683E+02  0.12005680307E+04  0.15531374075E+04  0.50400001928E-02 0. -1.
       -1    1    3    3    0  502  0.98242910383E+03 -0.75533211683E+02 -0.84846665482E+02  0.98897480594E+03  0.50400001928E-02 0.  1.
</event>
<event>
 5   0  0.7278815E-06  0.2294428E+04  0.7818609E-02  0.8480121E-01
       -1   -1    0    0    0  501  0.00000000000E+00  0.00000000000E+00  0.65043340599E+03  0.65043340601E+03  0.50400001928E-02 0. -1.
        1   -1    0    0  501    0  0.00000000000E+00  0.00000000000E+00 -0.20234197457E+04  0.20234197457E+04  0.50400001928E-02 0.  1.
    10030    2    1    2    0    0  0.00000000000E+00  0.00000000000E+00 -0.13729863398E+04  0.26738531518E+04  0.22944278564E+04 0.  0.
        5    1    3    3  502    0 -0.73110404701E+03 -0.10333074561E+03  0.33670228217E+03  0.81152996701E+03  0.46999998093E+01 0. -1.
       -5    1    3    3    0  502  0.73110404701E+03  0.10333074561E+03 -0.17096886219E+04  0.18623231848E+04  0.46999998093E+01 0.  1.
</event>
<event>
 5   0  0.1602809E-05  0.2305627E+04  0.7818609E-02  0.8475706E-01
        2   -1    0    0  501    0  0.00000000000E+00  0.00000000000E+00  0.16133306158E+04  0.16133306158E+04  0.25500000920E-02 0. -1.
       -2   -1    0    0    0  501  0.00000000000E+00  0.00000000000E+00 -0.82374861461E+03  0.82374861461E+03  0.25500000920E-02 0.  1.
    10030    2    1    2    0    0  0.00000000000E+00  0.00000000000E+00  0.78958200115E+03  0.24370792304E+04  0.23056269079E+04 0.  0.
        3    1    3    3  502    0 -0.70053693754E+03 -0.21230762972E+03  0.13361578832E+04  0.15235302522E+04  0.10100000352E+00 0. -1.
       -3    1    3    3    0  502  0.70053693754E+03  0.21230762972E+03 -0.54657588201E+03  0.91354897816E+03  0.10100000352E+00 0.  1.
</event>
<event>
 5   0  0.1697855E-05  0.2332078E+04  0.7818609E-02  0.8465380E-01
       -2   -1    0    0    0  501  0.00000000000E+00  0.00000000000E+00  0.97365667597E+03  0.97365667597E+03  0.25500000920E-02 0.  1.
        2   -1    0    0  501    0  0.00000000000E+00  0.00000000000E+00 -0.13964333071E+04  0.13964333071E+04  0.25500000920E-02 0. -1.
    10030    2    1    2    0    0  0.00000000000E+00  0.00000000000E+00 -0.42277663115E+03  0.23700899831E+04  0.23320777106E+04 0.  0.
        5    1    3    3  502    0 -0.52897710968E+03  0.95922406896E+03 -0.61752301235E+03  0.12574912953E+04  0.46999998093E+01 0.  1.
       -5    1    3    3    0  502  0.52897710968E+03 -0.95922406896E+03  0.19474638120E+03  0.11125986878E+04  0.46999998093E+01 0. -1.
</event>
<event>
 5   0  0.1697855E-05  0.2295973E+04  0.7818609E-02  0.8479511E-01
       -2   -1    0    0    0  501  0.00000000000E+00  0.00000000000E+00  0.78999225260E+03  0.78999225261E+03  0.25500000920E-02 0. -1.
        2   -1    0    0  501    0  0.00000000000E+00  0.00000000000E+00 -0.16682099218E+04  0.16682099218E+04  0.25500000920E-02 0.  1.
    10030    2    1    2    0    0  0.00000000000E+00  0.00000000000E+00 -0.87821766923E+03  0.24582021744E+04  0.22959729214E+04 0.  0.
        5    1    3    3  502    0  0.53290646177E+03  0.10167748059E+04 -0.44502378303E+03  0.12312142626E+04  0.46999998093E+01 0.  1.
       -5    1    3    3    0  502 -0.53290646177E+03 -0.10167748059E+04 -0.43319388621E+03  0.12269879119E+04  0.46999998093E+01 0. -1.
</event>
<event>
 5   0  0.7416556E-06  0.2274916E+04  0.7818609E-02  0.8487878E-01
        1   -1    0    0  501    0  0.00000000000E+00  0.00000000000E+00  0.63468154547E+03  0.63468154549E+03  0.50400001928E-02 0.  1.
       -1   -1    0    0    0  501  0.00000000000E+00  0.00000000000E+00 -0.20385189361E+04  0.20385189361E+04  0.50400001928E-02 0. -1.
    10030    2    1    2    0    0  0.00000000000E+00  0.00000000000E+00 -0.14038373906E+04  0.26732004816E+04  0.22749156898E+04 0.  0.
        4    1    3    3  502    0 -0.66544590238E+03 -0.43538117031E+02 -0.17847089686E+04  0.19052300470E+04  0.12699999809E+01 0. -1.
       -4    1    3    3    0  502  0.66544590238E+03  0.43538117031E+02  0.38087157794E+03  0.76797043459E+03  0.12699999809E+01 0.  1.
</event>
<event>
 5   0  0.5704875E-06  0.2347048E+04  0.7818609E-02  0.8459598E-01
       -3   -1    0    0    0  501  0.00000000000E+00  0.00000000000E+00  0.90406389694E+03  0.90406390258E+03  0.10100000352E+00 0. -1.
        3   -1    0    0  501    0  0.00000000000E+00  0.00000000000E+00 -0.15232975158E+04  0.15232975192E+04  0.10100000352E+00 0.  1.
    10030    2    1    2    0    0  0.00000000000E+00  0.00000000000E+00 -0.61923361887E+03  0.24273614217E+04  0.23470477620E+04 0.  0.
        2    1    3    3  502    0 -0.89260680779E+02  0.25517440211E+03 -0.14906554622E+04  0.15149703468E+04  0.25500000920E-02 0.  1.
       -2    1    3    3    0  502  0.89260680779E+02 -0.25517440211E+03  0.87142184333E+03  0.91239107496E+03  0.25500000920E-02 0. -1.
</event>
<event>
 5   0  0.7416556E-06  0.2300784E+04  0.7818609E-02  0.8477612E-01
       -1   -1    0    0    0  501  0.00000000000E+00  0.00000000000E+00  0.90684381891E+03  0.90684381892E+03  0.50400001928E-02 0.  1.
        1   -1    0    0  501    0  0.00000000000E+00  0.00000000000E+00 -0.14593495460E+04  0.14593495460E+04  0.50400001928E-02 0. -1.
    10030    2    1    2    0    0  0.00000000000E+00  0.00000000000E+00 -0.55250572713E+03  0.23661933650E+04  0.23007843145E+04 0.  0.
        4    1    3    3  502    0 -0.47221422854E+02  0.97812842495E+03  0.34459417913E+03  0.10381290092E+04  0.12699999809E+01 0.  1.
       -4    1    3    3    0  502  0.47221422854E+02 -0.97812842495E+03 -0.89709990625E+03  0.13280643558E+04  0.12699999809E+01 0. -1.
</event>
<event>
 5   0  0.7183014E-06  0.2305914E+04  0.7818609E-02  0.8475593E-01
        1   -1    0    0  501    0  0.00000000000E+00  0.00000000000E+00  0.17350037327E+04  0.17350037327E+04  0.50400001928E-02 0. -1.
       -1   -1    0    0    0  501  0.00000000000E+00  0.00000000000E+00 -0.76617138313E+03  0.76617138315E+03  0.50400001928E-02 0.  1.
    10030    2    1    2    0    0  0.00000000000E+00  0.00000000000E+00  0.96883234956E+03  0.25011751159E+04  0.23059143173E+04 0.  0.
        3    1    3    3  502    0  0.68515528541E+03 -0.91618318573E+03  0.63964573947E+03  0.13107158644E+04  0.10100000352E+00 0. -1.
       -3    1    3    3    0  502 -0.68515528541E+03  0.91618318573E+03  0.32918661009E+03  0.11904592515E+04  0.10100000352E+00 0.  1.
</event>
<event>
 5   0  0.7416556E-06  0.2290027E+04  0.7818609E-02  0.8481864E-01
        1   -1    0    0  501    0  0.00000000000E+00  0.00000000000E+00  0.95792955368E+03  0.95792955369E+03  0.50400001928E-02 0.  1.
       -1   -1    0    0    0  501  0.00000000000E+00  0.00000000000E+00 -0.13686345223E+04  0.13686345223E+04  0.50400001928E-02 0. -1.
    10030    2    1    2    0    0  0.00000000000E+00  0.00000000000E+00 -0.41070496862E+03  0.23265640760E+04  0.22900265999E+04 0.  0.
        4    1    3    3  502    0 -0.77727261939E+02 -0.10882695582E+04  0.14758287805E+03  0.11009788724E+04  0.12699999809E+01 0.  1.
       -4    1    3    3    0  502  0.77727261939E+02  0.10882695582E+04 -0.55828784667E+03  0.12255852036E+04  0.12699999809E+01 0. -1.
</event>
<event>
 5   0  0.1602809E-05  0.2301998E+04  0.7818609E-02  0.8477134E-01
       -2   -1    0    0    0  501  0.00000000000E+00  0.00000000000E+00  0.73819106497E+03  0.73819106497E+03  0.25500000920E-02 0. -1.
        2   -1    0    0  501    0  0.00000000000E+00  0.00000000000E+00 -0.17946548001E+04  0.17946548001E+04  0.25500000920E-02 0.  1.
    10030    2    1    2    0    0  0.00000000000E+00  0.00000000000E+00 -0.10564637351E+04  0.25328458651E+04  0.23019975136E+04 0.  0.
        3    1    3    3  502    0  0.74861447691E+03 -0.10345742178E+03 -0.14834330024E+04  0.16648425018E+04  0.10100000352E+00 0.  1.
       -3    1    3    3    0  502 -0.74861447691E+03  0.10345742178E+03  0.42696926727E+03  0.86800336322E+03  0.10100000352E+00 0. -1.
</event>
<event>
 5   0  0.1697855E-05  0.2312021E+04  0.7818609E-02  0.8473197E-01
        2   -1    0    0  501    0  0.00000000000E+00  0.00000000000E+00  0.93913170712E+03  0.93913170713E+03  0.25500000920E-02 0.  1.
       -2   -1    0    0    0  501  0.00000000000E+00  0.00000000000E+00 -0.14229737889E+04  0.14229737889E+04  0.25500000920E-02 0. -1.
    10030    2    1    2    0    0  0.00000000000E+00  0.00000000000E+00 -0.48384208179E+03  0.23621054960E+04  0.23120205912E+04 0.  0.
        5    1    3    3  502    0 -0.97687412488E+03  0.16416468420E+03  0.36689452846E+03  0.10563459587E+04  0.46999998093E+01 0.  1.
       -5    1    3    3    0  502  0.97687412488E+03 -0.16416468420E+03 -0.85073661026E+03  0.13057595374E+04  0.46999998093E+01 0. -1.
</event>
<event>
 5   0  0.1697855E-05  0.2285778E+04  0.7818609E-02  0.8483550E-01
        2   -1    0    0  501    0  0.00000000000E+00  0.00000000000E+00  0.13840385491E+04  0.13840385491E+04  0.25500000920E-02 0.  1.
       -2   -1    0    0    0  501  0.00000000000E+00  0.00000000000E+00 -0.94375652446E+03  0.94375652446E+03  0.25500000920E-02 0. -1.
    10030    2    1    2    0    0  0.00000000000E+00  0.00000000000E+00  0.44028202467E+03  0.23277950736E+04  0.22857781265E+04 0.  0.
        5    1    3    3  502    0  0.23098557929E+02  0.98106104526E+03  0.81670683772E+03  0.12767327311E+04  0.46999998093E+01 0.  1.
       -5    1    3    3    0  502 -0.23098557929E+02 -0.98106104526E+03 -0.37642481305E+03  0.10510623425E+04  0.46999998093E+01 0. -1.
</event>
<event>
 5   0  0.7391007E-06  0.2282157E+04  0.7818609E-02  0.8484990E-01
        1   -1    0    0  501    0  0.00000000000E+00  0.00000000000E+00  0.75934983295E+03  0.75934983297E+03  0.50400001928E-02 0. -1.
       -1   -1    0    0    0  501  0.00000000000E+00  0.00000000000E+00 -0.17147039112E+04  0.17147039112E+04  0.50400001928E-02 0.  1.
    10030    2    1    2    0    0  0.00000000000E+00  0.00000000000E+00 -0.95535407825E+03  0.24740537442E+04  0.22821569872E+04 0.  0.
        1    1    3    3  502    0  0.47003294476E+03  0.71601055101E+03 -0.12950359928E+04  0.15526494456E+04  0.50400001928E-02 0. -1.
       -1    1    3    3    0  502 -0.47003294476E+03 -0.71601055101E+03  0.33968191454E+03  0.92140429856E+03  0.50400001928E-02 0.  1.
</event>
<event>
 5   0  0.1588969E-05  0.2286146E+04  0.7818609E-02  0.8483404E-01
        2   -1    0    0  501    0  0.00000000000E+00  0.00000000000E+00  0.17440254809E+04  0.17440254809E+04  0.25500000920E-02 0. -1.
       -2   -1    0    0    0  501  0.00000000000E+00  0.00000000000E+00 -0.74919543483E+03  0.74919543483E+03  0.25500000920E-02 0.  1.
    10030    2    1    2    0    0  0.00000000000E+00  0.00000000000E+00  0.99483004605E+03  0.24932209157E+04  0.22861460395E+04 0.  0.
        1    1    3    3  502    0  0.84390352626E+03  0.73289947974E+03  0.75847382763E+03  0.13507765753E+04  0.50400001928E-02 0.  1.
       -1    1    3    3    0  502 -0.84390352626E+03 -0.73289947974E+03  0.23635621842E+03  0.11424443405E+04  0.50400001928E-02 0. -1.
</event>
<event>
 5   0  0.1588969E-05  0.2302214E+04  0.7818609E-02  0.8477049E-01
        2   -1    0    0  501    0  0.00000000000E+00  0.00000000000E+00  0.87196333216E+03  0.87196333216E+03  0.25500000920E-02 0.  1.
       -2   -1    0    0    0  501  0.00000000000E+00  0.00000000000E+00 -0.15196133343E+04  0.15196133343E+04  0.25500000920E-02 0. -1.
    10030    2    1    2    0    0  0.00000000000E+00  0.00000000000E+00 -0.64765000218E+03  0.23915766665E+04  0.23022138099E+04 0.  0.
        1    1    3    3  502    0  0.69943245085E+03  0.76853188984E+03 -0.83822263623E+03  0.13350895876E+04  0.50400001928E-02 0. -1.
       -1    1    3    3    0  502 -0.69943245085E+03 -0.76853188984E+03  0.19057263405E+03  0.10564870789E+04  0.50400001928E-02 0.  1.
</event>
<event>
 5   0  0.7183014E-06  0.2301036E+04  0.7818609E-02  0.8477513E-01
        1   -1    0    0  501    0  0.00000000000E+00  0.00000000000E+00  0.83145591873E+03  0.83145591874E+03  0.50400001928E-02 0. -1.
       -1   -1    0    0    0  501  0.00000000000E+00  0.00000000000E+00 -0.15920170483E+04  0.15920170483E+04  0.50400001928E-02 0.  1.
    10030    2    1    2    0    0  0.00000000000E+00  0.00000000000E+00 -0.76056112957E+03  0.24234729670E+04  0.23010362861E+04 0.  0.
        3    1    3    3  502    0 -0.73252364535E+03  0.85676185948E+03 -0.62288526173E+03  0.12878733767E+04  0.10100000352E+00 0.  1.
       -3    1    3    3    0  502  0.73252364535E+03 -0.85676185948E+03 -0.13767586784E+03  0.11355995904E+04  0.10100000352E+00 0. -1.
</event>
<event>
 5   0  0.1626636E-05  0.2296173E+04  0.7818609E-02  0.8479432E-01
        2   -1    0    0  501    0  0.00000000000E+00  0.00000000000E+00  0.17599173824E+04  0.17599173824E+04  0.25500000920E-02 0. -1.
       -2   -1    0    0    0  501  0.00000000000E+00  0.00000000000E+00 -0.74895679331E+03  0.74895679331E+03  0.25500000920E-02 0.  1.
    10030    2    1    2    0    0  0.00000000000E+00  0.00000000000E+00  0.10109605891E+04  0.25088741758E+04  0.22961725364E+04 0.  0.
        4    1    3    3  502    0 -0.79466597882E+03  0.19468521406E+03 -0.37455013577E+03  0.89982540950E+03  0.12699999809E+01 0.  1.
       -4    1    3    3    0  502  0.79466597882E+03 -0.19468521406E+03  0.13855107249E+04  0.16090487663E+04  0.12699999809E+01 0. -1.
</event>
<event>
 5   0  0.7202572E-06  0.2294200E+04  0.7818609E-02  0.8480211E-01
        1   -1    0    0  501    0  0.00000000000E+00  0.00000000000E+00  0.10348608439E+04  0.10348608439E+04  0.50400001928E-02 0.  1.
       -1   -1    0    0    0  501  0.00000000000E+00  0.00000000000E+00 -0.12715124225E+04  0.12715124225E+04  0.50400001928E-02 0. -1.
    10030    2    1    2    0    0  0.00000000000E+00  0.00000000000E+00 -0.23665157860E+03  0.23063732665E+04  0.22942000075E+04 0.  0.
        2    1    3    3  502    0  0.93888050521E+03  0.65452043415E+03 -0.19583754222E+03  0.11611399333E+04  0.25500000920E-02 0. -1.
       -2    1    3    3    0  502 -0.93888050521E+03 -0.65452043415E+03 -0.40814036385E+02  0.11452333331E+04  0.25500000920E-02 0.  1.
</event>
<event>
 5   0  0.1635955E-05  0.2302745E+04  0.7818609E-02  0.8476840E-01
       -2   -1    0    0    0  501  0.00000000000E+00  0.00000000000E+00  0.16428056161E+04  0.16428056161E+04  0.25500000920E-02 0.  1.
        2   -1    0    0  501    0  0.00000000000E+00  0.00000000000E+00 -0.80694774010E+03  0.80694774010E+03  0.25500000920E-02 0. -1.
    10030    2    1    2    0    0  0.00000000000E+00  0.00000000000E+00  0.83585787599E+03  0.24497533562E+04  0.23027446922E+04 0.  0.
        2    1    3    3  502    0 -0.10740957611E+04 -0.31426479269E+03  0.13007360667E+03  0.11266602004E+04  0.25500000920E-02 0. -1.
       -2    1    3    3    0  502  0.10740957611E+04  0.31426479269E+03  0.70578426932E+03  0.13230931558E+04  0.25500000920E-02 0.  1.
</event>
<event>
 5   0  0.7391007E-06  0.2310309E+04  0.7818609E-02  0.8473867E-01
       -1   -1    0    0    0  501  0.00000000000E+00  0.00000000000E+00  0.68446158691E+03  0.68446158693E+03  0.50400001928E-02 0.  1.
        1   -1    0    0  501    0  0.00000000000E+00  0.00000000000E+00 -0.19495357301E+04  0.19495357301E+04  0.50400001928E-02 0. -1.
    10030    2    1    2    0    0  0.00000000000E+00  0.00000000000E+00 -0.12650741432E+04  0.26339973171E+04  0.23103093469E+04 0.  0.
        1    1    3    3  502    0  0.84927134272E+03 -0.49958250095E+03  0.54879502104E+02  0.98684155192E+03  0.50400001928E-02 0.  1.
       -1    1    3    3    0  502 -0.84927134272E+03  0.49958250095E+03 -0.13199536453E+04  0.16471557651E+04  0.50400001928E-02 0. -1.
</event>
<event>
 5   0  0.1635955E-05  0.2291391E+04  0.7818609E-02  0.8481323E-01
        2   -1    0    0  501    0  0.00000000000E+00  0.00000000000E+00  0.13949851512E+04  0.13949851512E+04  0.25500000920E-02 0. -1.
       -2   -1    0    0    0  501  0.00000000000E+00  0.00000000000E+00 -0.94095495777E+03  0.94095495777E+03  0.25500000920E-02 0.  1.
    10030    2    1    2    0    0  0.00000000000E+00  0.00000000000E+00  0.45403019342E+03  0.23359401090E+04  0.22913910134E+04 0.  0.
        2    1    3    3  502    0 -0.11423106362E+04  0.52338172365E+02  0.29913886858E+03  0.11819885518E+04  0.25500000920E-02 0. -1.
       -2    1    3    3    0  502  0.11423106362E+04 -0.52338172365E+02  0.15489132484E+03  0.11539515572E+04  0.25500000920E-02 0.  1.
</event>
<event>
 5   0  0.1697855E-05  0.2295417E+04  0.7818609E-02  0.8479730E-01
        2   -1    0    0  501    0  0.00000000000E+00  0.00000000000E+00  0.16728586192E+04  0.16728586192E+04  0.25500000920E-02 0. -1.
       -2   -1    0    0    0  501  0.00000000000E+00  0.00000000000E+00 -0.78741581848E+03  0.78741581848E+03  0.25500000920E-02 0.  1.
    10030    2    1    2    0    0  0.00000000000E+00  0.00000000000E+00  0.88544280077E+03  0.24602744377E+04  0.22954174687E+04 0.  0.
        5    1    3    3  502    0  0.68309343748E+03  0.90319415351E+03  0.64277288679E+03  0.13021349382E+04  0.46999998093E+01 0. -1.
       -5    1    3    3    0  502 -0.68309343748E+03 -0.90319415351E+03  0.24266991398E+03  0.11581394995E+04  0.46999998093E+01 0.  1.
</event>
<event>
 5   0  0.1697855E-05  0.2310514E+04  0.7818609E-02  0.8473787E-01
        2   -1    0    0  501    0  0.00000000000E+00  0.00000000000E+00  0.12317657522E+04  0.12317657522E+04  0.25500000920E-02 0.  1.
       -2   -1    0    0    0  501  0.00000000000E+00  0.00000000000E+00 -0.10835004192E+04  0.10835004192E+04  0.25500000920E-02 0. -1.
    10030    2    1    2    0    0  0.00000000000E+00  0.00000000000E+00  0.14826533305E+03  0.23152661714E+04  0.23105139764E+04 0.  0.
        5    1    3    3  502    0  0.10739297147E+03  0.37484027089E+03  0.11638242016E+04  0.12274149019E+04  0.46999998093E+01 0.  1.
       -5    1    3    3    0  502 -0.10739297147E+03 -0.37484027089E+03 -0.10155588686E+04  0.10878512695E+04  0.46999998093E+01 0. -1.
</event>
<event>
 5   0  0.1697855E-05  0.2309762E+04  0.7818609E-02  0.8474082E-01
       -2   -1    0    0    0  501  0.00000000000E+00  0.00000000000E+00  0.11449686388E+04  0.11449686388E+04  0.25500000920E-02 0.  1.
        2   -1    0    0  501    0  0.00000000000E+00  0.00000000000E+00 -0.11648794231E+04  0.11648794231E+04  0.25500000920E-02 0. -1.
    10030    2    1    2    0    0  0.00000000000E+00  0.00000000000E+00 -0.19910784274E+02  0.23098480619E+04  0.23097622453E+04 0.  0.
        5    1    3    3  502    0 -0.10582419719E+04 -0.20772017904E+03 -0.42313484282E+03  0.11584856189E+04  0.46999998093E+01 0. -1.
       -5    1    3    3    0  502  0.10582419719E+04  0.20772017904E+03  0.40322405855E+03  0.11513624431E+04  0.46999998093E+01 0.  1.
</event>
<event>
 5   0  0.7183014E-06  0.2299693E+04  0.7818609E-02  0.8478042E-01
       -1   -1    0    0    0  501  0.00000000000E+00  0.00000000000E+00  0.94340579079E+03  0.94340579080E+03  0.50400001928E-02 0.  1.
        1   -1    0    0  501    0  0.00000000000E+00  0.00000000000E+00 -0.14014609880E+04  0.14014609880E+04  0.50400001928E-02 0. -1.
    10030    2    1    2    0    0  0.00000000000E+00  0.00000000000E+00 -0.45805519719E+03  0.23448667788E+04  0.22996925113E+04 0.  0.
        3    1    3    3  502    0  0.37379123803E+03  0.61266474739E+03  0.68698949821E+03  0.99349512488E+03  0.10100000352E+00 0.  1.
       -3    1    3    3    0  502 -0.37379123803E+03 -0.61266474739E+03 -0.11450446954E+04  0.13513716539E+04  0.10100000352E+00 0. -1.
</event>
<event>
 5   0  0.7183014E-06  0.2310744E+04  0.7818609E-02  0.8473697E-01
        1   -1    0    0  501    0  0.00000000000E+00  0.00000000000E+00  0.20859482730E+04  0.20859482730E+04  0.50400001928E-02 0. -1.
       -1   -1    0    0    0  501  0.00000000000E+00  0.00000000000E+00 -0.63994111839E+03  0.63994111841E+03  0.50400001928E-02 0.  1.
    10030    2    1    2    0    0  0.00000000000E+00  0.00000000000E+00  0.14460071546E+04  0.27258893914E+04  0.23107436645E+04 0.  0.
        3    1    3    3  502    0  0.85408835112E+02  0.19516183228E+03 -0.61657237414E+03  0.65233757569E+03  0.10100000352E+00 0.  1.
       -3    1    3    3    0  502 -0.85408835112E+02 -0.19516183228E+03  0.20625795287E+04  0.20735518157E+04  0.10100000352E+00 0. -1.
</event>
<event>
 5   0  0.7183014E-06  0.2298829E+04  0.7818609E-02  0.8478383E-01
        1   -1    0    0  501    0  0.00000000000E+00  0.00000000000E+00  0.69636639498E+03  0.69636639500E+03  0.50400001928E-02 0. -1.
       -1   -1    0    0    0  501  0.00000000000E+00  0.00000000000E+00 -0.18972112531E+04  0.18972112531E+04  0.50400001928E-02 0.  1.
    10030    2    1    2    0    0  0.00000000000E+00  0.00000000000E+00 -0.12008448581E+04  0.25935776481E+04  0.22988294072E+04 0.  0.
        3    1    3    3  502    0 -0.81290427793E+03 -0.71235211875E+03 -0.10415756957E+04  0.15010459174E+04  0.10100000352E+00 0.  1.
       -3    1    3    3    0  502  0.81290427793E+03  0.71235211875E+03 -0.15926916237E+03  0.10925317306E+04  0.10100000352E+00 0. -1.
</event>
<event>
 5   0  0.1588969E-05  0.2298939E+04  0.7818609E-02  0.8478340E-01
       -2   -1    0    0    0  501  0.00000000000E+00  0.00000000000E+00  0.12623243403E+04  0.12623243403E+04  0.25500000920E-02 0.  1.
        2   -1    0    0  501    0  0.00000000000E+00  0.00000000000E+00 -0.10467041957E+04  0.10467041957E+04  0.25500000920E-02 0. -1.
    10030    2    1    2    0    0  0.00000000000E+00  0.00000000000E+00  0.21562014462E+03  0.23090285360E+04  0.22989390452E+04 0.  0.
        1    1    3    3  502    0 -0.52379150336E+03 -0.25658031693E+03  0.11026565989E+04  0.12474143550E+04  0.50400001928E-02 0.  1.
       -1    1    3    3    0  502  0.52379150336E+03  0.25658031693E+03 -0.88703645428E+03  0.10616141810E+04  0.50400001928E-02 0. -1.
</event>
<event>
 5   0  0.7278815E-06  0.2293495E+04  0.7818609E-02  0.8480490E-01
       -1   -1    0    0    0  501  0.00000000000E+00  0.00000000000E+00  0.80902715304E+03  0.80902715305E+03  0.50400001928E-02 0.  1.
        1   -1    0    0  501    0  0.00000000000E+00  0.00000000000E+00 -0.16254459843E+04  0.16254459843E+04  0.50400001928E-02 0. -1.
    10030    2    1    2    0    0  0.00000000000E+00  0.00000000000E+00 -0.81641883121E+03  0.24344731373E+04  0.22934950945E+04 0.  0.
        5    1    3    3  502    0 -0.79374671744E+03  0.80522378420E+03 -0.61124884387E+03  0.12853273642E+04  0.46999998093E+01 0. -1.
       -5    1    3    3    0  502  0.79374671744E+03 -0.80522378420E+03 -0.20516998734E+03  0.11491457731E+04  0.46999998093E+01 0.  1.
</event>
<event>
 5   0  0.1588969E-05  0.2299223E+04  0.7818609E-02  0.8478227E-01
       -2   -1    0    0    0  501  0.00000000000E+00  0.00000000000E+00  0.63416751989E+03  0.63416751989E+03  0.25500000920E-02 0.  1.
        2   -1    0    0  501    0  0.00000000000E+00  0.00000000000E+00 -0.20840029040E+04  0.20840029040E+04  0.25500000920E-02 0. -1.
    10030    2    1    2    0    0  0.00000000000E+00  0.00000000000E+00 -0.14498353841E+04  0.27181704239E+04  0.22992233063E+04 0.  0.
        1    1    3    3  502    0  0.18995104606E+03  0.49065382859E+03 -0.19333125367E+04  0.20036266978E+04  0.50400001928E-02 0. -1.
       -1    1    3    3    0  502 -0.18995104606E+03 -0.49065382859E+03  0.48347715261E+03  0.71454372611E+03  0.50400001928E-02 0.  1.
</event>
<event>
 5   0  0.1602809E-05  0.2300023E+04  0.7818609E-02  0.8477912E-01
        2   -1    0    0  501    0  0.00000000000E+00  0.00000000000E+00  0.19682247971E+04  0.19682247971E+04  0.25500000920E-02 0.  1.
       -2   -1    0    0    0  501  0.00000000000E+00  0.00000000000E+00 -0.67193898969E+03  0.67193898969E+03  0.25500000920E-02 0. -1.
    10030    2    1    2    0    0  0.00000000000E+00  0.00000000000E+00  0.12962858074E+04  0.26401637868E+04  0.23000234622E+04 0.  0.
        3    1    3    3  502    0 -0.71319258612E+03  0.67965039043E+03 -0.32852886709E+02  0.98572188800E+03  0.10100000352E+00 0. -1.
       -3    1    3    3    0  502  0.71319258612E+03 -0.67965039043E+03  0.13291386942E+04  0.16544418988E+04  0.10100000352E+00 0.  1.
</event>
<event>
 5   0  0.1635955E-05  0.2320131E+04  0.7818609E-02  0.8470026E-01
        2   -1    0    0  501    0  0.00000000000E+00  0.00000000000E+00  0.72689158601E+03  0.72689158601E+03  0.25500000920E-02 0. -1.
       -2   -1    0    0    0  501  0.00000000000E+00  0.00000000000E+00 -0.18513794335E+04  0.18513794335E+04  0.25500000920E-02 0.  1.
    10030    2    1    2    0    0  0.00000000000E+00  0.00000000000E+00 -0.11244878474E+04  0.25782710195E+04  0.23201311452E+04 0.  0.
        2    1    3    3  502    0  0.24549103809E+03  0.11177142837E+04 -0.35080901402E+03  0.11969202288E+04  0.25500000920E-02 0.  1.
       -2    1    3    3    0  502 -0.24549103809E+03 -0.11177142837E+04 -0.77367883343E+03  0.13813507907E+04  0.25500000920E-02 0. -1.
</event>
<event>
 5   0  0.7202572E-06  0.2300662E+04  0.7818609E-02  0.8477660E-01
        1   -1    0    0  501    0  0.00000000000E+00  0.00000000000E+00  0.23831913869E+04  0.23831913869E+04  0.50400001928E-02 0.  1.
       -1   -1    0    0    0  501  0.00000000000E+00  0.00000000000E+00 -0.55524757889E+03  0.55524757891E+03  0.50400001928E-02 0. -1.
    10030    2    1    2    0    0  0.00000000000E+00  0.00000000000E+00  0.18279438080E+04  0.29384389658E+04  0.23006618592E+04 0.  0.
        2    1    3    3  502    0 -0.59522796129E+03 -0.65202463620E+02 -0.34050616497E+03  0.68883389547E+03  0.25500000920E-02 0. -1.
       -2    1    3    3    0  502  0.59522796129E+03  0.65202463620E+02  0.21684499729E+04  0.22496050703E+04  0.25500000920E-02 0.  1.
</event>
<event>
 5   0  0.1697855E-05  0.2296320E+04  0.7818609E-02  0.8479373E-01
        2   -1    0    0  501    0  0.00000000000E+00  0.00000000000E+00  0.15584773103E+04  0.15584773103E+04  0.25500000920E-02 0.  1.
       -2   -1    0    0    0  501  0.00000000000E+00  0.00000000000E+00 -0.84587176173E+03  0.84587176173E+03  0.25500000920E-02 0. -1.
    10030    2    1    2    0    0  0.00000000000E+00  0.00000000000E+00  0.71260554859E+03  0.24043490721E+04  0.22963204899E+04 0.  0.
        5    1    3    3  502    0  0.81996880579E+03  0.25537176828E+03  0.11541795063E+04  0.14386507586E+04  0.46999998093E+01 0.  1.
       -5    1    3    3    0  502 -0.81996880579E+03 -0.25537176828E+03 -0.44157395770E+03  0.96569831346E+03  0.46999998093E+01 0. -1.
</event>
<event>
 5   0  0.5704875E-06  0.2294771E+04  0.7818609E-02  0.8479986E-01
       -3   -1    0    0    0  501  0.00000000000E+00  0.00000000000E+00  0.61401184201E+03  0.61401185032E+03  0.10100000352E+00 0. -1.
        3   -1    0    0  501    0  0.00000000000E+00  0.00000000000E+00 -0.21440856046E+04  0.21440856069E+04  0.10100000352E+00 0.  1.
    10030    2    1    2    0    0  0.00000000000E+00  0.00000000000E+00 -0.15300737625E+04  0.27580974572E+04  0.22947714189E+04 0.  0.
        5    1    3    3  502    0 -0.28515537975E+02  0.20252937404E+03 -0.21219875154E+04  0.21318265382E+04  0.46999998093E+01 0.  1.
       -5    1    3    3    0  502  0.28515537975E+02 -0.20252937404E+03  0.59191375287E+03  0.62627091909E+03  0.46999998093E+01 0. -1.
</event>
<event>
 5   0  0.1697855E-05  0.2308492E+04  0.7818609E-02  0.8474580E-01
        2   -1    0    0  501    0  0.00000000000E+00  0.00000000000E+00  0.80481893781E+03  0.80481893782E+03  0.25500000920E-02 0. -1.
       -2   -1    0    0    0  501  0.00000000000E+00  0.00000000000E+00 -0.16553830325E+04  0.16553830325E+04  0.25500000920E-02 0.  1.
    10030    2    1    2    0    0  0.00000000000E+00  0.00000000000E+00 -0.85056409467E+03  0.24602019703E+04  0.23084918141E+04 0.  0.
        5    1    3    3  502    0  0.13247228593E+03  0.47360245643E+03  0.68757146085E+03  0.84535483499E+03  0.46999998093E+01 0. -1.
       -5    1    3    3    0  502 -0.13247228593E+03 -0.47360245643E+03 -0.15381355555E+04  0.16148471353E+04  0.46999998093E+01 0.  1.
</event>
<event>
 5   0  0.1588969E-05  0.2322824E+04  0.7818609E-02  0.8468976E-01
       -2   -1    0    0    0  501  0.00000000000E+00  0.00000000000E+00  0.44077902358E+03  0.44077902359E+03  0.25500000920E-02 0.  1.
        2   -1    0    0  501    0  0.00000000000E+00  0.00000000000E+00 -0.30602133584E+04  0.30602133584E+04  0.25500000920E-02 0. -1.
    10030    2    1    2    0    0  0.00000000000E+00  0.00000000000E+00 -0.26194343348E+04  0.35009923820E+04  0.23228240192E+04 0.  0.
        1    1    3    3  502    0 -0.33180527601E+03 -0.63038880735E+03  0.72812062154E+02  0.71609104592E+03  0.50400001928E-02 0.  1.
       -1    1    3    3    0  502  0.33180527601E+03  0.63038880735E+03 -0.26922463970E+04  0.27849013361E+04  0.50400001928E-02 0. -1.
</event>
<event>
 5   0  0.1626636E-05  0.2278052E+04  0.7818609E-02  0.8486626E-01
        2   -1    0    0  501    0  0.00000000000E+00  0.00000000000E+00  0.96167744729E+03  0.96167744730E+03  0.25500000920E-02 0.  1.
       -2   -1    0    0    0  501  0.00000000000E+00  0.00000000000E+00 -0.13490801730E+04  0.13490801730E+04  0.25500000920E-02 0. -1.
    10030    2    1    2    0    0  0.00000000000E+00  0.00000000000E+00 -0.38740272573E+03  0.23107576203E+04  0.22780517790E+04 0.  0.
        4    1    3    3  502    0  0.76416682714E+02 -0.10013917742E+04  0.35137121427E+03  0.10639963994E+04  0.12699999809E+01 0. -1.
       -4    1    3    3    0  502 -0.76416682714E+02  0.10013917742E+04 -0.73877394000E+03  0.12467612210E+04  0.12699999809E+01 0.  1.
</event>
<event>
 5   0  0.7202572E-06  0.2299394E+04  0.7818609E-02  0.8478160E-01
        1   -1    0    0  501    0  0.00000000000E+00  0.00000000000E+00  0.16254468768E+04  0.16254468768E+04  0.50400001928E-02 0.  1.
       -1   -1    0    0    0  501  0.00000000000E+00  0.00000000000E+00 -0.81319393212E+03  0.81319393214E+03  0.50400001928E-02 0. -1.
    10030    2    1    2    0    0  0.00000000000E+00  0.00000000000E+00  0.81225294468E+03  0.24386408089E+04  0.22993943004E+04 0.  0.
        2    1    3    3  502    0  0.19134703626E+03  0.98108033787E+03  0.10085674462E+04  0.14199790883E+04  0.25500000920E-02 0.  1.
       -2    1    3    3    0  502 -0.19134703626E+03 -0.98108033787E+03 -0.19631450151E+03  0.10186617207E+04  0.25500000920E-02 0. -1.
</event>
<event>
 5   0  0.7202572E-06  0.2305462E+04  0.7818609E-02  0.8475771E-01
       -1   -1    0    0    0  501  0.00000000000E+00  0.00000000000E+00  0.10003958792E+04  0.10003958792E+04  0.50400001928E-02 0.  1.
        1   -1    0    0  501    0  0.00000000000E+00  0.00000000000E+00 -0.13282623523E+04  0.13282623523E+04  0.50400001928E-02 0. -1.
    10030    2    1    2    0    0  0.00000000000E+00  0.00000000000E+00 -0.32786647316E+03  0.23286582315E+04  0.23054615015E+04 0.  0.
        2    1    3    3  502    0  0.70949720361E+03  0.36486946399E+03  0.67646729293E+03  0.10460038270E+04  0.25500000920E-02 0.  1.
       -2    1    3    3    0  502 -0.70949720361E+03 -0.36486946399E+03 -0.10043337661E+04  0.12826544045E+04  0.25500000920E-02 0. -1.
</event>
<event>
 5   0  0.1697855E-05  0.2292512E+04  0.7818609E-02  0.8480879E-01
       -2   -1    0    0    0  501  0.00000000000E+00  0.00000000000E+00  0.90194994007E+03  0.90194994007E+03  0.25500000920E-02 0.  1.
        2   -1    0    0  501    0  0.00000000000E+00  0.00000000000E+00 -0.14567358857E+04  0.14567358857E+04  0.25500000920E-02 0. -1.
    10030    2    1    2    0    0  0.00000000000E+00  0.00000000000E+00 -0.55478594559E+03  0.23586858257E+04  0.22925120238E+04 0.  0.
        5    1    3    3  502    0  0.33536143247E+03  0.39795447456E+03 -0.13281689701E+04  0.14264956913E+04  0.46999998093E+01 0. -1.
       -5    1    3    3    0  502 -0.33536143247E+03 -0.39795447456E+03  0.77338302448E+03  0.93219013445E+03  0.46999998093E+01 0.  1.
</event>
<event>
 5   0  0.1602809E-05  0.2296006E+04  0.7818609E-02  0.8479498E-01
        2   -1    0    0  501    0  0.00000000000E+00  0.00000000000E+00  0.13544738442E+04  0.13544738442E+04  0.25500000920E-02 0.  1.
       -2   -1    0    0    0  501  0.00000000000E+00  0.00000000000E+00 -0.97300579892E+03  0.97300579892E+03  0.25500000920E-02 0. -1.
    10030    2    1    2    0    0  0.00000000000E+00  0.00000000000E+00  0.38146804526E+03  0.23274796431E+04  0.22960060147E+04 0.  0.
        3    1    3    3  502    0 -0.43291468425E+03  0.67492579068E+02 -0.88491501898E+03  0.98744365565E+03  0.10100000352E+00 0. -1.
       -3    1    3    3    0  502  0.43291468425E+03 -0.67492579068E+02  0.12663830642E+04  0.13400359874E+04  0.10100000352E+00 0.  1.
</event>
<event>
 5   0  0.7202572E-06  0.2329676E+04  0.7818609E-02  0.8466311E-01
        1   -1    0    0  501    0  0.00000000000E+00  0.00000000000E+00  0.10283676180E+04  0.10283676180E+04  0.50400001928E-02 0.  1.
       -1   -1    0    0    0  501  0.00000000000E+00  0.00000000000E+00 -0.13194191746E+04  0.13194191746E+04  0.50400001928E-02 0. -1.
    10030    2    1    2    0    0  0.00000000000E+00  0.00000000000E+00 -0.29105155661E+03  0.23477867926E+04  0.23296763327E+04 0.  0.
        2    1    3    3  502    0 -0.52746207778E+03  0.50730488862E+03 -0.10588121180E+04  0.12871121143E+04  0.25500000920E-02 0. -1.
       -2    1    3    3    0  502  0.52746207778E+03 -0.50730488862E+03  0.76776056142E+03  0.10606746783E+04  0.25500000920E-02 0.  1.
</event>
<event>
 5   0  0.1626636E-05  0.2293564E+04  0.7818609E-02  0.8480463E-01
       -2   -1    0    0    0  501  0.00000000000E+00  0.00000000000E+00  0.17302340593E+04  0.17302340593E+04  0.25500000920E-02 0.  1.
        2   -1    0    0  501    0  0.00000000000E+00  0.00000000000E+00 -0.76007557939E+03  0.76007557939E+03  0.25500000920E-02 0. -1.
    10030    2    1    2    0    0  0.00000000000E+00  0.00000000000E+00  0.97015847993E+03  0.24903096387E+04  0.22935637380E+04 0.  0.
        4    1    3    3  502    0 -0.57906387629E+03 -0.16284428587E+03 -0.57503182164E+03  0.83216371170E+03  0.12699999809E+01 0. -1.
       -4    1    3    3    0  502  0.57906387629E+03  0.16284428587E+03  0.15451903016E+04  0.16581459270E+04  0.12699999809E+01 0.  1.
</event>
<event>
 5   0  0.7416556E-06  0.2300145E+04  0.7818609E-02  0.8477864E-01
       -1   -1    0    0    0  501  0.00000000000E+00  0.00000000000E+00  0.16866904787E+04  0.16866904787E+04  0.50400001928E-02 0. -1.
        1   -1    0    0  501    0  0.00000000000E+00  0.00000000000E+00 -0.78417886977E+03  0.78417886979E+03  0.50400001928E-02 0.  1.
    10030    2    1    2    0    0  0.00000000000E+00  0.00000000000E+00  0.90251160889E+03  0.24708693485E+04  0.23001452417E+04 0.  0.
        4    1    3    3  502    0  0.83635727990E+03 -0.24740887109E+03  0.12565369329E+04  0.15295722689E+04  0.12699999809E+01 0. -1.
       -4    1    3    3    0  502 -0.83635727990E+03  0.24740887109E+03 -0.35402532396E+03  0.94129707959E+03  0.12699999809E+01 0.  1.
</event>
<event>
 5   0  0.7183014E-06  0.2307415E+04  0.7818609E-02  0.8475003E-01
       -1   -1    0    0    0  501  0.00000000000E+00  0.00000000000E+00  0.12900359552E+04  0.12900359553E+04  0.50400001928E-02 0.  1.
        1   -1    0    0  501    0  0.00000000000E+00  0.00000000000E+00 -0.10317858220E+04  0.10317858220E+04  0.50400001928E-02 0. -1.
    10030    2    1    2    0    0  0.00000000000E+00  0.00000000000E+00  0.25825013321E+03  0.23218217773E+04  0.23074148379E+04 0.  0.
        3    1    3    3  502    0  0.98750097082E+03  0.21111718926E+03  0.69056234291E+03  0.12233580811E+04  0.10100000352E+00 0.  1.
       -3    1    3    3    0  502 -0.98750097082E+03 -0.21111718926E+03 -0.43231220970E+03  0.10984636962E+04  0.10100000352E+00 0. -1.
</event>
<event>
 5   0  0.1588969E-05  0.2304671E+04  0.7818609E-02  0.8476082E-01
        2   -1    0    0  501    0  0.00000000000E+00  0.00000000000E+00  0.23475475393E+04  0.23475475393E+04  0.25500000920E-02 0. -1.
       -2   -1    0    0    0  501  0.00000000000E+00  0.00000000000E+00 -0.56564419051E+03  0.56564419052E+03  0.25500000920E-02 0.  1.
    10030    2    1    2    0    0  0.00000000000E+00  0.00000000000E+00  0.17819033488E+04  0.29131917298E+04  0.23046705860E+04 0.  0.
        1    1    3    3  502    0  0.11375936776E+04  0.18360850052E+03  0.89944718050E+03  0.14617922859E+04  0.50400001928E-02 0. -1.
       -1    1    3    3    0  502 -0.11375936776E+04 -0.18360850052E+03  0.88245616825E+03  0.14513994438E+04  0.50400001928E-02 0.  1.
</event>
<event>
 5   0  0.7202572E-06  0.2269868E+04  0.7818609E-02  0.8489897E-01
        1   -1    0    0  501    0  0.00000000000E+00  0.00000000000E+00  0.16862737439E+04  0.16862737439E+04  0.50400001928E-02 0.  1.
       -1   -1    0    0    0  501  0.00000000000E+00  0.00000000000E+00 -0.76385890649E+03  0.76385890651E+03  0.50400001928E-02 0. -1.
    10030    2    1    2    0    0  0.00000000000E+00  0.00000000000E+00  0.92241483743E+03  0.24501326504E+04  0.22698680297E+04 0.  0.
        2    1    3    3  502    0  0.49822113665E+03  0.43606689114E+03  0.14562024815E+04  0.15996575576E+04  0.25500000920E-02 0.  1.
       -2    1    3    3    0  502 -0.49822113665E+03 -0.43606689114E+03 -0.53378764406E+03  0.85047509282E+03  0.25500000920E-02 0. -1.
</event>
<event>
 5   0  0.1588969E-05  0.2322041E+04  0.7818609E-02  0.8469281E-01
       -2   -1    0    0    0  501  0.00000000000E+00  0.00000000000E+00  0.10826354034E+04  0.10826354034E+04  0.25500000920E-02 0. -1.
        2   -1    0    0  501    0  0.00000000000E+00  0.00000000000E+00 -0.12450805781E+04  0.12450805781E+04  0.25500000920E-02 0.  1.
    10030    2    1    2    0    0  0.00000000000E+00  0.00000000000E+00 -0.16244517470E+03  0.23277159815E+04  0.23220407524E+04 0.  0.
        1    1    3    3  502    0  0.27782882377E+02 -0.22460295890E+03  0.10603098810E+04  0.10841934429E+04  0.50400001928E-02 0. -1.
       -1    1    3    3    0  502 -0.27782882377E+02  0.22460295890E+03 -0.12227550557E+04  0.12435225386E+04  0.50400001928E-02 0.  1.
</event>
<event>
 5   0  0.1602809E-05  0.2303624E+04  0.7818609E-02  0.8476494E-01
       -2   -1    0    0    0  501  0.00000000000E+00  0.00000000000E+00  0.67173144487E+03  0.67173144487E+03  0.25500000920E-02 0.  1.
        2   -1    0    0  501    0  0.00000000000E+00  0.00000000000E+00 -0.19750013608E+04  0.19750013608E+04  0.25500000920E-02 0. -1.
    10030    2    1    2    0    0  0.00000000000E+00  0.00000000000E+00 -0.13032699159E+04  0.26467328057E+04  0.23036236826E+04 0.  0.
        3    1    3    3  502    0  0.97942217884E+03  0.97150170761E+02  0.35779360464E+02  0.98487874021E+03  0.10100000352E+00 0. -1.
       -3    1    3    3    0  502 -0.97942217884E+03 -0.97150170761E+02 -0.13390492764E+04  0.16618540655E+04  0.10100000352E+00 0.  1.
</event>
<event>
 5   0  0.7391007E-06  0.2293876E+04  0.7818609E-02  0.8480340E-01
        1   -1    0    0  501    0  0.00000000000E+00  0.00000000000E+00  0.22744266888E+04  0.22744266888E+04  0.50400001928E-02 0.  1.
       -1   -1    0    0    0  501  0.00000000000E+00  0.00000000000E+00 -0.57837283584E+03  0.57837283586E+03  0.50400001928E-02 0. -1.
    10030    2    1    2    0    0  0.00000000000E+00  0.00000000000E+00  0.16960538530E+04  0.28527995247E+04  0.22938758588E+04 0.  0.
        1    1    3    3  502    0 -0.67785811703E+03  0.15570408920E+03 -0.28618143697E+03  0.75208723239E+03  0.50400001928E-02 0. -1.
       -1    1    3    3    0  502  0.67785811703E+03 -0.15570408920E+03  0.19822352899E+04  0.21007122923E+04  0.50400001928E-02 0.  1.
</event>
<event>
 5   0  0.7391007E-06  0.2301182E+04  0.7818609E-02  0.8477455E-01
        1   -1    0    0  501    0  0.00000000000E+00  0.00000000000E+00  0.13713207947E+04  0.13713207947E+04  0.50400001928E-02 0. -1.
       -1   -1    0    0    0  501  0.00000000000E+00  0.00000000000E+00 -0.96539014205E+03  0.96539014206E+03  0.50400001928E-02 0.  1.
    10030    2    1    2    0    0  0.00000000000E+00  0.00000000000E+00  0.40593065263E+03  0.23367109367E+04  0.23011819370E+04 0.  0.
        1    1    3    3  502    0 -0.43953113002E+03  0.10038725220E+04 -0.15303552783E+03  0.11065114222E+04  0.50400001928E-02 0.  1.
       -1    1    3    3    0  502  0.43953113002E+03 -0.10038725220E+04  0.55896618046E+03  0.12301995145E+04  0.50400001928E-02 0. -1.
</event>
<event>
 5   0  0.1588969E-05  0.2292185E+04  0.7818609E-02  0.8481009E-01
        2   -1    0    0  501    0  0.00000000000E+00  0.00000000000E+00  0.10989735726E+04  0.10989735726E+04  0.25500000920E-02 0.  1.
       -2   -1    0    0    0  501  0.00000000000E+00  0.00000000000E+00 -0.11952318336E+04  0.11952318336E+04  0.25500000920E-02 0. -1.
    10030    2    1    2    0    0  0.00000000000E+00  0.00000000000E+00 -0.96258260995E+02  0.22942054063E+04  0.22921851569E+04 0.  0.
        1    1    3    3  502    0 -0.35718649946E+03  0.24642990002E+03  0.10135688657E+04  0.11025569085E+04  0.50400001928E-02 0.  1.
       -1    1    3    3    0  502  0.35718649946E+03 -0.24642990002E+03 -0.11098271267E+04  0.11916484977E+04  0.50400001928E-02 0. -1.
</event>
<event>
 5   0  0.7202572E-06  0.2297596E+04  0.7818609E-02  0.8478870E-01
       -1   -1    0    0    0  501  0.00000000000E+00  0.00000000000E+00  0.14872307548E+04  0.14872307549E+04  0.50400001928E-02 0. -1.
        1   -1    0    0  501    0  0.00000000000E+00  0.00000000000E+00 -0.88737873801E+03  0.88737873802E+03  0.50400001928E-02 0.  1.
    10030    2    1    2    0    0  0.00000000000E+00  0.00000000000E+00  0.59985201683E+03  0.23746094929E+04  0.22975960919E+04 0.  0.
        2    1    3    3  502    0  0.64865168776E+02 -0.51129969274E+03 -0.76118263425E+03  0.91925723745E+03  0.25500000920E-02 0.  1.
       -2    1    3    3    0  502 -0.64865168776E+02  0.51129969274E+03  0.13610346511E+04  0.14553522554E+04  0.25500000920E-02 0. -1.
</event>
<event>
 5   0  0.7391007E-06  0.2349174E+04  0.7818609E-02  0.8458781E-01
        1   -1    0    0  501    0  0.00000000000E+00  0.00000000000E+00  0.93953739041E+03  0.93953739042E+03  0.50400001928E-02 0.  1.
       -1   -1    0    0    0  501  0.00000000000E+00  0.00000000000E+00 -0.14684400639E+04  0.14684400639E+04  0.50400001928E-02 0. -1.
    10030    2    1    2    0    0  0.00000000000E+00  0.00000000000E+00 -0.52890267353E+03  0.24079774544E+04  0.23491737660E+04 0.  0.
        1    1    3    3  502    0 -0.38094236860E+03 -0.12057153654E+03  0.86773301231E+03  0.95530893657E+03  0.50400001928E-02 0.  1.
       -1    1    3    3    0  502  0.38094236860E+03  0.12057153654E+03 -0.13966356858E+04  0.14526685178E+04  0.50400001928E-02 0. -1.
</event>
<event>
 5   0  0.1602809E-05  0.2300090E+04  0.7818609E-02  0.8477886E-01
       -2   -1    0    0    0  501  0.00000000000E+00  0.00000000000E+00  0.79992038118E+03  0.79992038118E+03  0.25500000920E-02 0. -1.
        2   -1    0    0  501    0  0.00000000000E+00  0.00000000000E+00 -0.16534189752E+04  0.16534189752E+04  0.25500000920E-02 0.  1.
    10030    2    1    2    0    0  0.00000000000E+00  0.00000000000E+00 -0.85349859401E+03  0.24533393564E+04  0.23000900303E+04 0.  0.
        3    1    3    3  502    0 -0.30272944886E+03 -0.11093635831E+04 -0.44430327811E+03  0.12327765782E+04  0.10100000352E+00 0. -1.
       -3    1    3    3    0  502  0.30272944886E+03  0.11093635831E+04 -0.40919531590E+03  0.12205627782E+04  0.10100000352E+00 0.  1.
</event>
<event>
 5   0  0.7416556E-06  0.2300440E+04  0.7818609E-02  0.8477748E-01
        1   -1    0    0  501    0  0.00000000000E+00  0.00000000000E+00  0.22819184001E+04  0.22819184001E+04  0.50400001928E-02 0. -1.
       -1   -1    0    0    0  501  0.00000000000E+00  0.00000000000E+00 -0.57977777150E+03  0.57977777152E+03  0.50400001928E-02 0.  1.
    10030    2    1    2    0    0  0.00000000000E+00  0.00000000000E+00  0.17021406286E+04  0.28616961717E+04  0.23004395796E+04 0.  0.
        4    1    3    3  502    0  0.36054019859E+03 -0.10921176512E+04  0.82974949777E+03  0.14181664362E+04  0.12699999809E+01 0.  1.
       -4    1    3    3    0  502 -0.36054019859E+03  0.10921176512E+04  0.87239113085E+03  0.14435297354E+04  0.12699999809E+01 0. -1.
</event>
<event>
 5   0  0.7391007E-06  0.2291498E+04  0.7818609E-02  0.8481281E-01
       -1   -1    0    0    0  501  0.00000000000E+00  0.00000000000E+00  0.74027206736E+03  0.74027206737E+03  0.50400001928E-02 0. -1.
        1   -1    0    0  501    0  0.00000000000E+00  0.00000000000E+00 -0.17733224744E+04  0.17733224744E+04  0.50400001928E-02 0.  1.
    10030    2    1    2    0    0  0.00000000000E+00  0.00000000000E+00 -0.10330504070E+04  0.25135945417E+04  0.22914982821E+04 0.  0.
        1    1    3    3  502    0  0.63033656276E+03 -0.60149977058E+03 -0.13326932513E+04  0.15922303409E+04  0.50400001928E-02 0.  1.
       -1    1    3    3    0  502 -0.63033656276E+03  0.60149977058E+03  0.29964284434E+03  0.92136420082E+03  0.50400001928E-02 0. -1.
</event>
<event>
 5   0  0.7391007E-06  0.2300312E+04  0.7818609E-02  0.8477798E-01
       -1   -1    0    0    0  501  0.00000000000E+00  0.00000000000E+00  0.76394806884E+03  0.76394806885E+03  0.50400001928E-02 0.  1.
        1   -1    0    0  501    0  0.00000000000E+00  0.00000000000E+00 -0.17316078475E+04  0.17316078475E+04  0.50400001928E-02 0. -1.
    10030    2    1    2    0    0  0.00000000000E+00  0.00000000000E+00 -0.96765977869E+03  0.24955559164E+04  0.23003116929E+04 0.  0.
        1    1    3    3  502    0 -0.84512835657E+03  0.52736050868E+03 -0.11075234054E+04  0.14896171114E+04  0.50400001928E-02 0. -1.
       -1    1    3    3    0  502  0.84512835657E+03 -0.52736050868E+03  0.13986362669E+03  0.10059388049E+04  0.50400001928E-02 0.  1.
</event>
<event>
 5   0  0.1635955E-05  0.2305425E+04  0.7818609E-02  0.8475785E-01
        2   -1    0    0  501    0  0.00000000000E+00  0.00000000000E+00  0.20164985790E+04  0.20164985790E+04  0.25500000920E-02 0.  1.
       -2   -1    0    0    0  501  0.00000000000E+00  0.00000000000E+00 -0.65893733062E+03  0.65893733063E+03  0.25500000920E-02 0. -1.
    10030    2    1    2    0    0  0.00000000000E+00  0.00000000000E+00  0.13575612484E+04  0.26754359096E+04  0.23054250722E+04 0.  0.
        2    1    3    3  502    0 -0.80191387435E+03  0.17049900737E+02 -0.28197360417E+03  0.85021507540E+03  0.25500000920E-02 0. -1.
       -2    1    3    3    0  502  0.80191387435E+03 -0.17049900737E+02  0.16395348525E+04  0.18252208342E+04  0.25500000920E-02 0.  1.
</event>
<event>
 5   0  0.1626636E-05  0.2315529E+04  0.7818609E-02  0.8471823E-01
       -2   -1    0    0    0  501  0.00000000000E+00  0.00000000000E+00  0.76428529461E+03  0.76428529462E+03  0.25500000920E-02 0. -1.
        2   -1    0    0  501    0  0.00000000000E+00  0.00000000000E+00 -0.17538201149E+04  0.17538201149E+04  0.25500000920E-02 0.  1.
    10030    2    1    2    0    0  0.00000000000E+00  0.00000000000E+00 -0.98953482031E+03  0.25181054096E+04  0.23155292468E+04 0.  0.
        4    1    3    3  502    0  0.80080688289E+03 -0.84392073494E+02 -0.13994116449E+04  0.16145489310E+04  0.12699999809E+01 0.  1.
       -4    1    3    3    0  502 -0.80080688289E+03  0.84392073494E+02  0.40987682458E+03  0.90355647857E+03  0.12699999809E+01 0. -1.
</event>
<event>
 5   0  0.1602809E-05  0.2283584E+04  0.7818609E-02  0.8484422E-01
        2   -1    0    0  501    0  0.00000000000E+00  0.00000000000E+00  0.68948504630E+03  0.68948504630E+03  0.25500000920E-02 0.  1.
       -2   -1    0    0    0  501  0.00000000000E+00  0.00000000000E+00 -0.18908154217E+04  0.18908154217E+04  0.25500000920E-02 0. -1.
    10030    2    1    2    0    0  0.00000000000E+00  0.00000000000E+00 -0.12013303754E+04  0.25803004680E+04  0.22835839889E+04 0.  0.
        3    1    3    3  502    0 -0.40030455513E+03  0.93916211261E+02  0.60292727056E+03  0.72978441706E+03  0.10100000352E+00 0.  1.
       -3    1    3    3    0  502  0.40030455513E+03 -0.93916211261E+02 -0.18042576459E+04  0.18505160509E+04  0.10100000352E+00 0. -1.
</event>
<event>
 5   0  0.7183014E-06  0.2296479E+04  0.7818609E-02  0.8479311E-01
       -1   -1    0    0    0  501  0.00000000000E+00  0.00000000000E+00  0.11255164888E+04  0.11255164888E+04  0.50400001928E-02 0. -1.
        1   -1    0    0  501    0  0.00000000000E+00  0.00000000000E+00 -0.11714212721E+04  0.11714212721E+04  0.50400001928E-02 0.  1.
    10030    2    1    2    0    0  0.00000000000E+00  0.00000000000E+00 -0.45904783269E+02  0.22969377609E+04  0.22964790068E+04 0.  0.
        3    1    3    3  502    0  0.97417779225E+03  0.52544422006E+03 -0.32852929406E+03  0.11545758990E+04  0.10100000352E+00 0. -1.
       -3    1    3    3    0  502 -0.97417779225E+03 -0.52544422006E+03  0.28262451080E+03  0.11423618619E+04  0.10100000352E+00 0.  1.
</event>
<event>
 5   0  0.1602809E-05  0.2298479E+04  0.7818609E-02  0.8478521E-01
       -2   -1    0    0    0  501  0.00000000000E+00  0.00000000000E+00  0.13234567719E+04  0.13234567719E+04  0.25500000920E-02 0. -1.
        2   -1    0    0  501    0  0.00000000000E+00  0.00000000000E+00 -0.99795622976E+03  0.99795622976E+03  0.25500000920E-02 0.  1.
    10030    2    1    2    0    0  0.00000000000E+00  0.00000000000E+00  0.32550054215E+03  0.23214130017E+04  0.22984794368E+04 0.  0.
        3    1    3    3  502    0 -0.28551833420E+03  0.48242672748E+03 -0.85050236359E+03  0.10186317034E+04  0.10100000352E+00 0.  1.
       -3    1    3    3    0  502  0.28551833420E+03 -0.48242672748E+03  0.11760029057E+04  0.13027812982E+04  0.10100000352E+00 0. -1.
</event>
<event>
 5   0  0.1635955E-05  0.2301224E+04  0.7818609E-02  0.8477438E-01
       -2   -1    0    0    0  501  0.00000000000E+00  0.00000000000E+00  0.53390049827E+03  0.53390049828E+03  0.25500000920E-02 0. -1.
        2   -1    0    0  501    0  0.00000000000E+00  0.00000000000E+00 -0.24796914321E+04  0.24796914321E+04  0.25500000920E-02 0.  1.
    10030    2    1    2    0    0  0.00000000000E+00  0.00000000000E+00 -0.19457909338E+04  0.30135919303E+04  0.23012244490E+04 0.  0.
        2    1    3    3  502    0 -0.68456921082E+03 -0.79445881255E+03 -0.15928428134E+04  0.19070784036E+04  0.25500000920E-02 0.  1.
       -2    1    3    3    0  502  0.68456921082E+03  0.79445881255E+03 -0.35294812043E+03  0.11065135268E+04  0.25500000920E-02 0. -1.
</event>
<event>
 5   0  0.7183014E-06  0.2279993E+04  0.7818609E-02  0.8485852E-01
       -1   -1    0    0    0  501  0.00000000000E+00  0.00000000000E+00  0.71050008557E+03  0.71050008559E+03  0.50400001928E-02 0. -1.
        1   -1    0    0  501    0  0.00000000000E+00  0.00000000000E+00 -0.18291225269E+04  0.18291225269E+04  0.50400001928E-02 0.  1.
    10030    2    1    2    0    0  0.00000000000E+00  0.00000000000E+00 -0.11186224414E+04  0.25396226125E+04  0.22799927298E+04 0.  0.
        3    1    3    3  502    0 -0.14069005296E+03  0.11290163264E+04 -0.47960781569E+03  0.12347045085E+04  0.10100000352E+00 0. -1.
       -3    1    3    3    0  502  0.14069005296E+03 -0.11290163264E+04 -0.63901462566E+03  0.13049181040E+04  0.10100000352E+00 0.  1.
</event>
<event>
 5   0  0.1697855E-05  0.2296822E+04  0.7818609E-02  0.8479175E-01
        2   -1    0    0  501    0  0.00000000000E+00  0.00000000000E+00  0.11029364635E+04  0.11029364635E+04  0.25500000920E-02 0. -1.
       -2   -1    0    0    0  501  0.00000000000E+00  0.00000000000E+00 -0.11957604063E+04  0.11957604063E+04  0.25500000920E-02 0.  1.
    10030    2    1    2    0    0  0.00000000000E+00  0.00000000000E+00 -0.92823942809E+02  0.22986968698E+04  0.22968219380E+04 0.  0.
        5    1    3    3  502    0 -0.89491154276E+03  0.16316391587E+02 -0.76650801786E+03  0.11784267162E+04  0.46999998093E+01 0.  1.
       -5    1    3    3    0  502  0.89491154276E+03 -0.16316391587E+02  0.67368407505E+03  0.11202701536E+04  0.46999998093E+01 0. -1.
</event>
<event>
 5   0  0.5704875E-06  0.2298202E+04  0.7818609E-02  0.8478630E-01
       -3   -1    0    0    0  501  0.00000000000E+00  0.00000000000E+00  0.80316924939E+03  0.80316925574E+03  0.10100000352E+00 0.  1.
        3   -1    0    0  501    0  0.00000000000E+00  0.00000000000E+00 -0.16440291059E+04  0.16440291090E+04  0.10100000352E+00 0. -1.
    10030    2    1    2    0    0  0.00000000000E+00  0.00000000000E+00 -0.84085985653E+03  0.24471983648E+04  0.22982024580E+04 0.  0.
        4    1    3    3  502    0 -0.72528500117E+03  0.37570826573E+03 -0.12810595161E+04  0.15193123874E+04  0.12699999809E+01 0. -1.
       -4    1    3    3    0  502  0.72528500117E+03 -0.37570826573E+03  0.44019965953E+03  0.92788597738E+03  0.12699999809E+01 0.  1.
</event>
<event>
 5   0  0.1697855E-05  0.2274878E+04  0.7818609E-02  0.8487893E-01
        2   -1    0    0  501    0  0.00000000000E+00  0.00000000000E+00  0.10030483194E+04  0.10030483194E+04  0.25500000920E-02 0. -1.
       -2   -1    0    0    0  501  0.00000000000E+00  0.00000000000E+00 -0.12898360399E+04  0.12898360399E+04  0.25500000920E-02 0.  1.
    10030    2    1    2    0    0  0.00000000000E+00  0.00000000000E+00 -0.28678772055E+03  0.22928843593E+04  0.22748783459E+04 0.  0.
        5    1    3    3  502    0 -0.77824786761E+03 -0.74119439345E+03 -0.51877549674E+03  0.11933938907E+04  0.46999998093E+01 0.  1.
       -5    1    3    3    0  502  0.77824786761E+03  0.74119439345E+03  0.23198777619E+03  0.10994904686E+04  0.46999998093E+01 0. -1.
</event>
<event>
 5   0  0.1588969E-05  0.2306204E+04  0.7818609E-02  0.8475479E-01
        2   -1    0    0  501    0  0.00000000000E+00  0.00000000000E+00  0.15323795591E+04  0.15323795591E+04  0.25500000920E-02 0.  1.
       -2   -1    0    0    0  501  0.00000000000E+00  0.00000000000E+00 -0.86769907635E+03  0.86769907635E+03  0.25500000920E-02 0. -1.
    10030    2    1    2    0    0  0.00000000000E+00  0.00000000000E+00  0.66468048275E+03  0.24000786354E+04  0.23062040916E+04 0.  0.
        1    1    3    3  502    0  0.39712025916E+02 -0.97899615337E+03 -0.30038269769E+03  0.10248123138E+04  0.50400001928E-02 0. -1.
       -1    1    3    3    0  502 -0.39712025916E+02  0.97899615337E+03  0.96506318044E+03  0.13752663217E+04  0.50400001928E-02 0.  1.
</event>
<event>
 5   0  0.1626636E-05  0.2327095E+04  0.7818609E-02  0.8467314E-01
       -2   -1    0    0    0  501  0.00000000000E+00  0.00000000000E+00  0.12208060231E+04  0.12208060231E+04  0.25500000920E-02 0. -1.
        2   -1    0    0  501    0  0.00000000000E+00  0.00000000000E+00 -0.11089749202E+04  0.11089749202E+04  0.25500000920E-02 0.  1.
    10030    2    1    2    0    0  0.00000000000E+00  0.00000000000E+00  0.11183110293E+03  0.23297809433E+04  0.23270954102E+04 0.  0.
        4    1    3    3  502    0  0.52151527902E+03 -0.91919938187E+03  0.54323796652E+03  0.11882822859E+04  0.12699999809E+01 0. -1.
       -4    1    3    3    0  502 -0.52151527902E+03  0.91919938187E+03 -0.43140686359E+03  0.11414986573E+04  0.12699999809E+01 0.  1.
</event>
<event>
 5   0  0.7183014E-06  0.2302990E+04  0.7818609E-02  0.8476743E-01
        1   -1    0    0  501    0  0.00000000000E+00  0.00000000000E+00  0.22053224728E+04  0.22053224728E+04  0.50400001928E-02 0.  1.
       -1   -1    0    0    0  501  0.00000000000E+00  0.00000000000E+00 -0.60124587234E+03  0.60124587237E+03  0.50400001928E-02 0. -1.
    10030    2    1    2    0    0  0.00000000000E+00  0.00000000000E+00  0.16040766004E+04  0.28065683451E+04  0.23029902596E+04 0.  0.
        3    1    3    3  502    0  0.36604680279E+03  0.30803883484E+03  0.20784749736E+04  0.21328235772E+04  0.10100000352E+00 0.  1.
       -3    1    3    3    0  502 -0.36604680279E+03 -0.30803883484E+03 -0.47439837316E+03  0.67374476790E+03  0.10100000352E+00 0. -1.
</event>
<event>
 5   0  0.7416556E-06  0.2305076E+04  0.7818609E-02  0.8475922E-01
       -1   -1    0    0    0  501  0.00000000000E+00  0.00000000000E+00  0.73900501098E+03  0.73900501099E+03  0.50400001928E-02 0.  1.
        1   -1    0    0  501    0  0.00000000000E+00  0.00000000000E+00 -0.17974768663E+04  0.17974768663E+04  0.50400001928E-02 0. -1.
    10030    2    1    2    0    0  0.00000000000E+00  0.00000000000E+00 -0.10584718553E+04  0.25364818773E+04  0.23050764945E+04 0.  0.
        4    1    3    3  502    0 -0.64658212010E+03  0.33507659910E+03  0.45375007129E+03  0.85804166880E+03  0.12699999809E+01 0.  1.
       -4    1    3    3    0  502  0.64658212010E+03 -0.33507659910E+03 -0.15122219266E+04  0.16784402085E+04  0.12699999809E+01 0. -1.
</event>
<event>
 5   0  0.1588969E-05  0.2302079E+04  0.7818609E-02  0.8477102E-01
       -2   -1    0    0    0  501  0.00000000000E+00  0.00000000000E+00  0.77457600466E+03  0.77457600466E+03  0.25500000920E-02 0. -1.
        2   -1    0    0  501    0  0.00000000000E+00  0.00000000000E+00 -0.17104742254E+04  0.17104742254E+04  0.25500000920E-02 0.  1.
    10030    2    1    2    0    0  0.00000000000E+00  0.00000000000E+00 -0.93589822076E+03  0.24850502301E+04  0.23020793137E+04 0.  0.
        1    1    3    3  502    0 -0.19693899891E+03  0.10604800863E+04 -0.90174634303E+03  0.14058980937E+04  0.50400001928E-02 0.  1.
       -1    1    3    3    0  502  0.19693899891E+03 -0.10604800863E+04 -0.34151877729E+02  0.10791521364E+04  0.50400001928E-02 0. -1.
</event>
<event>
 5   0  0.7391007E-06  0.2308295E+04  0.7818609E-02  0.8474658E-01
        1   -1    0    0  501    0  0.00000000000E+00  0.00000000000E+00  0.12341985662E+04  0.12341985662E+04  0.50400001928E-02 0. -1.
       -1   -1    0    0    0  501  0.00000000000E+00  0.00000000000E+00 -0.10792881598E+04  0.10792881598E+04  0.50400001928E-02 0.  1.
    10030    2    1    2    0    0  0.00000000000E+00  0.00000000000E+00  0.15491040636E+03  0.23134867260E+04  0.23082945214E+04 0.  0.
        1    1    3    3  502    0 -0.18203190737E+03  0.64364971510E+03  0.10201213931E+04  0.12198640202E+04  0.50400001928E-02 0. -1.
       -1    1    3    3    0  502  0.18203190737E+03 -0.64364971510E+03 -0.86521098677E+03  0.10936227058E+04  0.50400001928E-02 0.  1.
</event>
<event>
 5   0  0.1626636E-05  0.2299986E+04  0.7818609E-02  0.8477927E-01
       -2   -1    0    0    0  501  0.00000000000E+00  0.00000000000E+00  0.14354993005E+04  0.14354993005E+04  0.25500000920E-02 0. -1.
        2   -1    0    0  501    0  0.00000000000E+00  0.00000000000E+00 -0.92127068342E+03  0.92127068342E+03  0.25500000920E-02 0.  1.
    10030    2    1    2    0    0  0.00000000000E+00  0.00000000000E+00  0.51422861713E+03  0.23567699840E+04  0.22999855840E+04 0.  0.
        4    1    3    3  502    0 -0.43692126038E+03 -0.27004738961E+03  0.13114272122E+04  0.14084277497E+04  0.12699999809E+01 0. -1.
       -4    1    3    3    0  502  0.43692126038E+03  0.27004738961E+03 -0.79719859505E+03  0.94834223425E+03  0.12699999809E+01 0.  1.
</event>
<event>
 5   0  0.1602809E-05  0.2299168E+04  0.7818609E-02  0.8478249E-01
       -2   -1    0    0    0  501  0.00000000000E+00  0.00000000000E+00  0.68133974150E+03  0.68133974150E+03  0.25500000920E-02 0.  1.
        2   -1    0    0  501    0  0.00000000000E+00  0.00000000000E+00 -0.19396251008E+04  0.19396251008E+04  0.25500000920E-02 0. -1.
    10030    2    1    2    0    0  0.00000000000E+00  0.00000000000E+00 -0.12582853593E+04  0.26209648423E+04  0.22991682538E+04 0.  0.
        3    1    3    3  502    0 -0.14252617497E+03 -0.65602460823E+03  0.43466966585E+03  0.79976229329E+03  0.10100000352E+00 0.  1.
       -3    1    3    3    0  502  0.14252617497E+03  0.65602460823E+03 -0.16929550252E+04  0.18212025490E+04  0.10100000352E+00 0. -1.
</event>
<event>
 5   0  0.1697855E-05  0.2254972E+04  0.7818609E-02  0.8495890E-01
       -2   -1    0    0    0  501  0.00000000000E+00  0.00000000000E+00  0.84851178738E+03  0.84851178739E+03  0.25500000920E-02 0.  1.
        2   -1    0    0  501    0  0.00000000000E+00  0.00000000000E+00 -0.14981813979E+04  0.14981813979E+04  0.25500000920E-02 0. -1.
    10030    2    1    2    0    0  0.00000000000E+00  0.00000000000E+00 -0.64966961048E+03  0.23466931853E+04  0.22549719073E+04 0.  0.
        5    1    3    3  502    0  0.16946396918E+03  0.96292947513E+03 -0.90914518617E+03  0.13351098346E+04  0.46999998093E+01 0. -1.
       -5    1    3    3    0  502 -0.16946396918E+03 -0.96292947513E+03  0.25947557569E+03  0.10115833506E+04  0.46999998093E+01 0.  1.
</event>
<event>
 5   0  0.7416556E-06  0.2297550E+04  0.7818609E-02  0.8478888E-01
       -1   -1    0    0    0  501  0.00000000000E+00  0.00000000000E+00  0.13431091189E+04  0.13431091189E+04  0.50400001928E-02 0.  1.
        1   -1    0    0  501    0  0.00000000000E+00  0.00000000000E+00 -0.98255904423E+03  0.98255904424E+03  0.50400001928E-02 0. -1.
    10030    2    1    2    0    0  0.00000000000E+00  0.00000000000E+00  0.36055007463E+03  0.23256681631E+04  0.22975500100E+04 0.  0.
        4    1    3    3  502    0 -0.13014106767E+03  0.41698389361E+03 -0.89521097428E+03  0.99610068085E+03  0.12699999809E+01 0. -1.
       -4    1    3    3    0  502  0.13014106767E+03 -0.41698389361E+03  0.12557610489E+04  0.13295674823E+04  0.12699999809E+01 0.  1.
</event>
<event>
 5   0  0.7416556E-06  0.2270761E+04  0.7818609E-02  0.8489540E-01
       -1   -1    0    0    0  501  0.00000000000E+00  0.00000000000E+00  0.54490236730E+03  0.54490236732E+03  0.50400001928E-02 0. -1.
        1   -1    0    0  501    0  0.00000000000E+00  0.00000000000E+00 -0.23657249130E+04  0.23657249131E+04  0.50400001928E-02 0.  1.
    10030    2    1    2    0    0  0.00000000000E+00  0.00000000000E+00 -0.18208225457E+04  0.29106272804E+04  0.22707611988E+04 0.  0.
        4    1    3    3  502    0 -0.10921913664E+04  0.91069320154E+02 -0.12904597016E+04  0.16930633349E+04  0.12699999809E+01 0. -1.
       -4    1    3    3    0  502  0.10921913664E+04 -0.91069320154E+02 -0.53036284416E+03  0.12175639454E+04  0.12699999809E+01 0.  1.
</event>
<event>
 5   0  0.7391007E-06  0.2300808E+04  0.7818609E-02  0.8477603E-01
        1   -1    0    0  501    0  0.00000000000E+00  0.00000000000E+00  0.10938396156E+04  0.10938396156E+04  0.50400001928E-02 0.  1.
       -1   -1    0    0    0  501  0.00000000000E+00  0.00000000000E+00 -0.12098934674E+04  0.12098934674E+04  0.50400001928E-02 0. -1.
    10030    2    1    2    0    0  0.00000000000E+00  0.00000000000E+00 -0.11605385176E+03  0.23037330830E+04  0.23008080366E+04 0.  0.
        1    1    3    3  502    0  0.11220932548E+04  0.21245260746E+03  0.80713378097E+02  0.11448773001E+04  0.50400001928E-02 0.  1.
       -1    1    3    3    0  502 -0.11220932548E+04 -0.21245260746E+03 -0.19676722985E+03  0.11588557829E+04  0.50400001928E-02 0. -1.
</event>
<event>
 5   0  0.1697855E-05  0.2297933E+04  0.7818609E-02  0.8478737E-01
       -2   -1    0    0    0  501  0.00000000000E+00  0.00000000000E+00  0.91101381276E+03  0.91101381276E+03  0.25500000920E-02 0.  1.
        2   -1    0    0  501    0  0.00000000000E+00  0.00000000000E+00 -0.14490713211E+04  0.14490713211E+04  0.25500000920E-02 0. -1.
    10030    2    1    2    0    0  0.00000000000E+00  0.00000000000E+00 -0.53805750833E+03  0.23600851339E+04  0.22979329748E+04 0.  0.
        5    1    3    3  502    0 -0.31131746074E+02  0.26564346369E+03 -0.14166434742E+04  0.14416783477E+04  0.46999998093E+01 0. -1.
       -5    1    3    3    0  502  0.31131746074E+02 -0.26564346369E+03  0.87858596584E+03  0.91840678612E+03  0.46999998093E+01 0.  1.
</event>
<event>
 5   0  0.1626636E-05  0.2313768E+04  0.7818609E-02  0.8472512E-01
       -2   -1    0    0    0  501  0.00000000000E+00  0.00000000000E+00  0.58854214662E+03  0.58854214662E+03  0.25500000920E-02 0. -1.
        2   -1    0    0  501    0  0.00000000000E+00  0.00000000000E+00 -0.22740601679E+04  0.22740601679E+04  0.25500000920E-02 0.  1.
    10030    2    1    2    0    0  0.00000000000E+00  0.00000000000E+00 -0.16855180213E+04  0.28626023145E+04  0.23137677090E+04 0.  0.
        4    1    3    3  502    0 -0.63839244368E+03  0.18869445469E+03 -0.20133579400E+04  0.21205570770E+04  0.12699999809E+01 0.  1.
       -4    1    3    3    0  502  0.63839244368E+03 -0.18869445469E+03  0.32783991869E+03  0.74204523755E+03  0.12699999809E+01 0. -1.
</event>
<event>
 5   0  0.1588969E-05  0.2309446E+04  0.7818609E-02  0.8474206E-01
       -2   -1    0    0    0  501  0.00000000000E+00  0.00000000000E+00  0.12805642290E+04  0.12805642290E+04  0.25500000920E-02 0. -1.
        2   -1    0    0  501    0  0.00000000000E+00  0.00000000000E+00 -0.10412484137E+04  0.10412484137E+04  0.25500000920E-02 0.  1.
    10030    2    1    2    0    0  0.00000000000E+00  0.00000000000E+00  0.23931581530E+03  0.23218126427E+04  0.23094462298E+04 0.  0.
        1    1    3    3  502    0 -0.66852793807E+03 -0.94037635279E+03  0.73061227114E+02  0.11561034693E+04  0.50400001928E-02 0. -1.
       -1    1    3    3    0  502  0.66852793807E+03  0.94037635279E+03  0.16625458819E+03  0.11657091734E+04  0.50400001928E-02 0.  1.
</event>
<event>
 5   0  0.1588969E-05  0.2323258E+04  0.7818609E-02  0.8468807E-01
       -2   -1    0    0    0  501  0.00000000000E+00  0.00000000000E+00  0.10996602975E+04  0.10996602975E+04  0.25500000920E-02 0.  1.
        2   -1    0    0  501    0  0.00000000000E+00  0.00000000000E+00 -0.12270895448E+04  0.12270895449E+04  0.25500000920E-02 0. -1.
    10030    2    1    2    0    0  0.00000000000E+00  0.00000000000E+00 -0.12742924731E+03  0.23267498424E+04  0.23232577593E+04 0.  0.
        1    1    3    3  502    0  0.12118722392E+03  0.33346954171E+03  0.10440643252E+04  0.11027051255E+04  0.50400001928E-02 0.  1.
       -1    1    3    3    0  502 -0.12118722392E+03 -0.33346954171E+03 -0.11714935725E+04  0.12240447169E+04  0.50400001928E-02 0. -1.
</event>
<event>
 5   0  0.7202572E-06  0.2308674E+04  0.7818609E-02  0.8474509E-01
        1   -1    0    0  501    0  0.00000000000E+00  0.00000000000E+00  0.11872206135E+04  0.11872206136E+04  0.50400001928E-02 0. -1.
       -1   -1    0    0    0  501  0.00000000000E+00  0.00000000000E+00 -0.11223644570E+04  0.11223644570E+04  0.50400001928E-02 0.  1.
    10030    2    1    2    0    0  0.00000000000E+00  0.00000000000E+00  0.64856156556E+02  0.23095850706E+04  0.23086742683E+04 0.  0.
        2    1    3    3  502    0  0.94872297401E+03  0.61440348947E+02  0.68739548162E+03  0.11731848729E+04  0.25500000920E-02 0. -1.
       -2    1    3    3    0  502 -0.94872297401E+03 -0.61440348947E+02 -0.62253932507E+03  0.11364001976E+04  0.25500000920E-02 0.  1.
</event>
<event>
 5   0  0.7278815E-06  0.2303810E+04  0.7818609E-02  0.8476421E-01
       -1   -1    0    0    0  501  0.00000000000E+00  0.00000000000E+00  0.97615093210E+03  0.97615093211E+03  0.50400001928E-02 0.  1.
        1   -1    0    0  501    0  0.00000000000E+00  0.00000000000E+00 -0.13593029483E+04  0.13593029483E+04  0.50400001928E-02 0. -1.
    10030    2    1    2    0    0  0.00000000000E+00  0.00000000000E+00 -0.38315201616E+03  0.23354538804E+04  0.23038097491E+04 0.  0.
        5    1    3    3  502    0  0.74763259598E+03  0.83195786982E+02 -0.10759036913E+04  0.13128087753E+04  0.46999998093E+01 0. -1.
       -5    1    3    3    0  502 -0.74763259598E+03 -0.83195786982E+02  0.69275167514E+03  0.10226451051E+04  0.46999998093E+01 0.  1.
</event>
<event>
 5   0  0.1697855E-05  0.2303118E+04  0.7818609E-02  0.8476693E-01
        2   -1    0    0  501    0  0.00000000000E+00  0.00000000000E+00  0.16258032387E+04  0.16258032387E+04  0.25500000920E-02 0. -1.
       -2   -1    0    0    0  501  0.00000000000E+00  0.00000000000E+00 -0.81565075098E+03  0.81565075099E+03  0.25500000920E-02 0.  1.
    10030    2    1    2    0    0  0.00000000000E+00  0.00000000000E+00  0.81015248769E+03  0.24414539897E+04  0.23031175676E+04 0.  0.
        5    1    3    3  502    0 -0.36200359253E+03  0.10952315681E+03  0.15580758103E+04  0.16033291127E+04  0.46999998093E+01 0. -1.
       -5    1    3    3    0  502  0.36200359253E+03 -0.10952315681E+03 -0.74792332263E+03  0.83812487698E+03  0.46999998093E+01 0.  1.
</event>
<event>
 5   0  0.7416556E-06  0.2302051E+04  0.7818609E-02  0.8477113E-01
        1   -1    0    0  501    0  0.00000000000E+00  0.00000000000E+00  0.17150779117E+04  0.17150779117E+04  0.50400001928E-02 0. -1.
       -1   -1    0    0    0  501  0.00000000000E+00  0.00000000000E+00 -0.77247811090E+03  0.77247811092E+03  0.50400001928E-02 0.  1.
    10030    2    1    2    0    0  0.00000000000E+00  0.00000000000E+00  0.94259980076E+03  0.24875560226E+04  0.23020513854E+04 0.  0.
        4    1    3    3  502    0  0.98353825777E+02  0.46771046230E+03  0.16027846481E+04  0.16725270678E+04  0.12699999809E+01 0. -1.
       -4    1    3    3    0  502 -0.98353825777E+02 -0.46771046230E+03 -0.66018484731E+03  0.81502895477E+03  0.12699999809E+01 0.  1.
</event>
<event>
 5   0  0.1635955E-05  0.2305752E+04  0.7818609E-02  0.8475657E-01
        2   -1    0    0  501    0  0.00000000000E+00  0.00000000000E+00  0.15318846401E+04  0.15318846401E+04  0.25500000920E-02 0. -1.
       -2   -1    0    0    0  501  0.00000000000E+00  0.00000000000E+00 -0.86763928517E+03  0.86763928517E+03  0.25500000920E-02 0.  1.
    10030    2    1    2    0    0  0.00000000000E+00  0.00000000000E+00  0.66424535496E+03  0.23995239253E+04  0.23057521932E+04 0.  0.
        2    1    3    3  502    0  0.51923398794E+03  0.82520531180E+03  0.97241348220E+03  0.13770097027E+04  0.25500000920E-02 0. -1.
       -2    1    3    3    0  502 -0.51923398794E+03 -0.82520531180E+03 -0.30816812724E+03  0.10225142226E+04  0.25500000920E-02 0.  1.
</event>
<event>
 5   0  0.7391007E-06  0.2306854E+04  0.7818609E-02  0.8475223E-01
       -1   -1    0    0    0  501  0.00000000000E+00  0.00000000000E+00  0.13162773846E+04  0.13162773846E+04  0.50400001928E-02 0. -1.
        1   -1    0    0  501    0  0.00000000000E+00  0.00000000000E+00 -0.10107249120E+04  0.10107249120E+04  0.50400001928E-02 0.  1.
    10030    2    1    2    0    0  0.00000000000E+00  0.00000000000E+00  0.30555247263E+03  0.23270022967E+04  0.23068544330E+04 0.  0.
        1    1    3    3  502    0  0.54410973458E+03  0.71872122808E+03  0.87862932162E+03  0.12588109833E+04  0.50400001928E-02 0. -1.
       -1    1    3    3    0  502 -0.54410973458E+03 -0.71872122808E+03 -0.57307684899E+03  0.10681913133E+04  0.50400001928E-02 0.  1.
</event>
<event>
 5   0  0.1602809E-05  0.2286924E+04  0.7818609E-02  0.8483095E-01
       -2   -1    0    0    0  501  0.00000000000E+00  0.00000000000E+00  0.53719791054E+03  0.53719791055E+03  0.25500000920E-02 0. -1.
        2   -1    0    0  501    0  0.00000000000E+00  0.00000000000E+00 -0.24339357648E+04  0.24339357648E+04  0.25500000920E-02 0.  1.
    10030    2    1    2    0    0  0.00000000000E+00  0.00000000000E+00 -0.18967378543E+04  0.29711336754E+04  0.22869238792E+04 0.  0.
        3    1    3    3  502    0  0.48117903369E+03  0.48313236700E+03  0.24416193069E+03  0.72426873818E+03  0.10100000352E+00 0. -1.
       -3    1    3    3    0  502 -0.48117903369E+03 -0.48313236700E+03 -0.21408997850E+04  0.22468649372E+04  0.10100000352E+00 0.  1.
</event>
<event>
 5   0  0.1697855E-05  0.2295235E+04  0.7818609E-02  0.8479802E-01
        2   -1    0    0  501    0  0.00000000000E+00  0.00000000000E+00  0.11654867622E+04  0.11654867622E+04  0.25500000920E-02 0. -1.
       -2   -1    0    0    0  501  0.00000000000E+00  0.00000000000E+00 -0.11300223582E+04  0.11300223582E+04  0.25500000920E-02 0.  1.
    10030    2    1    2    0    0  0.00000000000E+00  0.00000000000E+00  0.35464404003E+02  0.22955091203E+04  0.22952351508E+04 0.  0.
        5    1    3    3  502    0 -0.92839926978E+03 -0.36399905139E+03 -0.55029993655E+03  0.11389787635E+04  0.46999998093E+01 0.  1.
       -5    1    3    3    0  502  0.92839926978E+03  0.36399905139E+03  0.58576434056E+03  0.11565303568E+04  0.46999998093E+01 0. -1.
</event>
<event>
 5   0  0.7391007E-06  0.2293267E+04  0.7818609E-02  0.8480581E-01
        1   -1    0    0  501    0  0.00000000000E+00  0.00000000000E+00  0.10047847233E+04  0.10047847233E+04  0.50400001928E-02 0. -1.
       -1   -1    0    0    0  501  0.00000000000E+00  0.00000000000E+00 -0.13085076982E+04  0.13085076983E+04  0.50400001928E-02 0.  1.
    10030    2    1    2    0    0  0.00000000000E+00  0.00000000000E+00 -0.30372297490E+03  0.23132924216E+04  0.22932671415E+04 0.  0.
        1    1    3    3  502    0  0.40836431422E+03  0.82554243498E+03  0.53710099946E+03  0.10661891055E+04  0.50400001928E-02 0. -1.
       -1    1    3    3    0  502 -0.40836431422E+03 -0.82554243498E+03 -0.84082397437E+03  0.12471033161E+04  0.50400001928E-02 0.  1.
</event>
<event>
 5   0  0.7416556E-06  0.2301378E+04  0.7818609E-02  0.8477378E-01
        1   -1    0    0  501    0  0.00000000000E+00  0.00000000000E+00  0.12649310053E+04  0.12649310053E+04  0.50400001928E-02 0. -1.
       -1   -1    0    0    0  501  0.00000000000E+00  0.00000000000E+00 -0.10467651196E+04  0.10467651196E+04  0.50400001928E-02 0.  1.
    10030    2    1    2    0    0  0.00000000000E+00  0.00000000000E+00  0.21816588575E+03  0.23116961249E+04  0.23013784174E+04 0.  0.
        4    1    3    3  502    0  0.60716825979E+03 -0.86778097803E+03 -0.34280830528E+03  0.11132009112E+04  0.12699999809E+01 0.  1.
       -4    1    3    3    0  502 -0.60716825979E+03  0.86778097803E+03  0.56097419102E+03  0.11984952138E+04  0.12699999809E+01 0. -1.
</event>
<event>
 5   0  0.5704875E-06  0.2285203E+04  0.7818609E-02  0.8483778E-01
       -3   -1    0    0    0  501  0.00000000000E+00  0.00000000000E+00  0.85725865946E+03  0.85725866541E+03  0.10100000352E+00 0.  1.
        3   -1    0    0  501    0  0.00000000000E+00  0.00000000000E+00 -0.15229218715E+04  0.15229218748E+04  0.10100000352E+00 0. -1.
    10030    2    1    2    0    0  0.00000000000E+00  0.00000000000E+00 -0.66566321203E+03  0.23801805402E+04  0.22852028121E+04 0.  0.
        2    1    3    3  502    0 -0.10863087608E+04  0.32465338941E+03 -0.48039351481E+03  0.12313587926E+04  0.25500000920E-02 0.  1.
       -2    1    3    3    0  502  0.10863087608E+04 -0.32465338941E+03 -0.18526969721E+03  0.11488217476E+04  0.25500000920E-02 0. -1.
</event>
<event>
 5   0  0.7278815E-06  0.2298997E+04  0.7818609E-02  0.8478317E-01
        1   -1    0    0  501    0  0.00000000000E+00  0.00000000000E+00  0.16020552770E+04  0.16020552770E+04  0.50400001928E-02 0. -1.
       -1   -1    0    0    0  501  0.00000000000E+00  0.00000000000E+00 -0.82478231713E+03  0.82478231714E+03  0.50400001928E-02 0.  1.
    10030    2    1    2    0    0  0.00000000000E+00  0.00000000000E+00  0.77727295986E+03  0.24268375941E+04  0.22989970540E+04 0.  0.
        5    1    3    3  502    0  0.45778479720E+03 -0.10395820336E+04  0.20269660671E+03  0.11538655596E+04  0.46999998093E+01 0. -1.
       -5    1    3    3    0  502 -0.45778479720E+03  0.10395820336E+04  0.57457635316E+03  0.12729720346E+04  0.46999998093E+01 0.  1.
</event>
<event>
 5   0  0.1697855E-05  0.2322074E+04  0.7818609E-02  0.8469268E-01
       -2   -1    0    0    0  501  0.00000000000E+00  0.00000000000E+00  0.54756053261E+03  0.54756053261E+03  0.25500000920E-02 0.  1.
        2   -1    0    0  501    0  0.00000000000E+00  0.00000000000E+00 -0.24618406302E+04  0.24618406302E+04  0.25500000920E-02 0. -1.
    10030    2    1    2    0    0  0.00000000000E+00  0.00000000000E+00 -0.19142800976E+04  0.30094011628E+04  0.23220738719E+04 0.  0.
        5    1    3    3  502    0 -0.56771794618E+03 -0.12793037744E+03  0.34487912448E+03  0.67648617753E+03  0.46999998093E+01 0.  1.
       -5    1    3    3    0  502  0.56771794618E+03  0.12793037744E+03 -0.22591592221E+04  0.23329149853E+04  0.46999998093E+01 0. -1.
</event>
<event>
 5   0  0.1697855E-05  0.2306040E+04  0.7818609E-02  0.8475544E-01
       -2   -1    0    0    0  501  0.00000000000E+00  0.00000000000E+00  0.83076653106E+03  0.83076653106E+03  0.25500000920E-02 0. -1.
        2   -1    0    0  501    0  0.00000000000E+00  0.00000000000E+00 -0.16002749749E+04  0.16002749749E+04  0.25500000920E-02 0.  1.
    10030    2    1    2    0    0  0.00000000000E+00  0.00000000000E+00 -0.76950844387E+03  0.24310415060E+04  0.23060397999E+04 0.  0.
        5    1    3    3  502    0  0.98379702244E+03 -0.41378493541E+03  0.75196624022E+02  0.10699304540E+04  0.46999998093E+01 0. -1.
       -5    1    3    3    0  502 -0.98379702244E+03  0.41378493541E+03 -0.84470506789E+03  0.13611110520E+04  0.46999998093E+01 0.  1.
</event>
<event>
 5   0  0.1602809E-05  0.2289493E+04  0.7818609E-02  0.8482075E-01
        2   -1    0    0  501    0  0.00000000000E+00  0.00000000000E+00  0.16800296457E+04  0.16800296457E+04  0.25500000920E-02 0.  1.
       -2   -1    0    0    0  501  0.00000000000E+00  0.00000000000E+00 -0.78001289131E+03  0.78001289131E+03  0.25500000920E-02 0. -1.
    10030    2    1    2    0    0  0.00000000000E+00  0.00000000000E+00  0.90001675439E+03  0.24600425370E+04  0.22894932028E+04 0.  0.
        3    1    3    3  502    0 -0.60814270496E+03  0.58460453029E+03 -0.38148804861E+03  0.92581485615E+03  0.10100000352E+00 0. -1.
       -3    1    3    3    0  502  0.60814270496E+03 -0.58460453029E+03  0.12815048030E+04  0.15342276809E+04  0.10100000352E+00 0.  1.
</event>
<event>
 5   0  0.1697855E-05  0.2295408E+04  0.7818609E-02  0.8479734E-01
        2   -1    0    0  501    0  0.00000000000E+00  0.00000000000E+00  0.11314296951E+04  0.11314296951E+04  0.25500000920E-02 0.  1.
       -2   -1    0    0    0  501  0.00000000000E+00  0.00000000000E+00 -0.11642122009E+04  0.11642122009E+04  0.25500000920E-02 0. -1.
    10030    2    1    2    0    0  0.00000000000E+00  0.00000000000E+00 -0.32782505851E+02  0.22956418960E+04  0.22954078117E+04 0.  0.
        5    1    3    3  502    0  0.80869099210E+03  0.14124719770E+03 -0.81851436149E+03  0.11592755244E+04  0.46999998093E+01 0. -1.
       -5    1    3    3    0  502 -0.80869099210E+03 -0.14124719770E+03  0.78573185564E+03  0.11363663716E+04  0.46999998093E+01 0.  1.
</event>
<event>
 5   0  0.7202572E-06  0.2302964E+04  0.7818609E-02  0.8476753E-01
       -1   -1    0    0    0  501  0.00000000000E+00  0.00000000000E+00  0.85035767412E+03  0.85035767413E+03  0.50400001928E-02 0.  1.
        1   -1    0    0  501    0  0.00000000000E+00  0.00000000000E+00 -0.15592388678E+04  0.15592388678E+04  0.50400001928E-02 0. -1.
    10030    2    1    2    0    0  0.00000000000E+00  0.00000000000E+00 -0.70888119372E+03  0.24095965420E+04  0.23029639485E+04 0.  0.
        2    1    3    3  502    0  0.15602771880E+03 -0.25248972899E+02  0.83895359216E+03  0.85371265041E+03  0.25500000920E-02 0.  1.
       -2    1    3    3    0  502 -0.15602771880E+03  0.25248972899E+02 -0.15478347859E+04  0.15558838916E+04  0.25500000920E-02 0. -1.
</event>
<event>
 5   0  0.1602809E-05  0.2315547E+04  0.7818609E-02  0.8471816E-01
        2   -1    0    0  501    0  0.00000000000E+00  0.00000000000E+00  0.10167598506E+04  0.10167598506E+04  0.25500000920E-02 0.  1.
       -2   -1    0    0    0  501  0.00000000000E+00  0.00000000000E+00 -0.13183445013E+04  0.13183445013E+04  0.25500000920E-02 0. -1.
    10030    2    1    2    0    0  0.00000000000E+00  0.00000000000E+00 -0.30158465072E+03  0.23351043519E+04  0.23155472426E+04 0.  0.
        3    1    3    3  502    0 -0.83238411633E+03  0.57781777391E+03  0.41403021333E+03  0.10946039123E+04  0.10100000352E+00 0.  1.
       -3    1    3    3    0  502  0.83238411633E+03 -0.57781777391E+03 -0.71561486405E+03  0.12405004397E+04  0.10100000352E+00 0. -1.
</event>
<event>
 5   0  0.1626636E-05  0.2288199E+04  0.7818609E-02  0.8482589E-01
        2   -1    0    0  501    0  0.00000000000E+00  0.00000000000E+00  0.97868291550E+03  0.97868291551E+03  0.25500000920E-02 0. -1.
       -2   -1    0    0    0  501  0.00000000000E+00  0.00000000000E+00 -0.13374748956E+04  0.13374748956E+04  0.25500000920E-02 0.  1.
    10030    2    1    2    0    0  0.00000000000E+00  0.00000000000E+00 -0.35879198007E+03  0.23161578111E+04  0.22881991436E+04 0.  0.
        4    1    3    3  502    0  0.87513516874E+03  0.24547308066E+03 -0.88275584484E+03  0.12670351579E+04  0.12699999809E+01 0.  1.
       -4    1    3    3    0  502 -0.87513516874E+03 -0.24547308066E+03  0.52396386477E+03  0.10491226532E+04  0.12699999809E+01 0. -1.
</event>
<event>
 5   0  0.1602809E-05  0.2264377E+04  0.7818609E-02  0.8492101E-01
        2   -1    0    0  501    0  0.00000000000E+00  0.00000000000E+00  0.14342415635E+04  0.14342415635E+04  0.25500000920E-02 0. -1.
       -2   -1    0    0    0  501  0.00000000000E+00  0.00000000000E+00 -0.89374848726E+03  0.89374848727E+03  0.25500000920E-02 0.  1.
    10030    2    1    2    0    0  0.00000000000E+00  0.00000000000E+00  0.54049307627E+03  0.23279900508E+04  0.22643773783E+04 0.  0.
        3    1    3    3  502    0  0.66407690502E+03 -0.79078515976E+01 -0.67245935660E+03  0.94512552942E+03  0.10100000352E+00 0.  1.
       -3    1    3    3    0  502 -0.66407690502E+03  0.79078515976E+01  0.12129524329E+04  0.13828645214E+04  0.10100000352E+00 0. -1.
</event>
<event>
 5   0  0.7202572E-06  0.2310258E+04  0.7818609E-02  0.8473887E-01
       -1   -1    0    0    0  501  0.00000000000E+00  0.00000000000E+00  0.75094063299E+03  0.75094063300E+03  0.50400001928E-02 0.  1.
        1   -1    0    0  501    0  0.00000000000E+00  0.00000000000E+00 -0.17768693141E+04  0.17768693141E+04  0.50400001928E-02 0. -1.
    10030    2    1    2    0    0  0.00000000000E+00  0.00000000000E+00 -0.10259286812E+04  0.25278099471E+04  0.23102583124E+04 0.  0.
        2    1    3    3  502    0 -0.10744024630E+03 -0.99673933313E+03  0.11491122892E+03  0.10090774476E+04  0.25500000920E-02 0.  1.
       -2    1    3    3    0  502  0.10744024630E+03  0.99673933313E+03 -0.11408399101E+04  0.15187324995E+04  0.25500000920E-02 0. -1.
</event>
<event>
 5   0  0.1635955E-05  0.2287376E+04  0.7818609E-02  0.8482915E-01
        2   -1    0    0  501    0  0.00000000000E+00  0.00000000000E+00  0.15366750346E+04  0.15366750346E+04  0.25500000920E-02 0.  1.
       -2   -1    0    0    0  501  0.00000000000E+00  0.00000000000E+00 -0.85120301557E+03  0.85120301558E+03  0.25500000920E-02 0. -1.
    10030    2    1    2    0    0  0.00000000000E+00  0.00000000000E+00  0.68547201899E+03  0.23878780501E+04  0.22873761592E+04 0.  0.
        2    1    3    3  502    0  0.10760590634E+04  0.25291516080E+03  0.64915124309E+03  0.12818995760E+04  0.25500000920E-02 0. -1.
       -2    1    3    3    0  502 -0.10760590634E+04 -0.25291516080E+03  0.36320775899E+02  0.11059784742E+04  0.25500000920E-02 0.  1.
</event>
<event>
 5   0  0.7416556E-06  0.2300510E+04  0.7818609E-02  0.8477720E-01
       -1   -1    0    0    0  501  0.00000000000E+00  0.00000000000E+00  0.97032249288E+03  0.97032249289E+03  0.50400001928E-02 0.  1.
        1   -1    0    0  501    0  0.00000000000E+00  0.00000000000E+00 -0.13635529998E+04  0.13635529998E+04  0.50400001928E-02 0. -1.
    10030    2    1    2    0    0  0.00000000000E+00  0.00000000000E+00 -0.39323050695E+03  0.23338754927E+04  0.23005096357E+04 0.  0.
        4    1    3    3  502    0 -0.69418430420E+03 -0.84009716491E+03 -0.56996010419E+03  0.12298419524E+04  0.12699999809E+01 0.  1.
       -4    1    3    3    0  502  0.69418430420E+03  0.84009716491E+03  0.17672959723E+03  0.11040335403E+04  0.12699999809E+01 0. -1.
</event>
<event>
 5   0  0.7416556E-06  0.2370101E+04  0.7818609E-02  0.8450783E-01
        1   -1    0    0  501    0  0.00000000000E+00  0.00000000000E+00  0.13957450628E+04  0.13957450628E+04  0.50400001928E-02 0. -1.
       -1   -1    0    0    0  501  0.00000000000E+00  0.00000000000E+00 -0.10061616195E+04  0.10061616195E+04  0.50400001928E-02 0.  1.
    10030    2    1    2    0    0  0.00000000000E+00  0.00000000000E+00  0.38958344330E+03  0.24019066824E+04  0.23701013589E+04 0.  0.
        4    1    3    3  502    0  0.61716098063E+03 -0.77936485728E+03  0.84846391905E+03  0.13069773876E+04  0.12699999809E+01 0. -1.
       -4    1    3    3    0  502 -0.61716098063E+03  0.77936485728E+03 -0.45888047575E+03  0.10949292948E+04  0.12699999809E+01 0.  1.
</event>
<event>
 5   0  0.1626636E-05  0.2289415E+04  0.7818609E-02  0.8482106E-01
        2   -1    0    0  501    0  0.00000000000E+00  0.00000000000E+00  0.11131285463E+04  0.11131285463E+04  0.25500000920E-02 0.  1.
       -2   -1    0    0    0  501  0.00000000000E+00  0.00000000000E+00 -0.11771824636E+04  0.11771824636E+04  0.25500000920E-02 0. -1.
    10030    2    1    2    0    0  0.00000000000E+00  0.00000000000E+00 -0.64053917251E+02  0.22903110099E+04  0.22894151257E+04 0.  0.
        4    1    3    3  502    0  0.17006140236E+03  0.11285775105E+04  0.56017217823E+02  0.11426931431E+04  0.12699999809E+01 0. -1.
       -4    1    3    3    0  502 -0.17006140236E+03 -0.11285775105E+04 -0.12007113507E+03  0.11476178668E+04  0.12699999809E+01 0.  1.
</event>
<event>
 5   0  0.7183014E-06  0.2290592E+04  0.7818609E-02  0.8481640E-01
        1   -1    0    0  501    0  0.00000000000E+00  0.00000000000E+00  0.10157457874E+04  0.10157457874E+04  0.50400001928E-02 0. -1.
       -1   -1    0    0    0  501  0.00000000000E+00  0.00000000000E+00 -0.12913687920E+04  0.12913687921E+04  0.50400001928E-02 0.  1.
    10030    2    1    2    0    0  0.00000000000E+00  0.00000000000E+00 -0.27562300469E+03  0.23071145794E+04  0.22905915485E+04 0.  0.
        3    1    3    3  502    0  0.79379649708E+03 -0.31157601782E+03  0.63223587805E+03  0.10615623907E+04  0.10100000352E+00 0. -1.
       -3    1    3    3    0  502 -0.79379649708E+03  0.31157601782E+03 -0.90785888274E+03  0.12455521887E+04  0.10100000352E+00 0.  1.
</event>
<event>
 5   0  0.7202572E-06  0.2296561E+04  0.7818609E-02  0.8479278E-01
        1   -1    0    0  501    0  0.00000000000E+00  0.00000000000E+00  0.12617428964E+04  0.12617428964E+04  0.50400001928E-02 0. -1.
       -1   -1    0    0    0  501  0.00000000000E+00  0.00000000000E+00 -0.10450211532E+04  0.10450211532E+04  0.50400001928E-02 0.  1.
    10030    2    1    2    0    0  0.00000000000E+00  0.00000000000E+00  0.21672174326E+03  0.23067640496E+04  0.22965609216E+04 0.  0.
        2    1    3    3  502    0 -0.90031856327E+03 -0.64611188275E+03  0.41055284847E+03  0.11817731262E+04  0.25500000920E-02 0. -1.
       -2    1    3    3    0  502  0.90031856327E+03  0.64611188275E+03 -0.19383110521E+03  0.11249909234E+04  0.25500000920E-02 0.  1.
</event>
<event>
 5   0  0.1588969E-05  0.2299333E+04  0.7818609E-02  0.8478184E-01
       -2   -1    0    0    0  501  0.00000000000E+00  0.00000000000E+00  0.16468355482E+04  0.16468355482E+04  0.25500000920E-02 0. -1.
        2   -1    0    0  501    0  0.00000000000E+00  0.00000000000E+00 -0.80258955927E+03  0.80258955928E+03  0.25500000920E-02 0.  1.
    10030    2    1    2    0    0  0.00000000000E+00  0.00000000000E+00  0.84424598892E+03  0.24494251075E+04  0.22993329614E+04 0.  0.
        1    1    3    3  502    0  0.60941508024E+03  0.97150837057E+03  0.50812559279E+03  0.12543551619E+04  0.50400001928E-02 0. -1.
       -1    1    3    3    0  502 -0.60941508024E+03 -0.97150837057E+03  0.33612039613E+03  0.11950699456E+04  0.50400001928E-02 0.  1.
</event>
<event>
 5   0  0.1602809E-05  0.2323141E+04  0.7818609E-02  0.8468853E-01
       -2   -1    0    0    0  501  0.00000000000E+00  0.00000000000E+00  0.67403928758E+03  0.67403928758E+03  0.25500000920E-02 0. -1.
        2   -1    0    0  501    0  0.00000000000E+00  0.00000000000E+00 -0.20017314354E+04  0.20017314354E+04  0.25500000920E-02 0.  1.
    10030    2    1    2    0    0  0.00000000000E+00  0.00000000000E+00 -0.13276921478E+04  0.26757707230E+04  0.23231406592E+04 0.  0.
        3    1    3    3  502    0  0.50917959687E+03  0.62910580567E+03  0.29581546019E+03  0.86171037668E+03  0.10100000352E+00 0. -1.
       -3    1    3    3    0  502 -0.50917959687E+03 -0.62910580567E+03 -0.16235076080E+04  0.18140603463E+04  0.10100000352E+00 0.  1.
</event>
<event>
 5   0  0.1626636E-05  0.2316518E+04  0.7818609E-02  0.8471437E-01
       -2   -1    0    0    0  501  0.00000000000E+00  0.00000000000E+00  0.10523459505E+04  0.10523459505E+04  0.25500000920E-02 0. -1.
        2   -1    0    0  501    0  0.00000000000E+00  0.00000000000E+00 -0.12748313502E+04  0.12748313502E+04  0.25500000920E-02 0.  1.
    10030    2    1    2    0    0  0.00000000000E+00  0.00000000000E+00 -0.22248539967E+03  0.23271773007E+04  0.23165177392E+04 0.  0.
        4    1    3    3  502    0 -0.19089355409E+02 -0.22202760654E+03  0.10306058780E+04  0.10544243692E+04  0.12699999809E+01 0. -1.
       -4    1    3    3    0  502  0.19089355409E+02  0.22202760654E+03 -0.12530912777E+04  0.12727529315E+04  0.12699999809E+01 0.  1.
</event>
<event>
 5   0  0.7391007E-06  0.2300690E+04  0.7818609E-02  0.8477649E-01
       -1   -1    0    0    0  501  0.00000000000E+00  0.00000000000E+00  0.81545095608E+03  0.81545095609E+03  0.50400001928E-02 0.  1.
        1   -1    0    0  501    0  0.00000000000E+00  0.00000000000E+00 -0.16227749700E+04  0.16227749700E+04  0.50400001928E-02 0. -1.
    10030    2    1    2    0    0  0.00000000000E+00  0.00000000000E+00 -0.80732401388E+03  0.24382259261E+04  0.23006898103E+04 0.  0.
        1    1    3    3  502    0 -0.24968229922E+03  0.11219966144E+04 -0.35537801957E+03  0.12031255920E+04  0.50400001928E-02 0. -1.
       -1    1    3    3    0  502  0.24968229922E+03 -0.11219966144E+04 -0.45194599431E+03  0.12351003340E+04  0.50400001928E-02 0.  1.
</event>
<event>
 5   0  0.1626636E-05  0.2305665E+04  0.7818609E-02  0.8475691E-01
        2   -1    0    0  501    0  0.00000000000E+00  0.00000000000E+00  0.13323932712E+04  0.13323932712E+04  0.25500000920E-02 0.  1.
       -2   -1    0    0    0  501  0.00000000000E+00  0.00000000000E+00 -0.99747020952E+03  0.99747020952E+03  0.25500000920E-02 0. -1.
    10030    2    1    2    0    0  0.00000000000E+00  0.00000000000E+00  0.33492306166E+03  0.23298634807E+04  0.23056648459E+04 0.  0.
        4    1    3    3  502    0 -0.95520435573E+03  0.11567868491E+03  0.80912529829E+03  0.12571723353E+04  0.12699999809E+01 0.  1.
       -4    1    3    3    0  502  0.95520435573E+03 -0.11567868491E+03 -0.47420223663E+03  0.10726911454E+04  0.12699999809E+01 0. -1.
</event>
<event>
 5   0  0.7183014E-06  0.2301202E+04  0.7818609E-02  0.8477447E-01
        1   -1    0    0  501    0  0.00000000000E+00  0.00000000000E+00  0.92441893009E+03  0.92441893011E+03  0.50400001928E-02 0. -1.
       -1   -1    0    0    0  501  0.00000000000E+00  0.00000000000E+00 -0.14321243485E+04  0.14321243485E+04  0.50400001928E-02 0.  1.
    10030    2    1    2    0    0  0.00000000000E+00  0.00000000000E+00 -0.50770541836E+03  0.23565432786E+04  0.23012021710E+04 0.  0.
        3    1    3    3  502    0  0.21679434404E+03 -0.90474573320E+02 -0.14073050958E+04  0.14267771651E+04  0.10100000352E+00 0.  1.
       -3    1    3    3    0  502 -0.21679434404E+03  0.90474573320E+02  0.89959967740E+03  0.92976611350E+03  0.10100000352E+00 0. -1.
</event>
<event>
 5   0  0.1602809E-05  0.2297797E+04  0.7818609E-02  0.8478790E-01
        2   -1    0    0  501    0  0.00000000000E+00  0.00000000000E+00  0.28834425413E+04  0.28834425413E+04  0.25500000920E-02 0. -1.
       -2   -1    0    0    0  501  0.00000000000E+00  0.00000000000E+00 -0.45777495162E+03  0.45777495163E+03  0.25500000920E-02 0.  1.
    10030    2    1    2    0    0  0.00000000000E+00  0.00000000000E+00  0.24256675897E+04  0.33412174930E+04  0.22977970057E+04 0.  0.
        3    1    3    3  502    0  0.95474351499E+03  0.60761353789E+03  0.15008709812E+04  0.18797188894E+04  0.10100000352E+00 0. -1.
       -3    1    3    3    0  502 -0.95474351499E+03 -0.60761353789E+03  0.92479660849E+03  0.14614986035E+04  0.10100000352E+00 0.  1.
</event>
<event>
 5   0  0.1602809E-05  0.2293656E+04  0.7818609E-02  0.8480427E-01
        2   -1    0    0  501    0  0.00000000000E+00  0.00000000000E+00  0.17300869022E+04  0.17300869022E+04  0.25500000920E-02 0. -1.
       -2   -1    0    0    0  501  0.00000000000E+00  0.00000000000E+00 -0.76020161056E+03  0.76020161056E+03  0.25500000920E-02 0.  1.
    10030    2    1    2    0    0  0.00000000000E+00  0.00000000000E+00  0.96988529163E+03  0.24902885128E+04  0.22936563382E+04 0.  0.
        3    1    3    3  502    0 -0.45417356568E+03  0.10132405750E+04  0.79638737930E+03  0.13664417143E+04  0.10100000352E+00 0. -1.
       -3    1    3    3    0  502  0.45417356568E+03 -0.10132405750E+04  0.17349791233E+03  0.11238467984E+04  0.10100000352E+00 0.  1.
</event>
<event>
 5   0  0.7416556E-06  0.2318707E+04  0.7818609E-02  0.8470582E-01
        1   -1    0    0  501    0  0.00000000000E+00  0.00000000000E+00  0.94190356490E+03  0.94190356491E+03  0.50400001928E-02 0.  1.
       -1   -1    0    0    0  501  0.00000000000E+00  0.00000000000E+00 -0.14270039815E+04  0.14270039815E+04  0.50400001928E-02 0. -1.
    10030    2    1    2    0    0  0.00000000000E+00  0.00000000000E+00 -0.48510041659E+03  0.23689075464E+04  0.23187066544E+04 0.  0.
        4    1    3    3  502    0  0.25716714594E+03  0.11303764761E+04 -0.25744690104E+03  0.11875042898E+04  0.12699999809E+01 0.  1.
       -4    1    3    3    0  502 -0.25716714594E+03 -0.11303764761E+04 -0.22765351555E+03  0.11814032566E+04  0.12699999809E+01 0. -1.
</event>
<event>
 5   0  0.7391007E-06  0.2302634E+04  0.7818609E-02  0.8476883E-01
       -1   -1    0    0    0  501  0.00000000000E+00  0.00000000000E+00  0.57313324710E+03  0.57313324712E+03  0.50400001928E-02 0.  1.
        1   -1    0    0  501    0  0.00000000000E+00  0.00000000000E+00 -0.23127788203E+04  0.23127788203E+04  0.50400001928E-02 0. -1.
    10030    2    1    2    0    0  0.00000000000E+00  0.00000000000E+00 -0.17396455732E+04  0.28859120674E+04  0.23026336531E+04 0.  0.
        1    1    3    3  502    0 -0.47464209286E+03  0.78147928026E+03  0.70777211140E+01  0.91435500543E+03  0.50400001928E-02 0.  1.
       -1    1    3    3    0  502  0.47464209286E+03 -0.78147928026E+03 -0.17467232943E+04  0.19715570620E+04  0.50400001928E-02 0. -1.
</event>
<event>
 5   0  0.1588969E-05  0.2321577E+04  0.7818609E-02  0.8469462E-01
       -2   -1    0    0    0  501  0.00000000000E+00  0.00000000000E+00  0.13104371458E+04  0.13104371458E+04  0.25500000920E-02 0.  1.
        2   -1    0    0  501    0  0.00000000000E+00  0.00000000000E+00 -0.10282289925E+04  0.10282289925E+04  0.25500000920E-02 0. -1.
    10030    2    1    2    0    0  0.00000000000E+00  0.00000000000E+00  0.28220815333E+03  0.23386661383E+04  0.23215765903E+04 0.  0.
        1    1    3    3  502    0  0.12595712704E+03 -0.10957746287E+04  0.50548797905E+03  0.12133034788E+04  0.50400001928E-02 0.  1.
       -1    1    3    3    0  502 -0.12595712704E+03  0.10957746287E+04 -0.22327982572E+03  0.11253626595E+04  0.50400001928E-02 0. -1.
</event>
<event>
 5   0  0.7416556E-06  0.2371988E+04  0.7818609E-02  0.8450066E-01
       -1   -1    0    0    0  501  0.00000000000E+00  0.00000000000E+00  0.83204251545E+03  0.83204251546E+03  0.50400001928E-02 0.  1.
        1   -1    0    0  501    0  0.00000000000E+00  0.00000000000E+00 -0.16905163509E+04  0.16905163509E+04  0.50400001928E-02 0. -1.
    10030    2    1    2    0    0  0.00000000000E+00  0.00000000000E+00 -0.85847383546E+03  0.25225588664E+04  0.23719877546E+04 0.  0.
        4    1    3    3  502    0 -0.14426322402E+03 -0.76327277234E+03  0.52385772705E+03  0.93692354752E+03  0.12699999809E+01 0.  1.
       -4    1    3    3    0  502  0.14426322402E+03  0.76327277234E+03 -0.13823315625E+04  0.15856353189E+04  0.12699999809E+01 0. -1.
</event>
<event>
 5   0  0.1697855E-05  0.2298959E+04  0.7818609E-02  0.8478332E-01
        2   -1    0    0  501    0  0.00000000000E+00  0.00000000000E+00  0.21480629307E+04  0.21480629307E+04  0.25500000920E-02 0. -1.
       -2   -1    0    0    0  501  0.00000000000E+00  0.00000000000E+00 -0.61511384563E+03  0.61511384563E+03  0.25500000920E-02 0.  1.
    10030    2    1    2    0    0  0.00000000000E+00  0.00000000000E+00  0.15329490851E+04  0.27631767764E+04  0.22989591123E+04 0.  0.
        5    1    3    3  502    0 -0.98771322052E+03  0.33933452827E+03  0.13435936841E+04  0.17017612658E+04  0.46999998093E+01 0. -1.
       -5    1    3    3    0  502  0.98771322052E+03 -0.33933452827E+03  0.18935540103E+03  0.10614155105E+04  0.46999998093E+01 0.  1.
</event>
<event>
 5   0  0.7202572E-06  0.2302050E+04  0.7818609E-02  0.8477113E-01
       -1   -1    0    0    0  501  0.00000000000E+00  0.00000000000E+00  0.61309443674E+03  0.61309443676E+03  0.50400001928E-02 0. -1.
        1   -1    0    0  501    0  0.00000000000E+00  0.00000000000E+00 -0.21609362952E+04  0.21609362952E+04  0.50400001928E-02 0.  1.
    10030    2    1    2    0    0  0.00000000000E+00  0.00000000000E+00 -0.15478418585E+04  0.27740307320E+04  0.23020495397E+04 0.  0.
        2    1    3    3  502    0 -0.48588193348E+03 -0.96696799222E+03 -0.12464229804E+04  0.16506600490E+04  0.25500000920E-02 0.  1.
       -2    1    3    3    0  502  0.48588193348E+03  0.96696799222E+03 -0.30141887802E+03  0.11233706829E+04  0.25500000920E-02 0. -1.
</event>
<event>
 5   0  0.7278815E-06  0.2269705E+04  0.7818609E-02  0.8489963E-01
       -1   -1    0    0    0  501  0.00000000000E+00  0.00000000000E+00  0.66077034187E+03  0.66077034189E+03  0.50400001928E-02 0.  1.
        1   -1    0    0  501    0  0.00000000000E+00  0.00000000000E+00 -0.19490738195E+04  0.19490738195E+04  0.50400001928E-02 0. -1.
    10030    2    1    2    0    0  0.00000000000E+00  0.00000000000E+00 -0.12883034776E+04  0.26098441614E+04  0.22697049800E+04 0.  0.
        5    1    3    3  502    0 -0.43018620464E+03  0.77742580173E+03 -0.14559378267E+04  0.17056459460E+04  0.46999998093E+01 0. -1.
       -5    1    3    3    0  502  0.43018620464E+03 -0.77742580173E+03  0.16763434902E+03  0.90419821545E+03  0.46999998093E+01 0.  1.
</event>
<event>
 5   0  0.7391007E-06  0.2294120E+04  0.7818609E-02  0.8480243E-01
       -1   -1    0    0    0  501  0.00000000000E+00  0.00000000000E+00  0.46895126804E+03  0.46895126807E+03  0.50400001928E-02 0. -1.
        1   -1    0    0  501    0  0.00000000000E+00  0.00000000000E+00 -0.28057203390E+04  0.28057203390E+04  0.50400001928E-02 0.  1.
    10030    2    1    2    0    0  0.00000000000E+00  0.00000000000E+00 -0.23367690710E+04  0.32746716071E+04  0.22941195355E+04 0.  0.
        1    1    3    3  502    0 -0.68345561472E+03 -0.88173392030E+03 -0.15492136790E+04  0.19090912253E+04  0.50400001928E-02 0. -1.
       -1    1    3    3    0  502  0.68345561472E+03  0.88173392030E+03 -0.78755539199E+03  0.13655803817E+04  0.50400001928E-02 0.  1.
</event>
<event>
 5   0  0.1697855E-05  0.2301765E+04  0.7818609E-02  0.8477225E-01
       -2   -1    0    0    0  501  0.00000000000E+00  0.00000000000E+00  0.67956292411E+03  0.67956292411E+03  0.25500000920E-02 0.  1.
        2   -1    0    0  501    0  0.00000000000E+00  0.00000000000E+00 -0.19490919731E+04  0.19490919731E+04  0.25500000920E-02 0. -1.
    10030    2    1    2    0    0  0.00000000000E+00  0.00000000000E+00 -0.12695290490E+04  0.26286548973E+04  0.23017650972E+04 0.  0.
        5    1    3    3  502    0 -0.96885601789E+03  0.44279848642E+03 -0.11322385490E+04  0.15545863453E+04  0.46999998093E+01 0. -1.
       -5    1    3    3    0  502  0.96885601789E+03 -0.44279848642E+03 -0.13729050000E+03  0.10740685520E+04  0.46999998093E+01 0.  1.
</event>
<event>
 5   0  0.7202572E-06  0.2338135E+04  0.7818609E-02  0.8463035E-01
       -1   -1    0    0    0  501  0.00000000000E+00  0.00000000000E+00  0.84363201762E+03  0.84363201763E+03  0.50400001928E-02 0. -1.
        1   -1    0    0  501    0  0.00000000000E+00  0.00000000000E+00 -0.16200410293E+04  0.16200410293E+04  0.50400001928E-02 0.  1.
    10030    2    1    2    0    0  0.00000000000E+00  0.00000000000E+00 -0.77640901170E+03  0.24636730470E+04  0.23381347114E+04 0.  0.
        2    1    3    3  502    0 -0.83673440941E+03  0.34868196930E+03  0.38968467010E+03  0.98669029068E+03  0.25500000920E-02 0. -1.
       -2    1    3    3    0  502  0.83673440941E+03 -0.34868196930E+03 -0.11660936818E+04  0.14769827563E+04  0.25500000920E-02 0.  1.
</event>
<event>
 5   0  0.7183014E-06  0.2282931E+04  0.7818609E-02  0.8484682E-01
       -1   -1    0    0    0  501  0.00000000000E+00  0.00000000000E+00  0.65261167449E+03  0.65261167451E+03  0.50400001928E-02 0. -1.
        1   -1    0    0  501    0  0.00000000000E+00  0.00000000000E+00 -0.19965070491E+04  0.19965070491E+04  0.50400001928E-02 0.  1.
    10030    2    1    2    0    0  0.00000000000E+00  0.00000000000E+00 -0.13438953746E+04  0.26491187236E+04  0.22829312810E+04 0.  0.
        3    1    3    3  502    0 -0.94202712400E+03 -0.63540105020E+03 -0.54592670759E+03  0.12606290403E+04  0.10100000352E+00 0. -1.
       -3    1    3    3    0  502  0.94202712400E+03  0.63540105020E+03 -0.79796866697E+03  0.13884896833E+04  0.10100000352E+00 0.  1.
</event>
<event>
 5   0  0.1602809E-05  0.2294383E+04  0.7818609E-02  0.8480139E-01
        2   -1    0    0  501    0  0.00000000000E+00  0.00000000000E+00  0.92150769524E+03  0.92150769524E+03  0.25500000920E-02 0.  1.
       -2   -1    0    0    0  501  0.00000000000E+00  0.00000000000E+00 -0.14281472826E+04  0.14281472826E+04  0.25500000920E-02 0. -1.
    10030    2    1    2    0    0  0.00000000000E+00  0.00000000000E+00 -0.50663958733E+03  0.23496549778E+04  0.22943833253E+04 0.  0.
        3    1    3    3  502    0  0.47850824398E+02 -0.82335891535E+03 -0.10699242236E+04  0.13509061623E+04  0.10100000352E+00 0. -1.
       -3    1    3    3    0  502 -0.47850824398E+02  0.82335891535E+03  0.56328463625E+03  0.99874881553E+03  0.10100000352E+00 0.  1.
</event>
<event>
 5   0  0.1697855E-05  0.2299822E+04  0.7818609E-02  0.8477991E-01
       -2   -1    0    0    0  501  0.00000000000E+00  0.00000000000E+00  0.48783444746E+03  0.48783444747E+03  0.25500000920E-02 0.  1.
        2   -1    0    0  501    0  0.00000000000E+00  0.00000000000E+00 -0.27105416291E+04  0.27105416291E+04  0.25500000920E-02 0. -1.
    10030    2    1    2    0    0  0.00000000000E+00  0.00000000000E+00 -0.22227071816E+04  0.31983760766E+04  0.22998222348E+04 0.  0.
        5    1    3    3  502    0  0.81352236558E+03  0.11421306131E+03 -0.22303405806E+04  0.23768265519E+04  0.46999998093E+01 0. -1.
       -5    1    3    3    0  502 -0.81352236558E+03 -0.11421306131E+03  0.76333989179E+01  0.82154952465E+03  0.46999998093E+01 0.  1.
</event>
<event>
 5   0  0.1588969E-05  0.2287772E+04  0.7818609E-02  0.8482758E-01
       -2   -1    0    0    0  501  0.00000000000E+00  0.00000000000E+00  0.63452906121E+03  0.63452906121E+03  0.25500000920E-02 0. -1.
        2   -1    0    0  501    0  0.00000000000E+00  0.00000000000E+00 -0.20621199852E+04  0.20621199852E+04  0.25500000920E-02 0.  1.
    10030    2    1    2    0    0  0.00000000000E+00  0.00000000000E+00 -0.14275909240E+04  0.26966490464E+04  0.22877718928E+04 0.  0.
        1    1    3    3  502    0 -0.55646082125E+03 -0.27801595056E+03  0.41773769183E+03  0.74929719974E+03  0.50400001928E-02 0. -1.
       -1    1    3    3    0  502  0.55646082125E+03  0.27801595056E+03 -0.18453286158E+04  0.19473518467E+04  0.50400001928E-02 0.  1.
</event>
<event>
 5   0  0.7416556E-06  0.2328053E+04  0.7818609E-02  0.8466942E-01
       -1   -1    0    0    0  501  0.00000000000E+00  0.00000000000E+00  0.96529337765E+03  0.96529337766E+03  0.50400001928E-02 0. -1.
        1   -1    0    0  501    0  0.00000000000E+00  0.00000000000E+00 -0.14036739238E+04  0.14036739238E+04  0.50400001928E-02 0.  1.
    10030    2    1    2    0    0  0.00000000000E+00  0.00000000000E+00 -0.43838054619E+03  0.23689673015E+04  0.23280525278E+04 0.  0.
        4    1    3    3  502    0  0.31014413214E+02 -0.10269940048E+04 -0.77586682198E+03  0.12874973856E+04  0.12699999809E+01 0.  1.
       -4    1    3    3    0  502 -0.31014413214E+02  0.10269940048E+04  0.33748627579E+03  0.10814699159E+04  0.12699999809E+01 0. -1.
</event>
<event>
 5   0  0.7278815E-06  0.2285675E+04  0.7818609E-02  0.8483591E-01
        1   -1    0    0  501    0  0.00000000000E+00  0.00000000000E+00  0.13707386359E+04  0.13707386359E+04  0.50400001928E-02 0.  1.
       -1   -1    0    0    0  501  0.00000000000E+00  0.00000000000E+00 -0.95282734597E+03  0.95282734598E+03  0.50400001928E-02 0. -1.
    10030    2    1    2    0    0  0.00000000000E+00  0.00000000000E+00  0.41791128992E+03  0.23235659819E+04  0.22856747419E+04 0.  0.
        5    1    3    3  502    0 -0.62841990116E+03 -0.54649887801E+03  0.10045422230E+04  0.13048753824E+04  0.46999998093E+01 0.  1.
       -5    1    3    3    0  502  0.62841990116E+03  0.54649887801E+03 -0.58663093307E+03  0.10186905995E+04  0.46999998093E+01 0. -1.
</event>
<event>
 5   0  0.7391007E-06  0.2303105E+04  0.7818609E-02  0.8476698E-01
       -1   -1    0    0    0  501  0.00000000000E+00  0.00000000000E+00  0.58670510491E+03  0.58670510493E+03  0.50400001928E-02 0. -1.
        1   -1    0    0  501    0  0.00000000000E+00  0.00000000000E+00 -0.22602037530E+04  0.22602037530E+04  0.50400001928E-02 0.  1.
    10030    2    1    2    0    0  0.00000000000E+00  0.00000000000E+00 -0.16734986480E+04  0.28469088579E+04  0.23031049303E+04 0.  0.
        1    1    3    3  502    0 -0.36745401765E+03 -0.10443649859E+04 -0.12283322279E+04  0.16536386368E+04  0.50400001928E-02 0.  1.
       -1    1    3    3    0  502  0.36745401765E+03  0.10443649859E+04 -0.44516642012E+03  0.11932702211E+04  0.50400001928E-02 0. -1.
</event>
<event>
 5   0  0.1635955E-05  0.2295952E+04  0.7818609E-02  0.8479519E-01
       -2   -1    0    0    0  501  0.00000000000E+00  0.00000000000E+00  0.14927929908E+04  0.14927929908E+04  0.25500000920E-02 0.  1.
        2   -1    0    0  501    0  0.00000000000E+00  0.00000000000E+00 -0.88280762871E+03  0.88280762871E+03  0.25500000920E-02 0. -1.
    10030    2    1    2    0    0  0.00000000000E+00  0.00000000000E+00  0.60998536206E+03  0.23756006195E+04  0.22959521252E+04 0.  0.
        2    1    3    3  502    0  0.27867626315E+03 -0.22146243400E+03 -0.82426368628E+03  0.89784001573E+03  0.25500000920E-02 0. -1.
       -2    1    3    3    0  502 -0.27867626315E+03  0.22146243400E+03  0.14342490483E+04  0.14777606037E+04  0.25500000920E-02 0.  1.
</event>
<event>
 5   0  0.7183014E-06  0.2297268E+04  0.7818609E-02  0.8478999E-01
        1   -1    0    0  501    0  0.00000000000E+00  0.00000000000E+00  0.90782993700E+03  0.90782993701E+03  0.50400001928E-02 0. -1.
       -1   -1    0    0    0  501  0.00000000000E+00  0.00000000000E+00 -0.14533118391E+04  0.14533118391E+04  0.50400001928E-02 0.  1.
    10030    2    1    2    0    0  0.00000000000E+00  0.00000000000E+00 -0.54548190210E+03  0.23611417761E+04  0.22972679385E+04 0.  0.
        3    1    3    3  502    0  0.27041521552E+02  0.42306241888E+03 -0.13699656534E+04  0.14340568175E+04  0.10100000352E+00 0.  1.
       -3    1    3    3    0  502 -0.27041521552E+02 -0.42306241888E+03  0.82448375129E+03  0.92708495862E+03  0.10100000352E+00 0. -1.
</event>
<event>
 5   0  0.5704875E-06  0.2303122E+04  0.7818609E-02  0.8476691E-01
        4   -1    0    0  501    0  0.00000000000E+00  0.00000000000E+00  0.11513422954E+04  0.11513429958E+04  0.12699999809E+01 0. -1.
       -4   -1    0    0    0  501  0.00000000000E+00  0.00000000000E+00 -0.11517779725E+04  0.11517786727E+04  0.12699999809E+01 0.  1.
    10030    2    1    2    0    0  0.00000000000E+00  0.00000000000E+00 -0.43567709550E+00  0.23031216685E+04  0.23031216273E+04 0.  0.
        5    1    3    3  502    0  0.40510551698E+03 -0.22539308682E+03  0.10538968297E+04  0.11513614294E+04  0.46999998093E+01 0. -1.
       -5    1    3    3    0  502 -0.40510551698E+03  0.22539308682E+03 -0.10543325068E+04  0.11517602391E+04  0.46999998093E+01 0.  1.
</event>
<event>
 5   0  0.7416556E-06  0.2298832E+04  0.7818609E-02  0.8478382E-01
        1   -1    0    0  501    0  0.00000000000E+00  0.00000000000E+00  0.16515125590E+04  0.16515125590E+04  0.50400001928E-02 0. -1.
       -1   -1    0    0    0  501  0.00000000000E+00  0.00000000000E+00 -0.79996830246E+03  0.79996830248E+03  0.50400001928E-02 0.  1.
    10030    2    1    2    0    0  0.00000000000E+00  0.00000000000E+00  0.85154425650E+03  0.24514808614E+04  0.22988324848E+04 0.  0.
        4    1    3    3  502    0 -0.74092396669E+03  0.36519081140E+03  0.12781096363E+04  0.15218076450E+04  0.12699999809E+01 0. -1.
       -4    1    3    3    0  502  0.74092396669E+03 -0.36519081140E+03 -0.42656537981E+03  0.92967321641E+03  0.12699999809E+01 0.  1.
</event>
<event>
 5   0  0.1588969E-05  0.2303981E+04  0.7818609E-02  0.8476353E-01
       -2   -1    0    0    0  501  0.00000000000E+00  0.00000000000E+00  0.56902032638E+03  0.56902032638E+03  0.25500000920E-02 0.  1.
        2   -1    0    0  501    0  0.00000000000E+00  0.00000000000E+00 -0.23322232378E+04  0.23322232378E+04  0.25500000920E-02 0. -1.
    10030    2    1    2    0    0  0.00000000000E+00  0.00000000000E+00 -0.17632029115E+04  0.29012435642E+04  0.23039812742E+04 0.  0.
        1    1    3    3  502    0 -0.53713848737E+03 -0.46801517972E+03 -0.20215539061E+04  0.21434169353E+04  0.50400001928E-02 0. -1.
       -1    1    3    3    0  502  0.53713848737E+03  0.46801517972E+03  0.25835099466E+03  0.75782662894E+03  0.50400001928E-02 0.  1.
</event>
<event>
 5   0  0.1602809E-05  0.2302860E+04  0.7818609E-02  0.8476794E-01
        2   -1    0    0  501    0  0.00000000000E+00  0.00000000000E+00  0.13027188574E+04  0.13027188574E+04  0.25500000920E-02 0. -1.
       -2   -1    0    0    0  501  0.00000000000E+00  0.00000000000E+00 -0.10177107801E+04  0.10177107801E+04  0.25500000920E-02 0.  1.
    10030    2    1    2    0    0  0.00000000000E+00  0.00000000000E+00  0.28500807733E+03  0.23204296375E+04  0.23028599824E+04 0.  0.
        3    1    3    3  502    0  0.19032718844E+03 -0.56262338528E+03  0.11364484351E+04  0.12822965991E+04  0.10100000352E+00 0. -1.
       -3    1    3    3    0  502 -0.19032718844E+03  0.56262338528E+03 -0.85144035777E+03  0.10381330384E+04  0.10100000352E+00 0.  1.
</event>
<event>
 5   0  0.7202572E-06  0.2234733E+04  0.7818609E-02  0.8504109E-01
        1   -1    0    0  501    0  0.00000000000E+00  0.00000000000E+00  0.18298167779E+04  0.18298167779E+04  0.50400001928E-02 0. -1.
       -1   -1    0    0    0  501  0.00000000000E+00  0.00000000000E+00 -0.68231313359E+03  0.68231313361E+03  0.50400001928E-02 0.  1.
    10030    2    1    2    0    0  0.00000000000E+00  0.00000000000E+00  0.11475036443E+04  0.25121299115E+04  0.22347331113E+04 0.  0.
        2    1    3    3  502    0  0.10402441278E+03  0.93335339461E+03  0.12543270857E+04  0.15669416312E+04  0.25500000920E-02 0.  1.
       -2    1    3    3    0  502 -0.10402441278E+03 -0.93335339461E+03 -0.10682344134E+03  0.94518828035E+03  0.25500000920E-02 0. -1.
</event>
<event>
 5   0  0.7278815E-06  0.2276525E+04  0.7818609E-02  0.8487235E-01
        1   -1    0    0  501    0  0.00000000000E+00  0.00000000000E+00  0.42088887972E+03  0.42088887975E+03  0.50400001928E-02 0.  1.
       -1   -1    0    0    0  501  0.00000000000E+00  0.00000000000E+00 -0.30783454477E+04  0.30783454477E+04  0.50400001928E-02 0. -1.
    10030    2    1    2    0    0  0.00000000000E+00  0.00000000000E+00 -0.26574565680E+04  0.34992343275E+04  0.22765248665E+04 0.  0.
        5    1    3    3  502    0 -0.50303875074E+03  0.31998234047E+03  0.16168506258E+03  0.61773848222E+03  0.46999998093E+01 0.  1.
       -5    1    3    3    0  502  0.50303875074E+03 -0.31998234047E+03 -0.28191416306E+04  0.28814958452E+04  0.46999998093E+01 0. -1.
</event>
<event>
 5   0  0.1697855E-05  0.2282511E+04  0.7818609E-02  0.8484849E-01
        2   -1    0    0  501    0  0.00000000000E+00  0.00000000000E+00  0.17219219147E+04  0.17219219147E+04  0.25500000920E-02 0.  1.
       -2   -1    0    0    0  501  0.00000000000E+00  0.00000000000E+00 -0.75640115078E+03  0.75640115078E+03  0.25500000920E-02 0. -1.
    10030    2    1    2    0    0  0.00000000000E+00  0.00000000000E+00  0.96552076397E+03  0.24783230655E+04  0.22825106509E+04 0.  0.
        5    1    3    3  502    0 -0.28767316275E+03 -0.10235247253E+04  0.93317656338E+03  0.14146375155E+04  0.46999998093E+01 0.  1.
       -5    1    3    3    0  502  0.28767316275E+03  0.10235247253E+04  0.32344200584E+02  0.10636855500E+04  0.46999998093E+01 0. -1.
</event>
<event>
 5   0  0.1588969E-05  0.2275948E+04  0.7818609E-02  0.8487465E-01
       -2   -1    0    0    0  501  0.00000000000E+00  0.00000000000E+00  0.14013273015E+04  0.14013273015E+04  0.25500000920E-02 0.  1.
        2   -1    0    0  501    0  0.00000000000E+00  0.00000000000E+00 -0.92411342098E+03  0.92411342099E+03  0.25500000920E-02 0. -1.
    10030    2    1    2    0    0  0.00000000000E+00  0.00000000000E+00  0.47721388050E+03  0.23254407225E+04  0.22759484761E+04 0.  0.
        1    1    3    3  502    0 -0.28029732336E+02  0.68934953641E+03  0.11632710069E+04  0.13524747261E+04  0.50400001928E-02 0.  1.
       -1    1    3    3    0  502  0.28029732336E+02 -0.68934953641E+03 -0.68605712644E+03  0.97296599633E+03  0.50400001928E-02 0. -1.
</event>
<event>
 5   0  0.5704875E-06  0.2311566E+04  0.7818609E-02  0.8473375E-01
       -3   -1    0    0    0  501  0.00000000000E+00  0.00000000000E+00  0.82424789569E+03  0.82424790188E+03  0.10100000352E+00 0. -1.
        3   -1    0    0  501    0  0.00000000000E+00  0.00000000000E+00 -0.16206712219E+04  0.16206712251E+04  0.10100000352E+00 0.  1.
    10030    2    1    2    0    0  0.00000000000E+00  0.00000000000E+00 -0.79642332625E+03  0.24449191270E+04  0.23115664435E+04 0.  0.
        2    1    3    3  502    0 -0.26253043494E+03 -0.87804522222E+03 -0.11430752089E+04  0.14650960974E+04  0.25500000920E-02 0.  1.
       -2    1    3    3    0  502  0.26253043494E+03  0.87804522222E+03  0.34665188261E+03  0.97982302956E+03  0.25500000920E-02 0. -1.
</event>
<event>
 5   0  0.7416556E-06  0.2318708E+04  0.7818609E-02  0.8470581E-01
        1   -1    0    0  501    0  0.00000000000E+00  0.00000000000E+00  0.10486250006E+04  0.10486250006E+04  0.50400001928E-02 0. -1.
       -1   -1    0    0    0  501  0.00000000000E+00  0.00000000000E+00 -0.12817750128E+04  0.12817750128E+04  0.50400001928E-02 0.  1.
    10030    2    1    2    0    0  0.00000000000E+00  0.00000000000E+00 -0.23315001221E+03  0.23304000134E+04  0.23187076776E+04 0.  0.
        4    1    3    3  502    0 -0.66066960543E+03  0.77409441609E+03  0.44155694298E+03  0.11093604641E+04  0.12699999809E+01 0. -1.
       -4    1    3    3    0  502  0.66066960543E+03 -0.77409441609E+03 -0.67470695519E+03  0.12210395493E+04  0.12699999809E+01 0.  1.
</event>
<event>
 5   0  0.1626636E-05  0.2327897E+04  0.7818609E-02  0.8467002E-01
       -2   -1    0    0    0  501  0.00000000000E+00  0.00000000000E+00  0.67313349507E+03  0.67313349507E+03  0.25500000920E-02 0.  1.
        2   -1    0    0  501    0  0.00000000000E+00  0.00000000000E+00 -0.20126403885E+04  0.20126403885E+04  0.25500000920E-02 0. -1.
    10030    2    1    2    0    0  0.00000000000E+00  0.00000000000E+00 -0.13395068934E+04  0.26857738835E+04  0.23278966120E+04 0.  0.
        4    1    3    3  502    0 -0.10700899280E+04  0.36262695794E+03 -0.99235221535E+03  0.15037803353E+04  0.12699999809E+01 0.  1.
       -4    1    3    3    0  502  0.10700899280E+04 -0.36262695794E+03 -0.34715467803E+03  0.11819935482E+04  0.12699999809E+01 0. -1.
</event>
<event>
 5   0  0.1588969E-05  0.2299758E+04  0.7818609E-02  0.8478017E-01
       -2   -1    0    0    0  501  0.00000000000E+00  0.00000000000E+00  0.10995250143E+04  0.10995250143E+04  0.25500000920E-02 0.  1.
        2   -1    0    0  501    0  0.00000000000E+00  0.00000000000E+00 -0.12025389129E+04  0.12025389129E+04  0.25500000920E-02 0. -1.
    10030    2    1    2    0    0  0.00000000000E+00  0.00000000000E+00 -0.10301389862E+03  0.23020639272E+04  0.22997579137E+04 0.  0.
        1    1    3    3  502    0 -0.87546648293E+03  0.68454020071E+03 -0.34707368933E+03  0.11642581307E+04  0.50400001928E-02 0. -1.
       -1    1    3    3    0  502  0.87546648293E+03 -0.68454020071E+03  0.24405979071E+03  0.11378057965E+04  0.50400001928E-02 0.  1.
</event>
<event>
 5   0  0.1697855E-05  0.2303591E+04  0.7818609E-02  0.8476507E-01
        2   -1    0    0  501    0  0.00000000000E+00  0.00000000000E+00  0.92496578449E+03  0.92496578449E+03  0.25500000920E-02 0. -1.
       -2   -1    0    0    0  501  0.00000000000E+00  0.00000000000E+00 -0.14342503354E+04  0.14342503354E+04  0.25500000920E-02 0.  1.
    10030    2    1    2    0    0  0.00000000000E+00  0.00000000000E+00 -0.50928455093E+03  0.23592161199E+04  0.23035906639E+04 0.  0.
        5    1    3    3  502    0  0.91502024022E+03  0.68253257107E+03 -0.41163321780E+03  0.12134977324E+04  0.46999998093E+01 0.  1.
       -5    1    3    3    0  502 -0.91502024022E+03 -0.68253257107E+03 -0.97651333134E+02  0.11457183875E+04  0.46999998093E+01 0. -1.
</event>
<event>
 5   0  0.1697855E-05  0.2298356E+04  0.7818609E-02  0.8478570E-01
       -2   -1    0    0    0  501  0.00000000000E+00  0.00000000000E+00  0.87621910420E+03  0.87621910420E+03  0.25500000920E-02 0. -1.
        2   -1    0    0  501    0  0.00000000000E+00  0.00000000000E+00 -0.15071690666E+04  0.15071690666E+04  0.25500000920E-02 0.  1.
    10030    2    1    2    0    0  0.00000000000E+00  0.00000000000E+00 -0.63094996244E+03  0.23833881708E+04  0.22983562208E+04 0.  0.
        5    1    3    3  502    0 -0.29118503042E+03  0.55311673006E+03  0.68449404708E+03  0.92697412559E+03  0.46999998093E+01 0. -1.
       -5    1    3    3    0  502  0.29118503042E+03 -0.55311673006E+03 -0.13154440095E+04  0.14564140453E+04  0.46999998093E+01 0.  1.
</event>
<event>
 5   0  0.1697855E-05  0.2292374E+04  0.7818609E-02  0.8480934E-01
        2   -1    0    0  501    0  0.00000000000E+00  0.00000000000E+00  0.11552026040E+04  0.11552026040E+04  0.25500000920E-02 0. -1.
       -2   -1    0    0    0  501  0.00000000000E+00  0.00000000000E+00 -0.11372413367E+04  0.11372413367E+04  0.25500000920E-02 0.  1.
    10030    2    1    2    0    0  0.00000000000E+00  0.00000000000E+00  0.17961267311E+02  0.22924439406E+04  0.22923735764E+04 0.  0.
        5    1    3    3  502    0  0.40102627825E+03 -0.14880588493E+03  0.10723837624E+04  0.11545537195E+04  0.46999998093E+01 0. -1.
       -5    1    3    3    0  502 -0.40102627825E+03  0.14880588493E+03 -0.10544224951E+04  0.11378902212E+04  0.46999998093E+01 0.  1.
</event>
<event>
 5   0  0.7278815E-06  0.2293628E+04  0.7818609E-02  0.8480438E-01
        1   -1    0    0  501    0  0.00000000000E+00  0.00000000000E+00  0.12415259450E+04  0.12415259450E+04  0.50400001928E-02 0.  1.
       -1   -1    0    0    0  501  0.00000000000E+00  0.00000000000E+00 -0.10593274531E+04  0.10593274531E+04  0.50400001928E-02 0. -1.
    10030    2    1    2    0    0  0.00000000000E+00  0.00000000000E+00  0.18219849189E+03  0.23008533981E+04  0.22936281453E+04 0.  0.
        5    1    3    3  502    0 -0.48941407223E+03 -0.39603296570E+03 -0.87045675928E+03  0.10742836235E+04  0.46999998093E+01 0. -1.
       -5    1    3    3    0  502  0.48941407223E+03  0.39603296570E+03  0.10526552512E+04  0.12265697746E+04  0.46999998093E+01 0.  1.
</event>
<event>
 5   0  0.1588969E-05  0.2300106E+04  0.7818609E-02  0.8477879E-01
       -2   -1    0    0    0  501  0.00000000000E+00  0.00000000000E+00  0.12402980521E+04  0.12402980521E+04  0.25500000920E-02 0. -1.
        2   -1    0    0  501    0  0.00000000000E+00  0.00000000000E+00 -0.10663744730E+04  0.10663744730E+04  0.25500000920E-02 0.  1.
    10030    2    1    2    0    0  0.00000000000E+00  0.00000000000E+00  0.17392357906E+03  0.23066725251E+04  0.23001062425E+04 0.  0.
        1    1    3    3  502    0 -0.38251619312E+03  0.88578212983E+03  0.71460272770E+03  0.12006605174E+04  0.50400001928E-02 0.  1.
       -1    1    3    3    0  502  0.38251619312E+03 -0.88578212983E+03 -0.54067914864E+03  0.11060120078E+04  0.50400001928E-02 0. -1.
</event>
<event>
 5   0  0.7202572E-06  0.2296702E+04  0.7818609E-02  0.8479222E-01
       -1   -1    0    0    0  501  0.00000000000E+00  0.00000000000E+00  0.89705987927E+03  0.89705987928E+03  0.50400001928E-02 0. -1.
        1   -1    0    0  501    0  0.00000000000E+00  0.00000000000E+00 -0.14700361762E+04  0.14700361762E+04  0.50400001928E-02 0.  1.
    10030    2    1    2    0    0  0.00000000000E+00  0.00000000000E+00 -0.57297629696E+03  0.23670960555E+04  0.22967023967E+04 0.  0.
        2    1    3    3  502    0 -0.11268947345E+03  0.38331885625E+03 -0.13960909106E+04  0.14521370782E+04  0.25500000920E-02 0.  1.
       -2    1    3    3    0  502  0.11268947345E+03 -0.38331885625E+03  0.82311461368E+03  0.91495897736E+03  0.25500000920E-02 0. -1.
</event>
<event>
 5   0  0.7202572E-06  0.2253708E+04  0.7818609E-02  0.8496400E-01
        1   -1    0    0  501    0  0.00000000000E+00  0.00000000000E+00  0.83800640359E+03  0.83800640361E+03  0.50400001928E-02 0. -1.
       -1   -1    0    0    0  501  0.00000000000E+00  0.00000000000E+00 -0.15152630755E+04  0.15152630755E+04  0.50400001928E-02 0.  1.
    10030    2    1    2    0    0  0.00000000000E+00  0.00000000000E+00 -0.67725667187E+03  0.23532694791E+04  0.22537081980E+04 0.  0.
        2    1    3    3  502    0 -0.46114990943E+03 -0.74105989762E+03 -0.10828349086E+04  0.13908128739E+04  0.25500000920E-02 0.  1.
       -2    1    3    3    0  502  0.46114990943E+03  0.74105989762E+03  0.40557823672E+03  0.96245660522E+03  0.25500000920E-02 0. -1.
</event>
<event>
 5   0  0.7183014E-06  0.2298045E+04  0.7818609E-02  0.8478693E-01
        1   -1    0    0  501    0  0.00000000000E+00  0.00000000000E+00  0.12466641399E+04  0.12466641399E+04  0.50400001928E-02 0. -1.
       -1   -1    0    0    0  501  0.00000000000E+00  0.00000000000E+00 -0.10590279352E+04  0.10590279352E+04  0.50400001928E-02 0.  1.
    10030    2    1    2    0    0  0.00000000000E+00  0.00000000000E+00  0.18763620474E+03  0.23056920751E+04  0.22980445165E+04 0.  0.
        3    1    3    3  502    0  0.16205715715E+03 -0.54185478958E+03  0.10973380784E+04  0.12345120508E+04  0.10100000352E+00 0. -1.
       -3    1    3    3    0  502 -0.16205715715E+03  0.54185478958E+03 -0.90970187366E+03  0.10711800242E+04  0.10100000352E+00 0.  1.
</event>
<event>
 5   0  0.1588969E-05  0.2306347E+04  0.7818609E-02  0.8475423E-01
        2   -1    0    0  501    0  0.00000000000E+00  0.00000000000E+00  0.11530919590E+04  0.11530919590E+04  0.25500000920E-02 0.  1.
       -2   -1    0    0    0  501  0.00000000000E+00  0.00000000000E+00 -0.11532546784E+04  0.11532546784E+04  0.25500000920E-02 0. -1.
    10030    2    1    2    0    0  0.00000000000E+00  0.00000000000E+00 -0.16271940967E+00  0.23063466374E+04  0.23063466317E+04 0.  0.
        1    1    3    3  502    0 -0.25513183819E+03 -0.10124663249E+04  0.48943716244E+03  0.11531387818E+04  0.50400001928E-02 0.  1.
       -1    1    3    3    0  502  0.25513183819E+03  0.10124663249E+04 -0.48959988185E+03  0.11532078556E+04  0.50400001928E-02 0. -1.
</event>
<event>
 5   0  0.7416556E-06  0.2292290E+04  0.7818609E-02  0.8480967E-01
        1   -1    0    0  501    0  0.00000000000E+00  0.00000000000E+00  0.15611454598E+04  0.15611454598E+04  0.50400001928E-02 0. -1.
       -1   -1    0    0    0  501  0.00000000000E+00  0.00000000000E+00 -0.84146464424E+03  0.84146464426E+03  0.50400001928E-02 0.  1.
    10030    2    1    2    0    0  0.00000000000E+00  0.00000000000E+00  0.71968081552E+03  0.24026101040E+04  0.22922903035E+04 0.  0.
        4    1    3    3  502    0  0.82021065615E+03 -0.59068003360E+03 -0.20653465206E+03  0.10316523629E+04  0.12699999809E+01 0. -1.
       -4    1    3    3    0  502 -0.82021065615E+03  0.59068003360E+03  0.92621546758E+03  0.13709577411E+04  0.12699999809E+01 0.  1.
</event>
<event>
 5   0  0.7416556E-06  0.2293368E+04  0.7818609E-02  0.8480541E-01
        1   -1    0    0  501    0  0.00000000000E+00  0.00000000000E+00  0.13950883181E+04  0.13950883181E+04  0.50400001928E-02 0.  1.
       -1   -1    0    0    0  501  0.00000000000E+00  0.00000000000E+00 -0.94250948486E+03  0.94250948487E+03  0.50400001928E-02 0. -1.
    10030    2    1    2    0    0  0.00000000000E+00  0.00000000000E+00  0.45257883322E+03  0.23375978030E+04  0.22933678048E+04 0.  0.
        4    1    3    3  502    0 -0.77571514771E+02 -0.63732357859E+03  0.11947096915E+04  0.13562933103E+04  0.12699999809E+01 0.  1.
       -4    1    3    3    0  502  0.77571514771E+02  0.63732357859E+03 -0.74213085823E+03  0.98130449269E+03  0.12699999809E+01 0. -1.
</event>
<event>
 5   0  0.7278815E-06  0.2301941E+04  0.7818609E-02  0.8477156E-01
        1   -1    0    0  501    0  0.00000000000E+00  0.00000000000E+00  0.16393481636E+04  0.16393481636E+04  0.50400001928E-02 0. -1.
       -1   -1    0    0    0  501  0.00000000000E+00  0.00000000000E+00 -0.80808544675E+03  0.80808544676E+03  0.50400001928E-02 0.  1.
    10030    2    1    2    0    0  0.00000000000E+00  0.00000000000E+00  0.83126271686E+03  0.24474336104E+04  0.23019412618E+04 0.  0.
        5    1    3    3  502    0  0.14301067102E+03 -0.67117208810E+03 -0.56677580871E+03  0.89004546581E+03  0.46999998093E+01 0.  1.
       -5    1    3    3    0  502 -0.14301067102E+03  0.67117208810E+03  0.13980385256E+04  0.15573881446E+04  0.46999998093E+01 0. -1.
</event>
<event>
 5   0  0.1635955E-05  0.2305273E+04  0.7818609E-02  0.8475845E-01
       -2   -1    0    0    0  501  0.00000000000E+00  0.00000000000E+00  0.17330615978E+04  0.17330615978E+04  0.25500000920E-02 0.  1.
        2   -1    0    0  501    0  0.00000000000E+00  0.00000000000E+00 -0.76660322855E+03  0.76660322855E+03  0.25500000920E-02 0. -1.
    10030    2    1    2    0    0  0.00000000000E+00  0.00000000000E+00  0.96645836922E+03  0.24996648263E+04  0.23052727527E+04 0.  0.
        2    1    3    3  502    0  0.50214928340E+03  0.50221354018E+02 -0.64044467254E+03  0.81538056502E+03  0.25500000920E-02 0. -1.
       -2    1    3    3    0  502 -0.50214928340E+03 -0.50221354018E+02  0.16069030418E+04  0.16842842613E+04  0.25500000920E-02 0.  1.
</event>
<event>
 5   0  0.1626636E-05  0.2300093E+04  0.7818609E-02  0.8477884E-01
        2   -1    0    0  501    0  0.00000000000E+00  0.00000000000E+00  0.13855827121E+04  0.13855827121E+04  0.25500000920E-02 0. -1.
       -2   -1    0    0    0  501  0.00000000000E+00  0.00000000000E+00 -0.95454959694E+03  0.95454959694E+03  0.25500000920E-02 0.  1.
    10030    2    1    2    0    0  0.00000000000E+00  0.00000000000E+00  0.43103311521E+03  0.23401323091E+04  0.23000934063E+04 0.  0.
        4    1    3    3  502    0 -0.39818138473E+03 -0.26436008840E+03  0.12797516284E+04  0.13660894974E+04  0.12699999809E+01 0. -1.
       -4    1    3    3    0  502  0.39818138473E+03  0.26436008840E+03 -0.84871851322E+03  0.97404281172E+03  0.12699999809E+01 0.  1.
</event>
<event>
 5   0  0.1697855E-05  0.2294963E+04  0.7818609E-02  0.8479910E-01
        2   -1    0    0  501    0  0.00000000000E+00  0.00000000000E+00  0.74935264188E+03  0.74935264188E+03  0.25500000920E-02 0. -1.
       -2   -1    0    0    0  501  0.00000000000E+00  0.00000000000E+00 -0.17571356959E+04  0.17571356959E+04  0.25500000920E-02 0.  1.
    10030    2    1    2    0    0  0.00000000000E+00  0.00000000000E+00 -0.10077830540E+04  0.25064883378E+04  0.22949634209E+04 0.  0.
        5    1    3    3  502    0  0.11273470392E+04  0.21260914050E+03 -0.53015342394E+03  0.12638032823E+04  0.46999998093E+01 0. -1.
       -5    1    3    3    0  502 -0.11273470392E+04 -0.21260914050E+03 -0.47762963008E+03  0.12426850554E+04  0.46999998093E+01 0.  1.
</event>
<event>
 5   0  0.1602809E-05  0.2305080E+04  0.7818609E-02  0.8475921E-01
        2   -1    0    0  501    0  0.00000000000E+00  0.00000000000E+00  0.56106567515E+03  0.56106567515E+03  0.25500000920E-02 0. -1.
       -2   -1    0    0    0  501  0.00000000000E+00  0.00000000000E+00 -0.23675460928E+04  0.23675460928E+04  0.25500000920E-02 0.  1.
    10030    2    1    2    0    0  0.00000000000E+00  0.00000000000E+00 -0.18064804176E+04  0.29286117679E+04  0.23050803431E+04 0.  0.
        3    1    3    3  502    0  0.25351984192E+03  0.92126700410E+03 -0.84437039581E+02  0.95923658550E+03  0.10100000352E+00 0. -1.
       -3    1    3    3    0  502 -0.25351984192E+03 -0.92126700410E+03 -0.17220433780E+04  0.19693751824E+04  0.10100000352E+00 0.  1.
</event>
<event>
 5   0  0.1697855E-05  0.2311869E+04  0.7818609E-02  0.8473256E-01
       -2   -1    0    0    0  501  0.00000000000E+00  0.00000000000E+00  0.88991461074E+03  0.88991461074E+03  0.25500000920E-02 0. -1.
        2   -1    0    0  501    0  0.00000000000E+00  0.00000000000E+00 -0.15014749882E+04  0.15014749882E+04  0.25500000920E-02 0.  1.
    10030    2    1    2    0    0  0.00000000000E+00  0.00000000000E+00 -0.61156037742E+03  0.23913895989E+04  0.23118689666E+04 0.  0.
        5    1    3    3  502    0  0.26810476416E+03  0.17277529321E+03  0.84348572423E+03  0.90178807016E+03  0.46999998093E+01 0. -1.
       -5    1    3    3    0  502 -0.26810476416E+03 -0.17277529321E+03 -0.14550461016E+04  0.14896015287E+04  0.46999998093E+01 0.  1.
</event>
<event>
 5   0  0.1635955E-05  0.2303887E+04  0.7818609E-02  0.8476390E-01
       -2   -1    0    0    0  501  0.00000000000E+00  0.00000000000E+00  0.12969423910E+04  0.12969423911E+04  0.25500000920E-02 0. -1.
        2   -1    0    0  501    0  0.00000000000E+00  0.00000000000E+00 -0.10231556294E+04  0.10231556294E+04  0.25500000920E-02 0.  1.
    10030    2    1    2    0    0  0.00000000000E+00  0.00000000000E+00  0.27378676166E+03  0.23200980204E+04  0.23038870705E+04 0.  0.
        2    1    3    3  502    0  0.46413757154E+03  0.76748399415E+03 -0.59104731444E+03  0.10741472406E+04  0.25500000920E-02 0.  1.
       -2    1    3    3    0  502 -0.46413757154E+03 -0.76748399415E+03  0.86483407610E+03  0.12459507798E+04  0.25500000920E-02 0. -1.
</event>
<event>
 5   0  0.7391007E-06  0.2295484E+04  0.7818609E-02  0.8479704E-01
        1   -1    0    0  501    0  0.00000000000E+00  0.00000000000E+00  0.11007542093E+04  0.11007542093E+04  0.50400001928E-02 0.  1.
       -1   -1    0    0    0  501  0.00000000000E+00  0.00000000000E+00 -0.11967355238E+04  0.11967355238E+04  0.50400001928E-02 0. -1.
    10030    2    1    2    0    0  0.00000000000E+00  0.00000000000E+00 -0.95981314571E+02  0.22974897331E+04  0.22954839710E+04 0.  0.
        1    1    3    3  502    0  0.92493572381E+02 -0.95476820024E+03  0.58277766956E+03  0.11223935091E+04  0.50400001928E-02 0.  1.
       -1    1    3    3    0  502 -0.92493572381E+02  0.95476820024E+03 -0.67875898413E+03  0.11750962240E+04  0.50400001928E-02 0. -1.
</event>
<event>
 5   0  0.7416556E-06  0.2306650E+04  0.7818609E-02  0.8475304E-01
       -1   -1    0    0    0  501  0.00000000000E+00  0.00000000000E+00  0.11182946831E+04  0.11182946831E+04  0.50400001928E-02 0. -1.
        1   -1    0    0  501    0  0.00000000000E+00  0.00000000000E+00 -0.11894527613E+04  0.11894527613E+04  0.50400001928E-02 0.  1.
    10030    2    1    2    0    0  0.00000000000E+00  0.00000000000E+00 -0.71158078226E+02  0.23077474444E+04  0.23066501241E+04 0.  0.
        4    1    3    3  502    0 -0.67125752013E+03  0.44215542333E+03  0.79189906631E+03  0.11283589060E+04  0.12699999809E+01 0. -1.
       -4    1    3    3    0  502  0.67125752013E+03 -0.44215542333E+03 -0.86305714453E+03  0.11793885383E+04  0.12699999809E+01 0.  1.
</event>
<event>
 5   0  0.1626636E-05  0.2308515E+04  0.7818609E-02  0.8474571E-01
        2   -1    0    0  501    0  0.00000000000E+00  0.00000000000E+00  0.18635718743E+04  0.18635718743E+04  0.25500000920E-02 0. -1.
       -2   -1    0    0    0  501  0.00000000000E+00  0.00000000000E+00 -0.71492290625E+03  0.71492290626E+03  0.25500000920E-02 0.  1.
    10030    2    1    2    0    0  0.00000000000E+00  0.00000000000E+00  0.11486489680E+04  0.25784947805E+04  0.23085148649E+04 0.  0.
        4    1    3    3  502    0 -0.62768758866E+02  0.82651661240E+03 -0.32288504855E+03  0.88956505953E+03  0.12699999809E+01 0.  1.
       -4    1    3    3    0  502  0.62768758866E+02 -0.82651661240E+03  0.14715340166E+04  0.16889297210E+04  0.12699999809E+01 0. -1.
</event>
<event>
 5   0  0.1626636E-05  0.2299505E+04  0.7818609E-02  0.8478116E-01
       -2   -1    0    0    0  501  0.00000000000E+00  0.00000000000E+00  0.13186035206E+04  0.13186035206E+04  0.25500000920E-02 0.  1.
        2   -1    0    0  501    0  0.00000000000E+00  0.00000000000E+00 -0.10025232910E+04  0.10025232910E+04  0.25500000920E-02 0. -1.
    10030    2    1    2    0    0  0.00000000000E+00  0.00000000000E+00  0.31608022958E+03  0.23211268117E+04  0.22995049390E+04 0.  0.
        4    1    3    3  502    0 -0.10545108645E+04  0.40208371096E+03  0.37979802561E+03  0.11907613644E+04  0.12699999809E+01 0. -1.
       -4    1    3    3    0  502  0.10545108645E+04 -0.40208371096E+03 -0.63717796032E+02  0.11303654472E+04  0.12699999809E+01 0.  1.
</event>
<event>
 5   0  0.7202572E-06  0.2332666E+04  0.7818609E-02  0.8465152E-01
        1   -1    0    0  501    0  0.00000000000E+00  0.00000000000E+00  0.14853163577E+04  0.14853163577E+04  0.50400001928E-02 0.  1.
       -1   -1    0    0    0  501  0.00000000000E+00  0.00000000000E+00 -0.91585358128E+03  0.91585358129E+03  0.50400001928E-02 0. -1.
    10030    2    1    2    0    0  0.00000000000E+00  0.00000000000E+00  0.56946277643E+03  0.24011699390E+04  0.23326656902E+04 0.  0.
        2    1    3    3  502    0  0.30320395025E+02 -0.51095229406E+03 -0.79406365164E+03  0.94473734764E+03  0.25500000920E-02 0. -1.
       -2    1    3    3    0  502 -0.30320395025E+02  0.51095229406E+03  0.13635264281E+04  0.14564325914E+04  0.25500000920E-02 0.  1.
</event>
<event>
 5   0  0.7202572E-06  0.2294026E+04  0.7818609E-02  0.8480280E-01
        1   -1    0    0  501    0  0.00000000000E+00  0.00000000000E+00  0.14498482777E+04  0.14498482777E+04  0.50400001928E-02 0. -1.
       -1   -1    0    0    0  501  0.00000000000E+00  0.00000000000E+00 -0.90743184763E+03  0.90743184764E+03  0.50400001928E-02 0.  1.
    10030    2    1    2    0    0  0.00000000000E+00  0.00000000000E+00  0.54241643009E+03  0.23572801254E+04  0.22940257204E+04 0.  0.
        2    1    3    3  502    0 -0.44483854098E+03 -0.19371179562E+03  0.13392091052E+04  0.14243899097E+04  0.25500000920E-02 0. -1.
       -2    1    3    3    0  502  0.44483854098E+03  0.19371179562E+03 -0.79679267515E+03  0.93289021567E+03  0.25500000920E-02 0.  1.
</event>
<event>
 5   0  0.1635955E-05  0.2304347E+04  0.7818609E-02  0.8476209E-01
        2   -1    0    0  501    0  0.00000000000E+00  0.00000000000E+00  0.15734239721E+04  0.15734239721E+04  0.25500000920E-02 0. -1.
       -2   -1    0    0    0  501  0.00000000000E+00  0.00000000000E+00 -0.84370391981E+03  0.84370391981E+03  0.25500000920E-02 0.  1.
    10030    2    1    2    0    0  0.00000000000E+00  0.00000000000E+00  0.72972005225E+03  0.24171278919E+04  0.23043471724E+04 0.  0.
        2    1    3    3  502    0  0.18535589280E+03 -0.89118380882E+03 -0.37606670719E+03  0.98488149356E+03  0.25500000920E-02 0.  1.
       -2    1    3    3    0  502 -0.18535589280E+03  0.89118380882E+03  0.11057867594E+04  0.14322463983E+04  0.25500000920E-02 0. -1.
</event>
<event>
 5   0  0.1602809E-05  0.2303774E+04  0.7818609E-02  0.8476435E-01
        2   -1    0    0  501    0  0.00000000000E+00  0.00000000000E+00  0.58671875344E+03  0.58671875345E+03  0.25500000920E-02 0.  1.
       -2   -1    0    0    0  501  0.00000000000E+00  0.00000000000E+00 -0.22614639045E+04  0.22614639045E+04  0.25500000920E-02 0. -1.
    10030    2    1    2    0    0  0.00000000000E+00  0.00000000000E+00 -0.16747451511E+04  0.28481826580E+04  0.23037736721E+04 0.  0.
        3    1    3    3  502    0 -0.59738266606E+03 -0.81234848245E+03 -0.14894871082E+03  0.10192947735E+04  0.10100000352E+00 0.  1.
       -3    1    3    3    0  502  0.59738266606E+03  0.81234848245E+03 -0.15257964403E+04  0.18288878845E+04  0.10100000352E+00 0. -1.
</event>
<event>
 5   0  0.1635955E-05  0.2291891E+04  0.7818609E-02  0.8481125E-01
        2   -1    0    0  501    0  0.00000000000E+00  0.00000000000E+00  0.11325906697E+04  0.11325906697E+04  0.25500000920E-02 0.  1.
       -2   -1    0    0    0  501  0.00000000000E+00  0.00000000000E+00 -0.11594580691E+04  0.11594580692E+04  0.25500000920E-02 0. -1.
    10030    2    1    2    0    0  0.00000000000E+00  0.00000000000E+00 -0.26867399459E+02  0.22920487388E+04  0.22918912636E+04 0.  0.
        2    1    3    3  502    0  0.20552332443E+03 -0.94423637174E+03 -0.62940558458E+03  0.11532447930E+04  0.25500000920E-02 0. -1.
       -2    1    3    3    0  502 -0.20552332443E+03  0.94423637174E+03  0.60253818512E+03  0.11388039459E+04  0.25500000920E-02 0.  1.
</event>
<event>
 5   0  0.1588969E-05  0.2324636E+04  0.7818609E-02  0.8468270E-01
        2   -1    0    0  501    0  0.00000000000E+00  0.00000000000E+00  0.15367085502E+04  0.15367085502E+04  0.25500000920E-02 0. -1.
       -2   -1    0    0    0  501  0.00000000000E+00  0.00000000000E+00 -0.87914067353E+03  0.87914067354E+03  0.25500000920E-02 0.  1.
    10030    2    1    2    0    0  0.00000000000E+00  0.00000000000E+00  0.65756787671E+03  0.24158492238E+04  0.23246358768E+04 0.  0.
        1    1    3    3  502    0 -0.72191314503E+03 -0.37373829810E+03  0.11921297273E+04  0.14429179433E+04  0.50400001928E-02 0. -1.
       -1    1    3    3    0  502  0.72191314503E+03  0.37373829810E+03 -0.53456185056E+03  0.97293128048E+03  0.50400001928E-02 0.  1.
</event>
<event>
 5   0  0.7278815E-06  0.2309632E+04  0.7818609E-02  0.8474133E-01
       -1   -1    0    0    0  501  0.00000000000E+00  0.00000000000E+00  0.18669879349E+04  0.18669879349E+04  0.50400001928E-02 0.  1.
        1   -1    0    0  501    0  0.00000000000E+00  0.00000000000E+00 -0.71430570647E+03  0.71430570649E+03  0.50400001928E-02 0. -1.
    10030    2    1    2    0    0  0.00000000000E+00  0.00000000000E+00  0.11526822284E+04  0.25812936414E+04  0.23096321230E+04 0.  0.
        5    1    3    3  502    0  0.28788930800E+03  0.52574174493E+03  0.16795035952E+04  0.17832663997E+04  0.46999998093E+01 0.  1.
       -5    1    3    3    0  502 -0.28788930800E+03 -0.52574174493E+03 -0.52682136677E+03  0.79802724170E+03  0.46999998093E+01 0. -1.
</event>
<event>
 5   0  0.1697855E-05  0.2293050E+04  0.7818609E-02  0.8480666E-01
       -2   -1    0    0    0  501  0.00000000000E+00  0.00000000000E+00  0.58157476220E+03  0.58157476221E+03  0.25500000920E-02 0.  1.
        2   -1    0    0  501    0  0.00000000000E+00  0.00000000000E+00 -0.22602762175E+04  0.22602762175E+04  0.25500000920E-02 0. -1.
    10030    2    1    2    0    0  0.00000000000E+00  0.00000000000E+00 -0.16787014553E+04  0.28418509797E+04  0.22930500245E+04 0.  0.
        5    1    3    3  502    0  0.16091798414E+03 -0.11008702095E+04 -0.11825533694E+04  0.16236577156E+04  0.46999998093E+01 0. -1.
       -5    1    3    3    0  502 -0.16091798414E+03  0.11008702095E+04 -0.49614808591E+03  0.12181932642E+04  0.46999998093E+01 0.  1.
</event>
<event>
 5   0  0.1626636E-05  0.2298322E+04  0.7818609E-02  0.8478583E-01
        2   -1    0    0  501    0  0.00000000000E+00  0.00000000000E+00  0.30744156261E+04  0.30744156261E+04  0.25500000920E-02 0. -1.
       -2   -1    0    0    0  501  0.00000000000E+00  0.00000000000E+00 -0.42953570995E+03  0.42953570996E+03  0.25500000920E-02 0.  1.
    10030    2    1    2    0    0  0.00000000000E+00  0.00000000000E+00  0.26448799162E+04  0.35039513361E+04  0.22983222565E+04 0.  0.
        4    1    3    3  502    0  0.16318786542E+02  0.10626589377E+04  0.19888343114E+04  0.22549886589E+04  0.12699999809E+01 0. -1.
       -4    1    3    3    0  502 -0.16318786542E+02 -0.10626589377E+04  0.65604560475E+03  0.12489626772E+04  0.12699999809E+01 0.  1.
</event>
<event>
 5   0  0.1635955E-05  0.2297558E+04  0.7818609E-02  0.8478885E-01
       -2   -1    0    0    0  501  0.00000000000E+00  0.00000000000E+00  0.91923560059E+03  0.91923560060E+03  0.25500000920E-02 0. -1.
        2   -1    0    0  501    0  0.00000000000E+00  0.00000000000E+00 -0.14356417332E+04  0.14356417332E+04  0.25500000920E-02 0.  1.
    10030    2    1    2    0    0  0.00000000000E+00  0.00000000000E+00 -0.51640613261E+03  0.23548773338E+04  0.22975578259E+04 0.  0.
        2    1    3    3  502    0  0.39666194424E+03 -0.41910761838E+03  0.75990679587E+03  0.95417515803E+03  0.25500000920E-02 0. -1.
       -2    1    3    3    0  502 -0.39666194424E+03  0.41910761838E+03 -0.12763129285E+04  0.14007021758E+04  0.25500000920E-02 0.  1.
</event>
<event>
 5   0  0.7183014E-06  0.2304160E+04  0.7818609E-02  0.8476283E-01
       -1   -1    0    0    0  501  0.00000000000E+00  0.00000000000E+00  0.99393230484E+03  0.99393230485E+03  0.50400001928E-02 0. -1.
        1   -1    0    0  501    0  0.00000000000E+00  0.00000000000E+00 -0.13353909220E+04  0.13353909220E+04  0.50400001928E-02 0.  1.
    10030    2    1    2    0    0  0.00000000000E+00  0.00000000000E+00 -0.34145861715E+03  0.23293232268E+04  0.23041598703E+04 0.  0.
        3    1    3    3  502    0 -0.10829174012E+04  0.39297450267E+03 -0.15838492522E+03  0.11628520337E+04  0.10100000352E+00 0.  1.
       -3    1    3    3    0  502  0.10829174012E+04 -0.39297450267E+03 -0.18307369193E+03  0.11664711931E+04  0.10100000352E+00 0. -1.
</event>
<event>
 5   0  0.7278815E-06  0.2303890E+04  0.7818609E-02  0.8476389E-01
       -1   -1    0    0    0  501  0.00000000000E+00  0.00000000000E+00  0.10218990646E+04  0.10218990646E+04  0.50400001928E-02 0. -1.
        1   -1    0    0  501    0  0.00000000000E+00  0.00000000000E+00 -0.12985405375E+04  0.12985405375E+04  0.50400001928E-02 0.  1.
    10030    2    1    2    0    0  0.00000000000E+00  0.00000000000E+00 -0.27664147294E+03  0.23204396021E+04  0.23038900673E+04 0.  0.
        5    1    3    3  502    0 -0.71619100680E+01  0.11511141150E+04 -0.95114193855E+02  0.11550687419E+04  0.46999998093E+01 0. -1.
       -5    1    3    3    0  502  0.71619100680E+01 -0.11511141150E+04 -0.18152727908E+03  0.11653708602E+04  0.46999998093E+01 0.  1.
</event>
<event>
 5   0  0.1588969E-05  0.2296122E+04  0.7818609E-02  0.8479452E-01
        2   -1    0    0  501    0  0.00000000000E+00  0.00000000000E+00  0.18145115630E+04  0.18145115630E+04  0.25500000920E-02 0.  1.
       -2   -1    0    0    0  501  0.00000000000E+00  0.00000000000E+00 -0.72639054742E+03  0.72639054742E+03  0.25500000920E-02 0. -1.
    10030    2    1    2    0    0  0.00000000000E+00  0.00000000000E+00  0.10881210156E+04  0.25409021105E+04  0.22961219894E+04 0.  0.
        1    1    3    3  502    0 -0.90801742598E+03  0.64557684704E+03  0.23743094656E+03  0.11391393970E+04  0.50400001928E-02 0. -1.
       -1    1    3    3    0  502  0.90801742598E+03 -0.64557684704E+03  0.85069006905E+03  0.14017627135E+04  0.50400001928E-02 0.  1.
</event>
<event>
 5   0  0.1697855E-05  0.2318517E+04  0.7818609E-02  0.8470656E-01
        2   -1    0    0  501    0  0.00000000000E+00  0.00000000000E+00  0.12235203115E+04  0.12235203115E+04  0.25500000920E-02 0. -1.
       -2   -1    0    0    0  501  0.00000000000E+00  0.00000000000E+00 -0.10983722836E+04  0.10983722836E+04  0.25500000920E-02 0.  1.
    10030    2    1    2    0    0  0.00000000000E+00  0.00000000000E+00  0.12514802797E+03  0.23218925951E+04  0.23185174561E+04 0.  0.
        5    1    3    3  502    0  0.11108061862E+04  0.23579192059E+03  0.29608827103E+03  0.11735325166E+04  0.46999998093E+01 0.  1.
       -5    1    3    3    0  502 -0.11108061862E+04 -0.23579192059E+03 -0.17094024306E+03  0.11483600785E+04  0.46999998093E+01 0. -1.
</event>
<event>
 5   0  0.1697855E-05  0.2253842E+04  0.7818609E-02  0.8496346E-01
       -2   -1    0    0    0  501  0.00000000000E+00  0.00000000000E+00  0.65083142346E+03  0.65083142347E+03  0.25500000920E-02 0. -1.
        2   -1    0    0  501    0  0.00000000000E+00  0.00000000000E+00 -0.19512752908E+04  0.19512752908E+04  0.25500000920E-02 0.  1.
    10030    2    1    2    0    0  0.00000000000E+00  0.00000000000E+00 -0.13004438673E+04  0.26021067142E+04  0.22538422971E+04 0.  0.
        5    1    3    3  502    0  0.14853781418E+03 -0.72492026601E+03 -0.16314666112E+04  0.17914458596E+04  0.46999998093E+01 0.  1.
       -5    1    3    3    0  502 -0.14853781418E+03  0.72492026601E+03  0.33102274390E+03  0.81066085466E+03  0.46999998093E+01 0. -1.
</event>
<event>
 5   0  0.7416556E-06  0.2203432E+04  0.7818609E-02  0.8517001E-01
       -1   -1    0    0    0  501  0.00000000000E+00  0.00000000000E+00  0.18201109352E+04  0.18201109352E+04  0.50400001928E-02 0.  1.
        1   -1    0    0  501    0  0.00000000000E+00  0.00000000000E+00 -0.66687060857E+03  0.66687060859E+03  0.50400001928E-02 0. -1.
    10030    2    1    2    0    0  0.00000000000E+00  0.00000000000E+00  0.11532403266E+04  0.24869815438E+04  0.22034323108E+04 0.  0.
        4    1    3    3  502    0  0.59334765702E+03 -0.53056814235E+03 -0.28311864451E+03  0.84482055819E+03  0.12699999809E+01 0. -1.
       -4    1    3    3    0  502 -0.59334765702E+03  0.53056814235E+03  0.14363589711E+04  0.16421609856E+04  0.12699999809E+01 0.  1.
</event>
<event>
 5   0  0.7416556E-06  0.2296387E+04  0.7818609E-02  0.8479347E-01
        1   -1    0    0  501    0  0.00000000000E+00  0.00000000000E+00  0.87293635532E+03  0.87293635533E+03  0.50400001928E-02 0.  1.
       -1   -1    0    0    0  501  0.00000000000E+00  0.00000000000E+00 -0.15102455353E+04  0.15102455353E+04  0.50400001928E-02 0. -1.
    10030    2    1    2    0    0  0.00000000000E+00  0.00000000000E+00 -0.63730917995E+03  0.23831818906E+04  0.22963869301E+04 0.  0.
        4    1    3    3  502    0 -0.72502129393E+03  0.28840150756E+03  0.55550959759E+03  0.95782244290E+03  0.12699999809E+01 0.  1.
       -4    1    3    3    0  502  0.72502129393E+03 -0.28840150756E+03 -0.11928187775E+04  0.14253594477E+04  0.12699999809E+01 0. -1.
</event>
<event>
 5   0  0.7202572E-06  0.2302092E+04  0.7818609E-02  0.8477097E-01
        1   -1    0    0  501    0  0.00000000000E+00  0.00000000000E+00  0.86626316996E+03  0.86626316997E+03  0.50400001928E-02 0.  1.
       -1   -1    0    0    0  501  0.00000000000E+00  0.00000000000E+00 -0.15294505979E+04  0.15294505979E+04  0.50400001928E-02 0. -1.
    10030    2    1    2    0    0  0.00000000000E+00  0.00000000000E+00 -0.66318742796E+03  0.23957137679E+04  0.23020918516E+04 0.  0.
        2    1    3    3  502    0 -0.79422827327E+03 -0.31738585288E+03  0.47004130627E+03  0.97594628914E+03  0.25500000920E-02 0.  1.
       -2    1    3    3    0  502  0.79422827327E+03  0.31738585288E+03 -0.11332287342E+04  0.14197674788E+04  0.25500000920E-02 0. -1.
</event>
<event>
 5   0  0.1588969E-05  0.2317410E+04  0.7818609E-02  0.8471088E-01
        2   -1    0    0  501    0  0.00000000000E+00  0.00000000000E+00  0.21626723693E+04  0.21626723693E+04  0.25500000920E-02 0.  1.
       -2   -1    0    0    0  501  0.00000000000E+00  0.00000000000E+00 -0.62080463562E+03  0.62080463562E+03  0.25500000920E-02 0. -1.
    10030    2    1    2    0    0  0.00000000000E+00  0.00000000000E+00  0.15418677337E+04  0.27834770049E+04  0.23174097887E+04 0.  0.
        1    1    3    3  502    0 -0.64561550658E+03  0.31355883930E+03  0.18635256060E+04  0.19969642492E+04  0.50400001928E-02 0.  1.
       -1    1    3    3    0  502  0.64561550658E+03 -0.31355883930E+03 -0.32165787239E+03  0.78651275573E+03  0.50400001928E-02 0. -1.
</event>
<event>
 5   0  0.1697855E-05  0.2294533E+04  0.7818609E-02  0.8480080E-01
        2   -1    0    0  501    0  0.00000000000E+00  0.00000000000E+00  0.19148424243E+04  0.19148424243E+04  0.25500000920E-02 0.  1.
       -2   -1    0    0    0  501  0.00000000000E+00  0.00000000000E+00 -0.68737796474E+03  0.68737796475E+03  0.25500000920E-02 0. -1.
    10030    2    1    2    0    0  0.00000000000E+00  0.00000000000E+00  0.12274644596E+04  0.26022203891E+04  0.22945330579E+04 0.  0.
        5    1    3    3  502    0  0.10301127039E+04 -0.50071348157E+03  0.68855011501E+03  0.13364017077E+04  0.46999998093E+01 0. -1.
       -5    1    3    3    0  502 -0.10301127039E+04  0.50071348157E+03  0.53891434456E+03  0.12658186814E+04  0.46999998093E+01 0.  1.
</event>
<event>
 5   0  0.1602809E-05  0.2253214E+04  0.7818609E-02  0.8496600E-01
       -2   -1    0    0    0  501  0.00000000000E+00  0.00000000000E+00  0.82371378626E+03  0.82371378626E+03  0.25500000920E-02 0. -1.
        2   -1    0    0  501    0  0.00000000000E+00  0.00000000000E+00 -0.15408791737E+04  0.15408791737E+04  0.25500000920E-02 0.  1.
    10030    2    1    2    0    0  0.00000000000E+00  0.00000000000E+00 -0.71716538741E+03  0.23645929599E+04  0.22532140762E+04 0.  0.
        3    1    3    3  502    0  0.76536779122E+03 -0.11935632875E+03  0.49990687781E+03  0.92192227748E+03  0.10100000352E+00 0. -1.
       -3    1    3    3    0  502 -0.76536779122E+03  0.11935632875E+03 -0.12170722652E+04  0.14426706825E+04  0.10100000352E+00 0.  1.
</event>
<event>
 5   0  0.7416556E-06  0.2297974E+04  0.7818609E-02  0.8478720E-01
        1   -1    0    0  501    0  0.00000000000E+00  0.00000000000E+00  0.12150137997E+04  0.12150137997E+04  0.50400001928E-02 0.  1.
       -1   -1    0    0    0  501  0.00000000000E+00  0.00000000000E+00 -0.10865481786E+04  0.10865481786E+04  0.50400001928E-02 0. -1.
    10030    2    1    2    0    0  0.00000000000E+00  0.00000000000E+00  0.12846562108E+03  0.23015619784E+04  0.22979739173E+04 0.  0.
        4    1    3    3  502    0 -0.89085069911E+03 -0.60798286549E+03  0.46097160511E+03  0.11729256440E+04  0.12699999809E+01 0.  1.
       -4    1    3    3    0  502  0.89085069911E+03  0.60798286549E+03 -0.33250598403E+03  0.11286363343E+04  0.12699999809E+01 0. -1.
</event>
<event>
 5   0  0.1588969E-05  0.2294695E+04  0.7818609E-02  0.8480016E-01
        2   -1    0    0  501    0  0.00000000000E+00  0.00000000000E+00  0.26384218629E+04  0.26384218629E+04  0.25500000920E-02 0. -1.
       -2   -1    0    0    0  501  0.00000000000E+00  0.00000000000E+00 -0.49893692531E+03  0.49893692532E+03  0.25500000920E-02 0.  1.
    10030    2    1    2    0    0  0.00000000000E+00  0.00000000000E+00  0.21394849376E+04  0.31373587882E+04  0.22946948311E+04 0.  0.
        1    1    3    3  502    0  0.30829342246E+02 -0.55775732041E+03  0.24399440875E+04  0.25030722776E+04  0.50400001928E-02 0. -1.
       -1    1    3    3    0  502 -0.30829342246E+02  0.55775732041E+03 -0.30045914987E+03  0.63428651064E+03  0.50400001928E-02 0.  1.
</event>
<event>
 5   0  0.7416556E-06  0.2296833E+04  0.7818609E-02  0.8479171E-01
       -1   -1    0    0    0  501  0.00000000000E+00  0.00000000000E+00  0.95448752719E+03  0.95448752721E+03  0.50400001928E-02 0. -1.
        1   -1    0    0  501    0  0.00000000000E+00  0.00000000000E+00 -0.13817472482E+04  0.13817472482E+04  0.50400001928E-02 0.  1.
    10030    2    1    2    0    0  0.00000000000E+00  0.00000000000E+00 -0.42725972096E+03  0.23362347754E+04  0.22968330493E+04 0.  0.
        4    1    3    3  502    0  0.90288062895E+01 -0.11401939483E+04 -0.35285432399E+03  0.11935793002E+04  0.12699999809E+01 0.  1.
       -4    1    3    3    0  502 -0.90288062895E+01  0.11401939483E+04 -0.74405396968E+02  0.11426554752E+04  0.12699999809E+01 0. -1.
</event>
<event>
 5   0  0.1602809E-05  0.2311575E+04  0.7818609E-02  0.8473371E-01
        2   -1    0    0  501    0  0.00000000000E+00  0.00000000000E+00  0.17026894132E+04  0.17026894132E+04  0.25500000920E-02 0.  1.
       -2   -1    0    0    0  501  0.00000000000E+00  0.00000000000E+00 -0.78454982953E+03  0.78454982953E+03  0.25500000920E-02 0. -1.
    10030    2    1    2    0    0  0.00000000000E+00  0.00000000000E+00  0.91813958370E+03  0.24872392428E+04  0.23115749513E+04 0.  0.
        3    1    3    3  502    0  0.78213109829E+02  0.10183705497E+04  0.10411501759E+04  0.14584887953E+04  0.10100000352E+00 0.  1.
       -3    1    3    3    0  502 -0.78213109829E+02 -0.10183705497E+04 -0.12301059223E+03  0.10287504474E+04  0.10100000352E+00 0. -1.
</event>
<event>
 5   0  0.1626636E-05  0.2307458E+04  0.7818609E-02  0.8474986E-01
        2   -1    0    0  501    0  0.00000000000E+00  0.00000000000E+00  0.18106804314E+04  0.18106804314E+04  0.25500000920E-02 0.  1.
       -2   -1    0    0    0  501  0.00000000000E+00  0.00000000000E+00 -0.73513270173E+03  0.73513270173E+03  0.25500000920E-02 0. -1.
    10030    2    1    2    0    0  0.00000000000E+00  0.00000000000E+00  0.10755477296E+04  0.25458131331E+04  0.23074578198E+04 0.  0.
        4    1    3    3  502    0  0.88972007869E+03  0.63889557188E+03  0.93755670244E+03  0.14418056573E+04  0.12699999809E+01 0. -1.
       -4    1    3    3    0  502 -0.88972007869E+03 -0.63889557188E+03  0.13799102720E+03  0.11040074758E+04  0.12699999809E+01 0.  1.
</event>
<event>
 5   0  0.7391007E-06  0.2295724E+04  0.7818609E-02  0.8479609E-01
       -1   -1    0    0    0  501  0.00000000000E+00  0.00000000000E+00  0.12593337910E+04  0.12593337910E+04  0.50400001928E-02 0.  1.
        1   -1    0    0  501    0  0.00000000000E+00  0.00000000000E+00 -0.10462572347E+04  0.10462572348E+04  0.50400001928E-02 0. -1.
    10030    2    1    2    0    0  0.00000000000E+00  0.00000000000E+00  0.21307655628E+03  0.23055910258E+04  0.22957239293E+04 0.  0.
        1    1    3    3  502    0 -0.72831986159E+03  0.10862470919E+03 -0.77777904054E+03  0.10710692714E+04  0.50400001928E-02 0. -1.
       -1    1    3    3    0  502  0.72831986159E+03 -0.10862470919E+03  0.99085559682E+03  0.12345217544E+04  0.50400001928E-02 0.  1.
</event>
<event>
 5   0  0.1588969E-05  0.2300093E+04  0.7818609E-02  0.8477884E-01
       -2   -1    0    0    0  501  0.00000000000E+00  0.00000000000E+00  0.72932161144E+03  0.72932161144E+03  0.25500000920E-02 0.  1.
        2   -1    0    0  501    0  0.00000000000E+00  0.00000000000E+00 -0.18134754406E+04  0.18134754406E+04  0.25500000920E-02 0. -1.
    10030    2    1    2    0    0  0.00000000000E+00  0.00000000000E+00 -0.10841538292E+04  0.25427970521E+04  0.23000928944E+04 0.  0.
        1    1    3    3  502    0  0.75200842783E+03  0.72936877213E+02  0.41646018005E+03  0.86271405759E+03  0.50400001928E-02 0.  1.
       -1    1    3    3    0  502 -0.75200842783E+03 -0.72936877213E+02 -0.15006140092E+04  0.16800829945E+04  0.50400001928E-02 0. -1.
</event>
<event>
 5   0  0.7278815E-06  0.2313841E+04  0.7818609E-02  0.8472484E-01
       -1   -1    0    0    0  501  0.00000000000E+00  0.00000000000E+00  0.93484691097E+03  0.93484691098E+03  0.50400001928E-02 0. -1.
        1   -1    0    0  501    0  0.00000000000E+00  0.00000000000E+00 -0.14317475950E+04  0.14317475950E+04  0.50400001928E-02 0.  1.
    10030    2    1    2    0    0  0.00000000000E+00  0.00000000000E+00 -0.49690068400E+03  0.23665945060E+04  0.23138408039E+04 0.  0.
        5    1    3    3  502    0  0.20340550387E+02  0.73291732631E+03  0.66686132516E+03  0.99111435374E+03  0.46999998093E+01 0. -1.
       -5    1    3    3    0  502 -0.20340550387E+02 -0.73291732631E+03 -0.11637620092E+04  0.13754801522E+04  0.46999998093E+01 0.  1.
</event>
<event>
 5   0  0.7278815E-06  0.2298853E+04  0.7818609E-02  0.8478373E-01
       -1   -1    0    0    0  501  0.00000000000E+00  0.00000000000E+00  0.74142691677E+03  0.74142691679E+03  0.50400001928E-02 0. -1.
        1   -1    0    0  501    0  0.00000000000E+00  0.00000000000E+00 -0.17819446819E+04  0.17819446819E+04  0.50400001928E-02 0.  1.
    10030    2    1    2    0    0  0.00000000000E+00  0.00000000000E+00 -0.10405177651E+04  0.25233715987E+04  0.22988534110E+04 0.  0.
        5    1    3    3  502    0  0.19971324033E+03  0.11191809230E+04 -0.70624220700E+03  0.13383764275E+04  0.46999998093E+01 0.  1.
       -5    1    3    3    0  502 -0.19971324033E+03 -0.11191809230E+04 -0.33427555809E+03  0.11849951711E+04  0.46999998093E+01 0. -1.
</event>
<event>
 5   0  0.7416556E-06  0.2291112E+04  0.7818609E-02  0.8481434E-01
       -1   -1    0    0    0  501  0.00000000000E+00  0.00000000000E+00  0.62391203425E+03  0.62391203427E+03  0.50400001928E-02 0.  1.
        1   -1    0    0  501    0  0.00000000000E+00  0.00000000000E+00 -0.21033384811E+04  0.21033384811E+04  0.50400001928E-02 0. -1.
    10030    2    1    2    0    0  0.00000000000E+00  0.00000000000E+00 -0.14794264468E+04  0.27272505153E+04  0.22911116869E+04 0.  0.
        4    1    3    3  502    0  0.20723260661E+03 -0.41940000067E+03 -0.19844548177E+04  0.20388487561E+04  0.12699999809E+01 0. -1.
       -4    1    3    3    0  502 -0.20723260661E+03  0.41940000067E+03  0.50502837090E+03  0.68840175924E+03  0.12699999809E+01 0.  1.
</event>
<event>
 5   0  0.7183014E-06  0.2353620E+04  0.7818609E-02  0.8457075E-01
       -1   -1    0    0    0  501  0.00000000000E+00  0.00000000000E+00  0.55227032237E+03  0.55227032239E+03  0.50400001928E-02 0.  1.
        1   -1    0    0  501    0  0.00000000000E+00  0.00000000000E+00 -0.25076147979E+04  0.25076147979E+04  0.50400001928E-02 0. -1.
    10030    2    1    2    0    0  0.00000000000E+00  0.00000000000E+00 -0.19553444755E+04  0.30598851203E+04  0.23536195384E+04 0.  0.
        3    1    3    3  502    0  0.10796388010E+04  0.10087247578E+03 -0.38320029117E+03  0.11500598551E+04  0.10100000352E+00 0.  1.
       -3    1    3    3    0  502 -0.10796388010E+04 -0.10087247578E+03 -0.15721441843E+04  0.19098252652E+04  0.10100000352E+00 0. -1.
</event>
<event>
 5   0  0.7183014E-06  0.2303628E+04  0.7818609E-02  0.8476492E-01
        1   -1    0    0  501    0  0.00000000000E+00  0.00000000000E+00  0.19832055241E+04  0.19832055241E+04  0.50400001928E-02 0.  1.
       -1   -1    0    0    0  501  0.00000000000E+00  0.00000000000E+00 -0.66895521789E+03  0.66895521791E+03  0.50400001928E-02 0. -1.
    10030    2    1    2    0    0  0.00000000000E+00  0.00000000000E+00  0.13142503062E+04  0.26521607420E+04  0.23036281675E+04 0.  0.
        3    1    3    3  502    0  0.67041493572E+03  0.33660703245E+03  0.16633847509E+04  0.18247217103E+04  0.10100000352E+00 0.  1.
       -3    1    3    3    0  502 -0.67041493572E+03 -0.33660703245E+03 -0.34913444478E+03  0.82743903163E+03  0.10100000352E+00 0. -1.
</event>
<event>
 5   0  0.7416556E-06  0.2307220E+04  0.7818609E-02  0.8475080E-01
        1   -1    0    0  501    0  0.00000000000E+00  0.00000000000E+00  0.65234282621E+03  0.65234282622E+03  0.50400001928E-02 0. -1.
       -1   -1    0    0    0  501  0.00000000000E+00  0.00000000000E+00 -0.20400565657E+04  0.20400565657E+04  0.50400001928E-02 0.  1.
    10030    2    1    2    0    0  0.00000000000E+00  0.00000000000E+00 -0.13877137395E+04  0.26923993919E+04  0.23072202025E+04 0.  0.
        4    1    3    3  502    0 -0.25236232885E+03 -0.87059921140E+03  0.13884244051E+03  0.91701066956E+03  0.12699999809E+01 0. -1.
       -4    1    3    3    0  502  0.25236232885E+03  0.87059921140E+03 -0.15265561800E+04  0.17753887223E+04  0.12699999809E+01 0.  1.
</event>
<event>
 5   0  0.7183014E-06  0.2335324E+04  0.7818609E-02  0.8464122E-01
       -1   -1    0    0    0  501  0.00000000000E+00  0.00000000000E+00  0.12112348406E+04  0.12112348407E+04  0.50400001928E-02 0. -1.
        1   -1    0    0  501    0  0.00000000000E+00  0.00000000000E+00 -0.11256566258E+04  0.11256566258E+04  0.50400001928E-02 0.  1.
    10030    2    1    2    0    0  0.00000000000E+00  0.00000000000E+00  0.85578214866E+02  0.23368914665E+04  0.23353239808E+04 0.  0.
        3    1    3    3  502    0  0.15523947735E+03 -0.83966199963E+03  0.83975505870E+03  0.11976310524E+04  0.10100000352E+00 0. -1.
       -3    1    3    3    0  502 -0.15523947735E+03  0.83966199963E+03 -0.75417684384E+03  0.11392604140E+04  0.10100000352E+00 0.  1.
</event>
<event>
 5   0  0.7391007E-06  0.2299611E+04  0.7818609E-02  0.8478074E-01
       -1   -1    0    0    0  501  0.00000000000E+00  0.00000000000E+00  0.17758376159E+04  0.17758376159E+04  0.50400001928E-02 0.  1.
        1   -1    0    0  501    0  0.00000000000E+00  0.00000000000E+00 -0.74446717425E+03  0.74446717426E+03  0.50400001928E-02 0. -1.
    10030    2    1    2    0    0  0.00000000000E+00  0.00000000000E+00  0.10313704416E+04  0.25203047901E+04  0.22996111078E+04 0.  0.
        1    1    3    3  502    0 -0.96854283456E+03 -0.56816425486E+03  0.78674004865E+03  0.13710746687E+04  0.50400001928E-02 0.  1.
       -1    1    3    3    0  502  0.96854283456E+03  0.56816425486E+03  0.24463039296E+03  0.11492301215E+04  0.50400001928E-02 0. -1.
</event>
<event>
 5   0  0.7278815E-06  0.2297007E+04  0.7818609E-02  0.8479102E-01
        1   -1    0    0  501    0  0.00000000000E+00  0.00000000000E+00  0.16121255886E+04  0.16121255886E+04  0.50400001928E-02 0.  1.
       -1   -1    0    0    0  501  0.00000000000E+00  0.00000000000E+00 -0.81821160326E+03  0.81821160328E+03  0.50400001928E-02 0. -1.
    10030    2    1    2    0    0  0.00000000000E+00  0.00000000000E+00  0.79391398529E+03  0.24303371918E+04  0.22970066282E+04 0.  0.
        5    1    3    3  502    0  0.98298604259E+03  0.23565835493E+03  0.97380168223E+03  0.14036054383E+04  0.46999998093E+01 0.  1.
       -5    1    3    3    0  502 -0.98298604259E+03 -0.23565835493E+03 -0.17988769694E+03  0.10267317535E+04  0.46999998093E+01 0. -1.
</event>
<event>
 5   0  0.1602809E-05  0.2299469E+04  0.7818609E-02  0.8478130E-01
       -2   -1    0    0    0  501  0.00000000000E+00  0.00000000000E+00  0.10592146322E+04  0.10592146322E+04  0.25500000920E-02 0.  1.
        2   -1    0    0  501    0  0.00000000000E+00  0.00000000000E+00 -0.12479906263E+04  0.12479906263E+04  0.25500000920E-02 0. -1.
    10030    2    1    2    0    0  0.00000000000E+00  0.00000000000E+00 -0.18877599418E+03  0.23072052585E+04  0.22994694451E+04 0.  0.
        3    1    3    3  502    0  0.95014640078E+03 -0.18169026651E+03 -0.71784815865E+03  0.12046142640E+04  0.10100000352E+00 0. -1.
       -3    1    3    3    0  502 -0.95014640078E+03  0.18169026651E+03  0.52907216447E+03  0.11025909946E+04  0.10100000352E+00 0.  1.
</event>
<event>
 5   0  0.1635955E-05  0.2306705E+04  0.7818609E-02  0.8475282E-01
       -2   -1    0    0    0  501  0.00000000000E+00  0.00000000000E+00  0.96897839118E+03  0.96897839118E+03  0.25500000920E-02 0.  1.
        2   -1    0    0  501    0  0.00000000000E+00  0.00000000000E+00 -0.13728089257E+04  0.13728089257E+04  0.25500000920E-02 0. -1.
    10030    2    1    2    0    0  0.00000000000E+00  0.00000000000E+00 -0.40383053453E+03  0.23417873169E+04  0.23067051691E+04 0.  0.
        2    1    3    3  502    0  0.85450264173E+03 -0.77082123319E+03 -0.27977619385E+03  0.11843204199E+04  0.25500000920E-02 0.  1.
       -2    1    3    3    0  502 -0.85450264173E+03  0.77082123319E+03 -0.12405434068E+03  0.11574668970E+04  0.25500000920E-02 0. -1.
</event>
<event>
 5   0  0.7278815E-06  0.2425158E+04  0.7818609E-02  0.8430144E-01
       -1   -1    0    0    0  501  0.00000000000E+00  0.00000000000E+00  0.70381313759E+03  0.70381313760E+03  0.50400001928E-02 0. -1.
        1   -1    0    0  501    0  0.00000000000E+00  0.00000000000E+00 -0.20891169905E+04  0.20891169905E+04  0.50400001928E-02 0.  1.
    10030    2    1    2    0    0  0.00000000000E+00  0.00000000000E+00 -0.13853038529E+04  0.27929301281E+04  0.24251581259E+04 0.  0.
        5    1    3    3  502    0  0.37888556958E+03  0.25903705274E+03  0.59990193310E+03  0.75535348603E+03  0.46999998093E+01 0. -1.
       -5    1    3    3    0  502 -0.37888556958E+03 -0.25903705274E+03 -0.19852057860E+04  0.20375766420E+04  0.46999998093E+01 0.  1.
</event>
<event>
 5   0  0.1602809E-05  0.2294439E+04  0.7818609E-02  0.8480117E-01
       -2   -1    0    0    0  501  0.00000000000E+00  0.00000000000E+00  0.92001884235E+03  0.92001884236E+03  0.25500000920E-02 0. -1.
        2   -1    0    0  501    0  0.00000000000E+00  0.00000000000E+00 -0.14305279704E+04  0.14305279704E+04  0.25500000920E-02 0.  1.
    10030    2    1    2    0    0  0.00000000000E+00  0.00000000000E+00 -0.51050912805E+03  0.23505468128E+04  0.22944390925E+04 0.  0.
        3    1    3    3  502    0 -0.56733933210E+03  0.83250213040E+03 -0.81747248856E+03  0.12973800502E+04  0.10100000352E+00 0.  1.
       -3    1    3    3    0  502  0.56733933210E+03 -0.83250213040E+03  0.30696336052E+03  0.10531667626E+04  0.10100000352E+00 0. -1.
</event>
<event>
 5   0  0.1588969E-05  0.2299847E+04  0.7818609E-02  0.8477981E-01
       -2   -1    0    0    0  501  0.00000000000E+00  0.00000000000E+00  0.16080367717E+04  0.16080367717E+04  0.25500000920E-02 0.  1.
        2   -1    0    0  501    0  0.00000000000E+00  0.00000000000E+00 -0.82232211140E+03  0.82232211140E+03  0.25500000920E-02 0. -1.
    10030    2    1    2    0    0  0.00000000000E+00  0.00000000000E+00  0.78571466031E+03  0.24303588831E+04  0.22998471195E+04 0.  0.
        1    1    3    3  502    0 -0.47189055927E+03  0.78044923988E+03  0.11329903016E+04  0.14544582288E+04  0.50400001928E-02 0.  1.
       -1    1    3    3    0  502  0.47189055927E+03 -0.78044923988E+03 -0.34727564126E+03  0.97590065427E+03  0.50400001928E-02 0. -1.
</event>
<event>
 5   0  0.1626636E-05  0.2298428E+04  0.7818609E-02  0.8478541E-01
        2   -1    0    0  501    0  0.00000000000E+00  0.00000000000E+00  0.50147073065E+03  0.50147073066E+03  0.25500000920E-02 0.  1.
       -2   -1    0    0    0  501  0.00000000000E+00  0.00000000000E+00 -0.26336394979E+04  0.26336394979E+04  0.25500000920E-02 0. -1.
    10030    2    1    2    0    0  0.00000000000E+00  0.00000000000E+00 -0.21321687673E+04  0.31351102286E+04  0.22984282658E+04 0.  0.
        4    1    3    3  502    0 -0.98843977935E+03 -0.39716353166E+02 -0.18638934821E+04  0.21101400692E+04  0.12699999809E+01 0. -1.
       -4    1    3    3    0  502  0.98843977935E+03  0.39716353166E+02 -0.26827528519E+03  0.10249701594E+04  0.12699999809E+01 0.  1.
</event>
<event>
 5   0  0.1635955E-05  0.2288953E+04  0.7818609E-02  0.8482290E-01
       -2   -1    0    0    0  501  0.00000000000E+00  0.00000000000E+00  0.58129938766E+03  0.58129938767E+03  0.25500000920E-02 0.  1.
        2   -1    0    0  501    0  0.00000000000E+00  0.00000000000E+00 -0.22532729931E+04  0.22532729931E+04  0.25500000920E-02 0. -1.
    10030    2    1    2    0    0  0.00000000000E+00  0.00000000000E+00 -0.16719736054E+04  0.28345723807E+04  0.22889527834E+04 0.  0.
        2    1    3    3  502    0  0.42002513615E+03 -0.23376700333E+03 -0.21221993702E+04  0.21759591664E+04  0.25500000920E-02 0. -1.
       -2    1    3    3    0  502 -0.42002513615E+03  0.23376700333E+03  0.45022576480E+03  0.65861321436E+03  0.25500000920E-02 0.  1.
</event>
<event>
 5   0  0.7278815E-06  0.2298795E+04  0.7818609E-02  0.8478396E-01
       -1   -1    0    0    0  501  0.00000000000E+00  0.00000000000E+00  0.68844065458E+03  0.68844065460E+03  0.50400001928E-02 0.  1.
        1   -1    0    0  501    0  0.00000000000E+00  0.00000000000E+00 -0.19189957953E+04  0.19189957953E+04  0.50400001928E-02 0. -1.
    10030    2    1    2    0    0  0.00000000000E+00  0.00000000000E+00 -0.12305551408E+04  0.26074364499E+04  0.22987950944E+04 0.  0.
        5    1    3    3  502    0  0.10308781604E+04 -0.24029889071E+03 -0.11233451291E+04  0.15434959370E+04  0.46999998093E+01 0. -1.
       -5    1    3    3    0  502 -0.10308781604E+04  0.24029889071E+03 -0.10721001169E+03  0.10639405130E+04  0.46999998093E+01 0.  1.
</event>
<event>
 5   0  0.1635955E-05  0.2296333E+04  0.7818609E-02  0.8479368E-01
        2   -1    0    0  501    0  0.00000000000E+00  0.00000000000E+00  0.13376328256E+04  0.13376328256E+04  0.25500000920E-02 0.  1.
       -2   -1    0    0    0  501  0.00000000000E+00  0.00000000000E+00 -0.98553649883E+03  0.98553649883E+03  0.25500000920E-02 0. -1.
    10030    2    1    2    0    0  0.00000000000E+00  0.00000000000E+00  0.35209632678E+03  0.23231693244E+04  0.22963327038E+04 0.  0.
        2    1    3    3  502    0  0.94507460498E+02 -0.90162700035E+03  0.88885528308E+03  0.12696167225E+04  0.25500000920E-02 0.  1.
       -2    1    3    3    0  502 -0.94507460498E+02  0.90162700035E+03 -0.53675895630E+03  0.10535526019E+04  0.25500000920E-02 0. -1.
</event>
<event>
 5   0  0.7278815E-06  0.2370831E+04  0.7818609E-02  0.8450505E-01
       -1   -1    0    0    0  501  0.00000000000E+00  0.00000000000E+00  0.83784165924E+03  0.83784165925E+03  0.50400001928E-02 0.  1.
        1   -1    0    0  501    0  0.00000000000E+00  0.00000000000E+00 -0.16771786003E+04  0.16771786003E+04  0.50400001928E-02 0. -1.
    10030    2    1    2    0    0  0.00000000000E+00  0.00000000000E+00 -0.83933694106E+03  0.25150202596E+04  0.23708311634E+04 0.  0.
        5    1    3    3  502    0  0.15031094195E+03 -0.27222709038E+03  0.79379183388E+03  0.85254239398E+03  0.46999998093E+01 0.  1.
       -5    1    3    3    0  502 -0.15031094195E+03  0.27222709038E+03 -0.16331287749E+04  0.16624778656E+04  0.46999998093E+01 0. -1.
</event>
<event>
 5   0  0.7416556E-06  0.2306673E+04  0.7818609E-02  0.8475295E-01
        1   -1    0    0  501    0  0.00000000000E+00  0.00000000000E+00  0.91586133918E+03  0.91586133919E+03  0.50400001928E-02 0.  1.
       -1   -1    0    0    0  501  0.00000000000E+00  0.00000000000E+00 -0.14523863842E+04  0.14523863842E+04  0.50400001928E-02 0. -1.
    10030    2    1    2    0    0  0.00000000000E+00  0.00000000000E+00 -0.53652504506E+03  0.23682477234E+04  0.23066725289E+04 0.  0.
        4    1    3    3  502    0  0.10379273248E+04  0.37485837999E+02  0.24660664868E+03  0.10674805720E+04  0.12699999809E+01 0.  1.
       -4    1    3    3    0  502 -0.10379273248E+04 -0.37485837999E+02 -0.78313169375E+03  0.13007671514E+04  0.12699999809E+01 0. -1.
</event>
<event>
 5   0  0.7202572E-06  0.2302287E+04  0.7818609E-02  0.8477020E-01
        1   -1    0    0  501    0  0.00000000000E+00  0.00000000000E+00  0.19938547388E+04  0.19938547389E+04  0.50400001928E-02 0.  1.
       -1   -1    0    0    0  501  0.00000000000E+00  0.00000000000E+00 -0.66460756818E+03  0.66460756820E+03  0.50400001928E-02 0. -1.
    10030    2    1    2    0    0  0.00000000000E+00  0.00000000000E+00  0.13292471707E+04  0.26584623071E+04  0.23022866453E+04 0.  0.
        2    1    3    3  502    0  0.64525515383E+02  0.36147218451E+03  0.19244197748E+04  0.19591368385E+04  0.25500000920E-02 0.  1.
       -2    1    3    3    0  502 -0.64525515383E+02 -0.36147218451E+03 -0.59517260412E+03  0.69932546858E+03  0.25500000920E-02 0. -1.
</event>
<event>
 5   0  0.7416556E-06  0.2298570E+04  0.7818609E-02  0.8478485E-01
       -1   -1    0    0    0  501  0.00000000000E+00  0.00000000000E+00  0.73218361865E+03  0.73218361867E+03  0.50400001928E-02 0. -1.
        1   -1    0    0  501    0  0.00000000000E+00  0.00000000000E+00 -0.18039951952E+04  0.18039951952E+04  0.50400001928E-02 0.  1.
    10030    2    1    2    0    0  0.00000000000E+00  0.00000000000E+00 -0.10718115766E+04  0.25361788139E+04  0.22985697554E+04 0.  0.
        4    1    3    3  502    0 -0.28363648902E+01  0.16823032877E+03  0.71851994920E+03  0.73795800611E+03  0.12699999809E+01 0. -1.
       -4    1    3    3    0  502  0.28363648902E+01 -0.16823032877E+03 -0.17903315258E+04  0.17982208078E+04  0.12699999809E+01 0.  1.
</event>
<event>
 5   0  0.1588969E-05  0.2298861E+04  0.7818609E-02  0.8478370E-01
        2   -1    0    0  501    0  0.00000000000E+00  0.00000000000E+00  0.18253683371E+04  0.18253683371E+04  0.25500000920E-02 0. -1.
       -2   -1    0    0    0  501  0.00000000000E+00  0.00000000000E+00 -0.72379370944E+03  0.72379370945E+03  0.25500000920E-02 0.  1.
    10030    2    1    2    0    0  0.00000000000E+00  0.00000000000E+00  0.11015746277E+04  0.25491620465E+04  0.22988606916E+04 0.  0.
        1    1    3    3  502    0 -0.56617791171E+03 -0.63600613950E+03 -0.30537256376E+03  0.90460689800E+03  0.50400001928E-02 0.  1.
       -1    1    3    3    0  502  0.56617791171E+03  0.63600613950E+03  0.14069471914E+04  0.16445551486E+04  0.50400001928E-02 0. -1.
</event>
<event>
 5   0  0.1626636E-05  0.2292735E+04  0.7818609E-02  0.8480791E-01
        2   -1    0    0  501    0  0.00000000000E+00  0.00000000000E+00  0.14128669642E+04  0.14128669642E+04  0.25500000920E-02 0.  1.
       -2   -1    0    0    0  501  0.00000000000E+00  0.00000000000E+00 -0.93013594337E+03  0.93013594337E+03  0.25500000920E-02 0. -1.
    10030    2    1    2    0    0  0.00000000000E+00  0.00000000000E+00  0.48273102079E+03  0.23430029075E+04  0.22927349141E+04 0.  0.
        4    1    3    3  502    0  0.79288081887E+03  0.26166628076E+03  0.10440987425E+04  0.13368893119E+04  0.12699999809E+01 0.  1.
       -4    1    3    3    0  502 -0.79288081887E+03 -0.26166628076E+03 -0.56136772168E+03  0.10061135956E+04  0.12699999809E+01 0. -1.
</event>
<event>
 5   0  0.7183014E-06  0.2287329E+04  0.7818609E-02  0.8482934E-01
        1   -1    0    0  501    0  0.00000000000E+00  0.00000000000E+00  0.13759216314E+04  0.13759216314E+04  0.50400001928E-02 0.  1.
       -1   -1    0    0    0  501  0.00000000000E+00  0.00000000000E+00 -0.95061300311E+03  0.95061300312E+03  0.50400001928E-02 0. -1.
    10030    2    1    2    0    0  0.00000000000E+00  0.00000000000E+00  0.42530862825E+03  0.23265346345E+04  0.22873294420E+04 0.  0.
        3    1    3    3  502    0 -0.60097318621E+03  0.66179373140E+03  0.93820347649E+03  0.12959033478E+04  0.10100000352E+00 0.  1.
       -3    1    3    3    0  502  0.60097318621E+03 -0.66179373140E+03 -0.51289484824E+03  0.10306312866E+04  0.10100000352E+00 0. -1.
</event>
<event>
 5   0  0.1602809E-05  0.2316778E+04  0.7818609E-02  0.8471335E-01
       -2   -1    0    0    0  501  0.00000000000E+00  0.00000000000E+00  0.10149028010E+04  0.10149028010E+04  0.25500000920E-02 0.  1.
        2   -1    0    0  501    0  0.00000000000E+00  0.00000000000E+00 -0.13221608077E+04  0.13221608077E+04  0.25500000920E-02 0. -1.
    10030    2    1    2    0    0  0.00000000000E+00  0.00000000000E+00 -0.30725800676E+03  0.23370636087E+04  0.23167776821E+04 0.  0.
        3    1    3    3  502    0  0.17767655217E+03  0.10352511227E+04  0.33906429900E+03  0.11037565191E+04  0.10100000352E+00 0.  1.
       -3    1    3    3    0  502 -0.17767655217E+03 -0.10352511227E+04 -0.64632230575E+03  0.12333070897E+04  0.10100000352E+00 0. -1.
</event>
<event>
 5   0  0.7183014E-06  0.2367249E+04  0.7818609E-02  0.8451868E-01
       -1   -1    0    0    0  501  0.00000000000E+00  0.00000000000E+00  0.64032178732E+03  0.64032178734E+03  0.50400001928E-02 0. -1.
        1   -1    0    0  501    0  0.00000000000E+00  0.00000000000E+00 -0.21879110916E+04  0.21879110916E+04  0.50400001928E-02 0.  1.
    10030    2    1    2    0    0  0.00000000000E+00  0.00000000000E+00 -0.15475893043E+04  0.28282328790E+04  0.23672491552E+04 0.  0.
        3    1    3    3  502    0 -0.97006393278E+03  0.17669440644E+03  0.84798493611E+01  0.98606128866E+03  0.10100000352E+00 0. -1.
       -3    1    3    3    0  502  0.97006393278E+03 -0.17669440644E+03 -0.15560691537E+04  0.18421715903E+04  0.10100000352E+00 0.  1.
</event>
<event>
 5   0  0.7202572E-06  0.2289614E+04  0.7818609E-02  0.8482027E-01
       -1   -1    0    0    0  501  0.00000000000E+00  0.00000000000E+00  0.12904492870E+04  0.12904492870E+04  0.50400001928E-02 0. -1.
        1   -1    0    0  501    0  0.00000000000E+00  0.00000000000E+00 -0.10156024527E+04  0.10156024527E+04  0.50400001928E-02 0.  1.
    10030    2    1    2    0    0  0.00000000000E+00  0.00000000000E+00  0.27484683428E+03  0.23060517397E+04  0.22896143440E+04 0.  0.
        2    1    3    3  502    0  0.53102258289E+03  0.34699091379E+02 -0.88345804508E+03  0.10313520873E+04  0.25500000920E-02 0.  1.
       -2    1    3    3    0  502 -0.53102258289E+03 -0.34699091379E+02  0.11583048794E+04  0.12746996525E+04  0.25500000920E-02 0. -1.
</event>
<event>
 5   0  0.1635955E-05  0.2289695E+04  0.7818609E-02  0.8481995E-01
        2   -1    0    0  501    0  0.00000000000E+00  0.00000000000E+00  0.24123866831E+04  0.24123866831E+04  0.25500000920E-02 0.  1.
       -2   -1    0    0    0  501  0.00000000000E+00  0.00000000000E+00 -0.54331105729E+03  0.54331105729E+03  0.25500000920E-02 0. -1.
    10030    2    1    2    0    0  0.00000000000E+00  0.00000000000E+00  0.18690756259E+04  0.29556977404E+04  0.22896954902E+04 0.  0.
        2    1    3    3  502    0  0.39785402517E+03 -0.10726989833E+04  0.88122904522E+03  0.14441383466E+04  0.25500000920E-02 0. -1.
       -2    1    3    3    0  502 -0.39785402517E+03  0.10726989833E+04  0.98784658063E+03  0.15115593938E+04  0.25500000920E-02 0.  1.
</event>
<event>
 5   0  0.7278815E-06  0.2296358E+04  0.7818609E-02  0.8479358E-01
        1   -1    0    0  501    0  0.00000000000E+00  0.00000000000E+00  0.16460361185E+04  0.16460361185E+04  0.50400001928E-02 0. -1.
       -1   -1    0    0    0  501  0.00000000000E+00  0.00000000000E+00 -0.80090293558E+03  0.80090293559E+03  0.50400001928E-02 0.  1.
    10030    2    1    2    0    0  0.00000000000E+00  0.00000000000E+00  0.84513318292E+03  0.24469390541E+04  0.22963581249E+04 0.  0.
        5    1    3    3  502    0 -0.79822625539E+03  0.31497428318E+03  0.12354248933E+04  0.15042176408E+04  0.46999998093E+01 0. -1.
       -5    1    3    3    0  502  0.79822625539E+03 -0.31497428318E+03 -0.39029171041E+03  0.94272141329E+03  0.46999998093E+01 0.  1.
</event>
<event>
 5   0  0.7391007E-06  0.2306457E+04  0.7818609E-02  0.8475380E-01
        1   -1    0    0  501    0  0.00000000000E+00  0.00000000000E+00  0.11489071423E+04  0.11489071423E+04  0.50400001928E-02 0.  1.
       -1   -1    0    0    0  501  0.00000000000E+00  0.00000000000E+00 -0.11575660806E+04  0.11575660807E+04  0.50400001928E-02 0. -1.
    10030    2    1    2    0    0  0.00000000000E+00  0.00000000000E+00 -0.86589383224E+01  0.23064732230E+04  0.23064569693E+04 0.  0.
        1    1    3    3  502    0  0.63739678706E+03  0.13011729178E+03 -0.95656029390E+03  0.11568114668E+04  0.50400001928E-02 0. -1.
       -1    1    3    3    0  502 -0.63739678706E+03 -0.13011729178E+03  0.94790135558E+03  0.11496617562E+04  0.50400001928E-02 0.  1.
</event>
<event>
 5   0  0.1626636E-05  0.2286449E+04  0.7818609E-02  0.8483283E-01
        2   -1    0    0  501    0  0.00000000000E+00  0.00000000000E+00  0.10418743249E+04  0.10418743249E+04  0.25500000920E-02 0.  1.
       -2   -1    0    0    0  501  0.00000000000E+00  0.00000000000E+00 -0.12544334300E+04  0.12544334300E+04  0.25500000920E-02 0. -1.
    10030    2    1    2    0    0  0.00000000000E+00  0.00000000000E+00 -0.21255910503E+03  0.22963077549E+04  0.22864487600E+04 0.  0.
        4    1    3    3  502    0 -0.87940814224E+02 -0.83872358656E+03 -0.88146884056E+03  0.12199097390E+04  0.12699999809E+01 0. -1.
       -4    1    3    3    0  502  0.87940814224E+02  0.83872358656E+03  0.66890973553E+03  0.10763980159E+04  0.12699999809E+01 0.  1.
</event>
<event>
 5   0  0.7391007E-06  0.2306640E+04  0.7818609E-02  0.8475308E-01
       -1   -1    0    0    0  501  0.00000000000E+00  0.00000000000E+00  0.12212081178E+04  0.12212081178E+04  0.50400001928E-02 0.  1.
        1   -1    0    0  501    0  0.00000000000E+00  0.00000000000E+00 -0.10892057752E+04  0.10892057752E+04  0.50400001928E-02 0. -1.
    10030    2    1    2    0    0  0.00000000000E+00  0.00000000000E+00  0.13200234259E+03  0.23104138929E+04  0.23066399238E+04 0.  0.
        1    1    3    3  502    0 -0.10123875892E+04  0.36788337676E+02  0.61814251377E+03  0.11867527881E+04  0.50400001928E-02 0.  1.
       -1    1    3    3    0  502  0.10123875892E+04 -0.36788337676E+02 -0.48614017119E+03  0.11236611049E+04  0.50400001928E-02 0. -1.
</event>
<event>
 5   0  0.1626636E-05  0.2312149E+04  0.7818609E-02  0.8473146E-01
        2   -1    0    0  501    0  0.00000000000E+00  0.00000000000E+00  0.89095062929E+03  0.89095062930E+03  0.25500000920E-02 0. -1.
       -2   -1    0    0    0  501  0.00000000000E+00  0.00000000000E+00 -0.15000922356E+04  0.15000922356E+04  0.25500000920E-02 0.  1.
    10030    2    1    2    0    0  0.00000000000E+00  0.00000000000E+00 -0.60914160634E+03  0.23910428649E+04  0.23121488891E+04 0.  0.
        4    1    3    3  502    0  0.70538583795E+03 -0.89934412718E+03 -0.12510537436E+03  0.11498008554E+04  0.12699999809E+01 0.  1.
       -4    1    3    3    0  502 -0.70538583795E+03  0.89934412718E+03 -0.48403623198E+03  0.12412420095E+04  0.12699999809E+01 0. -1.
</event>
<event>
 5   0  0.1697855E-05  0.2317287E+04  0.7818609E-02  0.8471136E-01
        2   -1    0    0  501    0  0.00000000000E+00  0.00000000000E+00  0.94869341327E+03  0.94869341327E+03  0.25500000920E-02 0.  1.
       -2   -1    0    0    0  501  0.00000000000E+00  0.00000000000E+00 -0.14150566061E+04  0.14150566061E+04  0.25500000920E-02 0. -1.
    10030    2    1    2    0    0  0.00000000000E+00  0.00000000000E+00 -0.46636319288E+03  0.23637500194E+04  0.23172871049E+04 0.  0.
        5    1    3    3  502    0 -0.62516000526E+03  0.89809092646E+03 -0.62165945022E+03  0.12585209201E+04  0.46999998093E+01 0. -1.
       -5    1    3    3    0  502  0.62516000526E+03 -0.89809092646E+03  0.15529625734E+03  0.11052290993E+04  0.46999998093E+01 0.  1.
</event>
<event>
 5   0  0.7416556E-06  0.2306499E+04  0.7818609E-02  0.8475363E-01
        1   -1    0    0  501    0  0.00000000000E+00  0.00000000000E+00  0.12253069802E+04  0.12253069802E+04  0.50400001928E-02 0. -1.
       -1   -1    0    0    0  501  0.00000000000E+00  0.00000000000E+00 -0.10854294830E+04  0.10854294831E+04  0.50400001928E-02 0.  1.
    10030    2    1    2    0    0  0.00000000000E+00  0.00000000000E+00  0.13987749717E+03  0.23107364633E+04  0.23064989244E+04 0.  0.
        4    1    3    3  502    0 -0.41497720382E+03 -0.10759385597E+04  0.58391720047E+02  0.11546692469E+04  0.12699999809E+01 0. -1.
       -4    1    3    3    0  502  0.41497720382E+03  0.10759385597E+04  0.81485777125E+02  0.11560672163E+04  0.12699999809E+01 0.  1.
</event>
<event>
 5   0  0.1697855E-05  0.2302576E+04  0.7818609E-02  0.8476906E-01
       -2   -1    0    0    0  501  0.00000000000E+00  0.00000000000E+00  0.83680077568E+03  0.83680077568E+03  0.25500000920E-02 0.  1.
        2   -1    0    0  501    0  0.00000000000E+00  0.00000000000E+00 -0.15839660391E+04  0.15839660391E+04  0.25500000920E-02 0. -1.
    10030    2    1    2    0    0  0.00000000000E+00  0.00000000000E+00 -0.74716526346E+03  0.24207668148E+04  0.23025759577E+04 0.  0.
        5    1    3    3  502    0 -0.77758896035E+03  0.82410230629E+03 -0.15901675127E+03  0.11441580396E+04  0.46999998093E+01 0.  1.
       -5    1    3    3    0  502  0.77758896035E+03 -0.82410230629E+03 -0.58814851219E+03  0.12766087752E+04  0.46999998093E+01 0. -1.
</event>
<event>
 5   0  0.7202572E-06  0.2301570E+04  0.7818609E-02  0.8477302E-01
        1   -1    0    0  501    0  0.00000000000E+00  0.00000000000E+00  0.79597531925E+03  0.79597531927E+03  0.50400001928E-02 0.  1.
       -1   -1    0    0    0  501  0.00000000000E+00  0.00000000000E+00 -0.16637524956E+04  0.16637524956E+04  0.50400001928E-02 0. -1.
    10030    2    1    2    0    0  0.00000000000E+00  0.00000000000E+00 -0.86777717635E+03  0.24597278149E+04  0.23015698329E+04 0.  0.
        2    1    3    3  502    0 -0.97545913448E+03 -0.26073773300E+03  0.15613755792E+03  0.10217062325E+04  0.25500000920E-02 0.  1.
       -2    1    3    3    0  502  0.97545913448E+03  0.26073773300E+03 -0.10239147343E+04  0.14380215824E+04  0.25500000920E-02 0. -1.
</event>
<event>
 5   0  0.1635955E-05  0.2294556E+04  0.7818609E-02  0.8480071E-01
        2   -1    0    0  501    0  0.00000000000E+00  0.00000000000E+00  0.14541308979E+04  0.14541308979E+04  0.25500000920E-02 0. -1.
       -2   -1    0    0    0  501  0.00000000000E+00  0.00000000000E+00 -0.90517784892E+03  0.90517784893E+03  0.25500000920E-02 0.  1.
    10030    2    1    2    0    0  0.00000000000E+00  0.00000000000E+00  0.54895304896E+03  0.23593087468E+04  0.22945562344E+04 0.  0.
        2    1    3    3  502    0 -0.33425281334E+03  0.10570563891E+04  0.57802604255E+03  0.12502828716E+04  0.25500000920E-02 0. -1.
       -2    1    3    3    0  502  0.33425281334E+03 -0.10570563891E+04 -0.29072993589E+02  0.11090258753E+04  0.25500000920E-02 0.  1.
</event>
<event>
 5   0  0.7278815E-06  0.2302987E+04  0.7818609E-02  0.8476744E-01
        1   -1    0    0  501    0  0.00000000000E+00  0.00000000000E+00  0.10799093228E+04  0.10799093228E+04  0.50400001928E-02 0.  1.
       -1   -1    0    0    0  501  0.00000000000E+00  0.00000000000E+00 -0.12278229340E+04  0.12278229340E+04  0.50400001928E-02 0. -1.
    10030    2    1    2    0    0  0.00000000000E+00  0.00000000000E+00 -0.14791361118E+03  0.23077322568E+04  0.23029871326E+04 0.  0.
        5    1    3    3  502    0 -0.54170346506E+03 -0.52643223098E+03 -0.94485155070E+03  0.12096859430E+04  0.46999998093E+01 0. -1.
       -5    1    3    3    0  502  0.54170346506E+03  0.52643223098E+03  0.79693793952E+03  0.10980463138E+04  0.46999998093E+01 0.  1.
</event>
</LesHouchesEvents>
